Membrane in water
40344
    1TMC1    C1    1   2.987   2.606  11.270 -0.3523  0.4958  0.3285
    1TMC1    C2    2   3.000   2.731  11.322 -0.5423  0.1470  0.1551
    1TMC1    C3    3   3.102   2.810  11.282 -0.1003 -0.3577 -0.2635
    1TMC1    C4    4   3.082   2.548  11.187 -0.0681  0.0444  0.1310
    1TMC1    C5    5   3.183   2.639  11.152  0.1924 -0.3152 -0.4412
    1TMC1    C6    6   3.199   2.771  11.194  0.0633 -0.2114 -0.5142
    1TMC1     C    7   2.861   2.536  11.293  0.2204 -0.4117  0.0863
    1TMC1     O    8   2.796   2.565  11.393  0.3786  0.2689 -0.0271
    1TMC1     H    9   2.929   2.770  11.395 -1.8838 -2.0597  0.0245
    1TMC1    H1   10   3.077   2.450  11.141 -2.3799 -0.1503  0.7822
    1TMC1    H2   11   3.292   2.828  11.189 -1.3054  2.0733 -0.0654
    1TMC1    C7   12   3.259   2.593  11.039  0.8083  0.5351 -0.7771
    1TMC1    C8   13   3.100   2.953  11.315 -0.0756 -0.2810 -0.7360
    1TMC1    O1   14   3.243   2.479  11.001  0.0767  0.4433  0.2852
    1TMC1    O2   15   3.161   3.032  11.245 -0.8863 -0.1266 -0.1946
    1TMC1    O3   16   3.313   2.695  10.966  0.0706 -0.3187  0.1163
    1TMC1    H3   17   3.289   2.784  11.001 -0.0275  0.3004 -1.5333
    1TMC1    O5   18   3.047   2.982  11.440 -0.3622 -0.5533  0.2428
    1TMC1    H5   19   3.010   2.901  11.481  1.6101 -2.4534 -1.6870
    2MPD2     C   20   2.543   2.172  11.125 -0.3694 -0.0370 -0.9423
    2MPD2    C1   21   2.556   2.236  11.248  0.5709  0.4854 -0.9846
    2MPD2    C2   22   2.658   2.328  11.263  0.5432  0.2398  0.6313
    2MPD2    C3   23   2.750   2.354  11.166  0.2337  0.1531 -0.0745
    2MPD2    C4   24   2.740   2.298  11.041  0.3386  0.0982 -0.2304
    2MPD2    C5   25   2.634   2.210  11.029  0.3427 -0.0066 -0.3017
    2MPD2     H   26   2.666   2.384  11.355 -2.7363  1.0046  0.4683
    2MPD2    H1   27   2.789   2.327  10.948  1.3386  4.3510  1.6332
    2MPD2    H2   28   2.458   2.112  11.096 -0.1841 -1.4271  1.3532
    2MPD2    H3   29   2.621   2.164  10.932  0.7148 -1.5063  0.3399
    2MPD2     N   30   2.852   2.448  11.189 -0.0632  0.2494 -0.3263
    2MPD2    H5   31   2.912   2.462  11.108  0.0389  0.9950 -0.1189
    2MPD2    N1   32   2.465   2.220  11.361 -0.8637 -0.2227 -0.4718
    2MPD2    H7   33   2.484   2.277  11.442 -0.1630  1.4211 -1.7787
    3TMC1    C1   34   2.083   3.349  10.547 -0.2094  0.0356  0.0661
    3TMC1    C2   35   2.147   3.469  10.561 -0.0786  0.1868 -0.4603
    3TMC1    C3   36   2.189   3.541  10.455 -0.5309 -0.1697 -0.4531
    3TMC1    C4   37   2.083   3.286  10.420  0.5980  0.6885 -0.3290
    3TMC1    C5   38   2.124   3.368  10.316  0.1091  0.4128 -0.5303
    3TMC1    C6   39   2.166   3.496  10.328  0.1689 -0.3079  0.1108
    3TMC1     C   40   1.964   3.332  10.626  0.1828 -0.5839  0.3052
    3TMC1     O   41   1.899   3.228  10.604  0.5386 -0.2951  0.1695
    3TMC1     H   42   2.154   3.509  10.662  1.0034 -0.5788 -0.2273
    3TMC1    H1   43   2.055   3.182  10.403  1.1580  0.5517 -0.4204
    3TMC1    H2   44   2.196   3.550  10.239 -2.3674  0.4159 -0.2841
    3TMC1    C7   45   2.140   3.317  10.180 -0.3277  0.1002  0.1865
    3TMC1    C8   46   2.199   3.682  10.485 -0.1618 -0.6359  0.8401
    3TMC1    O1   47   2.222   3.355  10.100 -0.0414  0.6961 -0.1684
    3TMC1    O2   48   2.142   3.731  10.577  0.3347  0.3179  0.3636
    3TMC1    O3   49   2.044   3.228  10.156 -0.1320  0.1987  0.2141
    3TMC1    H3   50   1.983   3.216  10.232 -0.0408 -2.1221 -0.0862
    3TMC1    O5   51   2.241   3.742  10.369 -0.2478  0.2181 -0.2004
    3TMC1    H5   52   2.312   3.692  10.324 -0.2499 -1.2683  1.4438
    4MPD2     C   53   1.593   3.511  10.930 -0.1425  0.0606  0.1594
    4MPD2    C1   54   1.659   3.621  10.880  0.4127 -0.4450  0.2911
    4MPD2    C2   55   1.766   3.602  10.792  0.4212 -0.0427  0.0158
    4MPD2    C3   56   1.803   3.468  10.749 -0.3822  0.5757 -0.6715
    4MPD2    C4   57   1.738   3.364  10.816  0.6255 -0.1916 -0.4168
    4MPD2    C5   58   1.633   3.384  10.897 -0.3089  1.0144  0.0313
    4MPD2     H   59   1.821   3.687  10.755 -0.8320  0.9234  0.3796
    4MPD2    H1   60   1.758   3.259  10.798 -0.7046 -0.3883 -0.6921
    4MPD2    H2   61   1.508   3.514  10.998  0.2329  1.0910  0.5734
    4MPD2    H3   62   1.578   3.300  10.938 -1.0429  1.4416 -0.0829
    4MPD2     N   63   1.920   3.454  10.674  0.4313  0.2717 -0.4962
    4MPD2    H5   64   1.973   3.532  10.637 -1.4729  1.7062 -0.1726
    4MPD2    N1   65   1.635   3.757  10.916  0.0610  0.4945 -0.0914
    4MPD2    H7   66   1.690   3.835  10.882  0.3172 -0.0673 -0.9527
    5TCq1    O1   67   3.018   0.308  11.078 -0.4499  0.1443  0.2408
    5TCq1    C1   68   2.918   0.327  11.168 -0.2349  0.2543 -0.0175
    5TCq1    O2   69   2.935   0.340  11.287 -0.4389  0.1535 -0.3899
    5TCq1    C2   70   2.807   0.379  11.088 -0.4578  0.0316 -0.4724
    5TCq1    C3   71   2.733   0.477  11.147  0.1646  0.3971  0.1048
    5TCq1    C4   72   2.627   0.517  11.078  0.4241 -0.4382  0.3546
    5TCq1    C5   73   2.603   0.473  10.948 -0.3975  0.5016 -0.0104
    5TCq1    C6   74   2.678   0.371  10.901  0.0955  0.0003  0.7508
    5TCq1    C7   75   2.780   0.319  10.971 -0.5032 -0.1482  0.4073
    5TCq1    C8   76   2.628   0.295  10.789 -0.1612  0.0673  0.5883
    5TCq1    O4   77   2.716   0.233  10.727 -0.2150 -0.2591 -0.2044
    5TCq1    C9   78   2.540   0.617  11.145 -0.4281 -0.1621 -0.4335
    5TCq1    O5   79   2.423   0.632  11.099  0.5681 -0.5982 -0.0084
    5TCq1    O6   80   2.577   0.659  11.260  0.0321  0.4837  0.0351
    5TCq1    H1   81   2.999   0.300  10.982  1.8913 -0.5679 -0.1589
    5TCq1    H2   82   2.756   0.531  11.238 -1.1385  1.0485  0.0500
    5TCq1    H3   83   2.525   0.524  10.892 -1.5632 -1.8440 -0.5106
    5TCq1    H4   84   2.834   0.229  10.942 -2.5791 -1.6393  1.1008
    6MPD2     C   85   2.290   0.247  10.638  0.4892  0.2003 -0.8413
    6MPD2    C1   86   2.428   0.238  10.650 -0.6772  0.5730  0.1235
    6MPD2    C2   87   2.495   0.157  10.556  0.7345 -0.1539 -0.0541
    6MPD2    C3   88   2.427   0.099  10.449 -0.1104 -0.0645  0.1483
    6MPD2    C4   89   2.291   0.116  10.430  0.0879  0.2116 -0.2622
    6MPD2    C5   90   2.224   0.180  10.535 -0.2436 -0.2446  0.1387
    6MPD2     H   91   2.597   0.122  10.570  1.0127  1.5218  2.1820
    6MPD2    H1   92   2.230   0.062  10.358  2.6726  1.1674 -3.1605
    6MPD2    H2   93   2.226   0.292  10.713  2.6355  0.2304  0.9830
    6MPD2    H3   94   2.117   0.196  10.531 -0.4838 -1.1428  2.7779
    6MPD2     N   95   2.501   0.029  10.351 -0.0483  0.2670 -0.8649
    6MPD2    H5   96   2.593   4.735  10.379 -0.4754  0.1090  0.3705
    6MPD2    N1   97   2.493   0.310  10.758  0.1168 -0.5435 -0.3331
    6MPD2    H7   98   2.432   0.360  10.822 -0.6248  0.4634 -1.8137
    7TCq1    O1   99   0.078   0.331  12.814  0.2898  0.1610  0.1647
    7TCq1    C1  100   0.081   0.196  12.787 -0.3651 -0.2142  0.1174
    7TCq1    O2  101   0.118   0.151  12.682  0.5144 -0.0082  0.1467
    7TCq1    C2  102   0.078   0.115  12.902  0.4652  1.2218  0.6227
    7TCq1    C3  103   0.067   0.173  13.028 -0.3252  0.2891 -0.5111
    7TCq1    C4  104   0.066   0.082  13.136 -0.4993  0.2673 -0.4807
    7TCq1    C5  105   0.053   4.684  13.124  0.7391  0.1124  0.4749
    7TCq1    C6  106   0.049   4.637  12.996  0.6908  0.5125  0.9882
    7TCq1    C7  107   0.058   4.719  12.886  0.2276  0.6065 -0.9451
    7TCq1    C8  108   0.026   4.497  12.978 -0.1944 -0.5252 -0.2183
    7TCq1    O4  109   0.047   4.420  13.074  0.0797  0.5790 -0.2603
    7TCq1    C9  110   0.055   0.135  13.270  0.1923  0.6440  0.0158
    7TCq1    O5  111   0.010   0.057  13.353 -0.1014 -0.0606  0.1168
    7TCq1    O6  112   0.095   0.251  13.291 -0.1804 -0.1677 -0.0692
    7TCq1    H1  113   0.011   0.348  12.883 -0.7550 -2.8330 -0.1141
    7TCq1    H2  114   0.079   0.278  13.053 -1.4755  0.3883 -0.3729
    7TCq1    H3  115   0.055   4.618  13.210 -0.8417 -0.0886  0.3619
    7TCq1    H4  116   0.048   4.670  12.790 -1.1483  0.9961 -1.0018
    8MPD2     C  117   4.493   4.104  12.789 -0.2663 -0.2301 -0.0227
    8MPD2    C1  118   4.598   4.105  12.878 -0.2052  0.1928 -0.0184
    8MPD2    C2  119   4.670   4.225  12.897  0.1100  0.4518  0.1217
    8MPD2    C3  120   4.630   4.341  12.838  0.3525 -0.8183  0.1078
    8MPD2    C4  121   4.523   4.333  12.750 -0.1838 -0.4054  0.2572
    8MPD2    C5  122   4.463   4.219  12.719  0.0760  0.9255 -0.6777
    8MPD2     H  123   0.024   4.224  12.957 -0.1019  3.7650  0.5061
    8MPD2    H1  124   4.500   4.417  12.686  0.6864 -1.1490 -1.0533
    8MPD2    H2  125   4.437   4.013  12.769 -2.3964  0.7990  1.3114
    8MPD2    H3  126   4.377   4.223  12.653  0.6332  0.7363 -1.4126
    8MPD2     N  127   4.679   4.467  12.874  0.4953  0.3320  0.2121
    8MPD2    H5  128   4.635   4.547  12.828 -2.5535 -0.8668  1.0439
    8MPD2    N1  129   4.625   3.984  12.933 -0.1940 -0.8239  0.8964
    8MPD2    H7  130   4.578   3.903  12.894  1.3047 -0.5974 -1.3343
    9TMC1    C1  131   2.574   2.958  10.831 -0.1834  0.1768 -0.0142
    9TMC1    C2  132   2.516   2.852  10.898 -0.0714  0.7722  0.4411
    9TMC1    C3  133   2.534   2.728  10.840 -0.0421 -0.3424  1.0715
    9TMC1    C4  134   2.652   2.948  10.717  0.0848 -0.5913  0.6633
    9TMC1    C5  135   2.656   2.824  10.660 -0.5045  0.3430 -0.0694
    9TMC1    C6  136   2.604   2.716  10.724  0.0626  0.5855  0.3551
    9TMC1     C  137   2.571   3.096  10.893  0.2833  0.1675 -0.1859
    9TMC1     O  138   2.634   3.183  10.840  0.7559  0.7712  0.4810
    9TMC1     H  139   2.467   2.862  10.994  0.3572 -0.4160  0.7855
    9TMC1    H1  140   2.690   3.036  10.668 -1.0831 -1.9731 -2.7066
    9TMC1    H2  141   2.607   2.620  10.673  1.4599  0.5395  0.5390
    9TMC1    C7  142   2.726   2.801  10.541  0.6487  0.2076  0.2934
    9TMC1    C8  143   2.540   2.618  10.933  0.5278  0.2007  0.2047
    9TMC1    O1  144   2.749   2.689  10.494  0.1734  0.9047  0.7033
    9TMC1    O2  145   2.583   2.634  11.047 -0.6736  0.0552  0.0984
    9TMC1    O3  146   2.759   2.921  10.486  0.4365  0.6840 -0.0530
    9TMC1    H3  147   2.820   2.916  10.409  0.2584 -0.6440 -0.1068
    9TMC1    O5  148   2.543   2.501  10.865  0.3767 -0.2569  0.7075
    9TMC1    H5  149   2.485   2.499  10.785 -0.9882 -4.4273  1.8031
   10MPD2     C  150   2.534   3.332  11.059 -0.0421 -0.1651 -0.7638
   10MPD2    C1  151   2.472   3.215  11.084 -0.4398  0.2701 -0.7666
   10MPD2    C2  152   2.385   3.207  11.193 -0.2447  0.3598  0.2828
   10MPD2    C3  153   2.338   3.323  11.259  0.1764 -0.2727 -0.3516
   10MPD2    C4  154   2.390   3.440  11.212 -0.4307  0.0590  0.3077
   10MPD2    C5  155   2.493   3.441  11.125 -0.5716  0.6196 -0.3158
   10MPD2     H  156   2.356   3.112  11.235  0.6213 -0.4084 -0.8687
   10MPD2    H1  157   2.350   3.532  11.254 -2.5372  0.1308 -1.7810
   10MPD2    H2  158   2.612   3.356  10.987  1.1738  1.9182  1.2300
   10MPD2    H3  159   2.539   3.538  11.105  0.3678  0.3185  0.3742
   10MPD2     N  160   2.243   3.313  11.370 -0.1408  0.1334 -0.7309
   10MPD2    H5  161   2.213   3.397  11.419  1.7947 -0.2407  1.1486
   10MPD2    N1  162   2.496   3.099  11.009 -0.2778  0.8700 -0.0618
   10MPD2    H7  163   2.454   3.015  11.047  2.5220 -0.9579 -1.0433
   11TCq1    O1  164   2.829   3.161  14.255  0.2759  0.3618 -0.1058
   11TCq1    C1  165   2.755   3.153  14.143  0.5823 -0.0526 -1.0053
   11TCq1    O2  166   2.642   3.199  14.135  0.6369 -0.2825  0.3818
   11TCq1    C2  167   2.809   3.046  14.063  1.4810 -0.3974  0.6708
   11TCq1    C3  168   2.947   3.034  14.056  1.2730 -0.3775 -0.8104
   11TCq1    C4  169   3.007   2.950  13.971 -0.3066 -0.5139  0.3417
   11TCq1    C5  170   2.928   2.880  13.885  0.4160 -0.1721  0.7082
   11TCq1    C6  171   2.793   2.895  13.884 -0.1001 -0.4903  0.4181
   11TCq1    C7  172   2.733   2.986  13.966  0.5156 -0.0646 -0.5252
   11TCq1    C8  173   2.705   2.796  13.821  0.5772 -0.2625 -0.9545
   11TCq1    O4  174   2.590   2.833  13.800  0.7720  0.0287 -0.0509
   11TCq1    C9  175   3.151   2.928  13.977  0.5564 -0.3885  0.0273
   11TCq1    O5  176   3.209   3.022  14.034 -0.5887  0.0568 -0.3210
   11TCq1    O6  177   3.198   2.837  13.901 -0.0485 -0.3805  0.7496
   11TCq1    H1  178   2.901   3.096  14.242  0.4207  0.3878  0.6176
   11TCq1    H2  179   3.013   3.087  14.123 -0.9706  0.9901  0.3344
   11TCq1    H3  180   2.982   2.814  13.818 -0.4043  1.0878 -1.2084
   11TCq1    H4  181   2.625   2.987  13.976  0.4446 -0.5962 -1.1929
   12MPD2     C  182   2.577   2.576  13.661 -0.0171 -1.1014  0.2599
   12MPD2    C1  183   2.706   2.579  13.703  0.2176 -0.2124 -0.0227
   12MPD2    C2  184   2.791   2.481  13.656  0.2554  1.3836  0.1736
   12MPD2    C3  185   2.744   2.372  13.577  0.0561  0.3490 -0.2078
   12MPD2    C4  186   2.615   2.376  13.534 -0.0329 -0.0962  0.0147
   12MPD2    C5  187   2.531   2.477  13.572 -0.0779  0.6710  0.4136
   12MPD2     H  188   2.896   2.492  13.683  0.1807  0.0545  1.0063
   12MPD2    H1  189   2.587   2.297  13.465 -0.6441  0.2734 -0.1625
   12MPD2    H2  190   2.509   2.655  13.691  0.0576 -0.8978 -0.1101
   12MPD2    H3  191   2.426   2.473  13.545  0.6018 -1.7039 -1.7981
   12MPD2     N  192   2.828   2.267  13.520 -0.6172 -0.0198 -0.2560
   12MPD2    H5  193   2.782   2.191  13.471 -0.4343  0.3091 -0.9429
   12MPD2    N1  194   2.765   2.678  13.783 -0.2238 -0.8975 -0.3927
   12MPD2    H7  195   2.861   2.657  13.810 -0.5389 -2.6148 -0.6054
   13TCq1    O1  196   2.885   3.271  10.002  0.6192 -0.0425 -0.4641
   13TCq1    C1  197   2.834   3.200  10.108 -0.1023  0.6540  0.0517
   13TCq1    O2  198   2.887   3.103  10.160 -0.1348  0.2037 -0.1671
   13TCq1    C2  199   2.720   3.272  10.168 -0.5211 -0.2770  1.1852
   13TCq1    C3  200   2.693   3.404  10.157  0.3455  0.6105  0.5971
   13TCq1    C4  201   2.587   3.456  10.221  0.4141  0.3843 -0.8841
   13TCq1    C5  202   2.505   3.391  10.307 -0.2061 -0.5524  0.6910
   13TCq1    C6  203   2.534   3.257  10.316  0.0037  0.5789  0.4960
   13TCq1    C7  204   2.638   3.193  10.246  0.6455  1.2828  1.1383
   13TCq1    C8  205   2.465   3.189  10.431 -0.5415  0.0156  0.1819
   13TCq1    O4  206   2.401   3.257  10.513 -0.2780  0.5116 -0.4550
   13TCq1    C9  207   2.550   3.594  10.197 -0.2435 -0.8521  0.7541
   13TCq1    O5  208   2.440   3.634  10.249  0.6652  0.3092 -0.0130
   13TCq1    O6  209   2.632   3.658  10.123  0.2898 -0.1836 -0.4651
   13TCq1    H1  210   2.824   3.334   9.958 -0.2408 -0.8147 -0.3650
   13TCq1    H2  211   2.761   3.472  10.108  1.1665  1.0054  2.2750
   13TCq1    H3  212   2.421   3.428  10.364  2.4925  2.5927  2.6065
   13TCq1    H4  213   2.663   3.089  10.262  1.7299  1.5428  1.1473
   14MPD2     C  214   2.374   2.830  10.443 -0.4413 -0.2207 -0.0525
   14MPD2    C1  215   2.359   2.963  10.475  0.5286 -0.6991 -0.2156
   14MPD2    C2  216   2.280   2.995  10.590 -0.3099  0.1791 -0.6772
   14MPD2    C3  217   2.216   2.890  10.661  0.1328  0.5843 -0.0723
   14MPD2    C4  218   2.239   2.758  10.618 -0.3825  0.3919  0.3532
   14MPD2    C5  219   2.317   2.727  10.515 -0.5880 -0.0513  0.1866
   14MPD2     H  220   2.266   3.098  10.620 -0.5148 -0.3017  0.8610
   14MPD2    H1  221   2.209   2.675  10.681 -1.9628  1.9021  1.6380
   14MPD2    H2  222   2.439   2.804  10.360 -0.7577  0.8376 -0.6325
   14MPD2    H3  223   2.342   2.625  10.486  0.1309 -0.5325  2.4770
   14MPD2     N  224   2.130   2.926  10.774 -0.0559 -0.1146  0.1086
   14MPD2    H5  225   2.144   3.021  10.808  3.4136 -0.7153  0.3445
   14MPD2    N1  226   2.440   3.052  10.402 -0.3727 -0.5190 -0.2518
   14MPD2    H7  227   2.482   3.010  10.320  0.5278  1.5979 -0.8823
   15TCq1    O1  228   0.754   1.600   1.683 -0.2149 -0.3042 -0.2430
   15TCq1    C1  229   0.648   1.538   1.632 -0.3825 -0.7162 -0.1714
   15TCq1    O2  230   0.638   1.420   1.596 -0.6174  0.2848  0.6733
   15TCq1    C2  231   0.592   1.642   1.556  0.2765 -0.3886 -0.4389
   15TCq1    C3  232   0.532   1.744   1.625  0.1767  0.1846  0.2711
   15TCq1    C4  233   0.416   1.807   1.584 -0.6249 -0.7562  0.2074
   15TCq1    C5  234   0.351   1.764   1.471 -0.2344 -0.2956 -0.2381
   15TCq1    C6  235   0.411   1.664   1.400 -0.0756  0.2270  0.0955
   15TCq1    C7  236   0.523   1.602   1.440  0.2146 -0.0129 -0.2191
   15TCq1    C8  237   0.349   1.629   1.270  0.8225 -0.0697  0.1315
   15TCq1    O4  238   0.392   1.531   1.214 -0.0428 -0.5898 -0.3213
   15TCq1    C9  239   0.357   1.914   1.659 -0.3238 -1.3914 -0.4799
   15TCq1    O5  240   0.232   1.934   1.644  0.3012  0.3126 -0.2242
   15TCq1    O6  241   0.440   1.986   1.723 -0.5700 -0.7703  0.1469
   15TCq1    H1  242   0.755   1.696   1.664 -2.5340  0.0129  1.3111
   15TCq1    H2  243   0.567   1.780   1.721  1.5398  0.0792 -0.1790
   15TCq1    H3  244   0.262   1.821   1.449 -0.3486  0.0700  1.1806
   15TCq1    H4  245   0.568   1.527   1.376  1.0475 -0.4507  0.8918
   16MPD2     C  246   0.103   1.834   1.098 -0.3776 -0.3266  0.9681
   16MPD2    C1  247   0.174   1.718   1.126 -0.6787  0.5100 -0.4498
   16MPD2    C2  248   0.161   1.614   1.036  0.0778 -0.8375 -0.5128
   16MPD2    C3  249   0.072   1.625   0.932  0.2159  0.6731  0.2553
   16MPD2    C4  250   4.733   1.742   0.903 -0.1476 -0.1345  0.2094
   16MPD2    C5  251   0.012   1.844   0.992 -0.4666 -0.0194  0.2696
   16MPD2     H  252   0.212   1.519   1.047 -1.9586 -2.2437 -3.2415
   16MPD2    H1  253   4.668   1.742   0.816 -0.2514 -1.2745  0.2912
   16MPD2    H2  254   0.107   1.922   1.162 -0.1569  1.1795 -1.1249
   16MPD2    H3  255   4.692   1.936   0.981  1.1926  1.1367  1.4904
   16MPD2     N  256   0.073   1.518   0.843  0.2138  0.8110 -0.5033
   16MPD2    H5  257   0.142   1.444   0.849 -0.1166  0.6807  1.6075
   16MPD2    N1  258   0.260   1.725   1.233 -0.5163  0.1524 -0.4266
   16MPD2    H7  259   0.251   1.801   1.300 -0.2619 -0.2868  0.1049
   17TMC1    C1  260   2.567   2.905  11.379 -0.1981 -0.1864 -0.2865
   17TMC1    C2  261   2.533   2.774  11.368  0.5759 -0.1398 -0.6337
   17TMC1    C3  262   2.470   2.717  11.474 -0.3449 -0.2569 -0.3624
   17TMC1    C4  263   2.513   2.978  11.483  0.5183  0.7072 -0.0597
   17TMC1    C5  264   2.443   2.919  11.586 -0.4392 -0.4441 -0.5673
   17TMC1    C6  265   2.428   2.783  11.589 -0.5739 -0.2277  0.1227
   17TMC1     C  266   2.673   2.970  11.295 -0.4027 -0.0424  0.2061
   17TMC1     O  267   2.701   3.087  11.326  0.4046 -0.4447  0.6454
   17TMC1     H  268   2.572   2.706  11.293 -0.0651 -0.5568 -0.5959
   17TMC1    H1  269   2.534   3.083  11.499 -0.3939  0.3984  3.1963
   17TMC1    H2  270   2.364   2.730  11.659 -0.0430 -0.9915  0.0280
   17TMC1    C7  271   2.382   2.995  11.678  0.2456  0.1283 -0.9247
   17TMC1    C8  272   2.450   2.578  11.464 -0.1578 -0.2445  0.6081
   17TMC1    O1  273   2.391   3.117  11.683  0.3242 -0.4606 -0.3412
   17TMC1    O2  274   2.432   2.520  11.363  0.3977  0.4074  0.0131
   17TMC1    O3  275   2.353   2.917  11.790  0.3043 -0.4870  0.7110
   17TMC1    H3  276   2.422   2.848  11.790  1.5152  0.6992  3.6410
   17TMC1    O5  277   2.490   2.515  11.577 -0.0727 -0.3228 -0.2992
   17TMC1    H5  278   2.513   2.576  11.651 -0.8344 -1.1115  0.5946
   18MPD2     C  279   2.852   3.052  11.080 -0.0135  0.4199  0.1751
   18MPD2    C1  280   2.799   2.930  11.087 -0.1425  0.2936 -0.0559
   18MPD2    C2  281   2.844   2.827  11.008  0.0453 -0.0558 -0.0591
   18MPD2    C3  282   2.929   2.849  10.902  1.0039  0.1542 -0.0795
   18MPD2    C4  283   2.965   2.977  10.880 -0.0854 -0.1856 -0.3685
   18MPD2    C5  284   2.930   3.072  10.970 -0.3467 -0.0691 -0.2501
   18MPD2     H  285   2.801   2.731  11.034 -1.4050  0.2061 -1.5412
   18MPD2    H1  286   3.023   3.006  10.793 -2.3371  2.6674 -0.9120
   18MPD2    H2  287   2.833   3.138  11.143 -1.6211  0.3483 -0.2214
   18MPD2    H3  288   2.946   3.176  10.943 -0.7450 -0.3203 -1.4575
   18MPD2     N  289   2.982   2.747  10.813  0.0397 -0.3927  0.5065
   18MPD2    H5  290   3.047   2.772  10.740  2.1848 -2.0361  1.8494
   18MPD2    N1  291   2.717   2.886  11.191  0.2064  0.1178  0.4198
   18MPD2    H7  292   2.687   2.790  11.184  1.5108 -0.2595 -0.0875
   19TMC2    C1  293   4.289   3.093  13.969 -0.2702 -0.2863 -0.0577
   19TMC2    C2  294   4.247   3.172  13.861  0.1971  0.4525 -0.4630
   19TMC2    C3  295   4.163   3.112  13.768 -0.6440  0.2486  0.0387
   19TMC2    C4  296   4.237   2.969  13.987  0.2649 -0.0824 -0.5993
   19TMC2    C5  297   4.165   2.916  13.884  0.6249 -0.4288  0.3288
   19TMC2    C6  298   4.135   2.979  13.766 -0.4680 -0.6293  0.0252
   19TMC2     C  299   4.353   3.151  14.089 -0.4525  0.1372 -0.6234
   19TMC2     O  300   4.360   3.272  14.093 -0.3608 -0.0194 -0.1422
   19TMC2     H  301   4.264   3.279  13.858 -0.2580  0.5780  1.1755
   19TMC2    H1  302   4.253   2.908  14.075  1.0234  0.9125 -0.0398
   19TMC2    H2  303   4.067   2.936  13.694  1.3246 -1.0402 -1.4138
   19TMC2    C7  304   4.118   2.779  13.912 -0.1428  0.2671 -0.3901
   19TMC2    C8  305   4.131   3.177  13.648  0.2000  0.2071  0.1071
   19TMC2    O1  306   4.167   2.713  14.000  0.1922 -0.1252  0.7831
   19TMC2    O2  307   4.126   3.115  13.542 -0.2537  0.0514 -0.4744
   19TMC2    O5  308   4.115   3.310  13.674 -0.1501 -0.5316  0.3214
   19TMC2    H5  309   4.111   3.340  13.767  0.3249  0.0105  0.1713
   20MPD2     C  310   4.445   3.237  14.360 -0.3265  0.0710  0.1579
   20MPD2    C1  311   4.471   3.111  14.300 -0.1851  0.5667  0.3992
   20MPD2    C2  312   4.558   3.033  14.369  1.0980  0.4640  1.1445
   20MPD2    C3  313   4.618   3.066  14.497  0.1288  0.4935 -0.3945
   20MPD2    C4  314   4.595   3.193  14.540  0.1614  0.2336  0.7811
   20MPD2    C5  315   4.510   3.279  14.470  0.4012  0.6058  0.4455
   20MPD2     H  316   4.585   2.941  14.318  1.6780  1.7527 -0.8598
   20MPD2    H1  317   4.639   3.218  14.636 -0.6359 -0.0749  1.2272
   20MPD2    H2  318   4.386   3.318  14.316 -2.0264 -2.0658 -1.5120
   20MPD2    H3  319   4.501   3.377  14.515 -0.7610  0.2022  1.0914
   20MPD2     N  320   4.709   2.989  14.570  0.2400 -0.4352  0.4197
   20MPD2    H5  321   0.012   3.033  14.652 -1.2424  0.2679  0.7723
   20MPD2    N1  322   4.420   3.069  14.179 -0.1089  0.0866 -0.5118
   20MPD2    H7  323   4.438   2.971  14.158  0.4765 -0.2104  1.3956
   21TMC2    C1  324   1.835   2.865  14.206  0.0510 -0.1792 -0.3199
   21TMC2    C2  325   1.874   2.737  14.228  0.0425  0.1785 -0.3287
   21TMC2    C3  326   1.784   2.660  14.298 -0.7480 -0.2002 -0.1177
   21TMC2    C4  327   1.714   2.924  14.254  0.1058 -0.5893 -0.7049
   21TMC2    C5  328   1.631   2.839  14.319  0.3482 -0.0373 -0.2107
   21TMC2    C6  329   1.657   2.710  14.330 -0.0919 -0.1276  1.3975
   21TMC2     C  330   1.943   2.955  14.176 -0.2432  0.1137  0.5567
   21TMC2     O  331   2.058   2.925  14.210 -0.2742  0.0570  0.2076
   21TMC2     H  332   1.974   2.702  14.206  0.6585  0.2800  2.2987
   21TMC2    H1  333   1.709   3.032  14.249 -1.0868 -0.6353 -0.4900
   21TMC2    H2  334   1.601   2.658  14.406 -2.9230  1.5754  0.4639
   21TMC2    C7  335   1.544   2.896  14.419  0.7089  0.4184 -0.0781
   21TMC2    C8  336   1.789   2.516  14.311 -0.4767 -0.2046  0.0636
   21TMC2    O1  337   1.539   2.845  14.527 -0.5531  0.3207  0.0097
   21TMC2    O2  338   1.690   2.449  14.302 -0.0859 -0.3487 -0.0343
   21TMC2    O5  339   1.868   2.507  14.418  0.1873 -0.0397 -0.1651
   21TMC2    H5  340   1.944   2.569  14.426  1.0368 -1.0631 -0.2453
   22MPD2     C  341   2.080   3.426  14.050 -0.5721  0.0947  0.4350
   22MPD2    C1  342   2.132   3.348  14.152 -0.1353 -0.2118  0.2198
   22MPD2    C2  343   2.076   3.222  14.163  0.4319  0.4375  0.1197
   22MPD2    C3  344   1.964   3.185  14.089 -0.2804  0.0370  0.2124
   22MPD2    C4  345   1.924   3.266  13.982  0.0322 -0.1719  0.0261
   22MPD2    C5  346   1.980   3.384  13.969 -0.1667  0.0536 -0.1035
   22MPD2     H  347   2.108   3.160  14.246 -1.0495  0.4671  0.7292
   22MPD2    H1  348   1.851   3.234  13.909 -1.3927  3.3670 -0.1472
   22MPD2    H2  349   2.129   3.517  14.019  0.9977 -0.7360  0.4698
   22MPD2    H3  350   1.947   3.450  13.889 -4.4139 -0.9133  0.8178
   22MPD2     N  351   1.899   3.062  14.104 -0.4396  0.7534 -0.1832
   22MPD2    H5  352   1.814   3.039  14.055 -0.5134 -4.2146  2.2129
   22MPD2    N1  353   2.234   3.380  14.247  0.3050 -0.8580  0.1925
   22MPD2    H7  354   2.273   3.304  14.300 -0.2854 -1.2136  0.1141
   23TMC2    C1  355   2.727   4.094  14.153  0.3306  0.1509  0.3693
   23TMC2    C2  356   2.633   4.101  14.253 -0.7882  0.0879  0.3129
   23TMC2    C3  357   2.507   4.096  14.211 -0.0593 -0.0105  0.0069
   23TMC2    C4  358   2.696   4.090  14.023  0.2139 -0.5198 -0.0158
   23TMC2    C5  359   2.565   4.086  13.979  0.2427 -0.5827 -0.7479
   23TMC2    C6  360   2.467   4.084  14.080 -0.2568 -0.5445  0.4003
   23TMC2     C  361   2.860   4.098  14.195 -0.1546 -0.2563  0.3344
   23TMC2     O  362   2.877   4.034  14.297  0.2241 -0.0505  0.2683
   23TMC2     H  363   2.664   4.122  14.355 -3.1306  0.7735  0.8903
   23TMC2    H1  364   2.774   4.082  13.948  1.4352 -2.3966  1.4464
   23TMC2    H2  365   2.362   4.094  14.057 -0.2386  0.1124  0.6038
   23TMC2    C7  366   2.538   4.034  13.850 -0.2923  0.2330 -0.5987
   23TMC2    C8  367   2.401   4.137  14.303 -0.7497  0.2097 -0.2366
   23TMC2    O1  368   2.622   4.053  13.767 -0.1979 -0.0487  0.1199
   23TMC2    O2  369   2.306   4.202  14.270  1.4834  0.2404  0.1322
   23TMC2    O5  370   2.400   4.038  14.394  0.4015  0.0499  0.2688
   23TMC2    H5  371   2.477   3.977  14.400 -0.7393 -1.4757 -0.7273
   24MPD2     C  372   3.357   4.260  14.161 -0.3245 -0.0270  0.5391
   24MPD2    C1  373   3.290   4.187  14.257  0.1496  0.0476  0.3740
   24MPD2    C2  374   3.154   4.146  14.243 -0.0411  0.0538  0.4485
   24MPD2    C3  375   3.084   4.200  14.142 -0.4318 -0.6341 -0.1851
   24MPD2    C4  376   3.147   4.275  14.049  0.5958  0.0876 -0.1073
   24MPD2    C5  377   3.277   4.304  14.058  0.4692  0.0054 -0.2321
   24MPD2     H  378   3.108   4.089  14.323 -0.6542 -1.5072 -1.0187
   24MPD2    H1  379   3.110   4.315  13.955 -2.5869  0.3028  1.2744
   24MPD2    H2  380   3.462   4.284  14.158 -0.4416  0.4996  0.5805
   24MPD2    H3  381   3.321   4.355  13.973  0.5782  0.0231 -0.1648
   24MPD2     N  382   2.944   4.173  14.119  0.3844 -0.0646 -0.4237
   24MPD2    H5  383   2.901   4.211  14.036 -0.9299 -2.4515 -0.8219
   24MPD2    N1  384   3.360   4.143  14.371  0.0010  0.1661 -0.0338
   24MPD2    H7  385   3.305   4.099  14.445 -0.0253 -0.0122 -0.1595
   25TMC2    C1  386   2.102   1.419  11.155  0.9173  0.4770 -0.4227
   25TMC2    C2  387   2.210   1.490  11.189  0.0305  0.2903  0.2583
   25TMC2    C3  388   2.233   1.495  11.325 -0.0617 -0.0771 -0.3781
   25TMC2    C4  389   2.009   1.383  11.238 -0.3103 -0.2270 -0.6005
   25TMC2    C5  390   2.022   1.399  11.373 -0.5315  0.1339  0.3251
   25TMC2    C6  391   2.137   1.451  11.422  0.2830  0.0044  0.7250
   25TMC2     C  392   2.076   1.403  11.012 -0.3846  0.3821  0.1059
   25TMC2     O  393   2.107   1.502  10.949  0.0370 -0.6641  0.1944
   25TMC2     H  394   2.277   1.532  11.115  0.3884  0.0071  0.4222
   25TMC2    H1  395   1.925   1.330  11.196 -0.9013  2.0476 -2.2555
   25TMC2    H2  396   2.141   1.475  11.528 -1.4609 -0.4796  0.9056
   25TMC2    C7  397   1.920   1.352  11.466  0.1831  0.3729  0.4088
   25TMC2    C8  398   2.336   1.582  11.365  0.0810 -0.0394 -1.0864
   25TMC2    O1  399   1.960   1.327  11.578 -0.4326  0.5733 -0.3583
   25TMC2    O2  400   2.382   1.666  11.286  0.2057 -0.4839 -0.2154
   25TMC2    O5  401   2.379   1.543  11.486 -0.7166  0.3998  0.5807
   25TMC2    H5  402   2.346   1.451  11.498  1.6087 -0.2090  2.4839
   26MPD2     C  403   1.785   1.217  10.633 -0.1628 -0.3060  0.8655
   26MPD2    C1  404   1.810   1.111  10.721  0.0728 -0.5071 -1.0535
   26MPD2    C2  405   1.887   1.137  10.838  0.0428 -0.0256  0.3077
   26MPD2    C3  406   1.947   1.260  10.854  0.2698 -0.5004  0.5297
   26MPD2    C4  407   1.941   1.356  10.755 -0.5073  0.2997 -0.1135
   26MPD2    C5  408   1.857   1.337  10.649  0.5261 -0.1551 -0.3091
   26MPD2     H  409   1.890   1.082  10.931  1.8598 -0.8172 -0.2313
   26MPD2    H1  410   1.990   1.452  10.766  1.0798 -0.6985  1.5725
   26MPD2    H2  411   1.728   1.209  10.541  2.0021 -0.6499 -0.4434
   26MPD2    H3  412   1.859   1.409  10.569  0.7194  0.5712  0.3523
   26MPD2     N  413   2.022   1.282  10.973  0.4605 -1.3993 -0.5133
   26MPD2    H5  414   2.030   1.199  11.032  0.7389 -2.5983 -2.2299
   26MPD2    N1  415   1.766   0.976  10.694 -0.3630  0.3620  0.2391
   26MPD2    H7  416   1.729   0.964  10.600 -0.1634  0.3278  0.1642
   27TMC2    C1  417   0.991   3.617  12.148 -0.5545  0.6442  0.4515
   27TMC2    C2  418   0.922   3.707  12.076 -0.1332 -0.1620  0.5964
   27TMC2    C3  419   0.997   3.768  11.970  0.4586 -0.4151 -0.1412
   27TMC2    C4  420   1.127   3.602  12.138 -0.8402 -0.5481  0.0866
   27TMC2    C5  421   1.204   3.671  12.045 -0.3212  0.1128  0.1099
   27TMC2    C6  422   1.132   3.742  11.952  0.1949 -0.5115  0.2243
   27TMC2     C  423   0.944   3.565  12.280  0.3160  0.1155 -0.7832
   27TMC2     O  424   1.012   3.482  12.341 -0.2155 -0.2677  0.2265
   27TMC2     H  425   0.815   3.720  12.078  0.0516  1.0588  2.4172
   27TMC2    H1  426   1.190   3.545  12.205 -2.2203 -1.9000  0.2198
   27TMC2    H2  427   1.191   3.776  11.868 -0.0499  2.4974  1.2807
   27TMC2    C7  428   1.309   3.742  12.118  0.1723 -0.6494  0.4083
   27TMC2    C8  429   0.925   3.792  11.849  0.3038  0.9240  0.5638
   27TMC2    O1  430   1.365   3.677  12.209  0.1383  0.3876  0.1625
   27TMC2    O2  431   0.811   3.750  11.832 -0.5621 -0.0613  0.6208
   27TMC2    O5  432   0.971   3.897  11.791  0.6267  0.3158  0.4223
   27TMC2    H5  433   1.049   3.943  11.830  1.0709  1.7707 -2.1831
   28MPD2     C  434   0.625   3.628  12.681 -0.0132 -0.1446 -0.4164
   28MPD2    C1  435   0.601   3.732  12.590 -0.2226 -0.0576  0.2826
   28MPD2    C2  436   0.678   3.740  12.471  0.0439 -0.1278  0.1022
   28MPD2    C3  437   0.767   3.639  12.441 -0.0491  0.3271 -0.5675
   28MPD2    C4  438   0.761   3.521  12.515 -0.0274 -0.0183 -0.6128
   28MPD2    C5  439   0.689   3.516  12.632  0.1667  0.3488  0.3685
   28MPD2     H  440   0.659   3.820  12.401 -0.7025 -0.5033 -0.1186
   28MPD2    H1  441   0.825   3.438  12.489 -0.1236 -0.7489  1.5277
   28MPD2    H2  442   0.574   3.624  12.776  0.6339 -2.3635 -0.1556
   28MPD2    H3  443   0.686   3.420  12.683  0.4590 -0.2694 -0.7587
   28MPD2     N  444   0.832   3.642  12.318  0.1181  0.0064 -0.5647
   28MPD2    H5  445   0.806   3.721  12.260  0.1730 -0.4519 -1.2153
   28MPD2    N1  446   0.504   3.827  12.631 -0.1118 -0.3028  0.2079
   28MPD2    H7  447   0.474   3.841  12.727 -1.2402 -2.0983  0.1140
   29TMC2    C1  448   0.693   1.487  14.514 -0.8897 -0.5759 -0.4359
   29TMC2    C2  449   0.692   1.463  14.650 -0.0052 -0.1757 -0.7132
   29TMC2    C3  450   0.713   1.568  14.738  0.2378  0.0922 -0.0717
   29TMC2    C4  451   0.726   1.615  14.469 -0.3774  0.4424  0.1438
   29TMC2    C5  452   0.750   1.708  14.562  0.2642  0.4404 -0.1027
   29TMC2    C6  453   0.738   1.697  14.691  1.1113 -0.3248  0.3964
   29TMC2     C  454   0.655   1.382  14.425 -0.3917 -0.4511 -0.2542
   29TMC2     O  455   0.650   1.268  14.469 -0.2678  0.2577 -0.1889
   29TMC2     H  456   0.654   1.370  14.692 -0.8965  0.2007 -0.6730
   29TMC2    H1  457   0.723   1.632  14.362 -0.6749 -2.6299 -0.3223
   29TMC2    H2  458   0.768   1.773  14.762  0.2651  0.1656  0.2355
   29TMC2    C7  459   0.845   1.813  14.526  0.7137  0.0071 -0.1528
   29TMC2    C8  460   0.664   1.562  14.875  0.3965  0.9475 -0.5475
   29TMC2    O1  461   0.862   1.907  14.603 -0.0246 -0.2536 -0.0186
   29TMC2    O2  462   0.679   1.455  14.934  0.2173  0.1032  0.0771
   29TMC2    O5  463   0.567   1.656  14.893  0.1554 -0.2554  0.5511
   29TMC2    H5  464   0.562   1.738  14.838 -1.2810  0.5022  1.7906
   30MPD2     C  465   0.510   1.208  13.968 -0.1422  0.6063  0.5121
   30MPD2    C1  466   0.538   1.134  14.079 -0.2257 -0.0933  0.2653
   30MPD2    C2  467   0.564   1.196  14.197 -0.3935  0.3556 -0.0948
   30MPD2    C3  468   0.566   1.339  14.194  0.1335  0.7673 -0.0444
   30MPD2    C4  469   0.532   1.409  14.082  0.6605  1.0313 -0.2310
   30MPD2    C5  470   0.494   1.346  13.976  0.3218  0.2002 -0.2490
   30MPD2     H  471   0.600   1.147  14.286  0.6161  2.0242  0.4078
   30MPD2    H1  472   0.542   1.517  14.077  1.4174  0.9771 -0.0254
   30MPD2    H2  473   0.481   1.162  13.874 -0.9027  0.9201  0.5879
   30MPD2    H3  474   0.467   1.408  13.891  0.0797 -0.4628 -0.6583
   30MPD2     N  475   0.611   1.424  14.296 -0.4972 -0.7222 -0.3154
   30MPD2    H5  476   0.609   1.524  14.275 -0.8167 -0.6729 -0.0503
   30MPD2    N1  477   0.550   0.992  14.076  0.0493  0.2154  0.4706
   30MPD2    H7  478   0.578   0.944  14.161  1.2431 -1.3909 -0.8329
   31TMC2    C1  479   2.911   0.611  14.650  0.0694  0.3824 -0.4941
   31TMC2    C2  480   2.787   0.660  14.661  0.3589  0.1269 -0.6412
   31TMC2    C3  481   2.708   0.624  14.770  0.1252  0.1676 -0.6239
   31TMC2    C4  482   2.960   0.513  14.734  0.5161 -0.0337  0.0124
   31TMC2    C5  483   2.876   0.469  14.833  0.2279  0.5224 -0.8835
   31TMC2    C6  484   2.752   0.528  14.854 -0.7957 -0.3289  0.1392
   31TMC2     C  485   2.988   0.635  14.530  1.2560 -0.5313  0.0950
   31TMC2     O  486   2.941   0.657  14.417  0.5159  0.2009  0.6792
   31TMC2     H  487   2.758   0.741  14.595  0.5865 -0.4436 -1.4387
   31TMC2    H1  488   3.058   0.468  14.720  0.1677 -1.1787  1.2937
   31TMC2    H2  489   2.695   0.515  14.945  0.1811 -1.5794  0.5633
   31TMC2    C7  490   2.911   0.364  14.928 -0.7731  0.4659 -0.5046
   31TMC2    C8  491   2.583   0.693  14.790 -0.1653 -0.6022 -0.3027
   31TMC2    O1  492   3.031   0.340  14.948  0.0836  0.5602 -0.0245
   31TMC2    O2  493   2.512   0.676  14.888  0.3514  0.1604 -0.3917
   31TMC2    O5  494   2.532   0.732  14.671 -0.1877 -0.3457 -0.4878
   31TMC2    H5  495   2.589   0.704  14.595 -0.1438  0.4041 -0.7313
   32MPD2     C  496   3.429   0.656  14.263  0.1286 -0.3043  0.1117
   32MPD2    C1  497   3.301   0.654  14.214  0.4985  1.1228 -0.2050
   32MPD2    C2  498   3.192   0.650  14.300 -0.0022 -0.3631 -0.1241
   32MPD2    C3  499   3.220   0.649  14.438 -0.4844 -0.3311 -0.3344
   32MPD2    C4  500   3.347   0.650  14.482  0.6016  0.3484  0.1691
   32MPD2    C5  501   3.446   0.646  14.395  0.2859 -0.1871  0.8656
   32MPD2     H  502   3.094   0.640  14.254 -0.1133 -0.2096  0.0804
   32MPD2    H1  503   3.361   0.659  14.589 -0.2106 -2.0002  0.4797
   32MPD2    H2  504   3.512   0.650  14.193 -1.2814 -1.3886 -1.4657
   32MPD2    H3  505   3.547   0.637  14.432 -0.2605 -0.5837  2.2489
   32MPD2     N  506   3.123   0.641  14.545  0.5825  0.2825 -0.5795
   32MPD2    H5  507   3.147   0.655  14.643  2.1971 -0.8154 -0.8210
   32MPD2    N1  508   3.287   0.654  14.072  0.0662  0.4293 -0.0200
   32MPD2    H7  509   3.372   0.662  14.017  0.6185 -0.6418  0.6821
   33TMC2    C1  510   3.682   2.828  10.044  0.2332  0.2368 -0.2531
   33TMC2    C2  511   3.822   2.819  10.032 -0.7896  0.0340  0.0702
   33TMC2    C3  512   3.892   2.901   9.941 -0.2650 -0.6447  0.3633
   33TMC2    C4  513   3.615   2.923   9.984  0.2864 -0.2035  0.0269
   33TMC2    C5  514   3.681   2.999   9.889 -0.2322 -0.2739 -0.4571
   33TMC2    C6  515   3.817   2.996   9.881  0.1114  0.3945  0.9107
   33TMC2     C  516   3.607   2.737  10.135 -0.2988  0.6953 -0.6574
   33TMC2     O  517   3.504   2.782  10.188 -0.1702  0.2675  0.0000
   33TMC2     H  518   3.873   2.758  10.106 -1.8994  1.9264  2.4060
   33TMC2    H1  519   3.509   2.935  10.000  0.4811  0.9657  0.4605
   33TMC2    H2  520   3.871   3.065   9.817 -1.4174  2.4656  1.8311
   33TMC2    C7  521   3.613   3.111   9.816 -0.6169  0.1635  0.0379
   33TMC2    C8  522   4.035   2.934   9.979 -0.1553  0.2594  0.5299
   33TMC2    O1  523   3.681   3.199   9.771 -0.8190 -0.3457 -0.3723
   33TMC2    O2  524   4.079   3.048   9.980  0.7554 -0.1460  0.1790
   33TMC2    O5  525   4.108   2.820   9.994 -0.1756  0.5252  0.0417
   33TMC2    H5  526   4.053   2.742   9.969  1.0419 -0.7503  1.3240
   34MPD2     C  527   3.579   2.313  10.421 -0.3642 -0.5019 -0.4107
   34MPD2    C1  528   3.490   2.420  10.410 -0.7086 -0.3013 -0.1183
   34MPD2    C2  529   3.521   2.526  10.324 -0.2463 -0.1607  0.2867
   34MPD2    C3  530   3.633   2.514  10.247 -0.4276  0.0541 -0.0137
   34MPD2    C4  531   3.725   2.408  10.264  0.1202 -0.2183  0.0645
   34MPD2    C5  532   3.690   2.309  10.348 -0.1782  0.2335  0.7935
   34MPD2     H  533   3.456   2.610  10.307  0.9092  0.9177  1.2162
   34MPD2    H1  534   3.813   2.409  10.201 -0.5839 -2.6218 -0.9414
   34MPD2    H2  535   3.561   2.237  10.496  0.0802  0.1617  0.3604
   34MPD2    H3  536   3.756   2.224  10.362 -1.9676 -1.0666  1.4579
   34MPD2     N  537   3.672   2.613  10.156 -0.0245  0.1472  0.3819
   34MPD2    H5  538   3.755   2.592  10.101  0.1982  0.9615  0.4113
   34MPD2    N1  539   3.386   2.422  10.501  0.2382 -0.4939 -0.5108
   34MPD2    H7  540   3.370   2.342  10.561 -1.6399 -0.2120 -0.6046
   35TMC2    C1  541   4.177   3.972  10.902  0.9009  0.0518  0.1009
   35TMC2    C2  542   4.122   3.991  10.777 -0.0226  0.7107  0.4634
   35TMC2    C3  543   3.996   3.948  10.749  0.0484  0.3039  0.0680
   35TMC2    C4  544   4.100   3.902  10.998  0.0975  0.9454 -0.3075
   35TMC2    C5  545   3.974   3.870  10.970 -0.7490  0.6633 -0.4641
   35TMC2    C6  546   3.917   3.893  10.845  1.0206 -0.2661  0.3297
   35TMC2     C  547   4.289   4.062  10.938  0.4712  0.2279 -0.4347
   35TMC2     O  548   4.340   4.123  10.840  0.4533 -0.3079  1.2902
   35TMC2     H  549   4.169   4.050  10.698  2.2218 -3.4885 -1.3444
   35TMC2    H1  550   4.153   3.868  11.086 -1.1227  0.3256  0.1825
   35TMC2    H2  551   3.810   3.876  10.834  0.8160  1.5686 -0.5256
   35TMC2    C7  552   3.910   3.780  11.056 -0.7150 -0.4805 -0.0584
   35TMC2    C8  553   3.951   3.985  10.614 -0.2823  0.4274 -0.0113
   35TMC2    O1  554   3.812   3.711  11.025 -0.4685 -0.1135  0.5106
   35TMC2    O2  555   4.004   4.075  10.544  0.1495 -0.3751 -0.2117
   35TMC2    O5  556   3.825   3.941  10.594  0.2029 -0.8019 -0.0724
   35TMC2    H5  557   3.803   3.855  10.637  0.8648 -1.3170 -0.7386
   36MPD2     C  558   4.563   4.323  11.269 -0.5354  0.5147  1.0418
   36MPD2    C1  559   4.475   4.249  11.347 -0.5257 -0.2549 -0.2795
   36MPD2    C2  560   4.387   4.164  11.271  0.2254  0.1817 -0.0660
   36MPD2    C3  561   4.390   4.164  11.137 -0.1189 -0.2509  0.4835
   36MPD2    C4  562   4.470   4.253  11.066 -1.0112 -0.3224  0.7344
   36MPD2    C5  563   4.564   4.326  11.134 -0.2929  0.0517 -0.2035
   36MPD2     H  564   4.316   4.095  11.315  0.2418  0.1807 -0.0413
   36MPD2    H1  565   4.479   4.244  10.958  1.8153  1.2254  0.8588
   36MPD2    H2  566   4.631   4.386  11.323  1.4224 -1.3905  0.8069
   36MPD2    H3  567   4.621   4.399  11.078  0.1686 -0.3293 -0.2240
   36MPD2     N  568   4.310   4.069  11.071 -0.6763  0.0317 -0.0395
   36MPD2    H5  569   4.256   3.998  11.120  0.3118 -1.4632 -1.0939
   36MPD2    N1  570   4.468   4.255  11.490 -0.0617 -0.3006 -0.4884
   36MPD2    H7  571   4.516   4.325  11.545 -1.9574  1.9591 -1.7286
   37TMC2    C1  572   1.323   4.633  11.118  0.0861  0.1036 -0.2176
   37TMC2    C2  573   1.242   4.594  11.010  0.2655 -0.6823 -0.8822
   37TMC2    C3  574   1.293   4.605  10.884  0.0198 -0.6679  0.1490
   37TMC2    C4  575   1.439   4.696  11.099 -0.1588 -0.7136 -0.0440
   37TMC2    C5  576   1.484   4.717  10.972 -0.0106 -0.1604  0.5807
   37TMC2    C6  577   1.416   4.666  10.865 -0.2314  0.6790 -0.0464
   37TMC2     C  578   1.305   4.567  11.250 -0.3809  0.2718 -0.4051
   37TMC2     O  579   1.210   4.609  11.316 -0.5149  0.1385 -0.2495
   37TMC2     H  580   1.153   4.548  11.050  0.9254 -1.1385  0.0734
   37TMC2    H1  581   1.484   4.736  11.189 -0.2881 -0.6440 -0.0113
   37TMC2    H2  582   1.461   4.663  10.766 -0.0491  2.1215 -0.0131
   37TMC2    C7  583   1.628   4.730  10.963 -0.3955  0.7086 -0.0807
   37TMC2    C8  584   1.262   4.505  10.785  0.2682 -0.2507 -1.1939
   37TMC2    O1  585   1.686   0.012  11.068 -0.0698 -0.1895  0.1904
   37TMC2    O2  586   1.344   4.480  10.699  0.1901 -0.2397  0.3221
   37TMC2    O5  587   1.208   4.406  10.858 -0.5573  0.3436  0.3395
   37TMC2    H5  588   1.133   4.447  10.905 -0.7024  2.0043 -1.3217
   38MPD2     C  589   1.547   4.423  11.681 -0.4261 -0.2090  0.2286
   38MPD2    C1  590   1.637   4.440  11.582 -0.0524  0.4707  0.0109
   38MPD2    C2  591   1.597   4.461  11.451 -0.9000 -0.2186 -0.4742
   38MPD2    C3  592   1.466   4.484  11.423 -0.6168 -0.3408 -0.2934
   38MPD2    C4  593   1.380   4.470  11.526  0.2686 -0.4843  0.5438
   38MPD2    C5  594   1.415   4.431  11.655 -0.0262  0.7393  0.2369
   38MPD2     H  595   1.677   4.463  11.378 -3.0846 -2.0529 -2.8957
   38MPD2    H1  596   1.276   4.495  11.511 -0.1018 -0.3832  3.2276
   38MPD2    H2  597   1.578   4.406  11.784  1.6514  0.7765 -0.2415
   38MPD2    H3  598   1.340   4.414  11.732  0.7508 -1.1846  0.5554
   38MPD2     N  599   1.424   4.517  11.294 -0.3828  0.4264 -0.3048
   38MPD2    H5  600   1.494   4.511  11.221 -1.8502 -0.1992 -1.6927
   38MPD2    N1  601   1.773   4.435  11.602  0.2048  0.3863  0.0163
   38MPD2    H7  602   1.839   4.460  11.528  1.4434  0.0266  1.0035
   39TMC2    C1  603   0.542   0.444   0.955 -0.5483 -0.4372  0.2171
   39TMC2    C2  604   0.512   0.385   1.077  0.4083 -0.6632 -0.2721
   39TMC2    C3  605   0.605   0.304   1.140  0.4764  0.9024 -0.5187
   39TMC2    C4  606   0.666   0.430   0.902 -0.4452  0.0379  0.2573
   39TMC2    C5  607   0.754   0.337   0.964 -0.6865  0.3454 -0.7473
   39TMC2    C6  608   0.728   0.285   1.088 -0.1067  0.0961  0.4938
   39TMC2     C  609   0.431   0.484   0.863 -0.1119 -0.0419 -0.9256
   39TMC2     O  610   0.332   0.522   0.925 -0.3941 -0.1446 -0.0490
   39TMC2     H  611   0.414   0.401   1.120  0.9455  1.1885  0.2610
   39TMC2    H1  612   0.694   0.459   0.802  1.3775 -0.2410  0.6749
   39TMC2    H2  613   0.791   0.204   1.121 -0.9146 -1.4859 -1.8679
   39TMC2    C7  614   0.900   0.337   0.930  0.2532  0.1114 -0.4819
   39TMC2    C8  615   0.548   0.222   1.248  0.3221 -0.5705  0.1617
   39TMC2    O1  616   0.976   0.248   0.957  0.5890 -0.4016 -0.4456
   39TMC2    O2  617   0.432   0.237   1.286  0.0583 -0.0416 -0.1972
   39TMC2    O5  618   0.641   0.149   1.309 -0.4334 -0.0771  0.3982
   39TMC2    H5  619   0.733   0.176   1.288 -0.9258  0.1802 -1.4416
   40MPD2     C  620   0.423   0.455   0.499 -0.2138 -0.0486 -0.8770
   40MPD2    C1  621   0.384   0.498   0.624  0.0506 -0.1067 -0.6441
   40MPD2    C2  622   0.272   0.579   0.636 -0.8412  0.2227 -0.0356
   40MPD2    C3  623   0.211   0.631   0.522  0.5790  0.2763 -0.2604
   40MPD2    C4  624   0.266   0.603   0.402 -0.1550  0.0186 -0.1203
   40MPD2    C5  625   0.368   0.513   0.389  0.8390 -0.0789  0.5510
   40MPD2     H  626   0.237   0.602   0.736  1.4847  0.6586  0.6710
   40MPD2    H1  627   0.237   0.654   0.311 -2.1679 -2.3304 -0.8070
   40MPD2    H2  628   0.503   0.383   0.483 -0.6661  0.0036 -3.5130
   40MPD2    H3  629   0.404   0.478   0.293  0.7562 -0.5504  0.6886
   40MPD2     N  630   0.094   0.713   0.517  0.1537  0.1181  0.2288
   40MPD2    H5  631   0.062   0.740   0.425  3.6493 -0.5947 -1.1837
   40MPD2    N1  632   0.461   0.463   0.732 -0.5281  0.3628  0.3250
   40MPD2    H7  633   0.548   0.415   0.711 -1.8126 -2.2449  0.9791
   41TMC2    C1  634   4.073   3.919  13.515 -0.3575 -0.4309  0.0634
   41TMC2    C2  635   3.981   3.924  13.619  0.0863  0.4197 -0.4519
   41TMC2    C3  636   3.867   3.990  13.595 -0.2854  1.0446 -0.0938
   41TMC2    C4  637   4.057   3.986  13.399 -0.3762  0.2532  0.3661
   41TMC2    C5  638   3.937   4.052  13.380  0.1651  0.1015  0.0428
   41TMC2    C6  639   3.837   4.041  13.469 -0.1417 -0.1680  0.3110
   41TMC2     C  640   4.162   3.805  13.505  0.0177  0.3933  0.6360
   41TMC2     O  641   4.173   3.756  13.395  0.3443  0.2495 -0.1684
   41TMC2     H  642   3.993   3.858  13.704  1.2565  2.0363  0.6335
   41TMC2    H1  643   4.133   3.980  13.322 -0.4075  0.4388  0.3204
   41TMC2    H2  644   3.744   4.096  13.458 -0.0806  0.3450  2.4660
   41TMC2    C7  645   3.937   4.162  13.292  0.1756  0.2540  0.8551
   41TMC2    C8  646   3.746   3.990  13.674  0.0354  0.1526 -0.2989
   41TMC2    O1  647   3.869   4.259  13.324  0.6912 -0.1225 -0.1799
   41TMC2    O2  648   3.635   3.976  13.621  0.8443 -0.4882  0.6115
   41TMC2    O5  649   3.783   3.956  13.795  0.0910 -0.5949 -0.5777
   41TMC2    H5  650   3.879   3.966  13.811  0.1342  0.2524 -1.3262
   42MPD2     C  651   4.297   3.542  13.540 -0.4236  0.2173 -0.5899
   42MPD2    C1  652   4.298   3.637  13.640  0.7470 -0.0911  0.3411
   42MPD2    C2  653   4.370   3.633  13.751 -0.2482  0.9042 -0.3808
   42MPD2    C3  654   4.463   3.524  13.762  0.4670  0.2958  0.4832
   42MPD2    C4  655   4.457   3.422  13.664  0.2405  0.5376 -0.5301
   42MPD2    C5  656   4.372   3.429  13.559  0.8364  0.1502  0.1451
   42MPD2     H  657   4.372   3.709  13.828  3.4016  0.8143 -0.3584
   42MPD2    H1  658   4.511   3.330  13.684  0.3283  0.9118  0.9285
   42MPD2    H2  659   4.227   3.536  13.458 -1.2442  0.1587  0.1169
   42MPD2    H3  660   4.364   3.347  13.488 -1.1139  0.6464 -0.2115
   42MPD2     N  661   4.546   3.505  13.877  0.0701  0.1374 -0.6010
   42MPD2    H5  662   4.600   3.419  13.880  0.8396  0.6464  0.3673
   42MPD2    N1  663   4.217   3.752  13.624  0.0618 -0.4036 -0.6534
   42MPD2    H7  664   4.207   3.812  13.705  0.4254 -1.3142  0.0692
   43TMC2    C1  665   0.907   2.123   0.864 -0.1559 -0.1858  0.9265
   43TMC2    C2  666   0.782   2.190   0.880  0.5784 -0.3716 -0.7193
   43TMC2    C3  667   0.732   2.194   1.007 -0.0677 -0.7497 -0.5234
   43TMC2    C4  668   0.981   2.083   0.972  0.3040  0.1253 -0.0661
   43TMC2    C5  669   0.927   2.097   1.095 -1.0418  0.7684  0.1817
   43TMC2    C6  670   0.807   2.156   1.115 -0.1345 -0.3803  0.1716
   43TMC2     C  671   0.939   2.083   0.733 -0.6383  0.7668 -0.5181
   43TMC2     O  672   1.005   1.982   0.720 -0.1087 -0.6748  0.2794
   43TMC2     H  673   0.719   2.230   0.801 -1.2586  0.7514  1.2892
   43TMC2    H1  674   1.080   2.039   0.957  0.3221 -0.9350  3.0940
   43TMC2    H2  675   0.761   2.166   1.212  0.0878 -1.9284  0.4375
   43TMC2    C7  676   0.999   2.041   1.208  0.3951 -0.3018  0.7414
   43TMC2    C8  677   0.600   2.254   1.033 -0.0875 -0.6739  0.4475
   43TMC2    O1  678   1.088   1.963   1.186  0.8188 -0.2206 -0.2142
   43TMC2    O2  679   0.512   2.223   0.958  0.1241  0.3738 -0.3848
   43TMC2    O5  680   0.642   2.382   1.041  0.1898 -0.0082 -0.2680
   43TMC2    H5  681   0.740   2.389   1.052  0.3080 -2.5452  0.5122
   44MPD2     C  682   0.923   2.196   0.234 -0.5256  0.2516  0.4551
   44MPD2    C1  683   0.980   2.087   0.299 -0.2140  0.2787  0.3294
   44MPD2    C2  684   0.965   2.074   0.436 -0.5939  0.0704  0.8790
   44MPD2    C3  685   0.924   2.193   0.505  1.4576 -0.1663 -0.9246
   44MPD2    C4  686   0.877   2.307   0.438  0.3550  0.4551  0.3063
   44MPD2    C5  687   0.880   2.302   0.306 -0.4587 -0.4336 -0.7153
   44MPD2     H  688   0.995   1.985   0.491  1.6626  0.9407  1.0595
   44MPD2    H1  689   0.835   2.390   0.495  2.4702  2.4440 -1.0194
   44MPD2    H2  690   0.911   2.209   0.127 -0.7957  1.0307  0.5841
   44MPD2    H3  691   0.846   2.390   0.253 -1.4974 -0.0411  0.6040
   44MPD2     N  692   0.911   2.191   0.648 -0.6294  0.1568 -0.1081
   44MPD2    H5  693   0.879   2.275   0.696 -1.2700 -0.7247  1.0225
   44MPD2    N1  694   1.020   1.986   0.209  0.0389 -0.6172  0.0920
   44MPD2    H7  695   1.033   2.013   0.112 -2.7362 -1.7289 -0.5749
   45TMC2    C1  696   1.822   4.562   8.915 -0.5768 -0.5643  0.5688
   45TMC2    C2  697   1.960   4.581   8.913  0.4371  0.2740 -0.2132
   45TMC2    C3  698   2.042   4.564   9.022 -0.7617 -0.6022  0.1796
   45TMC2    C4  699   1.766   4.522   9.038  0.6523 -0.0841  0.3107
   45TMC2    C5  700   1.855   4.497   9.142 -0.8084 -0.0234 -0.0795
   45TMC2    C6  701   1.988   4.538   9.145 -0.2628 -0.0403  0.0050
   45TMC2     C  702   1.748   4.578   8.800  0.5348 -0.2962  1.1533
   45TMC2     O  703   1.805   4.634   8.706 -0.4352 -0.7337 -0.5923
   45TMC2     H  704   2.007   4.607   8.819 -1.5418  4.5591 -0.0025
   45TMC2    H1  705   1.660   4.505   9.047  0.1983  1.4238 -2.0640
   45TMC2    H2  706   2.046   4.517   9.235 -0.4336  0.9264  0.3438
   45TMC2    C7  707   1.789   4.447   9.267  0.9446 -0.2371  0.2354
   45TMC2    C8  708   2.181   4.547   8.988 -0.8578  0.0817 -0.1061
   45TMC2    O1  709   1.849   4.491   9.366  0.2489  0.1513 -0.2617
   45TMC2    O2  710   2.230   4.587   8.878 -0.0717 -0.1603 -0.1935
   45TMC2    O5  711   2.236   4.443   9.061 -0.0333 -0.4141  0.1174
   45TMC2    H5  712   2.181   4.393   9.125 -1.4923  1.1349  0.0708
   46MPD2     C  713   1.520   4.584   8.612  0.5099 -0.7071 -0.3581
   46MPD2    C1  714   1.509   4.579   8.749  0.6238 -0.1553 -0.5141
   46MPD2    C2  715   1.384   4.552   8.808  0.0795  0.1534  0.1730
   46MPD2    C3  716   1.279   4.509   8.732  0.1206 -0.3960  0.5542
   46MPD2    C4  717   1.289   4.500   8.590 -0.7394  0.3074 -0.3040
   46MPD2    C5  718   1.409   4.537   8.538  0.3929 -0.2864 -0.4448
   46MPD2     H  719   1.373   4.546   8.916 -0.4745 -1.1267  0.0471
   46MPD2    H1  720   1.216   4.454   8.524 -2.8749  1.9255  0.9369
   46MPD2    H2  721   1.613   4.608   8.562  1.4544  0.6771  2.0813
   46MPD2    H3  722   1.413   4.540   8.429  0.1311 -1.4185 -0.4911
   46MPD2     N  723   1.183   4.446   8.810 -0.6984  0.1653 -0.0648
   46MPD2    H5  724   1.198   4.445   8.910  2.6783 -0.2367 -0.5533
   46MPD2    N1  725   1.617   4.579   8.834  0.1438 -0.5313  0.6665
   46MPD2    H7  726   1.585   4.569   8.930 -1.3546 -1.5688  0.0630
   47TMC2    C1  727   2.755   0.746   8.776 -0.0265  0.1478  0.5394
   47TMC2    C2  728   2.664   0.824   8.712 -0.2704  0.0268 -0.5781
   47TMC2    C3  729   2.542   0.815   8.759 -0.3649  0.4073 -0.5071
   47TMC2    C4  730   2.718   0.657   8.873 -0.6304 -0.1786 -0.1139
   47TMC2    C5  731   2.590   0.651   8.914  0.2674 -1.0529 -0.1086
   47TMC2    C6  732   2.497   0.730   8.859 -0.2503  0.2418 -0.5447
   47TMC2     C  733   2.883   0.712   8.710 -0.0998 -0.3758  0.8491
   47TMC2     O  734   2.877   0.740   8.589  0.0739  0.1997 -0.4535
   47TMC2     H  735   2.675   0.895   8.631 -0.0208  0.2216 -0.3775
   47TMC2    H1  736   2.785   0.583   8.916 -0.7602 -0.8701 -1.0992
   47TMC2    H2  737   2.400   0.753   8.903 -0.7550 -2.5476 -0.1924
   47TMC2    C7  738   2.544   0.537   8.987 -0.2417  0.4583 -0.3304
   47TMC2    C8  739   2.444   0.909   8.701  0.3859  0.1810 -0.2017
   47TMC2    O1  740   2.616   0.494   9.072 -1.2733 -0.2930  0.3919
   47TMC2    O2  741   2.464   1.025   8.668  0.3557  0.1767  0.3974
   47TMC2    O5  742   2.328   0.844   8.684 -0.4830  0.6672 -0.0307
   47TMC2    H5  743   2.324   0.749   8.706  1.0451  0.3828 -0.9902
   48MPD2     C  744   3.094   0.548   8.569 -0.3428 -0.0065  0.0452
   48MPD2    C1  745   3.073   0.556   8.710 -0.0087 -0.4221 -0.9562
   48MPD2    C2  746   3.147   0.474   8.792 -0.4059  0.6326  0.3806
   48MPD2    C3  747   3.252   0.395   8.749  0.2069 -0.1708 -0.5053
   48MPD2    C4  748   3.276   0.394   8.614 -0.2849  0.1242 -0.5001
   48MPD2    C5  749   3.190   0.458   8.529  0.2890  0.2436 -0.3404
   48MPD2     H  750   3.125   0.471   8.898  1.1037 -2.4548  0.5918
   48MPD2    H1  751   3.351   0.333   8.564 -0.9918  0.1783 -1.6158
   48MPD2    H2  752   3.042   0.611   8.498 -0.2070 -1.3161 -1.2082
   48MPD2    H3  753   3.200   0.451   8.421 -1.0764  1.3235 -0.5373
   48MPD2     N  754   3.334   0.331   8.838  0.5586 -0.0687  0.4420
   48MPD2    H5  755   3.305   0.346   8.934  1.0509 -4.1162  1.2287
   48MPD2    N1  756   2.968   0.629   8.775  0.1485  0.0367 -0.0832
   48MPD2    H7  757   2.963   0.616   8.875  1.1432 -0.8841 -0.1552
   49TMC2    C1  758   2.111   2.784   9.888 -0.7387 -0.0849  0.0654
   49TMC2    C2  759   2.164   2.877   9.809  0.1377 -0.0190 -0.9559
   49TMC2    C3  760   2.149   2.870   9.676  0.5097 -0.3854 -1.0111
   49TMC2    C4  761   2.009   2.707   9.832  0.2828 -0.2835  0.2828
   49TMC2    C5  762   1.988   2.708   9.700  0.4539 -0.1314  0.1295
   49TMC2    C6  763   2.057   2.788   9.618  0.2732 -0.4296 -0.1527
   49TMC2     C  764   2.110   2.801  10.036  0.6663 -0.3161  0.2022
   49TMC2     O  765   2.177   2.897  10.074 -0.4985 -0.0821 -0.2004
   49TMC2     H  766   2.239   2.936   9.861 -0.1609 -2.0182  1.7786
   49TMC2    H1  767   1.952   2.634   9.889  0.9451 -1.2280 -0.2654
   49TMC2    H2  768   2.059   2.780   9.510  1.2051  1.1968 -0.2511
   49TMC2    C7  769   1.904   2.612   9.632 -0.3413 -0.1608  0.3957
   49TMC2    C8  770   2.207   2.965   9.596 -0.2344  0.1706  0.0918
   49TMC2    O1  771   1.888   2.625   9.511  0.0182 -0.0220 -0.0681
   49TMC2    O2  772   2.242   2.940   9.480  0.1566 -0.1265 -0.0688
   49TMC2    O5  773   2.266   3.058   9.676 -0.3545  0.3966  0.2521
   49TMC2    H5  774   2.217   3.080   9.759 -0.1764  1.4172  0.0830
   50MPD2     C  775   2.021   2.838  10.328 -0.6429 -0.1761 -1.1158
   50MPD2    C1  776   1.972   2.745  10.240  0.3258 -0.4763 -0.2475
   50MPD2    C2  777   1.861   2.675  10.287 -0.0356  0.0847 -0.5744
   50MPD2    C3  778   1.820   2.678  10.421  0.4047 -0.3099 -0.6834
   50MPD2    C4  779   1.871   2.765  10.505  0.8374 -0.0762 -0.2908
   50MPD2    C5  780   1.969   2.845  10.455 -0.4118  0.4650 -0.0037
   50MPD2     H  781   1.818   2.608  10.213  4.2885 -0.5334 -2.5401
   50MPD2    H1  782   1.844   2.768  10.610  3.2259 -0.5604  0.3245
   50MPD2    H2  783   2.115   2.886  10.304  0.3856 -2.3894 -1.5191
   50MPD2    H3  784   2.007   2.927  10.514 -0.1475  0.7344 -0.5532
   50MPD2     N  785   1.710   2.611  10.471  0.7452 -0.7275  0.2665
   50MPD2    H5  786   1.696   2.613  10.572 -2.7073 -1.8069 -0.1668
   50MPD2    N1  787   2.010   2.730  10.101  0.4776  0.4682 -0.0120
   50MPD2    H7  788   1.955   2.665  10.046  0.8137  0.6600 -0.5747
   51TMC2    C1  789   3.327   0.655   1.758 -0.1514 -0.7331 -0.0694
   51TMC2    C2  790   3.426   0.714   1.833  0.1920 -0.0444 -0.5797
   51TMC2    C3  791   3.407   0.846   1.863 -0.0004  0.4054  0.4606
   51TMC2    C4  792   3.222   0.728   1.714  0.0874  0.2653  0.4031
   51TMC2    C5  793   3.207   0.861   1.740  0.6010 -0.0370 -0.8946
   51TMC2    C6  794   3.299   0.921   1.816 -0.0853 -0.0799 -0.3234
   51TMC2     C  795   3.361   0.538   1.665 -0.2524 -0.8113 -0.0100
   51TMC2     O  796   3.291   0.516   1.568  0.3716  0.2957  0.0377
   51TMC2     H  797   3.515   0.659   1.862  1.0418  1.6827  0.0991
   51TMC2    H1  798   3.159   0.679   1.641  1.6678  1.6723 -1.9117
   51TMC2    H2  799   3.287   1.025   1.843  0.6319  0.5515 -2.4394
   51TMC2    C7  800   3.162   0.949   1.631 -0.2773 -0.2601  0.1747
   51TMC2    C8  801   3.521   0.932   1.886 -0.3013 -0.1863 -0.9083
   51TMC2    O1  802   3.220   1.057   1.621  0.1552  0.2897  0.2068
   51TMC2    O2  803   3.635   0.903   1.922  0.2920  0.2681  0.1030
   51TMC2    O5  804   3.510   1.031   1.795  0.1086 -0.7144  0.2203
   51TMC2    H5  805   3.442   0.998   1.732  0.4275  0.1211 -0.5593
   52MPD2     C  806   3.717   0.176   1.551 -0.0917  0.1423 -0.6143
   52MPD2    C1  807   3.610   0.211   1.472  0.1273 -0.6189 -0.2567
   52MPD2    C2  808   3.529   0.316   1.522  0.1626 -0.0649  0.2828
   52MPD2    C3  809   3.537   0.359   1.654  0.3930  0.0936  0.1762
   52MPD2    C4  810   3.638   0.314   1.728  0.6586  0.3937 -0.7375
   52MPD2    C5  811   3.724   0.222   1.676  0.3678 -0.4441  0.2526
   52MPD2     H  812   3.449   0.361   1.463 -0.5017 -1.7903 -0.1430
   52MPD2    H1  813   3.640   0.333   1.834 -4.1577 -0.5349 -0.4840
   52MPD2    H2  814   3.781   0.093   1.523 -2.4870 -1.8272 -0.3186
   52MPD2    H3  815   3.800   0.181   1.742  0.0293  2.4228  2.4612
   52MPD2     N  816   3.454   0.456   1.719  0.0746  0.0357  0.4225
   52MPD2    H5  817   3.488   0.483   1.811  1.2622 -0.1747  0.0507
   52MPD2    N1  818   3.598   0.179   1.333 -0.1050  0.4352  0.0898
   52MPD2    H7  819   3.525   0.234   1.289  0.0223 -0.6735 -1.5376
   53TMC2    C1  820   2.324   4.528  11.098  0.2163 -0.3794 -0.2294
   53TMC2    C2  821   2.421   4.443  11.110  0.1064 -0.2822  0.1528
   53TMC2    C3  822   2.494   4.437  11.226 -0.3488  0.2487 -0.6298
   53TMC2    C4  823   2.284   4.605  11.207 -0.4731 -0.3704  0.2941
   53TMC2    C5  824   2.351   4.586  11.323 -0.1418 -0.1625  0.6333
   53TMC2    C6  825   2.456   4.497  11.341  0.0515  0.2091  0.1746
   53TMC2     C  826   2.259   4.543  10.967 -1.2067 -0.4552  0.5454
   53TMC2     O  827   2.330   4.509  10.868 -0.0193  0.8384  0.4450
   53TMC2     H  828   2.454   4.370  11.037 -0.0548 -2.0397  1.8379
   53TMC2    H1  829   2.211   4.685  11.205 -1.8226 -1.5322  2.6421
   53TMC2    H2  830   2.488   4.456  11.436 -0.9116 -1.1585 -0.0783
   53TMC2    C7  831   2.292   4.642  11.438 -0.9253 -0.3358 -0.4479
   53TMC2    C8  832   2.592   4.330  11.234 -0.1736 -0.2667 -0.5712
   53TMC2    O1  833   2.177   4.687  11.436  0.4583 -0.1008  0.6165
   53TMC2    O2  834   2.617   4.249  11.148  0.7119  0.5160 -0.0720
   53TMC2    O5  835   2.675   4.358  11.338  0.5064  0.2994 -0.0316
   53TMC2    H5  836   2.648   4.437  11.389  2.4800  0.6987  0.3982
   54MPD2     C  837   2.081   4.632  10.739 -0.7173 -0.4987 -0.3709
   54MPD2    C1  838   2.041   4.615  10.868  0.5433 -0.0963  0.6904
   54MPD2    C2  839   1.911   4.649  10.897  0.3433 -0.3655  0.0574
   54MPD2    C3  840   1.816   4.685  10.801  0.0569  0.5555  0.1765
   54MPD2    C4  841   1.854   4.688  10.674 -0.0142  0.0919  0.5125
   54MPD2    C5  842   1.993   4.668  10.644 -0.2307 -0.1696  0.1891
   54MPD2     H  843   1.894   4.643  11.004  0.6175  0.2869  0.1378
   54MPD2    H1  844   1.793   4.736  10.597 -1.0634  0.3013  1.4816
   54MPD2    H2  845   2.186   4.617  10.716 -0.6670 -0.5170 -0.1343
   54MPD2    H3  846   2.031   4.687  10.544  0.2381  0.2277  0.4419
   54MPD2     N  847   1.684   4.711  10.837 -0.1490 -0.0076  0.5994
   54MPD2    H5  848   1.613   4.719  10.765  0.9772 -0.2756 -0.5441
   54MPD2    N1  849   2.127   4.580  10.980  0.4332  0.1018  0.7449
   54MPD2    H7  850   2.078   4.560  11.067  0.4477 -0.5425  0.6083
   55TMC2    C1  851   3.830   2.825   0.286  0.3994 -0.5082  0.0402
   55TMC2    C2  852   3.918   2.890   0.206  0.1385  0.2239 -0.1450
   55TMC2    C3  853   4.013   2.815   0.153  0.0244  0.2700 -0.3657
   55TMC2    C4  854   3.850   2.695   0.329  0.5976  0.2178  0.1698
   55TMC2    C5  855   3.951   2.630   0.284  0.6072 -0.5232 -0.0236
   55TMC2    C6  856   4.037   2.687   0.194  0.0349 -0.4106  0.0467
   55TMC2     C  857   3.706   2.888   0.334  0.3858 -0.0223  0.1808
   55TMC2     O  858   3.634   2.829   0.413 -0.2123  0.2076  0.1345
   55TMC2     H  859   3.908   2.993   0.173 -0.7760 -0.8031 -3.0670
   55TMC2    H1  860   3.766   2.658   0.388  2.3939 -2.5383  0.9943
   55TMC2    H2  861   4.114   2.634   0.138  0.3411 -0.1402  0.2117
   55TMC2    C7  862   3.970   2.490   0.314  0.3818 -0.4009 -0.2454
   55TMC2    C8  863   4.102   2.864   0.042  0.0628  0.0442 -0.8886
   55TMC2    O1  864   4.074   2.446   0.268 -0.0231 -0.5124 -0.3027
   55TMC2    O2  865   4.222   2.845   0.033 -0.5877  0.2327  0.1758
   55TMC2    O5  866   4.033   2.934  17.697 -0.4817  0.2693  0.0570
   55TMC2    H5  867   3.936   2.931  17.710 -0.5088 -1.9069 -0.6270
   56MPD2     C  868   3.542   3.145   0.150 -0.4204 -0.1411 -0.5305
   56MPD2    C1  869   3.556   3.072   0.266  0.0864 -0.3873  0.5915
   56MPD2    C2  870   3.466   3.070   0.370 -0.7745 -0.0035 -0.0488
   56MPD2    C3  871   3.352   3.157   0.360  0.0893 -0.0187 -0.2272
   56MPD2    C4  872   3.340   3.241   0.252  0.2130  0.0269 -0.5229
   56MPD2    C5  873   3.429   3.228   0.147 -0.8028 -0.1628 -0.2280
   56MPD2     H  874   3.462   2.992   0.446 -1.7225 -2.3135 -2.4928
   56MPD2    H1  875   3.263   3.315   0.231 -0.7644 -0.4624  1.3588
   56MPD2    H2  876   3.622   3.140   0.076 -0.1262 -0.5534 -0.1843
   56MPD2    H3  877   3.409   3.279   0.054  2.2501  0.7973 -0.3443
   56MPD2     N  878   3.261   3.142   0.467  0.1057 -0.1117 -0.1781
   56MPD2    H5  879   3.281   3.067   0.532  1.1171  0.9497  0.7265
   56MPD2    N1  880   3.666   2.990   0.253 -0.0185  0.0934 -0.3431
   56MPD2    H7  881   3.713   2.992   0.163  2.1473 -0.9817  0.7482
   57TMC2    C1  882   3.171   2.675  13.518  0.5889 -0.0758 -0.1625
   57TMC2    C2  883   3.253   2.732  13.605  0.6087  0.9797  0.7260
   57TMC2    C3  884   3.379   2.684  13.628 -0.5220  0.5759  0.5974
   57TMC2    C4  885   3.211   2.569  13.442  0.6617  0.1030  0.0192
   57TMC2    C5  886   3.337   2.521  13.465 -0.3878 -0.1065  0.1806
   57TMC2    C6  887   3.422   2.575  13.553 -0.5650 -0.2550 -0.5295
   57TMC2     C  888   3.040   2.737  13.497 -0.0819 -0.2753  0.3732
   57TMC2     O  889   3.000   2.817  13.581 -0.2328 -0.2588  0.1633
   57TMC2     H  890   3.220   2.816  13.664  0.4872  1.9550 -0.7316
   57TMC2    H1  891   3.130   2.512  13.398  0.0391 -0.2038  1.5712
   57TMC2    H2  892   3.524   2.539  13.541 -0.2030  0.9456 -1.0898
   57TMC2    C7  893   3.374   2.391  13.416  0.0069  0.7104 -0.8425
   57TMC2    C8  894   3.476   2.758  13.705  0.5781  0.4662 -0.7433
   57TMC2    O1  895   3.475   2.338  13.459 -0.3994  0.6293 -0.0979
   57TMC2    O2  896   3.594   2.739  13.684 -0.0932 -0.3868  0.2772
   57TMC2    O5  897   3.426   2.862  13.773  0.3039  0.1822  0.3913
   57TMC2    H5  898   3.344   2.831  13.816 -0.8818 -2.0912 -3.4621
   58MPD2     C  899   2.553   2.728  13.308  0.0358 -0.4975 -0.4017
   58MPD2    C1  900   2.616   2.812  13.404  0.9216  0.5774 -0.5849
   58MPD2    C2  901   2.755   2.801  13.430  0.3913 -0.6445 -0.4450
   58MPD2    C3  902   2.836   2.714  13.360 -0.3616  0.3786  0.0519
   58MPD2    C4  903   2.782   2.652  13.256 -0.2910  0.3866 -0.1952
   58MPD2    C5  904   2.645   2.652  13.234  0.0337  0.1837  0.4658
   58MPD2     H  905   2.797   2.861  13.510  0.0441  0.4294 -1.0644
   58MPD2    H1  906   2.836   2.579  13.197 -0.3736 -0.4176  0.7314
   58MPD2    H2  907   2.448   2.712  13.289 -0.3846  2.6255 -0.7910
   58MPD2    H3  908   2.615   2.591  13.150 -0.6388  0.3989  0.5519
   58MPD2     N  909   2.966   2.687  13.396  0.1948 -0.6569 -1.1184
   58MPD2    H5  910   3.012   2.624  13.330  1.6660  0.3128 -1.0044
   58MPD2    N1  911   2.543   2.900  13.480  0.0372  0.1818  0.1359
   58MPD2    H7  912   2.584   2.936  13.565  1.3436  0.5078 -0.6270
   59TMC2    C1  913   0.151   3.625  12.521  0.2284  0.0327  0.3697
   59TMC2    C2  914   0.276   3.587  12.469  0.3593 -0.8826 -0.4245
   59TMC2    C3  915   0.274   3.555  12.335 -0.3082  0.5932  0.4104
   59TMC2    C4  916   0.034   3.631  12.444 -0.6292 -0.0532 -0.2216
   59TMC2    C5  917   0.050   3.607  12.308  0.3100 -0.5691  0.8393
   59TMC2    C6  918   0.163   3.550  12.253  0.5111  0.0239 -0.5083
   59TMC2     C  919   0.146   3.687  12.650  0.5846 -0.1300  0.1690
   59TMC2     O  920   0.077   3.787  12.657 -0.6174 -0.6815  0.2998
   59TMC2     H  921   0.371   3.584  12.522 -0.2886 -0.7401  0.7532
   59TMC2    H1  922   4.676   3.673  12.474 -1.3759 -1.6686 -0.3130
   59TMC2    H2  923   0.178   3.546  12.145 -1.3683  2.6150 -0.8555
   59TMC2    C7  924   4.679   3.652  12.223 -0.2576 -0.0320 -0.5842
   59TMC2    C8  925   0.392   3.537  12.262  0.4255 -0.4561 -0.0806
   59TMC2    O1  926   4.718   3.708  12.123 -0.8185  0.1060 -0.4778
   59TMC2    O2  927   0.387   3.457  12.174 -0.2158  0.3334 -0.0643
   59TMC2    O5  928   0.418   3.669  12.236  0.2869 -0.2518  0.3182
   59TMC2    H5  929   0.413   3.730  12.313  2.2144  2.5363 -1.7810
   60MPD2     C  930   0.282   3.837  12.878  0.0909 -0.0975 -0.0628
   60MPD2    C1  931   0.300   3.705  12.852  0.2405 -0.1458  0.3123
   60MPD2    C2  932   0.390   3.632  12.938  0.8425 -0.2227  0.1854
   60MPD2    C3  933   0.441   3.690  13.052 -0.1279 -0.6444  0.2226
   60MPD2    C4  934   0.410   3.822  13.078  0.2622 -0.1371 -0.0308
   60MPD2    C5  935   0.334   3.895  12.988  0.4487 -0.4063  0.3122
   60MPD2     H  936   0.414   3.528  12.920 -0.6401 -0.4742 -0.3546
   60MPD2    H1  937   0.447   3.870  13.168 -1.6596 -0.8419  1.1481
   60MPD2    H2  938   0.218   3.895  12.812 -1.2221 -2.1202 -0.5878
   60MPD2    H3  939   0.307   3.998  13.006  2.1967  0.2073 -0.5223
   60MPD2     N  940   0.531   3.622  13.136  0.0973  0.4629 -0.3385
   60MPD2    H5  941   0.563   3.680  13.213  0.8629  0.9312 -1.0136
   60MPD2    N1  942   0.250   3.644  12.733 -0.8231 -0.0519 -0.5342
   60MPD2    H7  943   0.296   3.557  12.707  0.4513  0.2189  0.8254
   61TMC2    C1  944   3.983   0.060  13.868  0.4860 -0.4397  0.5611
   61TMC2    C2  945   3.868   0.048  13.795 -0.2915 -0.5655  0.2288
   61TMC2    C3  946   3.756   0.101  13.846  0.5529 -0.2776  0.2699
   61TMC2    C4  947   3.987   0.126  13.987 -0.1595 -0.2004  0.0987
   61TMC2    C5  948   3.868   0.172  14.039 -0.0525  0.3004  0.4317
   61TMC2    C6  949   3.757   0.166  13.965 -0.3333  0.2845 -0.1686
   61TMC2     C  950   4.098   4.730  13.822  0.4517 -0.0195  0.2850
   61TMC2     O  951   4.085   4.676  13.712 -0.0442 -0.5375  0.3351
   61TMC2     H  952   3.867   4.731  13.701  0.9167 -0.3692  0.1046
   61TMC2    H1  953   4.084   0.150  14.030 -0.0951 -3.3082  1.6668
   61TMC2    H2  954   3.676   0.232  13.995 -0.2898  1.2413 -2.1954
   61TMC2    C7  955   3.876   0.246  14.164 -0.2122  0.0408  0.2435
   61TMC2    C8  956   3.653   0.114  13.748 -0.1535  0.1261 -0.6023
   61TMC2    O1  957   3.976   0.294  14.209  0.3243  0.4401  0.0386
   61TMC2    O2  958   3.670   0.108  13.625  0.6312 -0.6320  0.2531
   61TMC2    O5  959   3.535   0.090  13.807 -0.0672  0.4256  0.0599
   61TMC2    H5  960   3.539   0.081  13.905 -0.1428 -1.5153 -0.1204
   62MPD2     C  961   4.344   4.573  13.788  0.6835  0.4589  0.1611
   62MPD2    C1  962   4.323   4.663  13.893 -0.8842  0.3450  0.2084
   62MPD2    C2  963   4.423   4.676  13.991 -0.6386  0.4353 -0.4623
   62MPD2    C3  964   4.534   4.591  13.991 -0.2331  0.7037  0.5719
   62MPD2    C4  965   4.549   4.503  13.888  0.0324 -0.3792  0.4292
   62MPD2    C5  966   4.460   4.503  13.783 -0.3910  0.5801  0.2811
   62MPD2     H  967   4.398   0.003  14.076 -0.8726 -1.0108  0.5636
   62MPD2    H1  968   4.645   4.453  13.882  1.0134  1.4028  1.3719
   62MPD2    H2  969   4.273   4.555  13.707 -0.2406  0.2760  1.0140
   62MPD2    H3  970   4.480   4.432  13.704 -1.5907 -1.0222  1.3993
   62MPD2     N  971   4.627   4.589  14.101  0.6497 -0.0568  0.4420
   62MPD2    H5  972   4.709   4.529  14.094  1.3330  1.0434 -0.8177
   62MPD2    N1  973   4.202   4.724  13.913 -0.7110  0.6633 -0.4074
   62MPD2    H7  974   4.203   0.032  14.004 -0.7931 -0.2885  0.0503
   63TMC2    C1  975   3.676   4.690  10.205  0.1615  0.5077  0.0448
   63TMC2    C2  976   3.718   4.639  10.324  0.4238 -0.5994 -0.1307
   63TMC2    C3  977   3.812   4.711  10.388  0.7124 -0.3132  0.3185
   63TMC2    C4  978   3.708   0.080  10.163  0.3036 -0.0453  0.1039
   63TMC2    C5  979   3.807   0.147  10.226  0.2932 -0.7260  0.3436
   63TMC2    C6  980   3.865   0.095  10.340  0.1728  0.5394 -0.2087
   63TMC2     C  981   3.590   4.606  10.119 -0.2516  0.8521 -0.1215
   63TMC2     O  982   3.529   4.681  10.044  0.0344 -0.5773  0.0498
   63TMC2     H  983   3.669   4.555  10.372 -1.2942 -0.0569 -0.9501
   63TMC2    H1  984   3.685   0.115  10.063  0.4066 -1.9115 -0.5727
   63TMC2    H2  985   3.946   0.141  10.394 -0.7382  2.1475 -0.1950
   63TMC2    C7  986   3.833   0.282  10.179  0.8755 -0.0421 -0.1182
   63TMC2    C8  987   3.876   4.665  10.516  0.1123 -0.2105  0.3925
   63TMC2    O1  988   3.772   0.311  10.076 -0.4220 -0.4125  0.1068
   63TMC2    O2  989   3.934   0.011  10.590 -0.0631 -0.2378  0.4694
   63TMC2    O5  990   3.874   4.533  10.520 -0.0292 -0.1718  0.1401
   63TMC2    H5  991   3.838   4.476  10.449 -0.8282  0.2731  0.1866
   64MPD2     C  992   3.349   4.185   9.949  0.6537 -0.3970 -0.0085
   64MPD2    C1  993   3.428   4.155  10.059 -0.3508  0.4942 -0.1104
   64MPD2    C2  994   3.500   4.249  10.125 -0.3805 -0.0212  0.0220
   64MPD2    C3  995   3.495   4.383  10.088  0.0755 -0.7009 -0.0130
   64MPD2    C4  996   3.411   4.414   9.979 -0.5911 -0.2973 -0.8678
   64MPD2    C5  997   3.334   4.316   9.914  0.0361  0.1900 -0.6315
   64MPD2     H  998   3.570   4.225  10.205 -0.8329  0.5481  0.5962
   64MPD2    H1  999   3.407   4.521   9.960  0.5634  0.1577  1.3412
   64MPD2    H2 1000   3.288   4.109   9.899  0.1497 -1.2066  1.8419
   64MPD2    H3 1001   3.271   4.340   9.829 -0.6154 -0.1553 -0.2510
   64MPD2     N 1002   3.590   4.470  10.143  0.3424 -0.6661 -0.5496
   64MPD2    H5 1003   3.642   4.433  10.222  0.4556  2.9749  1.1146
   64MPD2    N1 1004   3.446   4.024  10.109  0.1114 -0.1661  0.0934
   64MPD2    H7 1005   3.521   4.033  10.176  1.1171  1.4372 -1.2537
   65TMC2    C1 1006   4.564   4.310  16.029  0.5419  0.0166 -0.6396
   65TMC2    C2 1007   4.639   4.318  16.141 -0.9516 -0.2045 -0.1704
   65TMC2    C3 1008   4.735   4.416  16.145 -0.2595 -0.9239  0.1227
   65TMC2    C4 1009   4.577   4.393  15.923 -1.1695 -0.1722  0.4835
   65TMC2    C5 1010   4.669   4.495  15.937  0.0874  0.4867  0.9194
   65TMC2    C6 1011   0.014   4.509  16.046 -0.7803  0.4480 -0.4231
   65TMC2     C 1012   4.512   4.179  15.992 -0.1041  0.4208  0.2246
   65TMC2     O 1013   4.513   4.155  15.875 -0.1893  0.3793  0.2754
   65TMC2     H 1014   4.628   4.250  16.225 -0.8132 -1.2256 -0.9749
   65TMC2    H1 1015   4.506   4.390  15.840 -0.0291  1.4289 -0.5451
   65TMC2    H2 1016   0.100   4.574  16.045 -1.2397  1.0773  0.4735
   65TMC2    C7 1017   4.667   4.599  15.837  0.7257 -0.1621 -0.8588
   65TMC2    C8 1018   0.078   4.424  16.268  0.8174  0.5415  0.2605
   65TMC2    O1 1019   4.607   4.572  15.734  0.4128 -0.2786  0.2316
   65TMC2    O2 1020   0.097   4.325  16.331  0.2411 -0.0902  0.0614
   65TMC2    O5 1021   0.084   4.551  16.315 -0.1033 -0.0371 -0.9001
   65TMC2    H5 1022   0.025   4.605  16.259  1.4724  1.8843 -0.7074
   66MPD2     C 1023   4.360   3.928  16.217 -0.0876 -0.4708 -0.2704
   66MPD2    C1 1024   4.405   3.979  16.098 -0.6680  0.5241 -0.3487
   66MPD2    C2 1025   4.428   3.886  15.992 -0.5985 -0.2174 -0.2166
   66MPD2    C3 1026   4.375   3.756  16.006 -0.3935  0.9265  0.8439
   66MPD2    C4 1027   4.325   3.718  16.130  0.2576  0.3044  0.1592
   66MPD2    C5 1028   4.325   3.803  16.236 -0.5550  0.6703 -0.2649
   66MPD2     H 1029   4.463   3.920  15.895  0.0711 -0.1588  0.0425
   66MPD2    H1 1030   4.284   3.620  16.153 -0.4062  0.5279 -0.0675
   66MPD2    H2 1031   4.337   4.002  16.293  0.9032 -1.6373  1.1461
   66MPD2    H3 1032   4.299   3.763  16.333  0.7555  1.4517  0.4132
   66MPD2     N 1033   4.362   3.664  15.902  0.4408 -0.0315 -0.6246
   66MPD2    H5 1034   4.296   3.588  15.913  2.9764 -2.3504 -1.6069
   66MPD2    N1 1035   4.460   4.110  16.106  0.2970  0.3023 -0.0159
   66MPD2    H7 1036   4.472   4.153  16.197 -1.7307 -0.2489  0.5287
   67TMC2    C1 1037   0.688   3.458  13.997  1.0116 -0.7659  0.3461
   67TMC2    C2 1038   0.569   3.528  14.005  0.4231 -0.2767 -0.4098
   67TMC2    C3 1039   0.566   3.628  14.105 -0.5918 -0.5151 -0.1676
   67TMC2    C4 1040   0.778   3.464  14.097  0.4877  0.4467  1.2119
   67TMC2    C5 1041   0.766   3.554  14.201 -0.1375 -0.1366 -0.3755
   67TMC2    C6 1042   0.659   3.641  14.204 -0.1788 -0.2798 -0.7783
   67TMC2     C 1043   0.703   3.346  13.899  0.0705 -0.0413 -0.0806
   67TMC2     O 1044   0.819   3.300  13.899  0.8872 -0.2102  0.3343
   67TMC2     H 1045   0.501   3.534  13.921 -0.2334 -0.3912  0.1187
   67TMC2    H1 1046   0.847   3.381  14.111 -0.3290  0.0318  2.7741
   67TMC2    H2 1047   0.666   3.714  14.284 -0.4157 -1.5330  0.3795
   67TMC2    C7 1048   0.865   3.533  14.306 -0.0097  0.5705 -0.1937
   67TMC2    C8 1049   0.443   3.702  14.109 -0.0023  0.4693  0.0590
   67TMC2    O1 1050   0.980   3.509  14.277  0.0961  0.6774 -0.4514
   67TMC2    O2 1051   0.343   3.660  14.053  0.1517 -0.0244 -0.4788
   67TMC2    O5 1052   0.479   3.825  14.088 -0.3378  0.5746 -0.1667
   67TMC2    H5 1053   0.559   3.855  14.138  1.7706 -1.3898 -2.3639
   68MPD2     C 1054   0.758   3.234  13.628  0.8650  0.0182 -0.4447
   68MPD2    C1 1055   0.631   3.241  13.680 -0.3180 -0.6687  0.3063
   68MPD2    C2 1056   0.525   3.198  13.593 -0.4641 -0.3582  0.2640
   68MPD2    C3 1057   0.558   3.137  13.468  0.0104 -0.2722  0.0884
   68MPD2    C4 1058   0.689   3.123  13.424  0.7091 -0.8052 -0.1401
   68MPD2    C5 1059   0.786   3.173  13.513 -0.0026  0.0037 -0.3961
   68MPD2     H 1060   0.424   3.209  13.629 -1.1692 -1.6090 -1.3002
   68MPD2    H1 1061   0.718   3.062  13.339  0.1640  0.3690 -1.1606
   68MPD2    H2 1062   0.841   3.263  13.691  0.8773  0.1557 -0.5249
   68MPD2    H3 1063   0.892   3.177  13.489 -0.3220 -0.6418 -1.9306
   68MPD2     N 1064   0.456   3.091  13.380 -0.0109  0.2614 -0.8724
   68MPD2    H5 1065   0.483   3.059  13.287 -1.9906 -0.4157 -1.2254
   68MPD2    N1 1066   0.600   3.307  13.811 -0.4189 -0.4153 -0.3963
   68MPD2    H7 1067   0.502   3.324  13.830 -0.5224 -0.9955 -0.4042
   69TMC2    C1 1068   2.590   0.445  11.759  0.2192 -0.6392 -1.1380
   69TMC2    C2 1069   2.572   0.579  11.728  0.3773 -0.4124 -0.0365
   69TMC2    C3 1070   2.536   0.606  11.601  0.0195 -0.2480 -0.3495
   69TMC2    C4 1071   2.576   0.339  11.671  0.2945  0.4272 -0.9660
   69TMC2    C5 1072   2.537   0.372  11.544  0.4448  0.0050 -1.1423
   69TMC2    C6 1073   2.516   0.505  11.508 -0.0583  0.1147 -0.0603
   69TMC2     C 1074   2.679   0.423  11.868 -0.4390  0.1257  0.3725
   69TMC2     O 1075   2.652   0.320  11.932  0.0692 -0.4547 -0.3653
   69TMC2     H 1076   2.579   0.665  11.793 -0.8471  1.1227 -1.9210
   69TMC2    H1 1077   2.599   0.237  11.700  1.0554  0.8409 -0.1363
   69TMC2    H2 1078   2.458   0.518  11.417  1.3579  0.3180 -0.9328
   69TMC2    C7 1079   2.558   0.266  11.444 -0.6639  0.7526  0.1828
   69TMC2    C8 1080   2.489   0.740  11.571 -0.2638  0.3559 -0.6827
   69TMC2    O1 1081   2.649   0.186  11.477  0.3616 -0.9976 -0.0843
   69TMC2    O2 1082   2.452   0.810  11.660  0.7979  0.1954  0.3639
   69TMC2    O5 1083   2.440   0.753  11.449 -0.6816  0.2555  0.1795
   69TMC2    H5 1084   2.496   0.712  11.380 -0.5428 -2.0243  1.6579
   70MPD2     C 1085   3.023   0.534  11.880 -0.1280 -0.0665 -0.1031
   70MPD2    C1 1086   2.912   0.478  11.930  0.0288  0.0525  0.2450
   70MPD2    C2 1087   2.924   0.385  12.029 -0.3414 -1.2867 -0.5490
   70MPD2    C3 1088   3.047   0.340  12.072  0.0246 -0.1166 -0.3422
   70MPD2    C4 1089   3.158   0.389  12.013 -0.8782 -0.5610 -0.4836
   70MPD2    C5 1090   3.150   0.485  11.922 -0.0946 -0.1058  0.3100
   70MPD2     H 1091   2.835   0.333  12.064 -2.2568  2.5954  0.3456
   70MPD2    H1 1092   3.251   0.341  12.042 -0.8768  0.6045  1.4965
   70MPD2    H2 1093   3.022   0.613  11.805  2.6712  0.0263 -0.0531
   70MPD2    H3 1094   3.239   0.527  11.877 -0.1945  1.3780  1.4977
   70MPD2     N 1095   3.067   0.241  12.169 -0.6188 -0.1553  0.2304
   70MPD2    H5 1096   3.157   0.195  12.176  0.4523  1.6974 -1.2949
   70MPD2    N1 1097   2.790   0.502  11.857  0.2893  0.4051  0.0615
   70MPD2    H7 1098   2.790   0.584  11.797 -0.9689  1.3348  1.3292
   71TMC2    C1 1099   0.049   0.293   0.539  0.5524 -0.2738 -0.4708
   71TMC2    C2 1100   0.141   0.239   0.457 -0.3085  0.2253 -0.2356
   71TMC2    C3 1101   0.248   0.183   0.512  0.5181  0.0067  0.0964
   71TMC2    C4 1102   0.063   0.298   0.677 -0.4713  1.1059  0.1119
   71TMC2    C5 1103   0.181   0.242   0.726  0.6115  0.0164  0.1881
   71TMC2    C6 1104   0.273   0.179   0.646 -0.6025 -0.0211 -0.4575
   71TMC2     C 1105   4.658   0.323   0.476  0.1333  0.0706  0.6073
   71TMC2     O 1106   4.597   0.404   0.543  0.2549 -0.7467  0.0575
   71TMC2     H 1107   0.141   0.246   0.349 -2.8889  2.8695 -0.0777
   71TMC2    H1 1108   4.723   0.343   0.740 -0.6623  1.6368 -0.4987
   71TMC2    H2 1109   0.364   0.139   0.689 -0.1036 -1.4373 -2.8460
   71TMC2    C7 1110   0.187   0.206   0.872  0.0060  0.2389 -0.3389
   71TMC2    C8 1111   0.346   0.138   0.420  0.5097  0.1972 -0.9141
   71TMC2    O1 1112   0.299   0.171   0.907  0.2461 -0.2442 -0.1516
   71TMC2    O2 1113   0.364   0.184   0.316  0.8981 -0.0575 -0.3828
   71TMC2    O5 1114   0.393   0.020   0.463 -0.5519 -0.0840  0.1915
   71TMC2    H5 1115   0.345   4.724   0.542 -2.9036  1.4536 -0.6012
   72MPD2     C 1116   4.303   0.238   0.111  0.2956 -0.4042  0.4844
   72MPD2    C1 1117   4.341   0.347   0.182  0.2465 -0.3818 -0.0531
   72MPD2    C2 1118   4.439   0.347   0.274  0.7203 -0.8682 -0.9132
   72MPD2    C3 1119   4.505   0.230   0.301 -0.0116  0.5724  0.5960
   72MPD2    C4 1120   4.477   0.119   0.236  0.1175  0.1882  0.2277
   72MPD2    C5 1121   4.368   0.126   0.147 -0.2592 -0.7901  0.0565
   72MPD2     H 1122   4.460   0.441   0.324  0.0996 -0.9669 -0.4626
   72MPD2    H1 1123   4.523   0.028   0.274  0.6432  0.0070 -0.8354
   72MPD2    H2 1124   4.223   0.224   0.039  0.5179  0.1705  0.1211
   72MPD2    H3 1125   4.334   0.030   0.109  1.1796 -1.1351 -0.3449
   72MPD2     N 1126   4.622   0.230   0.381 -0.0794  0.1726 -0.0208
   72MPD2    H5 1127   4.690   0.158   0.358  1.0469  0.9804  0.7898
   72MPD2    N1 1128   4.281   0.474   0.153 -0.4724  0.0226 -0.3025
   72MPD2    H7 1129   4.306   0.557   0.206  0.8302  0.7800 -2.1055
   73TMC2    C1 1130   0.076   2.514  13.943 -0.7836  0.0784  0.4857
   73TMC2    C2 1131   0.052   2.480  14.071  0.5235 -0.0753 -0.9844
   73TMC2    C3 1132   0.034   2.582  14.159  0.8415 -0.0808  0.0662
   73TMC2    C4 1133   0.088   2.643  13.898 -0.7751 -0.2917 -0.3437
   73TMC2    C5 1134   0.055   2.738  13.991  0.0170 -0.6114  0.2158
   73TMC2    C6 1135   0.034   2.712  14.123 -0.1150  0.4906 -0.4109
   73TMC2     C 1136   0.019   2.415  13.850  1.0098  0.0202  0.6020
   73TMC2     O 1137   4.703   2.464  13.753  0.0381 -0.4802  0.4449
   73TMC2     H 1138   0.010   2.384  14.101  2.4737 -1.4310 -2.5505
   73TMC2    H1 1139   0.107   2.669  13.795  0.8608  0.4025  0.1263
   73TMC2    H2 1140   0.025   2.785  14.202 -0.8590  1.0557 -1.0222
   73TMC2    C7 1141   4.688   2.827  13.935 -0.1632  0.1397 -0.1061
   73TMC2    C8 1142   0.008   2.544  14.292  0.1867  0.1406 -0.0146
   73TMC2    O1 1143   4.701   2.952  13.944 -0.1112 -0.0371 -0.5239
   73TMC2    O2 1144   4.666   2.448  14.308  0.3107  0.1911  0.5774
   73TMC2    O5 1145   0.136   2.525  14.323 -0.7642 -0.0233  0.4299
   73TMC2    H5 1146   0.191   2.605  14.306 -0.6944 -0.6284 -2.2274
   74MPD2     C 1147   4.537   1.969  13.697  0.3482 -0.3407 -0.0125
   74MPD2    C1 1148   4.507   2.106  13.667  0.8006 -0.6629  0.5308
   74MPD2    C2 1149   4.576   2.205  13.734 -0.1061  0.0128 -0.3893
   74MPD2    C3 1150   4.671   2.175  13.830 -0.0686  0.2398 -0.0044
   74MPD2    C4 1151   4.688   2.044  13.870  0.1038  0.2859  0.0329
   74MPD2    C5 1152   4.625   1.948  13.797 -0.3018  0.9062  0.2717
   74MPD2     H 1153   4.553   2.304  13.696  0.1013 -1.0018 -3.1562
   74MPD2    H1 1154   0.023   2.020  13.947 -0.0888  3.5591  1.2160
   74MPD2    H2 1155   4.493   1.883  13.648  0.1105 -0.3936  0.2899
   74MPD2    H3 1156   4.647   1.842  13.805  0.2147  0.8624 -1.6532
   74MPD2     N 1157   0.010   2.279  13.890 -0.4308  0.0303  0.1485
   74MPD2    H5 1158   0.057   2.252  13.976  0.3551 -0.0162 -0.2965
   74MPD2    N1 1159   4.407   2.132  13.568 -0.4884 -0.5133  0.9111
   74MPD2    H7 1160   4.380   2.063  13.499 -2.7938  0.2035  1.1031
   75TMC2    C1 1161   0.256   3.049  13.264 -0.8059 -0.5579 -0.4122
   75TMC2    C2 1162   0.309   2.948  13.199  0.0857  0.1630  0.5914
   75TMC2    C3 1163   0.237   2.894  13.097  0.5824 -0.1674 -0.7409
   75TMC2    C4 1164   0.131   3.103  13.235  1.0305 -0.3350 -0.4072
   75TMC2    C5 1165   0.067   3.051  13.122  0.3630 -0.4990  0.1660
   75TMC2    C6 1166   0.121   2.944  13.050 -0.2043 -0.3821 -0.0950
   75TMC2     C 1167   0.320   3.108  13.381 -0.4650  0.1653 -0.7712
   75TMC2     O 1168   0.258   3.172  13.466  0.3384  0.2322  0.4212
   75TMC2     H 1169   0.393   2.894  13.241  0.6830  1.5148  1.1268
   75TMC2    H1 1170   0.086   3.189  13.284  0.0233 -0.3352 -1.3299
   75TMC2    H2 1171   0.066   2.898  12.969  0.6816 -0.5034 -0.6253
   75TMC2    C7 1172   4.682   3.113  13.079  0.4913 -0.2626  0.2053
   75TMC2    C8 1173   0.270   2.761  13.057 -0.0181 -0.5561 -0.1977
   75TMC2    O1 1174   4.658   3.223  13.131 -0.4909 -0.1112  0.0086
   75TMC2    O2 1175   0.307   2.666  13.127 -0.0333 -0.7443  0.2750
   75TMC2    O5 1176   0.297   2.775  12.928 -0.1877 -0.1205  0.0264
   75TMC2    H5 1177   0.292   2.866  12.894 -2.9743 -1.1725 -2.4363
   76TMC2    C1 1178   3.165   3.873  11.734 -0.4720 -0.2984 -0.4590
   76TMC2    C2 1179   3.056   3.792  11.707  0.7121  0.9218 -0.6130
   76TMC2    C3 1180   3.039   3.677  11.781 -0.4362  0.8103 -0.5774
   76TMC2    C4 1181   3.256   3.841  11.837  0.2096  0.2388 -0.5295
   76TMC2    C5 1182   3.240   3.715  11.887  0.5185 -0.0327  0.1322
   76TMC2    C6 1183   3.137   3.634  11.867  1.0734 -0.5532 -0.6982
   76TMC2     C 1184   3.186   3.987  11.641  0.1742 -0.3219  0.2201
   76TMC2     O 1185   3.089   4.027  11.583 -0.3788 -0.0186 -0.4420
   76TMC2     H 1186   2.988   3.830  11.632  1.5965  2.6677 -0.5379
   76TMC2    H1 1187   3.343   3.905  11.852 -0.3725  1.1090 -0.8696
   76TMC2    H2 1188   3.127   3.547  11.931  0.9827 -1.9988 -2.6818
   76TMC2    C7 1189   3.346   3.646  11.958 -0.0194  0.1824 -0.3314
   76TMC2    C8 1190   2.914   3.604  11.792  0.0588  0.2296 -0.2300
   76TMC2    O1 1191   3.361   3.525  11.942  0.4391  0.4590  0.5318
   76TMC2    O2 1192   2.855   3.589  11.898 -0.1783 -0.2406 -0.4535
   76TMC2    O5 1193   2.860   3.596  11.668  0.1278  0.1874 -0.0602
   76TMC2    H5 1194   2.936   3.598  11.605  0.3016 -0.1959  0.1330
   77MPD2     C 1195   3.469   4.295  11.335 -0.8455  0.3967 -0.1702
   77MPD2    C1 1196   3.334   4.279  11.349  0.0944 -0.1174  0.3120
   77MPD2    C2 1197   3.291   4.193  11.445  0.6524  0.3671 -0.3451
   77MPD2    C3 1198   3.369   4.128  11.535 -0.3840  0.7527  0.1113
   77MPD2    C4 1199   3.503   4.164  11.531  0.0258 -0.0700  0.8146
   77MPD2    C5 1200   3.556   4.246  11.433  0.3623 -0.4275  0.1483
   77MPD2     H 1201   3.183   4.182  11.444  0.7655 -0.6711 -1.3918
   77MPD2    H1 1202   3.572   4.120  11.601 -0.0598 -0.3480  0.7278
   77MPD2    H2 1203   3.504   4.370  11.265  1.1378 -1.0288 -0.7056
   77MPD2    H3 1204   3.660   4.274  11.425  0.2053  0.5540  1.5057
   77MPD2     N 1205   3.314   4.032  11.633 -0.7326  0.1869  0.3051
   77MPD2    H5 1206   3.384   4.000  11.699  0.2352 -0.0708 -0.8268
   77MPD2    N1 1207   3.236   4.344  11.271 -0.0062 -0.3566 -0.2314
   77MPD2    H7 1208   3.140   4.342  11.304 -0.1838  2.7529 -0.5406
   78TMC2    C1 1209   0.163   4.643   1.357 -0.1865 -0.5222  0.3286
   78TMC2    C2 1210   0.095   4.648   1.237  0.1073 -0.7270 -0.1590
   78TMC2    C3 1211   0.169   4.648   1.121 -0.2794 -0.1017  0.0804
   78TMC2    C4 1212   0.302   4.637   1.358  0.1968  0.0822  0.1306
   78TMC2    C5 1213   0.364   4.632   1.234  0.5375  0.4690 -0.0418
   78TMC2    C6 1214   0.305   4.641   1.109 -0.1465  0.1438 -0.2631
   78TMC2     C 1215   0.099   4.666   1.489  0.4573 -0.6939 -0.5138
   78TMC2     O 1216   0.151   4.727   1.583  0.5499  0.5278 -0.3662
   78TMC2     H 1217   4.725   4.661   1.232  0.3096  1.1381  0.4866
   78TMC2    H1 1218   0.360   4.636   1.450 -0.9855 -0.9680  0.8669
   78TMC2    H2 1219   0.350   4.614   1.014  0.3291  1.1832 -0.3269
   78TMC2    C7 1220   0.500   4.616   1.217  0.2377  0.4054  0.2334
   78TMC2    C8 1221   0.107   4.628   0.992 -0.3673 -0.0919 -0.1261
   78TMC2    O1 1222   0.554   4.654   1.117  0.2321  0.2024 -1.2089
   78TMC2    O2 1223   0.153   4.647   0.879  0.3221 -0.1634  0.4701
   78TMC2    O5 1224   4.734   4.558   1.018  0.0109  0.0998  0.3048
   78TMC2    H5 1225   4.729   4.524   1.110 -1.2022  0.0924  0.2463
   79MPD1     C 1226   4.405   4.641   1.779  0.4675  0.2042  0.3763
   79MPD1    C1 1227   4.529   4.700   1.796  0.5779  0.0415 -0.1102
   79MPD1    C2 1228   4.632   4.678   1.710 -0.4239 -0.3056  0.0745
   79MPD1    C3 1229   4.616   4.602   1.594  1.1317  0.2640 -0.0828
   79MPD1    C4 1230   4.484   4.554   1.571  0.6292  0.5456  0.0932
   79MPD1    C5 1231   4.380   4.582   1.653 -0.9761 -0.7090 -0.6607
   79MPD1     H 1232   4.725   4.727   1.736  0.0878 -1.3064  0.1357
   79MPD1    H1 1233   4.462   4.503   1.478  2.3657  1.0118 -0.5782
   79MPD1    H2 1234   4.320   4.648   1.845 -0.9833 -2.8094 -1.1534
   79MPD1    H3 1235   4.282   4.545   1.624 -1.4677 -0.0118  0.1331
   79MPD1     N 1236   4.718   4.595   1.492  0.5769  0.7265 -0.1186
   79MPD1    H5 1237   4.695   4.544   1.407  1.7709 -0.7615  0.4536
   79MPD1    N1 1238   4.553   0.025   1.923  0.4477 -0.0820 -0.6214
   79MPD1    H6 1239   4.465   0.066   1.955  1.1422  0.2126  0.8988
   79MPD1    H7 1240   4.630   0.091   1.927  0.0960  0.2255  1.2103
   80TMC2    C1 1241   1.819   3.515  11.454 -0.0289 -0.7581 -0.4964
   80TMC2    C2 1242   1.718   3.517  11.367  0.4280  0.4921  0.2421
   80TMC2    C3 1243   1.618   3.428  11.385  0.0086  0.5429 -0.6581
   80TMC2    C4 1244   1.828   3.421  11.552  0.0260  0.1245 -0.1228
   80TMC2    C5 1245   1.721   3.336  11.562  0.0336  0.0155  0.1410
   80TMC2    C6 1246   1.612   3.335  11.478 -0.5790  0.0183 -0.9021
   80TMC2     C 1247   1.944   3.580  11.421 -0.3244 -0.3428  0.0115
   80TMC2     O 1248   2.049   3.522  11.424  0.6442 -0.5839  0.3294
   80TMC2     H 1249   1.720   3.577  11.277  0.8656  0.5611  0.3028
   80TMC2    H1 1250   1.922   3.410  11.603 -0.6279 -2.2532  0.5805
   80TMC2    H2 1251   1.528   3.267  11.489  0.2698 -0.7474  0.8590
   80TMC2    C7 1252   1.707   3.262  11.690 -0.3435 -0.9052  0.0629
   80TMC2    C8 1253   1.522   3.418  11.280  0.0743  0.5495  0.4462
   80TMC2    O1 1254   1.629   3.168  11.696  1.2303  0.3025  0.2275
   80TMC2    O2 1255   1.462   3.512  11.240  0.0878 -0.6912 -1.2081
   80TMC2    O5 1256   1.556   3.306  11.210  0.0436  0.0281 -0.5482
   80TMC2    H5 1257   1.637   3.272  11.254 -0.0179 -0.5735 -0.8956
   81MPD2     C 1258   2.145   3.760  11.301 -0.1594  0.5692 -0.5000
   81MPD2    C1 1259   2.027   3.807  11.362  0.9628 -0.0803 -0.2798
   81MPD2    C2 1260   2.021   3.934  11.399  0.1305  0.3861  1.4496
   81MPD2    C3 1261   2.125   4.022  11.380  0.1094  0.5469 -0.4152
   81MPD2    C4 1262   2.243   3.977  11.331  0.3986  0.6269 -0.0041
   81MPD2    C5 1263   2.247   3.846  11.286  0.2627 -0.5463 -0.2507
   81MPD2     H 1264   1.938   3.975  11.456  0.2755  3.2532 -0.4008
   81MPD2    H1 1265   2.337   4.031  11.324 -0.6765  2.5991  1.0435
   81MPD2    H2 1266   2.148   3.661  11.257  2.3799  0.8830 -1.0366
   81MPD2    H3 1267   2.332   3.810  11.231 -0.0826  1.9476 -2.3902
   81MPD2     N 1268   2.110   4.148  11.447  0.1717  0.5319 -0.2012
   81MPD2    H5 1269   2.017   4.165  11.483 -0.3821  1.3657 -2.0250
   81MPD2    N1 1270   1.924   3.714  11.399  0.9544  0.5625 -0.0400
   81MPD2    H7 1271   1.832   3.755  11.413  1.1009  0.6822  0.5392
   82TMC2    C1 1272   0.817   2.967  11.009  0.2808 -0.6148  0.8507
   82TMC2    C2 1273   0.929   3.002  11.078  0.4813  0.6888  0.1909
   82TMC2    C3 1274   0.928   2.968  11.209 -0.0553  0.8772  0.1645
   82TMC2    C4 1275   0.705   2.903  11.065  0.1590 -0.4918  0.4894
   82TMC2    C5 1276   0.717   2.868  11.198 -0.3798  0.3589  0.5488
   82TMC2    C6 1277   0.829   2.890  11.268  0.1874  0.2385 -0.3601
   82TMC2     C 1278   0.797   3.024  10.874  0.7104  0.7220 -0.1702
   82TMC2     O 1279   0.707   2.980  10.806  0.6495  0.6627  0.5423
   82TMC2     H 1280   1.014   3.040  11.023  1.5374  1.3033  2.2441
   82TMC2    H1 1281   0.619   2.879  11.003  0.4013  1.1855 -0.5110
   82TMC2    H2 1282   0.833   2.849  11.368 -0.7452  0.0532 -0.3960
   82TMC2    C7 1283   0.609   2.800  11.265  0.2579 -0.4092  0.1367
   82TMC2    C8 1284   1.045   3.000  11.290  0.6861 -0.1459 -0.0099
   82TMC2    O1 1285   0.622   2.803  11.388  0.3246  0.3355  0.3837
   82TMC2    O2 1286   1.097   2.925  11.368  0.2988  0.5832  0.1980
   82TMC2    O5 1287   1.106   3.109  11.239  0.2771  0.0854 -0.0506
   82TMC2    H5 1288   1.042   3.161  11.186 -0.0634 -1.1979 -0.9090
   83MPD2     C 1289   0.796   3.428  10.546 -0.1073 -0.2246 -0.7823
   83MPD2    C1 1290   0.736   3.304  10.527 -0.6342  0.6319 -0.0535
   83MPD2    C2 1291   0.756   3.217  10.629  0.0281 -0.4774 -0.0469
   83MPD2    C3 1292   0.829   3.240  10.742  0.1129  0.5778  0.1240
   83MPD2    C4 1293   0.887   3.372  10.757  0.0508  0.5838  0.2280
   83MPD2    C5 1294   0.870   3.459  10.654  0.0079  0.1853  0.0754
   83MPD2     H 1295   0.717   3.117  10.612 -1.1866 -0.0290  0.1243
   83MPD2    H1 1296   0.944   3.401  10.844 -0.9584 -0.2930  1.1871
   83MPD2    H2 1297   0.775   3.513  10.481  3.4065  1.0093 -0.2943
   83MPD2    H3 1298   0.928   3.549  10.668  1.4399 -0.7952  0.4158
   83MPD2     N 1299   0.851   3.150  10.851 -0.6217  1.2904 -0.2679
   83MPD2    H5 1300   0.903   3.189  10.928  0.3972  0.2313 -0.4228
   83MPD2    N1 1301   0.657   3.282  10.413 -0.1902 -0.5718  0.5698
   83MPD2    H7 1302   0.641   3.361  10.351 -0.1995 -0.5309  0.6237
   84TMC2    C1 1303   1.376   2.453  10.669  0.0109  0.1033 -0.5497
   84TMC2    C2 1304   1.262   2.425  10.599  0.2735  0.5082  0.3065
   84TMC2    C3 1305   1.272   2.431  10.466 -0.0077 -0.4556 -0.1664
   84TMC2    C4 1306   1.497   2.491  10.610  0.0155  0.4287  0.2767
   84TMC2    C5 1307   1.506   2.479  10.471  0.1273 -0.2662 -0.6566
   84TMC2    C6 1308   1.392   2.458  10.398 -0.7952 -0.5738  0.1532
   84TMC2     C 1309   1.378   2.460  10.814 -0.1894  0.5895 -0.3091
   84TMC2     O 1310   1.427   2.559  10.858  0.0187  0.3100  0.3552
   84TMC2     H 1311   1.169   2.417  10.653  0.7484 -1.6448  0.7996
   84TMC2    H1 1312   1.576   2.509  10.682 -0.6432  1.1702  0.8204
   84TMC2    H2 1313   1.404   2.451  10.290  1.0757 -1.7264  0.4395
   84TMC2    C7 1314   1.628   2.521  10.397 -0.3742 -0.3923 -0.6807
   84TMC2    C8 1315   1.153   2.397  10.396 -0.2032  0.2556  0.1991
   84TMC2    O1 1316   1.644   2.479  10.283  0.0851 -0.0420  0.3376
   84TMC2    O2 1317   1.052   2.368  10.458 -0.3780  0.0591  0.5952
   84TMC2    O5 1318   1.149   2.479  10.287 -0.2215 -0.2588  0.1084
   84TMC2    H5 1319   1.219   2.547  10.284 -1.1397  0.6957  0.4044
   85TMC2    C1 1320   2.498   0.576  15.857  0.5599 -0.2781  0.0594
   85TMC2    C2 1321   2.414   0.589  15.750 -1.1191  0.0032 -0.3050
   85TMC2    C3 1322   2.470   0.655  15.642  0.8399 -0.9292 -0.1699
   85TMC2    C4 1323   2.623   0.633  15.864 -0.4149 -1.0968  0.8749
   85TMC2    C5 1324   2.675   0.685  15.749  0.1545 -0.4091  0.0762
   85TMC2    C6 1325   2.596   0.705  15.636 -0.3356  1.0866 -0.9475
   85TMC2     C 1326   2.449   0.513  15.976 -0.1405  0.9072 -0.5828
   85TMC2     O 1327   2.443   0.583  16.076 -0.1050  0.4112 -0.4003
   85TMC2     H 1328   2.306   0.584  15.764 -0.6579 -0.3146  3.0220
   85TMC2    H1 1329   2.687   0.620  15.950  1.5962  2.2647 -0.0995
   85TMC2    H2 1330   2.631   0.747  15.543  0.0632 -0.7384 -1.6211
   85TMC2    C7 1331   2.821   0.709  15.747 -0.1764 -0.3073 -0.0851
   85TMC2    C8 1332   2.384   0.715  15.546  0.2671 -0.3294 -0.2254
   85TMC2    O1 1333   2.892   0.652  15.833 -0.4318 -0.0350 -0.5151
   85TMC2    O2 1334   2.403   0.836  15.515 -0.1220 -0.0115  0.5599
   85TMC2    O5 1335   2.284   0.628  15.509  0.7362 -0.1716  0.0762
   85TMC2    H5 1336   2.278   0.547  15.564  0.6859 -0.4378 -0.3232
   86MPD2     C 1337   2.285   0.124  16.257  0.1591  0.0887 -0.2508
   86MPD2    C1 1338   2.297   0.078  16.129  0.3126  0.5405  0.4930
   86MPD2    C2 1339   2.343   0.163  16.026 -0.3164  0.1707  0.3233
   86MPD2    C3 1340   2.374   0.293  16.057 -0.2277 -0.9766 -0.1549
   86MPD2    C4 1341   2.329   0.341  16.183 -0.2035 -0.5084 -0.6761
   86MPD2    C5 1342   2.298   0.253  16.279  0.6446  0.5663  0.0345
   86MPD2     H 1343   2.344   0.123  15.925  1.1886  0.3935  0.2534
   86MPD2    H1 1344   2.340   0.445  16.212  1.8630 -0.7667 -0.5191
   86MPD2    H2 1345   2.267   0.051  16.335  0.2992  1.0914  0.7129
   86MPD2    H3 1346   2.287   0.302  16.374 -1.3001 -2.0128  1.1382
   86MPD2     N 1347   2.417   0.382  15.954 -0.3434  0.0017 -0.1028
   86MPD2    H5 1348   2.434   0.336  15.865  3.6926  0.3346  0.4851
   86MPD2    N1 1349   2.262   4.684  16.094 -0.2043 -0.0965  0.3731
   86MPD2    H7 1350   2.297   4.648  16.006 -0.9059 -1.2014  0.5548
   87TMC2    C1 1351   0.976   3.356   1.111 -0.4818  0.5296  0.2233
   87TMC2    C2 1352   1.048   3.327   1.227  0.4802 -0.0533  0.3103
   87TMC2    C3 1353   1.116   3.432   1.284 -0.0904 -0.2212 -0.8443
   87TMC2    C4 1354   0.980   3.476   1.058  0.1661  0.0529  0.0370
   87TMC2    C5 1355   1.045   3.574   1.112 -0.0965  0.1411  0.3568
   87TMC2    C6 1356   1.114   3.561   1.232 -0.0939  0.4777  0.2439
   87TMC2     C 1357   0.913   3.250   1.034  0.3613 -0.1550 -0.7840
   87TMC2     O 1358   0.835   3.276   0.943  0.5953  0.6980  0.4123
   87TMC2     H 1359   1.057   3.229   1.271  2.1832 -0.8889 -1.9267
   87TMC2    H1 1360   0.922   3.498   0.969 -0.6812 -1.5159  0.2080
   87TMC2    H2 1361   1.145   3.641   1.300 -0.3421  0.5560  0.2639
   87TMC2    C7 1362   1.023   3.714   1.064 -0.4237  0.2807  0.7075
   87TMC2    C8 1363   1.188   3.414   1.407  0.0739 -0.6740 -0.5713
   87TMC2    O1 1364   0.913   3.750   1.030  0.8847  0.0935  0.3725
   87TMC2    O2 1365   1.192   3.500   1.498  0.4852  0.1958 -0.2048
   87TMC2    O5 1366   1.236   3.287   1.424  0.1645 -0.1585 -0.0124
   87TMC2    H5 1367   1.249   3.239   1.339  3.4053 -2.6977  1.9007
   88MPD2     C 1368   1.256   3.982   1.117  0.3382  0.0103  0.7832
   88MPD2    C1 1369   1.135   3.917   1.129  0.0774  0.1327 -0.1534
   88MPD2    C2 1370   1.015   3.991   1.157 -1.1099  0.0395 -0.5337
   88MPD2    C3 1371   1.024   4.128   1.166  0.5754 -1.0877  0.0815
   88MPD2    C4 1372   1.141   4.192   1.134  0.8851  0.2338 -0.0072
   88MPD2    C5 1373   1.255   4.118   1.108  0.1061 -0.0743 -0.9087
   88MPD2     H 1374   0.924   3.933   1.168 -0.8902 -0.5678 -1.8428
   88MPD2    H1 1375   1.151   4.299   1.125  1.3195 -0.0541 -2.9369
   88MPD2    H2 1376   1.346   3.926   1.097  0.0577  0.2113 -1.0458
   88MPD2    H3 1377   1.346   4.172   1.081  0.4076  0.3926  0.9913
   88MPD2     N 1378   0.907   4.202   1.190 -0.3404  0.2648 -0.0170
   88MPD2    H5 1379   0.900   4.299   1.163  1.0837  0.8514  1.6678
   88MPD2    N1 1380   1.135   3.780   1.112  0.8238  0.2836  0.4673
   88MPD2    H7 1381   1.223   3.730   1.101 -0.2931 -1.6300  0.1045
   89TMC2    C1 1382   1.191   1.026   0.581 -0.2869  0.5747  0.6347
   89TMC2    C2 1383   1.065   1.050   0.557 -0.4493 -0.8731  0.0938
   89TMC2    C3 1384   1.030   1.175   0.508  0.7227  0.7345 -0.2121
   89TMC2    C4 1385   1.292   1.117   0.570  0.1103  0.1877  0.2578
   89TMC2    C5 1386   1.250   1.242   0.527 -0.3017 -0.6043 -0.1388
   89TMC2    C6 1387   1.122   1.272   0.497 -0.9180 -0.0646  1.2295
   89TMC2     C 1388   1.237   0.893   0.615  0.1104 -0.1184  0.0441
   89TMC2     O 1389   1.356   0.867   0.605  0.1565  0.2098  0.0474
   89TMC2     H 1390   0.983   0.979   0.564 -0.3263 -1.0454 -0.2106
   89TMC2    H1 1391   1.396   1.090   0.567 -0.1086 -0.5796 -0.3869
   89TMC2    H2 1392   1.092   1.376   0.492 -4.5578 -1.2902 -2.3233
   89TMC2    C7 1393   1.357   1.309   0.461  0.0220  0.4122 -1.1512
   89TMC2    C8 1394   0.899   1.186   0.447  0.5956  0.0218 -0.2951
   89TMC2    O1 1395   1.449   1.240   0.422 -0.1050  0.4592 -0.8073
   89TMC2    O2 1396   0.797   1.131   0.489  0.1086 -0.6066  0.0399
   89TMC2    O5 1397   0.900   1.295   0.369  0.2567  0.0301  0.0309
   89TMC2    H5 1398   0.991   1.321   0.345 -0.0524  0.0347 -1.1479
   90MPD2     C 1399   1.145   0.415   0.772 -0.4686 -0.3258 -0.3190
   90MPD2    C1 1400   1.039   0.496   0.802  0.1545 -0.6177 -0.1580
   90MPD2    C2 1401   1.045   0.628   0.772 -0.0169  0.1322 -0.0741
   90MPD2    C3 1402   1.151   0.684   0.704 -0.6024  0.4974 -0.1458
   90MPD2    C4 1403   1.260   0.602   0.676 -0.4471  0.5308  0.1799
   90MPD2    C5 1404   1.258   0.471   0.717 -0.2939  0.3487 -0.1263
   90MPD2     H 1405   0.955   0.685   0.793 -0.7053 -1.0564  0.2265
   90MPD2    H1 1406   1.349   0.643   0.630  0.3540 -0.7460  0.5952
   90MPD2    H2 1407   1.144   0.313   0.808  1.6880 -0.4233 -0.5490
   90MPD2    H3 1408   1.351   0.414   0.714 -0.6807 -0.2300 -1.2340
   90MPD2     N 1409   1.145   0.817   0.677  0.3277 -0.3958 -0.0136
   90MPD2    H5 1410   1.054   0.853   0.707  1.1642  2.5939 -1.0083
   90MPD2    N1 1411   0.930   0.459   0.882 -0.3511  0.6972 -0.4248
   90MPD2    H7 1412   0.859   0.532   0.880  0.2507  1.3573  2.2692
   91TMC2    C1 1413   2.634   1.501  16.416 -0.1135  0.1622  0.2248
   91TMC2    C2 1414   2.683   1.557  16.534  0.1833  0.2967 -0.1946
   91TMC2    C3 1415   2.590   1.570  16.637  0.3676  0.6581  0.6274
   91TMC2    C4 1416   2.518   1.436  16.410  0.4824  0.1340  0.4392
   91TMC2    C5 1417   2.427   1.454  16.516 -0.7242 -0.0953 -0.1415
   91TMC2    C6 1418   2.460   1.522  16.633  0.0471  0.3098 -0.4135
   91TMC2     C 1419   2.730   1.466  16.308 -0.1827 -0.6429 -0.1159
   91TMC2     O 1420   2.684   1.455  16.196  0.3183  0.2699  0.2192
   91TMC2     H 1421   2.782   1.600  16.531  0.6392 -0.7313  0.1368
   91TMC2    H1 1422   2.507   1.368  16.326 -1.6334  2.3265 -1.0631
   91TMC2    H2 1423   2.387   1.544  16.710  2.1317  2.0144  1.0794
   91TMC2    C7 1424   2.307   1.382  16.513  0.7290  0.0425 -0.2852
   91TMC2    C8 1425   2.633   1.618  16.769 -0.3589  0.1002  0.1116
   91TMC2    O1 1426   2.257   1.340  16.621 -0.3357  0.5752 -0.2566
   91TMC2    O2 1427   2.556   1.650  16.855 -0.5162  0.0333 -0.5888
   91TMC2    O5 1428   2.764   1.597  16.785  0.2177  0.9565  0.6475
   91TMC2    H5 1429   2.793   1.538  16.711  1.0838 -1.2043  2.6989
   92MPD2     C 1430   2.964   1.470  16.121 -0.0968 -0.3421  0.6771
   92MPD2    C1 1431   2.972   1.451  16.253  0.3333 -0.3516  0.0798
   92MPD2    C2 1432   3.092   1.416  16.298 -0.3814 -0.7954  0.2351
   92MPD2    C3 1433   3.202   1.396  16.218 -0.0928 -0.0561  0.0022
   92MPD2    C4 1434   3.190   1.430  16.081 -0.6052  0.9521 -0.3727
   92MPD2    C5 1435   3.069   1.465  16.034 -0.3038  0.8519  0.2154
   92MPD2     H 1436   3.109   1.396  16.403  0.0582  1.0625  0.5220
   92MPD2    H1 1437   3.282   1.455  16.030 -0.9218 -0.8242 -1.7987
   92MPD2    H2 1438   2.866   1.494  16.082 -0.3575 -0.1095  1.4804
   92MPD2    H3 1439   3.049   1.502  15.934 -0.2597 -0.9148 -0.4529
   92MPD2     N 1440   3.326   1.364  16.273  0.2025  0.0154  0.0412
   92MPD2    H5 1441   3.314   1.368  16.374 -1.4096 -0.5932 -0.1264
   92MPD2    N1 1442   2.861   1.453  16.347  0.0809  0.2741 -0.2329
   92MPD2    H7 1443   2.885   1.452  16.446  1.4351  0.6775 -0.5636
   93TMC2    C1 1444   4.378   1.862  14.133 -0.3899  0.3794 -0.1006
   93TMC2    C2 1445   4.355   1.728  14.144  0.1737 -0.0410  0.4714
   93TMC2    C3 1446   4.453   1.648  14.199  0.5285 -0.4201  0.4168
   93TMC2    C4 1447   4.496   1.920  14.173  0.5140 -0.1086 -0.1038
   93TMC2    C5 1448   4.590   1.838  14.228  0.0793  0.4420 -0.0706
   93TMC2    C6 1449   4.563   1.708  14.255  0.4335 -0.4693  0.1986
   93TMC2     C 1450   4.295   1.947  14.046  0.0371 -0.6491 -0.3382
   93TMC2     O 1451   4.317   2.067  14.036  0.5505 -0.5070  0.5661
   93TMC2     H 1452   4.260   1.680  14.121 -1.1388  2.1562  1.3608
   93TMC2    H1 1453   4.524   2.020  14.142 -0.9391  0.2371 -0.3347
   93TMC2    H2 1454   4.636   1.647  14.306  0.2498 -1.8471 -1.2136
   93TMC2    C7 1455   4.733   1.869  14.217 -0.9709 -0.4001 -0.4407
   93TMC2    C8 1456   4.417   1.517  14.244 -1.0076  0.4274  0.6273
   93TMC2    O1 1457   0.071   1.777  14.243  0.1676 -0.3517 -0.0489
   93TMC2    O2 1458   4.436   1.483  14.360 -0.2281 -0.3261  0.2293
   93TMC2    O5 1459   4.322   1.468  14.158  0.2314 -0.0744  0.6525
   93TMC2    H5 1460   4.325   1.513  14.070 -1.3584  0.8677  1.0740
   94MPD2     C 1461   4.137   2.026  13.802  0.1252 -0.0823  0.2515
   94MPD2    C1 1462   4.115   1.909  13.878  0.2886  0.6787  0.6003
   94MPD2    C2 1463   4.010   1.829  13.843  0.5717 -0.4935  0.3069
   94MPD2    C3 1464   3.925   1.865  13.740  0.3801  0.6770 -0.1998
   94MPD2    C4 1465   3.948   1.982  13.673 -0.2867  0.1826 -0.0969
   94MPD2    C5 1466   4.058   2.057  13.703 -0.6472  0.1480 -1.1237
   94MPD2     H 1467   3.989   1.738  13.898  0.5753 -0.0520  1.0243
   94MPD2    H1 1468   3.886   2.021  13.593 -0.4872  0.7628  0.3474
   94MPD2    H2 1469   4.228   2.082  13.817  0.7116 -0.6749 -1.0360
   94MPD2    H3 1470   4.078   2.146  13.646 -0.1692  1.7219  1.5201
   94MPD2     N 1471   3.808   1.796  13.699  0.4442 -0.6320  0.3332
   94MPD2    H5 1472   3.749   1.829  13.623  0.2012 -0.9393  0.3865
   94MPD2    N1 1473   4.201   1.871  13.981  0.2764 -0.0391  0.1000
   94MPD2    H7 1474   4.174   1.783  14.023  1.1093  0.4197  1.6225
   95TMC2    C1 1475   3.629   2.968  15.938  0.3906 -1.1310  0.3533
   95TMC2    C2 1476   3.520   2.904  15.882 -0.0453  0.0370 -1.1444
   95TMC2    C3 1477   3.405   2.885  15.963  0.3000 -0.0087 -0.1669
   95TMC2    C4 1478   3.625   3.027  16.063 -0.3418  0.6283 -0.6027
   95TMC2    C5 1479   3.515   2.993  16.141  0.6336  0.4964  0.0052
   95TMC2    C6 1480   3.402   2.926  16.098  0.9718 -0.9279 -0.2631
   95TMC2     C 1481   3.730   3.030  15.855  1.2658  0.4931 -0.2902
   95TMC2     O 1482   3.787   3.132  15.899  0.3219  0.1726  0.0146
   95TMC2     H 1483   3.524   2.884  15.775 -0.2735 -0.2234 -1.1029
   95TMC2    H1 1484   3.704   3.092  16.097 -0.7522  1.1362 -0.6290
   95TMC2    H2 1485   3.309   2.921  16.152  1.0058  0.1523 -0.1063
   95TMC2    C7 1486   3.511   3.011  16.281 -0.2752 -0.0489 -0.4999
   95TMC2    C8 1487   3.326   2.775  15.910  0.0282 -0.0062  0.8732
   95TMC2    O1 1488   3.413   2.985  16.348  0.0095 -0.0471  0.2227
   95TMC2    O2 1489   3.319   2.739  15.792  0.2135  0.3285 -0.6574
   95TMC2    O5 1490   3.237   2.733  16.013 -0.2235 -0.4357 -0.3876
   95TMC2    H5 1491   3.267   2.765  16.100  0.7802  1.2936 -1.3712
   96MPD2     C 1492   4.050   2.993  15.461  0.3784 -0.3089  0.8717
   96MPD2    C1 1493   4.052   3.078  15.566 -0.4277 -0.6748 -0.4229
   96MPD2    C2 1494   3.955   3.069  15.665 -0.0692 -0.2663 -0.5299
   96MPD2    C3 1495   3.857   2.971  15.653  0.1290  0.5493 -0.2693
   96MPD2    C4 1496   3.854   2.890  15.546 -0.3518 -0.2887  0.0745
   96MPD2    C5 1497   3.957   2.894  15.455  0.1134  0.6325 -0.5494
   96MPD2     H 1498   3.959   3.139  15.747  1.5444 -2.1019  0.9608
   96MPD2    H1 1499   3.773   2.820  15.529 -1.8516  0.8579  2.5186
   96MPD2    H2 1500   4.132   2.995  15.391  0.4850  0.0063  1.0021
   96MPD2    H3 1501   3.948   2.821  15.375 -0.9291  0.0297  0.1122
   96MPD2     N 1502   3.752   2.954  15.744 -0.0012  0.4344  0.1631
   96MPD2    H5 1503   3.710   2.861  15.741  1.2544 -0.1138 -0.6696
   96MPD2    N1 1504   4.144   3.187  15.562  0.1008 -0.0590 -0.6862
   96MPD2    H7 1505   4.205   3.190  15.481  0.8591 -0.4399 -0.1199
   97TMC2    C1 1506   2.379   1.010   0.261 -0.3697  0.7434  0.3096
   97TMC2    C2 1507   2.441   0.988   0.377  0.2235 -0.2869  0.1244
   97TMC2    C3 1508   2.446   1.096   0.468 -0.1250  1.0355 -0.3065
   97TMC2    C4 1509   2.330   1.135   0.226 -0.4718 -0.0992 -0.0009
   97TMC2    C5 1510   2.346   1.236   0.317  0.4465  0.0190 -0.0543
   97TMC2    C6 1511   2.406   1.215   0.439  0.4498 -0.3876 -0.1236
   97TMC2     C 1512   2.349   0.889   0.185 -0.2467  0.0877 -0.1092
   97TMC2     O 1513   2.240   0.875   0.134  0.5947 -0.2055 -0.1156
   97TMC2     H 1514   2.466   0.890   0.418 -0.0036  0.1520  1.3277
   97TMC2    H1 1515   2.289   1.141   0.125  4.1288 -0.3858 -1.8955
   97TMC2    H2 1516   2.425   1.295   0.509  0.7154  0.9029 -1.6686
   97TMC2    C7 1517   2.359   1.371   0.273  0.1843  0.3938 -0.0265
   97TMC2    C8 1518   2.486   1.055   0.605 -0.2760 -0.0893 -0.7803
   97TMC2    O1 1519   2.413   1.452   0.348 -0.0866 -0.4760  0.7949
   97TMC2    O2 1520   2.575   0.967   0.627  0.1649 -0.1065 -0.4936
   97TMC2    O5 1521   2.467   1.158   0.698 -0.1383  0.1429 -0.0409
   97TMC2    H5 1522   2.387   1.213   0.687  0.0549  0.5731  0.6747
   98MPD2     C 1523   2.465   0.400   0.116  0.2710 -0.4461 -1.1830
   98MPD2    C1 1524   2.348   0.465   0.127  0.8593 -0.3154 -0.0725
   98MPD2    C2 1525   2.340   0.601   0.145 -0.3172  0.5555  0.3862
   98MPD2    C3 1526   2.458   0.669   0.146 -0.6074  0.1938  0.5109
   98MPD2    C4 1527   2.577   0.602   0.136  1.0247  0.4241 -0.3006
   98MPD2    C5 1528   2.579   0.467   0.121  0.7666 -0.1596 -0.1691
   98MPD2     H 1529   2.239   0.640   0.158 -0.1525  0.5632  1.6453
   98MPD2    H1 1530   2.673   0.647   0.159  0.9085  0.6962 -0.3444
   98MPD2    H2 1531   2.468   0.292   0.115  0.8709 -0.4529  0.8174
   98MPD2    H3 1532   2.672   0.411   0.116  0.7112 -0.2340 -0.3796
   98MPD2     N 1533   2.456   0.805   0.182  0.1998  1.3977  0.1417
   98MPD2    H5 1534   2.539   0.850   0.218  1.6233 -1.3906  0.3495
   98MPD2    N1 1535   2.236   0.380   0.154 -0.5795  0.5713 -0.2520
   98MPD2    H7 1536   2.237   0.279   0.149 -0.7946  0.5538  0.1175
   99TMC2    C1 1537   1.263   2.485   1.878 -0.4301  0.0807  0.4501
   99TMC2    C2 1538   1.364   2.519   1.962 -0.1720 -0.2156  0.0393
   99TMC2    C3 1539   1.352   2.636   2.036 -0.7176  0.3567  0.7231
   99TMC2    C4 1540   1.139   2.549   1.882  0.1268 -0.5146 -0.7658
   99TMC2    C5 1541   1.129   2.665   1.960  0.8908 -0.7784 -0.1958
   99TMC2    C6 1542   1.234   2.711   2.040 -0.5334 -1.0236  0.2955
   99TMC2     C 1543   1.277   2.351   1.814  0.1547 -0.4079 -0.4148
   99TMC2     O 1544   1.384   2.302   1.818  0.5622  0.4856  0.6493
   99TMC2     H 1545   1.454   2.458   1.970  0.5193  0.6689 -1.0154
   99TMC2    H1 1546   1.056   2.524   1.816  1.0918  0.2460 -2.2466
   99TMC2    H2 1547   1.230   2.802   2.098 -0.8317 -0.6666 -0.2835
   99TMC2    C7 1548   1.000   2.728   1.977  0.0366  0.5693 -0.5391
   99TMC2    C8 1549   1.480   2.688   2.091 -0.0801 -0.3416 -0.5659
   99TMC2    O1 1550   0.986   2.822   2.057 -0.0882 -0.1229  0.4238
   99TMC2    O2 1551   1.586   2.642   2.045  0.0125 -0.4336  0.3611
   99TMC2    O5 1552   1.475   2.802   2.162 -0.4034  1.0061  0.0810
   99TMC2    H5 1553   1.397   2.814   2.221  0.0636  0.1265  0.9032
  100MPD2     C 1554   1.248   2.104   1.654  0.1605  0.1298  0.2401
  100MPD2    C1 1555   1.172   2.216   1.627 -0.5338 -1.2824 -0.7086
  100MPD2    C2 1556   1.081   2.217   1.521  0.1676 -0.8985 -0.1298
  100MPD2    C3 1557   1.078   2.112   1.432  0.2202  0.5773 -0.0918
  100MPD2    C4 1558   1.165   2.000   1.452 -0.7757  0.0436 -0.3225
  100MPD2    C5 1559   1.248   2.004   1.562 -0.1248 -0.2748  0.1086
  100MPD2     H 1560   1.022   2.305   1.499 -0.7347 -1.0119  1.7786
  100MPD2    H1 1561   1.162   1.909   1.394  1.6202  1.2684 -2.3298
  100MPD2    H2 1562   1.319   2.097   1.735  0.0508 -0.9525  0.2324
  100MPD2    H3 1563   1.314   1.919   1.578 -0.5280 -0.8405 -1.2107
  100MPD2     N 1564   0.988   2.120   1.322 -0.4371 -0.1815  0.3471
  100MPD2    H5 1565   0.934   2.206   1.320  0.3656  0.3416  1.3364
  100MPD2    N1 1566   1.184   2.335   1.712 -0.7519 -0.1923 -0.1459
  100MPD2    H7 1567   1.118   2.409   1.689 -0.2707  0.1893 -0.3030
  101TMC2    C1 1568   1.204   4.052  12.926 -0.6652  0.3387  0.4261
  101TMC2    C2 1569   1.088   4.124  12.909  0.1513  0.7666 -0.5681
  101TMC2    C3 1570   1.072   4.205  12.798  0.5791  0.2254  0.3655
  101TMC2    C4 1571   1.313   4.055  12.831  0.3836 -0.0852 -0.2650
  101TMC2    C5 1572   1.293   4.145  12.727  0.1568 -0.4437 -0.2660
  101TMC2    C6 1573   1.171   4.210  12.709 -0.0330 -0.6226  0.1167
  101TMC2     C 1574   1.195   3.939  13.012  0.1115  0.1750  0.1025
  101TMC2     O 1575   1.111   3.938  13.105 -0.0149 -0.2211  0.4997
  101TMC2     H 1576   1.008   4.126  12.983  1.9971 -1.2321  1.4824
  101TMC2    H1 1577   1.411   4.009  12.840  0.9183  1.1318  0.1752
  101TMC2    H2 1578   1.160   4.268  12.619 -1.8391  1.4251  1.6633
  101TMC2    C7 1579   1.406   4.198  12.651 -0.0225  0.0574 -0.1095
  101TMC2    C8 1580   0.947   4.277  12.779  0.0109 -0.3799  0.2589
  101TMC2    O1 1581   1.392   4.228  12.533  0.4117 -0.4299  0.5650
  101TMC2    O2 1582   0.850   4.256  12.852  0.6352 -0.4270  0.4750
  101TMC2    O5 1583   0.967   4.392  12.708  0.5968  0.4164  0.0958
  101TMC2    H5 1584   1.061   4.410  12.684  0.7113 -1.3209 -0.7067
  102MPD2     C 1585   1.311   3.599  12.898 -0.3643  0.6189 -0.6442
  102MPD2    C1 1586   1.251   3.694  12.982 -0.2214  0.5332  0.1735
  102MPD2    C2 1587   1.181   3.639  13.092  0.3482 -0.1951  0.6090
  102MPD2    C3 1588   1.163   3.509  13.114  0.4814 -0.3664  0.1810
  102MPD2    C4 1589   1.230   3.422  13.037  0.0520 -0.7062 -0.4994
  102MPD2    C5 1590   1.303   3.468  12.932  0.2945 -0.5228 -0.5910
  102MPD2     H 1591   1.113   3.705  13.143 -0.1842 -0.2107 -0.0732
  102MPD2    H1 1592   1.230   3.315  13.057  0.5842 -0.6134 -0.0067
  102MPD2    H2 1593   1.375   3.627  12.815  0.3073 -0.0109 -0.3379
  102MPD2    H3 1594   1.356   3.391  12.877  3.1252 -0.0242  1.4022
  102MPD2     N 1595   1.067   3.475  13.214 -0.0687  0.2747  0.0082
  102MPD2    H5 1596   1.027   3.554  13.264 -0.3922  0.0847  0.0513
  102MPD2    N1 1597   1.256   3.833  12.943  0.0167  0.1540 -0.5436
  102MPD2    H7 1598   1.312   3.851  12.859  1.2751  1.3683  0.5567
  103TMC2    C1 1599   3.946   4.039  12.298 -0.1564  0.6107  0.3645
  103TMC2    C2 1600   4.003   4.137  12.226  0.1543 -0.0295  0.5591
  103TMC2    C3 1601   4.066   4.237  12.291  0.1377 -0.1588  0.4718
  103TMC2    C4 1602   3.940   4.040  12.436 -0.1541 -0.4899  0.8032
  103TMC2    C5 1603   4.012   4.134  12.496 -0.2675 -0.0415  0.8124
  103TMC2    C6 1604   4.086   4.228  12.424 -0.2711  0.1973 -0.0093
  103TMC2     C 1605   3.847   3.962  12.236  0.0527  0.5432 -0.1474
  103TMC2     O 1606   3.786   4.025  12.154 -0.0536  0.2897  0.0372
  103TMC2     H 1607   3.999   4.120  12.119 -0.9675  0.2803  0.5524
  103TMC2    H1 1608   3.864   3.980  12.485 -1.3764  1.7641  1.6506
  103TMC2    H2 1609   4.148   4.296  12.482 -0.3967 -0.5908  1.0615
  103TMC2    C7 1610   4.009   4.131  12.641  0.0812  0.8936 -0.5433
  103TMC2    C8 1611   4.151   4.337  12.220 -0.1052  0.0986  0.2731
  103TMC2    O1 1612   3.981   4.023  12.689  0.2078 -0.6223 -0.6435
  103TMC2    O2 1613   4.259   4.363  12.273  0.6181  0.0544 -0.1097
  103TMC2    O5 1614   4.128   4.303  12.092  1.0213  0.0996 -0.1573
  103TMC2    H5 1615   4.033   4.280  12.090  0.6520  1.6848 -0.9575
  104MPD2     C 1616   3.764   3.611  12.244  0.6012  0.6547 -0.1672
  104MPD2    C1 1617   3.749   3.743  12.216  0.4173  0.6220 -0.3100
  104MPD2    C2 1618   3.645   3.782  12.131 -0.1126  0.3628  0.2139
  104MPD2    C3 1619   3.554   3.681  12.095  0.6850  0.7401 -0.3295
  104MPD2    C4 1620   3.568   3.550  12.132 -0.8369  0.1907 -1.1755
  104MPD2    C5 1621   3.688   3.512  12.191 -0.6430  0.1458  0.1648
  104MPD2     H 1622   3.616   3.883  12.104 -4.3642 -0.9072  0.0731
  104MPD2    H1 1623   3.493   3.472  12.118  0.4251 -1.5433  1.8168
  104MPD2    H2 1624   3.856   3.582  12.293  1.5050  1.8113 -1.1586
  104MPD2    H3 1625   3.703   3.409  12.220  3.6372  0.6977 -0.1447
  104MPD2     N 1626   3.437   3.722  12.024  0.6448  0.1240  1.1748
  104MPD2    H5 1627   3.430   3.822  12.008  1.3058 -0.2380 -1.3011
  104MPD2    N1 1628   3.853   3.827  12.257 -0.0131 -0.2441 -0.1212
  104MPD2    H7 1629   3.932   3.785  12.306  0.2424 -1.1454 -1.2821
  105TMC2    C1 1630   0.690   2.766   0.243  0.2318 -0.3367  0.5777
  105TMC2    C2 1631   0.591   2.859   0.237 -0.3702  0.1676 -0.6332
  105TMC2    C3 1632   0.579   2.937   0.347 -0.3212 -0.7027  0.5967
  105TMC2    C4 1633   0.758   2.735   0.355 -0.1968  0.4409 -0.8992
  105TMC2    C5 1634   0.725   2.807   0.474  0.0408 -0.2210  0.3017
  105TMC2    C6 1635   0.632   2.908   0.470  0.2226 -0.4382  0.0841
  105TMC2     C 1636   0.696   2.672   0.134 -0.5018 -1.0002  0.8021
  105TMC2     O 1637   0.692   2.556   0.164 -0.6216 -0.5605 -0.8125
  105TMC2     H 1638   0.547   2.896   0.144 -2.9881  1.1643  1.0051
  105TMC2    H1 1639   0.829   2.653   0.356  0.8783  1.3851 -0.1677
  105TMC2    H2 1640   0.601   2.972   0.552 -1.9940 -2.5881  0.9005
  105TMC2    C7 1641   0.817   2.786   0.584  0.5930  0.5231  0.4689
  105TMC2    C8 1642   0.477   3.043   0.355  0.1956 -0.1782 -0.2599
  105TMC2    O1 1643   0.871   2.677   0.577 -0.7718  0.3647  0.2965
  105TMC2    O2 1644   0.498   3.156   0.397  0.1528 -0.6307 -0.2155
  105TMC2    O5 1645   0.369   3.011   0.283  0.0388  0.4341 -0.3036
  105TMC2    H5 1646   0.353   2.915   0.291  1.3316  0.1137 -1.4677
  106MPD2     C 1647   0.852   2.547  17.401  0.1745  0.5513 -0.2765
  106MPD2    C1 1648   0.839   2.681  17.414  0.1305  0.4247 -0.2590
  106MPD2    C2 1649   0.796   2.736  17.534  0.3315  0.5517 -0.1346
  106MPD2    C3 1650   0.770   2.657  17.642  0.2930 -0.1622 -0.1648
  106MPD2    C4 1651   0.795   2.519  17.634 -0.4133  0.7055 -0.1429
  106MPD2    C5 1652   0.815   2.463  17.513  0.4521  0.3006 -0.0858
  106MPD2     H 1653   0.800   2.844  17.535  0.2856  0.5320  1.9230
  106MPD2    H1 1654   0.778   2.449  17.715  1.4440 -0.6583 -0.9432
  106MPD2    H2 1655   0.871   2.494  17.309  1.0112 -0.1380  0.2872
  106MPD2    H3 1656   0.830   2.356  17.501  2.6182  0.8683 -2.7004
  106MPD2     N 1657   0.733   2.731   0.011  0.4177 -0.4490  0.1189
  106MPD2    H5 1658   0.742   2.830  17.740  1.3307 -0.8806 -1.9921
  106MPD2    N1 1659   0.852   2.768  17.309  0.3494  0.2499 -0.1588
  106MPD2    H7 1660   0.820   2.864  17.320 -1.7116 -0.2560 -1.5509
  107TMC2    C1 1661   1.279   2.870  11.617  0.4271 -0.4955 -0.9802
  107TMC2    C2 1662   1.348   2.948  11.533 -0.0081 -0.6499 -0.1477
  107TMC2    C3 1663   1.414   2.889  11.424  0.2037  0.2016 -0.2789
  107TMC2    C4 1664   1.292   2.734  11.616 -0.3107  0.3431  0.4260
  107TMC2    C5 1665   1.369   2.684  11.514 -0.4522  0.5099 -0.1148
  107TMC2    C6 1666   1.429   2.756  11.417  0.0027  0.4990 -0.4739
  107TMC2     C 1667   1.194   2.924  11.710  0.5457 -0.3401 -0.0285
  107TMC2     O 1668   1.192   2.866  11.817 -0.5542  0.2908 -0.3688
  107TMC2     H 1669   1.357   3.056  11.540  0.7295 -0.8836  2.4799
  107TMC2    H1 1670   1.240   2.667  11.682 -1.3746 -0.4539 -1.2398
  107TMC2    H2 1671   1.505   2.704  11.360 -0.9161 -1.9947  0.5493
  107TMC2    C7 1672   1.323   2.552  11.466 -0.2092 -0.3588 -0.4476
  107TMC2    C8 1673   1.490   2.972  11.334  0.9169 -0.0855 -0.3737
  107TMC2    O1 1674   1.262   2.484  11.544  0.3118  0.1765 -0.1092
  107TMC2    O2 1675   1.580   3.047  11.370 -0.3300 -0.2870  0.7544
  107TMC2    O5 1676   1.466   2.922  11.208 -0.0845  0.1497 -0.1250
  107TMC2    H5 1677   1.383   2.870  11.207 -0.5066  0.8225 -0.5906
  108MPD2     C 1678   0.989   3.219  11.650  0.4927 -0.3368 -0.6574
  108MPD2    C1 1679   1.038   3.119  11.730 -0.0482 -0.4556  0.3977
  108MPD2    C2 1680   1.020   3.118  11.869  0.3150  0.1684  0.4139
  108MPD2    C3 1681   0.932   3.218  11.921  0.8065 -0.1718 -0.4221
  108MPD2    C4 1682   0.881   3.324  11.843 -0.3832  0.1119  0.1375
  108MPD2    C5 1683   0.915   3.325  11.709  0.2934  0.9046  0.2296
  108MPD2     H 1684   1.071   3.042  11.927 -0.4303 -0.3107  0.4397
  108MPD2    H1 1685   0.819   3.403  11.884  2.2871  1.0765  2.2997
  108MPD2    H2 1686   1.015   3.216  11.545 -0.6640  1.6434 -0.9955
  108MPD2    H3 1687   0.872   3.406  11.651  0.1598  1.8939  1.6940
  108MPD2     N 1688   0.892   3.209  12.055 -0.1585 -0.1005  0.6794
  108MPD2    H5 1689   0.827   3.281  12.085  0.5154  1.1484 -0.8848
  108MPD2    N1 1690   1.129   3.032  11.665 -0.1494 -0.5053 -0.2045
  108MPD2    H7 1691   1.146   3.057  11.568 -0.0712  1.4452  0.2986
  109TMC2    C1 1692   1.232   4.306  17.658 -0.6535 -0.3897  1.0808
  109TMC2    C2 1693   1.194   4.280  17.530  0.4625  0.1127 -0.2534
  109TMC2    C3 1694   1.276   4.328  17.433 -0.2250  0.4355  0.1669
  109TMC2    C4 1695   1.341   4.377  17.694 -0.1703 -0.0422 -0.3432
  109TMC2    C5 1696   1.423   4.418  17.594 -0.6277 -0.2474  0.2007
  109TMC2    C6 1697   1.393   4.398  17.460  0.0591 -0.1779 -0.2377
  109TMC2     C 1698   1.166   4.222   0.022 -0.0127 -0.3118  0.0980
  109TMC2     O 1699   1.095   4.130  17.735  0.2173 -0.1590  0.4357
  109TMC2     H 1700   1.119   4.203  17.514  1.3037 -0.9006  0.6631
  109TMC2    H1 1701   1.378   4.386   0.050  0.4233 -2.4830 -0.3624
  109TMC2    H2 1702   1.456   4.432  17.378  2.1227 -2.0264  0.5914
  109TMC2    C7 1703   1.553   4.473  17.636  0.7399  0.7953 -0.2266
  109TMC2    C8 1704   1.248   4.314  17.294 -0.2992 -0.4008  0.2901
  109TMC2    O1 1705   1.572   4.478   0.011  0.5161 -0.0483 -0.0877
  109TMC2    O2 1706   1.311   4.385  17.218 -0.4088  0.2366  0.0454
  109TMC2    O5 1707   1.217   4.186  17.268 -0.2465 -0.2832 -0.7116
  109TMC2    H5 1708   1.193   4.130  17.345  1.6140 -1.0901 -0.7269
  110MPD2     C 1709   1.048   4.126   0.511  0.4857  0.5484 -0.2922
  110MPD2    C1 1710   1.124   4.240   0.513 -0.1276 -0.3778 -0.1228
  110MPD2    C2 1711   1.172   4.284   0.391  0.1871  0.2130 -0.4507
  110MPD2    C3 1712   1.140   4.214   0.273  0.1928  0.1493 -0.0796
  110MPD2    C4 1713   1.064   4.098   0.278 -0.0196  0.0172 -0.3709
  110MPD2    C5 1714   1.026   4.050   0.399 -0.0324  0.2970 -0.0261
  110MPD2     H 1715   1.211   4.384   0.382  0.8828  0.1892  2.2594
  110MPD2    H1 1716   1.052   4.036   0.190  0.7735 -3.5185  2.0345
  110MPD2    H2 1717   1.003   4.097   0.606 -1.2506 -0.0590 -1.2960
  110MPD2    H3 1718   0.978   3.953   0.410 -1.9692  1.1536 -0.9698
  110MPD2     N 1719   1.188   4.266   0.149  0.4881 -0.4152 -0.4816
  110MPD2    H5 1720   1.238   4.355   0.153  1.5170 -1.1432  2.7355
  110MPD2    N1 1721   1.142   4.307   0.635  0.4125  0.0272 -0.2667
  110MPD2    H7 1722   1.097   4.273   0.719  0.6895 -1.9436 -0.9122
  111TMC2    C1 1723   0.758   4.659  11.518 -0.0844  0.4854 -0.3065
  111TMC2    C2 1724   0.676   4.636  11.621  0.5197 -0.0305  0.4145
  111TMC2    C3 1725   0.736   4.619  11.747 -0.0518 -0.1633 -0.3425
  111TMC2    C4 1726   0.897   4.680  11.529  0.4577 -0.6035 -0.0991
  111TMC2    C5 1727   0.951   4.658  11.654  0.0445 -0.0305 -0.0982
  111TMC2    C6 1728   0.872   4.633  11.764 -0.3689  0.4059  0.6643
  111TMC2     C 1729   0.706   4.701  11.384 -0.2258  0.2879 -0.0872
  111TMC2     O 1730   0.789   4.707  11.294  0.2588 -0.0926  0.5077
  111TMC2     H 1731   0.575   4.596  11.614  0.2969  0.5587  0.2518
  111TMC2    H1 1732   0.956   4.694  11.439  2.6853  1.4427  1.6805
  111TMC2    H2 1733   0.923   4.623  11.859 -0.3497 -0.8151  0.5286
  111TMC2    C7 1734   1.093   4.673  11.678  0.1188  0.7942 -0.1283
  111TMC2    C8 1735   0.654   4.612  11.865 -0.2172  0.0631  0.2151
  111TMC2    O1 1736   1.133   4.617  11.777  0.0107 -0.1293  0.2009
  111TMC2    O2 1737   0.541   4.657  11.868  0.2080 -0.6418 -0.6854
  111TMC2    O5 1738   0.701   4.516  11.943  0.7000  0.1026 -0.5624
  111TMC2    H5 1739   0.788   4.476  11.921 -0.0012 -1.1000 -1.1508
  112MPD2     C 1740   0.377   0.180  11.065  1.0600  0.6774  0.0674
  112MPD2    C1 1741   0.494   0.110  11.040 -0.3941  0.2265 -0.0087
  112MPD2    C2 1742   0.557   0.057  11.148  0.0199  0.4725 -0.6221
  112MPD2    C3 1743   0.504   0.055  11.275  0.6374 -0.0613 -0.0200
  112MPD2    C4 1744   0.389   0.127  11.292 -0.8020 -0.5353  0.0957
  112MPD2    C5 1745   0.328   0.189  11.191 -0.2319  0.4397 -0.2747
  112MPD2     H 1746   0.651   0.012  11.119  0.2942  1.1852 -0.8066
  112MPD2    H1 1747   0.348   0.120  11.392  1.6811  0.1519  1.1501
  112MPD2    H2 1748   0.319   0.231  10.988 -1.5992 -0.1044  1.5433
  112MPD2    H3 1749   0.232   0.239  11.200  0.1917  0.8914  1.8780
  112MPD2     N 1750   0.572   0.001  11.385  0.5411 -0.3222  0.4357
  112MPD2    H5 1751   0.527   0.013  11.476 -0.0142  0.6752  0.0375
  112MPD2    N1 1752   0.554   0.103  10.910  0.0376 -0.2533 -0.5049
  112MPD2    H7 1753   0.643   0.053  10.908  0.6793  0.9026 -0.6606
  113TMC2    C1 1754   4.588   2.800   1.368  0.6202  0.2027 -0.1577
  113TMC2    C2 1755   4.527   2.897   1.439 -0.1638 -0.1623 -0.1151
  113TMC2    C3 1756   4.411   2.954   1.399  0.3522 -0.8032 -0.0680
  113TMC2    C4 1757   4.531   2.756   1.251  0.3402 -0.1502  0.7356
  113TMC2    C5 1758   4.402   2.805   1.220 -0.9958 -0.3756  0.0842
  113TMC2    C6 1759   4.343   2.908   1.287  0.3594  0.0284 -0.1829
  113TMC2     C 1760   4.723   2.759   1.418  0.8242 -0.2703 -0.0303
  113TMC2     O 1761   0.038   2.831   1.503  0.0847  0.4021  0.0928
  113TMC2     H 1762   4.568   2.942   1.529 -0.3126 -0.0146 -0.1209
  113TMC2    H1 1763   4.569   2.681   1.183  3.6156  1.4245  0.8182
  113TMC2    H2 1764   4.236   2.914   1.271 -0.0635 -2.2637  1.7959
  113TMC2    C7 1765   4.323   2.762   1.108 -1.2708  0.6826  0.2094
  113TMC2    C8 1766   4.346   3.041   1.500 -0.6774 -0.1697  0.2619
  113TMC2    O1 1767   4.257   2.850   1.055  0.2167 -0.2127 -0.0118
  113TMC2    O2 1768   4.400   3.050   1.611  0.0042  0.7307  0.3141
  113TMC2    O5 1769   4.213   3.035   1.474 -0.1758 -0.9519  0.2177
  113TMC2    H5 1770   4.209   3.083   1.388 -2.6106  0.3311  1.0455
  114MPD2     C 1771   0.422   2.509   1.294 -0.1412 -0.4002 -0.5791
  114MPD2    C1 1772   0.397   2.605   1.391 -0.9780 -0.2704  0.3459
  114MPD2    C2 1773   0.269   2.651   1.402  0.4936 -0.4409  0.1795
  114MPD2    C3 1774   0.165   2.605   1.323 -0.1362  0.3411  0.2560
  114MPD2    C4 1775   0.191   2.508   1.231 -0.3044  0.5402  0.6736
  114MPD2    C5 1776   0.316   2.457   1.215 -0.7518 -0.0351 -0.0625
  114MPD2     H 1777   0.256   2.725   1.481  0.9099  1.1146 -1.2160
  114MPD2    H1 1778   0.104   2.468   1.180  0.0130  1.2590 -0.4298
  114MPD2    H2 1779   0.524   2.481   1.268  0.1074  0.3927 -0.4621
  114MPD2    H3 1780   0.330   2.391   1.130 -0.4863 -0.8983  0.6495
  114MPD2     N 1781   0.036   2.659   1.331 -0.5949  0.7158  0.1347
  114MPD2    H5 1782   4.706   2.610   1.273  1.6176 -1.1855 -0.8340
  114MPD2    N1 1783   0.490   2.662   1.477 -0.9420  0.2068  0.6240
  114MPD2    H7 1784   0.458   2.743   1.530  3.2287  1.3483  1.4065
  115TMC2    C1 1785   0.538   0.308  17.552  0.0513 -0.0682  0.8048
  115TMC2    C2 1786   0.678   0.308  17.543  0.8368  1.0153 -0.1744
  115TMC2    C3 1787   0.737   0.418  17.495  0.1006  0.2250  0.1712
  115TMC2    C4 1788   0.471   0.421  17.509 -0.2343  0.6677  0.1357
  115TMC2    C5 1789   0.537   0.534  17.469  0.1781 -0.1138  0.5887
  115TMC2    C6 1790   0.672   0.541  17.481 -0.3964 -0.2066  0.0995
  115TMC2     C 1791   0.462   0.180  17.527  0.0103 -0.8938 -0.3799
  115TMC2     O 1792   0.348   0.183  17.481  0.1920  0.4017 -0.0450
  115TMC2     H 1793   0.736   0.225  17.582 -0.6982 -0.3049 -0.6807
  115TMC2    H1 1794   0.363   0.423  17.519 -0.2790  1.4741 -0.5124
  115TMC2    H2 1795   0.738   0.626  17.471  1.9556 -1.9741  0.2645
  115TMC2    C7 1796   0.462   0.645  17.407  0.1007  0.0016  0.5873
  115TMC2    C8 1797   0.875   0.431  17.536  0.0435 -0.2625 -0.0633
  115TMC2    O1 1798   0.340   0.632  17.383 -0.2079 -0.2161  0.8135
  115TMC2    O2 1799   0.934   0.533  17.571 -0.2190  0.9918  0.3316
  115TMC2    O5 1800   0.941   0.324  17.477  0.0254 -0.0606  0.6663
  115TMC2    H5 1801   0.884   0.255  17.436 -0.4702 -0.0322  1.3093
  116MPD2     C 1802   0.430   4.402  17.490  0.1604 -0.3076  0.2969
  116MPD2    C1 1803   0.365   4.499  17.419 -0.2548  0.4643  0.3670
  116MPD2    C2 1804   0.390   4.632  17.441  0.4096  0.0190  0.8724
  116MPD2    C3 1805   0.479   4.667  17.538  0.7793  0.7539  0.3129
  116MPD2    C4 1806   0.560   4.575  17.589 -0.3806 -0.1568 -0.0612
  116MPD2    C5 1807   0.523   4.442  17.577 -0.0077  0.6349 -0.0328
  116MPD2     H 1808   0.343   4.710  17.382 -2.0942 -0.9455  1.5604
  116MPD2    H1 1809   0.641   4.600  17.657  0.0177 -2.1641  0.2150
  116MPD2    H2 1810   0.418   4.297  17.467 -0.0275 -0.6209  1.8292
  116MPD2    H3 1811   0.586   4.365  17.620 -2.3657 -0.6132  1.2043
  116MPD2     N 1812   0.523   0.064  17.568 -0.6434  0.3016  0.4537
  116MPD2    H5 1813   0.603   0.069  17.630 -1.7891 -0.1735  1.9600
  116MPD2    N1 1814   0.288   4.448  17.314  0.4482 -0.1795 -0.5004
  116MPD2    H7 1815   0.296   4.348  17.299 -1.9945 -0.2970 -1.0255
  117TMC2    C1 1816   3.817   1.964  14.189  0.7869  0.5017 -0.2724
  117TMC2    C2 1817   3.836   1.978  14.327  0.0359 -0.7734 -1.1967
  117TMC2    C3 1818   3.945   2.050  14.366 -0.0651  0.1127  0.5076
  117TMC2    C4 1819   3.881   2.036  14.092 -0.2198 -0.2926  0.2125
  117TMC2    C5 1820   3.974   2.128  14.138  0.5065  0.7384  1.0216
  117TMC2    C6 1821   4.004   2.132  14.274  0.1332  0.0926  0.4233
  117TMC2     C 1822   3.732   1.848  14.157 -0.4262 -0.5414 -0.8006
  117TMC2     O 1823   3.720   1.764  14.244 -0.4758 -0.3737  0.5723
  117TMC2     H 1824   3.781   1.908  14.389 -2.1778  3.0309  1.1204
  117TMC2    H1 1825   3.850   2.020  13.989  1.3983 -0.3059 -0.2634
  117TMC2    H2 1826   4.072   2.208  14.310 -1.6050  2.5135 -1.3631
  117TMC2    C7 1827   4.010   2.254  14.063 -0.1124  0.2732 -0.3240
  117TMC2    C8 1828   3.977   2.061  14.507  0.4481 -0.1389  0.1153
  117TMC2    O1 1829   4.077   2.341  14.124  0.0914  0.8739  0.3511
  117TMC2    O2 1830   4.088   2.093  14.547 -0.1883  0.3922 -0.1896
  117TMC2    O5 1831   3.862   2.097  14.564 -0.2266 -0.6501 -0.0194
  117TMC2    H5 1832   3.779   2.077  14.516 -1.7493  0.6974  2.0607
  118MPD2     C 1833   3.861   2.370  13.747  0.2800  0.4058  0.2662
  118MPD2    C1 1834   3.935   2.385  13.864 -0.5072 -0.1329 -0.7599
  118MPD2    C2 1835   4.002   2.509  13.888 -0.6978  0.2855 -0.0354
  118MPD2    C3 1836   3.981   2.612  13.797  0.3360  0.5906  0.4230
  118MPD2    C4 1837   3.907   2.599  13.686  0.0575  0.0794 -0.6033
  118MPD2    C5 1838   3.846   2.475  13.672  0.5422  0.1553 -0.0304
  118MPD2     H 1839   4.068   2.512  13.974 -1.0092 -0.7491  0.2334
  118MPD2    H1 1840   3.888   2.675  13.611 -1.8956 -2.0255 -2.2187
  118MPD2    H2 1841   3.805   2.279  13.733  0.2501  0.3358  0.8213
  118MPD2    H3 1842   3.790   2.444  13.585 -3.0954 -0.1984  2.4325
  118MPD2     N 1843   4.022   2.744  13.819  0.2917 -0.1537  0.1737
  118MPD2    H5 1844   3.984   2.815  13.756 -1.6632 -0.4575  0.9929
  118MPD2    N1 1845   3.930   2.275  13.952 -0.9977  0.0641  0.5972
  118MPD2    H7 1846   3.867   2.200  13.924  1.4350 -1.6102 -0.3974
  119TMC2    C1 1847   2.637   3.111  13.202 -0.5928 -0.3276  0.4457
  119TMC2    C2 1848   2.750   3.108  13.123  0.4732  0.4228  0.8843
  119TMC2    C3 1849   2.739   3.033  13.005  0.1692 -0.5766  0.2513
  119TMC2    C4 1850   2.513   3.069  13.160  0.6224 -0.0387  0.3325
  119TMC2    C5 1851   2.515   2.991  13.047 -0.0654 -0.0597  0.9027
  119TMC2    C6 1852   2.623   2.968  12.973  0.0340  0.3571  0.4502
  119TMC2     C 1853   2.627   3.209  13.313  0.1884 -0.0132  0.5048
  119TMC2     O 1854   2.518   3.260  13.328 -0.6678  0.2387 -0.3335
  119TMC2     H 1855   2.843   3.156  13.150  0.6092 -0.2618  1.6614
  119TMC2    H1 1856   2.419   3.096  13.207  1.3676  2.3645  0.4180
  119TMC2    H2 1857   2.622   2.910  12.882  2.2656  0.6550  0.2216
  119TMC2    C7 1858   2.391   2.932  13.001  0.5471  0.5473  0.3450
  119TMC2    C8 1859   2.833   3.035  12.898 -0.4627  0.3011  0.0982
  119TMC2    O1 1860   2.383   2.878  12.891  0.4085  0.5408 -0.7528
  119TMC2    O2 1861   2.795   3.017  12.783 -0.4569  0.3255 -0.4321
  119TMC2    O5 1862   2.941   3.092  12.930  0.2272 -0.3957 -0.7672
  119TMC2    H5 1863   2.969   3.056  13.016 -2.9117 -2.1605 -0.5206
  120MPD2     C 1864   2.790   3.286  13.800  0.2110 -0.0103  0.2510
  120MPD2    C1 1865   2.659   3.266  13.752 -0.0303 -0.1635  1.0267
  120MPD2    C2 1866   2.639   3.257  13.612  0.1883 -0.1150 -0.2286
  120MPD2    C3 1867   2.745   3.251  13.530 -0.2429  0.5468  0.4882
  120MPD2    C4 1868   2.870   3.250  13.584 -0.1941  0.1695  0.0356
  120MPD2    C5 1869   2.896   3.281  13.711  0.4429  0.1567  0.1025
  120MPD2     H 1870   2.541   3.242  13.568  0.3149  0.7519 -0.7934
  120MPD2    H1 1871   2.951   3.241  13.513  0.3235 -0.5204  0.7118
  120MPD2    H2 1872   2.808   3.294  13.907 -0.0396 -0.6140  0.3434
  120MPD2    H3 1873   3.001   3.292  13.734  0.9260 -1.4198 -1.3339
  120MPD2     N 1874   2.739   3.213  13.396 -0.1418 -0.2216  0.5728
  120MPD2    H5 1875   2.821   3.179  13.348 -1.1495 -1.7527 -0.0487
  120MPD2    N1 1876   2.567   3.251  13.851  0.1387 -0.0803 -0.3589
  120MPD2    H7 1877   2.606   3.276  13.941 -1.0427 -0.2938  0.2149
  121TMC2    C1 1878   3.096   0.247  14.122  0.2779  1.0028 -0.5222
  121TMC2    C2 1879   3.022   0.301  14.223 -0.8187  0.5014  0.7583
  121TMC2    C3 1880   2.888   0.314  14.210  0.7511  0.3878 -0.1140
  121TMC2    C4 1881   3.039   0.208  14.003 -0.1561 -0.4813  0.8397
  121TMC2    C5 1882   2.909   0.243  13.990 -0.4736  0.7030 -0.5932
  121TMC2    C6 1883   2.829   0.278  14.091  0.4294 -0.1569 -0.7994
  121TMC2     C 1884   3.240   0.282  14.122  0.3165 -0.0013  0.5656
  121TMC2     O 1885   3.311   0.254  14.220  0.6890  0.2605 -0.0973
  121TMC2     H 1886   3.061   0.342  14.315 -1.9836 -1.3000  2.0590
  121TMC2    H1 1887   3.101   0.159  13.929  0.6538  0.7977  0.6756
  121TMC2    H2 1888   2.721   0.272  14.088  0.2210  2.7854  0.9252
  121TMC2    C7 1889   2.865   0.259  13.857  0.6208  0.3877  0.3362
  121TMC2    C8 1890   2.819   0.360  14.327  0.5443 -0.4335  0.7222
  121TMC2    O1 1891   2.951   0.228  13.775  0.3738  0.2885 -0.1756
  121TMC2    O2 1892   2.859   0.348  14.439 -0.6813  0.0678 -0.2592
  121TMC2    O5 1893   2.687   0.391  14.300 -0.1133 -0.2637  0.3388
  121TMC2    H5 1894   2.671   0.419  14.207 -1.9214  1.3577  1.1392
  122MPD2     C 1895   3.502   0.400  14.052  0.2736 -0.2031 -0.5749
  122MPD2    C1 1896   3.405   0.371  13.963 -0.4100  0.2939  0.3543
  122MPD2    C2 1897   3.424   0.389  13.828 -0.5868 -0.4270  0.1216
  122MPD2    C3 1898   3.532   0.462  13.779  0.3960 -0.6183  0.2117
  122MPD2    C4 1899   3.632   0.489  13.876  0.1543 -0.0374  0.6491
  122MPD2    C5 1900   3.613   0.463  14.003  0.5895 -0.4626  0.3840
  122MPD2     H 1901   3.336   0.375  13.767 -0.7071  1.4705 -0.1469
  122MPD2    H1 1902   3.729   0.526  13.842 -0.2414 -0.3984 -0.8935
  122MPD2    H2 1903   3.493   0.395  14.160 -1.9342  0.2793 -0.7329
  122MPD2    H3 1904   3.693   0.492  14.070  2.1517  0.2537 -1.7965
  122MPD2     N 1905   3.551   0.508  13.649 -0.1226 -0.4209  0.0037
  122MPD2    H5 1906   3.640   0.553  13.630 -0.7429  1.5807  1.8933
  122MPD2    N1 1907   3.281   0.324  13.999 -0.2352  0.1480 -0.3115
  122MPD2    H7 1908   3.205   0.328  13.931 -0.3875 -0.4769 -0.1751
  123TMC2    C1 1909   1.912   3.823  10.336  0.9434 -0.4370 -0.4003
  123TMC2    C2 1910   1.944   3.948  10.384 -0.4865  0.1108 -0.2892
  123TMC2    C3 1911   2.035   4.023  10.319  0.5394 -0.8161 -0.4995
  123TMC2    C4 1912   1.950   3.790  10.206  0.3379 -0.1495  0.7758
  123TMC2    C5 1913   2.045   3.874  10.145 -0.1163 -0.5071  0.6919
  123TMC2    C6 1914   2.092   3.984  10.205 -0.3726 -0.5547  0.0696
  123TMC2     C 1915   1.809   3.750  10.406  0.0161  0.2670 -0.3035
  123TMC2     O 1916   1.772   3.781  10.520  0.3668  0.2893  0.2437
  123TMC2     H 1917   1.886   3.981  10.470 -0.9653 -1.3703 -0.0555
  123TMC2    H1 1918   1.938   3.685  10.181 -0.7142  0.0948  0.2594
  123TMC2    H2 1919   2.163   4.051  10.158  0.1521 -1.6619 -0.6884
  123TMC2    C7 1920   2.092   3.825  10.018 -0.2020 -0.0714  0.3408
  123TMC2    C8 1921   2.091   4.146  10.381  0.7832 -0.1066  0.8955
  123TMC2    O1 1922   2.083   3.707   9.995 -0.5391  0.0490 -0.1158
  123TMC2    O2 1923   2.131   4.231  10.307  0.0335  0.6326 -0.1386
  123TMC2    O5 1924   2.035   4.171  10.502  0.4718 -0.0645 -0.2986
  123TMC2    H5 1925   2.030   4.088  10.554 -2.4603  0.0463 -0.4225
  124MPD2     C 1926   1.509   3.332  10.424  0.6132  0.1003 -0.6593
  124MPD2    C1 1927   1.552   3.354  10.297 -0.6585  0.8021 -0.1723
  124MPD2    C2 1928   1.640   3.460  10.268  0.4681  0.1483 -0.0601
  124MPD2    C3 1929   1.677   3.545  10.373 -0.0224 -0.0122 -1.0402
  124MPD2    C4 1930   1.609   3.530  10.492  0.4619 -0.3407  0.5328
  124MPD2    C5 1931   1.544   3.419  10.523  0.0063  0.0920  0.2929
  124MPD2     H 1932   1.690   3.467  10.172  0.3901  3.6194  0.1866
  124MPD2    H1 1933   1.631   3.602  10.570  0.9163  0.6173 -0.4839
  124MPD2    H2 1934   1.441   3.250  10.448 -0.7343  2.2334  2.8188
  124MPD2    H3 1935   1.516   3.399  10.626 -2.9399  0.0959 -0.4871
  124MPD2     N 1936   1.773   3.644  10.335  0.1776 -0.3061 -0.1692
  124MPD2    H5 1937   1.796   3.643  10.237 -0.5340  1.1769 -0.3521
  124MPD2    N1 1938   1.504   3.266  10.204  0.2225 -0.7153  0.8499
  124MPD2    H7 1939   1.444   3.191  10.237 -1.9102  0.4980 -0.2753
  125TMC2    C1 1940   2.535   4.666   9.576 -0.0349  0.1599  0.1023
  125TMC2    C2 1941   2.526   4.526   9.566 -0.3464 -0.2277  0.5859
  125TMC2    C3 1942   2.445   4.470   9.479 -0.0704  0.0871  0.1210
  125TMC2    C4 1943   2.463   0.005   9.489 -0.2162 -0.3513 -0.0367
  125TMC2    C5 1944   2.386   4.675   9.405 -0.0692  0.2238 -0.1277
  125TMC2    C6 1945   2.365   4.537   9.394  0.1180 -0.8946 -0.5536
  125TMC2     C 1946   2.663   4.718   9.622  0.0753  0.2285 -0.0036
  125TMC2     O 1947   2.759   4.641   9.622 -0.6861  0.1437 -0.7801
  125TMC2     H 1948   2.593   4.459   9.620 -0.0367 -2.2205 -2.2620
  125TMC2    H1 1949   2.468   0.112   9.506  1.1473 -0.5729  1.0038
  125TMC2    H2 1950   2.302   4.489   9.320 -0.5962  0.3610 -0.7784
  125TMC2    C7 1951   2.309   0.019   9.302  0.7833 -0.4615  0.0066
  125TMC2    C8 1952   2.431   4.327   9.478 -0.4348 -0.1986  0.6024
  125TMC2    O1 1953   2.232   4.688   9.242 -0.1789  0.1562  0.1538
  125TMC2    O2 1954   2.381   4.266   9.383 -0.0381 -0.1243 -0.0238
  125TMC2    O5 1955   2.431   4.283   9.607  0.0058  0.0969  0.6368
  125TMC2    H5 1956   2.461   4.344   9.677  3.0024 -1.7409  0.9724
  126MPD1     C 1957   2.928   0.272   9.956 -0.5401  0.6177  0.0512
  126MPD1    C1 1958   2.823   0.344   9.919 -0.0715  0.7671 -0.1745
  126MPD1    C2 1959   2.737   0.283   9.832 -0.7048  0.6847 -0.0995
  126MPD1    C3 1960   2.750   0.151   9.776 -0.4213 -0.1851  0.3745
  126MPD1    C4 1961   2.868   0.090   9.811 -0.4126  0.5351  0.1116
  126MPD1    C5 1962   2.946   0.153   9.899 -0.0083  0.9349  0.1996
  126MPD1     H 1963   2.650   0.340   9.802 -1.2388 -0.1005 -0.0785
  126MPD1    H1 1964   2.891   4.725   9.781 -0.0820  0.5852  0.1987
  126MPD1    H2 1965   2.995   0.302  10.035  1.0073 -2.0215 -0.2658
  126MPD1    H3 1966   3.015   0.090   9.954 -2.2599 -0.6975  1.1260
  126MPD1     N 1967   2.646   0.097   9.690  0.0128 -0.6678  0.1908
  126MPD1    H5 1968   2.551   0.133   9.688  0.3642  0.2392 -0.9756
  126MPD1    N1 1969   2.803   0.475   9.945  0.5712 -0.3061 -0.6666
  126MPD1    H6 1970   2.705   0.503   9.953  0.4460 -0.1638 -2.6674
  126MPD1    H7 1971   2.830   0.481  10.043 -0.5862  2.3340 -0.5075
  127TMC2    C1 1972   3.482   4.028   9.602 -0.1089 -0.4716 -0.5537
  127TMC2    C2 1973   3.604   4.034   9.665 -0.5907 -0.1858  0.0490
  127TMC2    C3 1974   3.634   3.930   9.748  0.4075 -0.2764  0.8298
  127TMC2    C4 1975   3.394   3.925   9.612 -0.1525  0.3386  0.8099
  127TMC2    C5 1976   3.425   3.833   9.706 -0.4552 -0.0140  0.5851
  127TMC2    C6 1977   3.540   3.833   9.774  0.7221  0.5188 -0.5275
  127TMC2     C 1978   3.457   4.129   9.500 -0.3310  1.1472  0.1303
  127TMC2     O 1979   3.555   4.192   9.470  0.4401 -0.4259 -0.7856
  127TMC2     H 1980   3.677   4.110   9.642 -1.9253  0.8812 -0.6366
  127TMC2    H1 1981   3.305   3.914   9.551  0.3552  1.5378 -0.1477
  127TMC2    H2 1982   3.554   3.765   9.858 -1.4803  0.1894 -0.4245
  127TMC2    C7 1983   3.355   3.703   9.698 -0.4030  0.2866  0.2706
  127TMC2    C8 1984   3.740   3.935   9.845 -0.1910  0.2733 -0.1551
  127TMC2    O1 1985   3.240   3.717   9.661  0.6892 -0.0184 -0.2134
  127TMC2    O2 1986   3.768   3.829   9.899 -0.6126 -0.2612  0.7479
  127TMC2    O5 1987   3.711   4.049   9.909  0.6614 -0.0138 -0.4195
  127TMC2    H5 1988   3.673   4.115   9.846  1.4549 -0.0935 -0.9925
  128MPD2     C 1989   3.132   4.242   9.340  0.1228 -0.0349 -0.5775
  128MPD2    C1 1990   3.268   4.248   9.377  0.3756  0.1524  1.3049
  128MPD2    C2 1991   3.339   4.356   9.327 -0.2516 -0.5209  0.3329
  128MPD2    C3 1992   3.285   4.447   9.237 -0.5679  0.3053  0.2815
  128MPD2    C4 1993   3.157   4.433   9.186  0.5986  0.2502 -0.3884
  128MPD2    C5 1994   3.088   4.336   9.245 -0.0963  0.2670  0.2716
  128MPD2     H 1995   3.444   4.365   9.353  0.1502  0.2996 -1.6026
  128MPD2    H1 1996   3.115   4.504   9.116  0.4182  0.3610 -0.1659
  128MPD2    H2 1997   3.063   4.162   9.365  1.4719 -1.3217 -1.0006
  128MPD2    H3 1998   2.987   4.338   9.206 -0.8230 -0.8377  2.0740
  128MPD2     N 1999   3.372   4.553   9.198  0.5279  0.5286  0.2185
  128MPD2    H5 2000   3.471   4.553   9.221  1.0660 -1.3971 -2.1547
  128MPD2    N1 2001   3.320   4.145   9.463 -0.5744 -0.3303  0.3984
  128MPD2    H7 2002   3.254   4.081   9.507 -1.2283  0.0023 -0.0956
  129TMC2    C1 2003   3.594   3.752   1.175  0.4536 -0.2329  0.1201
  129TMC2    C2 2004   3.698   3.773   1.260 -0.1838  0.3887 -0.5540
  129TMC2    C3 2005   3.704   3.700   1.376 -0.0778  0.1344  0.5614
  129TMC2    C4 2006   3.485   3.674   1.205 -0.0883  0.3576 -0.4915
  129TMC2    C5 2007   3.486   3.622   1.331  0.2903  0.3572 -0.3916
  129TMC2    C6 2008   3.596   3.630   1.416  0.3981 -0.0732 -0.5161
  129TMC2     C 2009   3.579   3.838   1.060  0.8164 -0.1786 -0.2396
  129TMC2     O 2010   3.510   3.794   0.969  0.0895 -0.0001  0.1948
  129TMC2     H 2011   3.780   3.835   1.227  0.4689  1.2467  2.6375
  129TMC2    H1 2012   3.403   3.673   1.134  0.5177  0.1552 -1.1972
  129TMC2    H2 2013   3.587   3.613   1.523 -2.2317 -1.1547 -0.9120
  129TMC2    C7 2014   3.372   3.548   1.372  0.3496 -0.6868  0.2766
  129TMC2    C8 2015   3.807   3.726   1.467 -0.3037  0.6894  0.0486
  129TMC2    O1 2016   3.387   3.479   1.469  0.0812  0.1271  0.0233
  129TMC2    O2 2017   3.781   3.749   1.587 -0.2330  0.1780  0.2828
  129TMC2    O5 2018   3.931   3.743   1.404 -0.4045  0.0180 -0.0609
  129TMC2    H5 2019   3.916   3.728   1.308  1.1572 -2.3747  0.0759
  130MPD2     C 2020   3.595   4.033   0.841  0.0626 -0.1192  1.1977
  130MPD2    C1 2021   3.619   4.066   0.977  0.5064 -0.0869 -0.2350
  130MPD2    C2 2022   3.632   4.197   1.012 -0.3594 -0.1729 -0.2511
  130MPD2    C3 2023   3.594   4.297   0.923 -0.0888 -0.2743  0.3347
  130MPD2    C4 2024   3.564   4.266   0.790 -0.5495 -0.4254  0.8949
  130MPD2    C5 2025   3.577   4.139   0.748 -0.1011  0.1183  0.4644
  130MPD2     H 2026   3.655   4.236   1.111 -3.4491  0.7191  0.1341
  130MPD2    H1 2027   3.547   4.333   0.707  1.4643 -0.0796  0.7548
  130MPD2    H2 2028   3.602   3.931   0.804 -3.6175  0.9307 -2.4178
  130MPD2    H3 2029   3.568   4.103   0.646  1.9845 -0.8396  0.6185
  130MPD2     N 2030   3.599   4.432   0.966  0.1511  0.4016  0.2665
  130MPD2    H5 2031   3.636   4.448   1.059  0.8480  1.3762 -0.1803
  130MPD2    N1 2032   3.633   3.966   1.073 -0.3623 -0.6654  0.0959
  130MPD2    H7 2033   3.667   3.988   1.166 -0.2512  1.1060 -0.3794
  131TMC2    C1 2034   1.752   3.860   9.632  0.6207 -0.2809 -0.2672
  131TMC2    C2 2035   1.821   3.924   9.529 -0.0433 -0.9850 -0.4913
  131TMC2    C3 2036   1.867   4.042   9.560 -0.1170  0.1301  0.1135
  131TMC2    C4 2037   1.731   3.916   9.752 -0.0092  0.0781  0.5033
  131TMC2    C5 2038   1.783   4.036   9.775  0.2374 -0.2641 -0.0191
  131TMC2    C6 2039   1.855   4.105   9.683  0.1026 -0.3142  0.6887
  131TMC2     C 2040   1.708   3.722   9.615  0.3633  0.5295 -0.3304
  131TMC2     O 2041   1.689   3.661   9.717 -0.1233  0.0467  0.0438
  131TMC2     H 2042   1.854   3.874   9.438  0.5656 -0.7733 -0.3829
  131TMC2    H1 2043   1.682   3.863   9.833 -0.0604  0.1057  0.4908
  131TMC2    H2 2044   1.871   4.212   9.686  0.2848 -0.3039 -0.7328
  131TMC2    C7 2045   1.799   4.080   9.913 -0.1171  0.3965 -0.1239
  131TMC2    C8 2046   1.939   4.107   9.447 -0.6559  0.2710 -0.7644
  131TMC2    O1 2047   1.766   4.008  10.005  0.1708  0.0025 -0.4332
  131TMC2    O2 2048   2.026   4.192   9.465 -0.0452 -0.4865 -0.3088
  131TMC2    O5 2049   1.896   4.084   9.322  0.2794  0.6598  0.8060
  131TMC2    H5 2050   1.836   4.007   9.316 -0.1207  1.0591 -0.4375
  132MPD2     C 2051   1.625   3.539   9.309 -0.0964 -0.1010  0.6462
  132MPD2    C1 2052   1.670   3.559   9.440  0.4494 -0.1816 -0.2837
  132MPD2    C2 2053   1.653   3.460   9.534  0.4270  0.0522  0.0691
  132MPD2    C3 2054   1.601   3.340   9.498  0.6491  0.3575 -0.7240
  132MPD2    C4 2055   1.549   3.318   9.369  0.1175  0.6337  0.1294
  132MPD2    C5 2056   1.566   3.418   9.280  0.3993 -0.0164  0.0460
  132MPD2     H 2057   1.698   3.462   9.633 -0.2932 -1.1259  0.4196
  132MPD2    H1 2058   1.499   3.226   9.342  0.2429  0.1445  1.5442
  132MPD2    H2 2059   1.633   3.624   9.242 -2.1231  0.1095  0.6558
  132MPD2    H3 2060   1.526   3.393   9.182  0.7736  0.0222 -0.1159
  132MPD2     N 2061   1.586   3.248   9.601  0.4266  0.3936  0.1326
  132MPD2    H5 2062   1.640   3.277   9.682 -1.0858  0.9089  0.9389
  132MPD2    N1 2063   1.698   3.689   9.482 -0.5644  1.0051 -0.0928
  132MPD2    H7 2064   1.702   3.760   9.408 -2.3278  0.1061 -1.0391
  133TMC2    C1 2065   1.686   0.086   9.257  0.4017 -0.3500  0.1384
  133TMC2    C2 2066   1.691   0.201   9.178  0.4722  0.4756 -0.6302
  133TMC2    C3 2067   1.794   0.292   9.209 -0.2017  0.2562  0.5237
  133TMC2    C4 2068   1.787   0.063   9.350  0.1429  0.3083  0.6703
  133TMC2    C5 2069   1.889   0.151   9.372  0.2127 -0.1514  0.9220
  133TMC2    C6 2070   1.888   0.268   9.313 -0.3116  0.3267 -0.7739
  133TMC2     C 2071   1.560   0.010   9.265  0.3831 -0.2176 -0.5562
  133TMC2     O 2072   1.519   4.716   9.156  0.8376 -0.2770 -0.3799
  133TMC2     H 2073   1.609   0.222   9.110 -0.5431  0.9058  0.7173
  133TMC2    H1 2074   1.777   4.702   9.396  0.7396  0.2919  0.7716
  133TMC2    H2 2075   1.965   0.343   9.330  0.2743 -0.4917  0.1617
  133TMC2    C7 2076   2.005   0.121   9.450 -0.0203  0.1181  0.2774
  133TMC2    C8 2077   1.783   0.432   9.162 -0.3022 -0.5770 -0.2376
  133TMC2    O1 2078   2.091   0.207   9.466 -0.3394 -0.1316  0.3270
  133TMC2    O2 2079   1.854   0.522   9.210  0.1158  0.1259 -0.5192
  133TMC2    O5 2080   1.716   0.441   9.046 -0.3114  0.1049 -0.1966
  133TMC2    H5 2081   1.689   0.357   9.002 -1.6099  0.0372  0.7126
  134MPD2     C 2082   1.391   4.606   9.562  0.1982 -0.3461 -0.4517
  134MPD2    C1 2083   1.412   4.618   9.427  0.1413  0.3534 -0.3894
  134MPD2    C2 2084   1.338   4.558   9.332  0.9167 -0.3453  0.8773
  134MPD2    C3 2085   1.232   4.481   9.383 -0.3751 -0.1205 -0.0461
  134MPD2    C4 2086   1.211   4.468   9.519 -0.9010  0.4945 -0.0220
  134MPD2    C5 2087   1.293   4.529   9.607  0.5442 -0.5713 -0.2208
  134MPD2     H 2088   1.358   4.574   9.227  1.4570 -2.5669  0.6515
  134MPD2    H1 2089   1.132   4.406   9.560 -0.3980 -0.1570 -0.0268
  134MPD2    H2 2090   1.460   4.657   9.627  0.4072  2.7262 -3.0999
  134MPD2    H3 2091   1.264   4.513   9.710  1.9130  0.5584  0.3402
  134MPD2     N 2092   1.141   4.410   9.295 -0.2859  0.7170  0.0507
  134MPD2    H5 2093   1.055   4.372   9.334  0.6040 -1.3887 -0.0491
  134MPD2    N1 2094   1.525   4.704   9.391  0.1480  0.4152 -0.0892
  134MPD2    H7 2095   1.577   4.726   9.475  1.6336 -0.5318 -0.7739
  135TMC2    C1 2096   2.572   1.446   9.154 -0.1638  0.3891 -0.1248
  135TMC2    C2 2097   2.593   1.453   9.017  0.4096  0.3421 -0.1734
  135TMC2    C3 2098   2.484   1.479   8.943  0.1743  0.4324 -0.2803
  135TMC2    C4 2099   2.450   1.485   9.215  0.5830 -0.4649 -0.1316
  135TMC2    C5 2100   2.346   1.509   9.130 -0.4618  0.8557  0.7550
  135TMC2    C6 2101   2.359   1.496   8.996 -0.1580  0.9099 -0.3627
  135TMC2     C 2102   2.670   1.372   9.233  0.0741  0.4538  0.3354
  135TMC2     O 2103   2.658   1.367   9.355 -0.4870 -0.3034 -0.1708
  135TMC2     H 2104   2.690   1.443   8.970  1.0490 -0.6299  1.3538
  135TMC2    H1 2105   2.449   1.479   9.324 -0.8150 -0.0018 -0.1233
  135TMC2    H2 2106   2.270   1.514   8.937 -1.9996 -0.0465  2.1470
  135TMC2    C7 2107   2.208   1.502   9.178 -0.1307 -0.6118  0.8806
  135TMC2    C8 2108   2.490   1.513   8.807  0.1179  0.0443  0.0485
  135TMC2    O1 2109   2.120   1.526   9.094 -0.1182 -0.9085  0.0509
  135TMC2    O2 2110   2.408   1.585   8.750 -0.5748  0.5253 -0.0888
  135TMC2    O5 2111   2.577   1.417   8.760 -0.2961 -0.3156  0.0258
  135TMC2    H5 2112   2.625   1.365   8.828 -0.3348 -0.2312  0.1180
  136MPD2     C 2113   2.920   1.230   9.326  0.0368  0.1083  0.0475
  136MPD2    C1 2114   2.866   1.221   9.197 -0.0468  0.4241 -0.0522
  136MPD2    C2 2115   2.926   1.141   9.103  0.0086  0.4726 -0.1386
  136MPD2    C3 2116   3.040   1.067   9.127 -0.3185  0.5747  0.3134
  136MPD2    C4 2117   3.091   1.076   9.251  0.3869 -0.4893  0.3794
  136MPD2    C5 2118   3.030   1.151   9.342 -0.1891 -0.2391 -0.5896
  136MPD2     H 2119   2.883   1.149   9.004  0.4000 -0.0012 -0.3508
  136MPD2    H1 2120   3.185   1.031   9.280  1.6681  1.5167 -0.6863
  136MPD2    H2 2121   2.884   1.307   9.394 -2.2484 -1.9554  1.1746
  136MPD2    H3 2122   3.080   1.160   9.438  1.2592  0.2881 -1.3878
  136MPD2     N 2123   3.111   1.002   9.025  0.4049  0.3705  0.6402
  136MPD2    H5 2124   3.196   0.958   9.058 -0.6228 -0.2279  2.5096
  136MPD2    N1 2125   2.753   1.297   9.153 -0.4743 -0.5945 -0.8452
  136MPD2    H7 2126   2.731   1.287   9.054  0.4183  1.9307 -1.3162
  137TMC2    C1 2127   1.825   0.979   9.336 -0.2952  0.0359  0.1589
  137TMC2    C2 2128   1.745   1.093   9.350 -0.0831 -0.2172  0.4207
  137TMC2    C3 2129   1.611   1.081   9.341 -0.5288 -0.9606 -0.7545
  137TMC2    C4 2130   1.764   0.860   9.321 -0.1386 -0.4290 -0.0802
  137TMC2    C5 2131   1.627   0.850   9.322 -0.6920 -0.3037 -0.1152
  137TMC2    C6 2132   1.546   0.956   9.340 -0.9830 -0.1980  0.2667
  137TMC2     C 2133   1.971   0.991   9.317  0.8292  0.9618  0.4865
  137TMC2     O 2134   2.041   0.894   9.349  0.5639  0.1543  0.2258
  137TMC2     H 2135   1.795   1.188   9.361 -0.0951 -0.2254  0.5474
  137TMC2    H1 2136   1.831   0.777   9.298 -0.6611 -0.0247 -2.9611
  137TMC2    H2 2137   1.438   0.944   9.338 -0.7182 -2.0318 -1.7982
  137TMC2    C7 2138   1.577   0.716   9.352  0.5333 -0.0104  1.0308
  137TMC2    C8 2139   1.532   1.193   9.394  0.1595 -0.2488 -0.2156
  137TMC2    O1 2140   1.469   0.693   9.300  0.4034  0.5704  0.2998
  137TMC2    O2 2141   1.420   1.187   9.441  0.3177 -0.0017 -0.3745
  137TMC2    O5 2142   1.589   1.297   9.334 -0.5321  0.1459  0.1289
  137TMC2    H5 2143   1.652   1.273   9.264 -0.3670 -1.0086  0.6715
  138MPD2     C 2144   2.140   1.179   9.044 -0.7141 -0.0692 -0.6654
  138MPD2    C1 2145   2.131   1.106   9.161  0.2931  0.3056  0.1524
  138MPD2    C2 2146   2.243   1.043   9.211 -0.3859  0.1441  0.2606
  138MPD2    C3 2147   2.361   1.055   9.145  0.7677 -0.2150 -0.3472
  138MPD2    C4 2148   2.375   1.129   9.032  0.2372 -0.1185 -0.0265
  138MPD2    C5 2149   2.265   1.190   8.981 -0.5078 -0.5061  0.2147
  138MPD2     H 2150   2.239   0.979   9.298  0.9323  0.2997  0.4408
  138MPD2    H1 2151   2.465   1.141   8.972  0.6825 -0.3332  0.5965
  138MPD2    H2 2152   2.052   1.220   8.995 -0.9621 -1.8058 -1.6856
  138MPD2    H3 2153   2.278   1.249   8.890  3.0450 -1.4742  0.1132
  138MPD2     N 2154   2.475   0.993   9.205 -0.8823 -0.0454 -0.3157
  138MPD2    H5 2155   2.460   0.951   9.296  0.2493 -1.1529 -0.6317
  138MPD2    N1 2156   2.003   1.092   9.231 -0.7647  0.5830  0.2237
  138MPD2    H7 2157   1.929   1.147   9.188 -0.1200  0.7890 -0.6209
  139TMC2    C1 2158   3.558   2.901  13.375  0.9803 -0.0590 -0.6829
  139TMC2    C2 2159   3.664   2.907  13.466  0.1615 -0.3380 -0.4829
  139TMC2    C3 2160   3.684   3.019  13.539  0.3026  0.0008 -0.1370
  139TMC2    C4 2161   3.478   3.007  13.356  0.1291  0.2161  0.7017
  139TMC2    C5 2162   3.500   3.125  13.429  0.2307  0.3739 -0.2939
  139TMC2    C6 2163   3.604   3.132  13.521 -0.2207  0.8166 -0.2211
  139TMC2     C 2164   3.547   2.798  13.273  0.3865  0.6659 -0.4497
  139TMC2     O 2165   3.440   2.773  13.226 -0.0196 -0.5950  0.0032
  139TMC2     H 2166   3.722   2.818  13.488 -0.1809 -0.2022  1.0042
  139TMC2    H1 2167   3.396   3.010  13.286 -0.7179 -2.7592  1.5692
  139TMC2    H2 2168   3.625   3.222  13.577  0.5602  1.3127 -1.2947
  139TMC2    C7 2169   3.413   3.241  13.410  0.6850 -0.1545  0.3649
  139TMC2    C8 2170   3.785   3.031  13.645 -0.1549  0.5581 -0.1384
  139TMC2    O1 2171   3.301   3.224  13.358  0.7416 -0.0068  0.2385
  139TMC2    O2 2172   3.807   3.139  13.693 -0.8645 -1.0389 -0.1480
  139TMC2    O5 2173   3.784   2.917  13.719 -0.2362 -0.7922 -0.4002
  139TMC2    H5 2174   3.716   2.850  13.694 -1.2189  0.2811 -0.6041
  140MPD2     C 2175   3.837   2.575  13.181 -0.0203  0.0146  0.0148
  140MPD2    C1 2176   3.706   2.618  13.179  0.2178  0.1168  0.2320
  140MPD2    C2 2177   3.616   2.546  13.108 -0.1065 -0.4474 -0.5987
  140MPD2    C3 2178   3.644   2.429  13.048 -0.1442 -0.4834 -0.0321
  140MPD2    C4 2179   3.776   2.379  13.050 -0.2784 -0.3970  0.6958
  140MPD2    C5 2180   3.873   2.453  13.116 -0.2866  0.4690  0.1448
  140MPD2     H 2181   3.511   2.572  13.103  0.3363  1.2500 -0.8380
  140MPD2    H1 2182   3.805   2.281  13.015  0.0900 -0.0301 -0.0253
  140MPD2    H2 2183   3.921   2.625  13.229  1.7552  0.0030 -3.0559
  140MPD2    H3 2184   3.966   2.398  13.123 -0.4260  0.2336  0.1625
  140MPD2     N 2185   3.536   2.370  12.966 -0.5972 -0.2026  0.0852
  140MPD2    H5 2186   3.448   2.419  12.970  0.3702  1.5706 -0.1043
  140MPD2    N1 2187   3.670   2.731  13.261  0.1479  0.3601 -0.1308
  140MPD2    H7 2188   3.742   2.782  13.311 -0.9068 -0.5093  2.2651
  141TMC2    C1 2189   4.657   3.562  14.083 -0.5045  0.2037  0.4304
  141TMC2    C2 2190   4.675   3.423  14.107  0.3658 -0.4851  0.4155
  141TMC2    C3 2191   0.018   3.388  14.208  0.4471 -0.2298 -0.0002
  141TMC2    C4 2192   4.732   3.657  14.158 -0.1353 -0.1962  1.3820
  141TMC2    C5 2193   0.070   3.614  14.261  0.4514  0.4317  0.3485
  141TMC2    C6 2194   0.087   3.477  14.287 -0.6930  0.4678  0.3139
  141TMC2     C 2195   4.562   3.602  13.977  0.2072 -0.3853  0.1241
  141TMC2     O 2196   4.535   3.720  13.966 -0.4208  0.4510 -0.7557
  141TMC2     H 2197   4.600   3.356  14.067 -1.0773  1.4594 -0.1886
  141TMC2    H1 2198   4.706   3.761  14.141 -1.8716 -1.0896 -1.5491
  141TMC2    H2 2199   0.143   3.435  14.371  0.0111 -1.2314 -1.0010
  141TMC2    C7 2200   0.164   3.696  14.335  0.3691 -0.3934 -0.1689
  141TMC2    C8 2201   0.043   3.250  14.236 -0.5049  0.2727 -0.0975
  141TMC2    O1 2202   0.226   3.644  14.425  0.3449 -0.6144  0.5112
  141TMC2    O2 2203   0.088   3.211  14.346  0.1874 -0.6281 -0.1094
  141TMC2    O5 2204   0.059   3.198  14.112  0.0288  0.0252  0.1637
  141TMC2    H5 2205   0.014   3.241  14.036 -1.0327  0.4380  1.0164
  142TMC2    C1 2206   1.937   3.205   9.504 -0.0952 -0.2258  0.3844
  142TMC2    C2 2207   1.934   3.216   9.369 -0.6449  1.2573 -0.8139
  142TMC2    C3 2208   1.979   3.336   9.310 -0.6818  0.0514  0.0170
  142TMC2    C4 2209   1.994   3.299   9.579 -0.6121  0.2419 -0.5580
  142TMC2    C5 2210   2.054   3.404   9.513 -0.0095  0.1099  0.2014
  142TMC2    C6 2211   2.054   3.420   9.379  0.5649 -0.1319 -0.0480
  142TMC2     C 2212   1.861   3.098   9.563 -0.0892 -0.2229 -0.1477
  142TMC2     O 2213   1.800   3.020   9.494 -0.5164 -0.0705 -0.4215
  142TMC2     H 2214   1.868   3.153   9.310 -0.3887 -0.7052  0.9638
  142TMC2    H1 2215   1.995   3.295   9.687 -1.5261  0.1991 -0.5530
  142TMC2    H2 2216   2.097   3.510   9.336  0.7121  0.3430  1.0897
  142TMC2    C7 2217   2.054   3.525   9.592 -0.1411 -1.1917  0.1372
  142TMC2    C8 2218   1.929   3.375   9.183 -0.7648  0.1374  0.6113
  142TMC2    O1 2219   1.990   3.512   9.697 -0.3828 -0.0374  0.6039
  142TMC2    O2 2220   1.927   3.494   9.150 -0.3890 -0.5468 -0.2383
  142TMC2    O5 2221   1.852   3.279   9.120 -0.0010  0.4987 -0.1738
  142TMC2    H5 2222   1.878   3.187   9.139 -1.1238 -0.0206 -1.1624
  143MPD2     C 2223   1.679   2.857   9.988 -0.0530  0.5662 -0.0707
  143MPD2    C1 2224   1.644   2.839   9.857 -0.4973 -0.8128 -0.4096
  143MPD2    C2 2225   1.694   2.924   9.758 -0.6723 -0.0834 -0.5856
  143MPD2    C3 2226   1.795   3.021   9.790 -0.5494 -0.4974 -0.1864
  143MPD2    C4 2227   1.828   3.032   9.923 -0.2944  0.2509  0.1856
  143MPD2    C5 2228   1.776   2.948  10.013  0.9003 -0.0406  0.4301
  143MPD2     H 2229   1.684   2.896   9.654  0.9710 -0.4998 -0.6316
  143MPD2    H1 2230   1.895   3.112   9.954  0.6304 -1.2682  2.0906
  143MPD2    H2 2231   1.628   2.802  10.066  0.9605 -0.6153 -0.2385
  143MPD2    H3 2232   1.798   2.965  10.118  1.4783 -1.3784  0.5263
  143MPD2     N 2233   1.868   3.100   9.700 -0.3157  0.1341  0.0905
  143MPD2    H5 2234   1.926   3.175   9.738  0.0238  0.5682 -1.2870
  143MPD2    N1 2235   1.548   2.742   9.822  0.0723  0.0747  0.1443
  143MPD2    H7 2236   1.528   2.677   9.897 -0.6617 -0.1188 -0.2206
  144TMC2    C1 2237   0.318   1.727   0.632 -0.4968  0.2140 -0.6954
  144TMC2    C2 2238   0.338   1.609   0.570  0.7877  0.0261 -0.1301
  144TMC2    C3 2239   0.439   1.532   0.626  0.1329  0.1433  0.3788
  144TMC2    C4 2240   0.389   1.771   0.741  0.3309 -0.0858 -0.1146
  144TMC2    C5 2241   0.488   1.690   0.781 -0.4154  0.2295  0.0426
  144TMC2    C6 2242   0.509   1.567   0.733 -0.1378 -0.0791 -0.3614
  144TMC2     C 2243   0.205   1.807   0.577 -0.1890  0.2516  0.5486
  144TMC2     O 2244   0.152   1.754   0.480 -0.0495 -0.2515  0.1124
  144TMC2     H 2245   0.281   1.575   0.484  0.0811  2.3062 -0.5726
  144TMC2    H1 2246   0.359   1.860   0.795  1.0237 -0.0692  0.2282
  144TMC2    H2 2247   0.591   1.505   0.767  0.6358  1.1413 -0.0003
  144TMC2    C7 2248   0.556   1.725   0.904  0.1057 -0.3686 -0.4548
  144TMC2    C8 2249   0.450   1.395   0.572 -0.6569  0.5639  0.5552
  144TMC2    O1 2250   0.634   1.634   0.937 -0.7029  0.3400  0.3272
  144TMC2    O2 2251   0.396   1.359   0.467 -0.2563  0.0332 -0.0608
  144TMC2    O5 2252   0.442   1.316   0.679 -0.2035  0.2300 -0.2604
  144TMC2    H5 2253   0.471   1.359   0.762  1.0334  0.9688 -1.0806
  145MPD2     C 2254   4.593   2.176   0.568 -0.3006 -0.4678 -0.1779
  145MPD2    C1 2255   4.605   2.073   0.478  0.2235 -0.2021 -0.2413
  145MPD2    C2 2256   4.709   1.982   0.505 -0.1694  0.2180 -0.2774
  145MPD2    C3 2257   0.055   1.999   0.615  0.1809 -0.0485 -0.7340
  145MPD2    C4 2258   0.035   2.100   0.702 -0.4012  0.3374  0.2663
  145MPD2    C5 2259   4.670   2.188   0.676 -0.2077 -0.2145 -0.2396
  145MPD2     H 2260   0.002   1.910   0.430  0.6987 -0.9044  1.1401
  145MPD2    H1 2261   0.093   2.118   0.792  0.7740 -2.4549  0.0611
  145MPD2    H2 2262   4.512   2.247   0.558  0.1315 -0.3855 -3.0650
  145MPD2    H3 2263   4.650   2.281   0.728  0.3172  0.4583 -1.2492
  145MPD2     N 2264   0.161   1.911   0.655 -0.1392  0.4461  0.5463
  145MPD2    H5 2265   0.214   1.929   0.740  1.9236  0.8503 -0.8318
  145MPD2    N1 2266   4.523   2.050   0.364  0.3030 -0.0073 -0.1314
  145MPD2    H7 2267   4.539   1.964   0.313  1.9119  2.5247 -3.8255
  146TMC2    C1 2268   0.766   0.238  12.002 -0.5945 -0.0677  0.1876
  146TMC2    C2 2269   0.691   0.241  11.891 -0.0332 -0.1022  0.0302
  146TMC2    C3 2270   0.752   0.249  11.769 -1.1992  0.3731 -0.0629
  146TMC2    C4 2271   0.902   0.242  11.994 -0.2982 -0.4869  0.0848
  146TMC2    C5 2272   0.964   0.241  11.872 -0.1688 -0.0627  0.7791
  146TMC2    C6 2273   0.883   0.239  11.760  0.4543 -0.1233 -0.1577
  146TMC2     C 2274   0.693   0.204  12.129 -0.2963  0.3772 -0.2493
  146TMC2     O 2275   0.571   0.201  12.127 -0.0311 -0.3904 -0.3062
  146TMC2     H 2276   0.585   0.224  11.897  0.2874 -2.3185 -0.7616
  146TMC2    H1 2277   0.969   0.253  12.078 -1.3982 -0.5495  0.9701
  146TMC2    H2 2278   0.935   0.256  11.666 -3.1359  0.4632 -2.0401
  146TMC2    C7 2279   1.107   0.259  11.855  0.8922 -0.4207 -0.2892
  146TMC2    C8 2280   0.668   0.259  11.652 -0.2787 -0.4231 -0.1746
  146TMC2    O1 2281   1.140   0.321  11.755  0.4490  0.4316 -0.3533
  146TMC2    O2 2282   0.714   0.246  11.538  0.2376 -0.1058 -0.0304
  146TMC2    O5 2283   0.557   0.333  11.673 -0.2355  0.6701  0.0009
  146TMC2    H5 2284   0.542   0.366  11.764  2.4835 -1.5523  1.2600
  147MPD2     C 2285   1.574   0.304  12.068 -0.1381 -0.2522 -0.2731
  147MPD2    C1 2286   1.498   0.231  12.152 -0.2142 -0.4285 -0.0911
  147MPD2    C2 2287   1.365   0.202  12.116 -0.2498 -0.3140 -0.1061
  147MPD2    C3 2288   1.310   0.258  11.999 -0.0496  0.3303 -0.5467
  147MPD2    C4 2289   1.387   0.347  11.923  0.3904  0.3830  0.6698
  147MPD2    C5 2290   1.518   0.357  11.953  0.2435  0.1246 -0.0793
  147MPD2     H 2291   1.302   0.144  12.183 -0.0492 -1.9796 -1.3569
  147MPD2    H1 2292   1.355   0.394  11.831 -1.5707 -0.8751  0.7044
  147MPD2    H2 2293   1.680   0.316  12.087  0.3474  0.4012 -3.4840
  147MPD2    H3 2294   1.582   0.408  11.883 -2.1418 -0.4018 -2.6569
  147MPD2     N 2295   1.176   0.224  11.965 -0.0722 -0.7362 -0.0885
  147MPD2    H5 2296   1.130   0.164  12.033 -2.4235  0.0350 -0.9702
  147MPD2    N1 2297   1.554   0.184  12.278  0.6147  0.4942 -0.3558
  147MPD2    H7 2298   1.641   0.232  12.302  0.2339  0.7753  0.4352
  148TMC2    C1 2299   1.081   3.729  10.432 -0.3102 -0.0888  0.0043
  148TMC2    C2 2300   1.169   3.815  10.479  0.0199 -0.2024  0.7236
  148TMC2    C3 2301   1.270   3.769  10.554  0.6022  0.2713 -0.0223
  148TMC2    C4 2302   1.100   3.592  10.441 -0.0551  0.3263 -0.5402
  148TMC2    C5 2303   1.199   3.553  10.527 -0.5099  0.2403 -0.3752
  148TMC2    C6 2304   1.281   3.640  10.588  0.3743  0.6643 -0.5577
  148TMC2     C 2305   0.965   3.782  10.364  0.5361 -0.0945 -0.5174
  148TMC2     O 2306   0.909   3.877  10.417  0.1015  0.8439 -0.3256
  148TMC2     H 2307   1.165   3.920  10.450  0.5597 -0.7439 -1.3003
  148TMC2    H1 2308   1.029   3.523  10.397  0.7441 -1.7119  1.3977
  148TMC2    H2 2309   1.366   3.610  10.648  1.2604  2.3547 -0.9738
  148TMC2    C7 2310   1.178   3.423  10.582  0.6125 -0.0854  0.2294
  148TMC2    C8 2311   1.360   3.869  10.600 -0.3380 -0.0307  0.2290
  148TMC2    O1 2312   1.132   3.338  10.505  0.5598 -0.2124  0.2358
  148TMC2    O2 2313   1.323   3.940  10.690  0.5609 -0.1334 -0.0134
  148TMC2    O5 2314   1.487   3.838  10.573  0.4757  0.2062 -0.0157
  148TMC2    H5 2315   1.499   3.780  10.495 -1.3452 -0.2833  0.0777
  149MPD2     C 2316   0.728   3.837  10.196  0.4259 -0.2584 -0.2091
  149MPD2    C1 2317   0.815   3.729  10.178 -0.5285 -0.1464 -0.8093
  149MPD2    C2 2318   0.789   3.635  10.078 -0.6754  0.5331 -0.4291
  149MPD2    C3 2319   0.682   3.655   9.993  0.8853 -0.4962  0.5341
  149MPD2    C4 2320   0.599   3.765  10.016 -0.6321  1.0436 -0.0505
  149MPD2    C5 2321   0.621   3.848  10.117  0.5054  0.1642  0.5216
  149MPD2     H 2322   0.862   3.555  10.074 -0.6861  0.5262 -0.4942
  149MPD2    H1 2323   0.517   3.782   9.947 -1.4904 -2.4323  0.1234
  149MPD2    H2 2324   0.729   3.905  10.280 -3.4122 -0.7054  0.1733
  149MPD2    H3 2325   0.559   3.937  10.127  1.4505  0.8805 -0.0327
  149MPD2     N 2326   0.646   3.563   9.890 -0.2423 -0.3172  0.0881
  149MPD2    H5 2327   0.565   3.587   9.833 -1.5640 -2.1152  1.1915
  149MPD2    N1 2328   0.930   3.705  10.258  0.1122 -0.2199 -0.4363
  149MPD2    H7 2329   0.981   3.618  10.245  0.3653 -0.4649  2.1750
  150TMC2    C1 2330   2.696   3.731  12.180 -0.3668  0.2547  0.6496
  150TMC2    C2 2331   2.657   3.799  12.064  0.0180  0.2550  0.0308
  150TMC2    C3 2332   2.754   3.864  11.998 -0.0577  0.3755  0.1402
  150TMC2    C4 2333   2.831   3.716  12.220 -0.8615 -0.1798 -0.0324
  150TMC2    C5 2334   2.916   3.792  12.146 -0.2153  0.5655 -0.1365
  150TMC2    C6 2335   2.885   3.859  12.030 -0.8041  0.6239  0.2151
  150TMC2     C 2336   2.606   3.641  12.246 -0.2425 -0.0101  0.6387
  150TMC2     O 2337   2.632   3.597  12.355 -0.0081  0.2368 -0.3263
  150TMC2     H 2338   2.553   3.808  12.035 -0.4647  1.5708  2.1138
  150TMC2    H1 2339   2.843   3.676  12.321  1.3754 -0.9215 -0.6058
  150TMC2    H2 2340   2.957   3.915  11.971 -0.1313  0.0009  0.4440
  150TMC2    C7 2341   3.050   3.798  12.195 -1.0114  0.1982 -0.3760
  150TMC2    C8 2342   2.720   3.969  11.902 -0.5033  0.6127  0.0595
  150TMC2    O1 2343   3.105   3.903  12.166 -0.0576  0.1884 -0.8226
  150TMC2    O2 2344   2.810   4.046  11.865  0.1353 -0.1423  0.2914
  150TMC2    O5 2345   2.627   3.911  11.818 -0.4979 -0.1065  0.2732
  150TMC2    H5 2346   2.593   3.834  11.868  0.7766 -1.4969 -1.0224
  151MPD2     C 2347   2.233   3.303  12.220 -0.5634  0.6801  0.5502
  151MPD2    C1 2348   2.246   3.370  12.103  0.3255  0.2919  0.6358
  151MPD2    C2 2349   2.331   3.474  12.087  0.2864 -0.2480  0.6344
  151MPD2    C3 2350   2.403   3.511  12.200  0.3894 -0.3488 -0.0240
  151MPD2    C4 2351   2.388   3.447  12.318 -0.4929 -0.2262  0.1728
  151MPD2    C5 2352   2.313   3.338  12.331  0.4266  0.4607 -0.1217
  151MPD2     H 2353   2.359   3.521  11.994  1.2094 -1.4230  0.3228
  151MPD2    H1 2354   2.453   3.475  12.400  1.4248 -1.0110 -1.0810
  151MPD2    H2 2355   2.165   3.218  12.227  0.5887 -0.4804 -2.2218
  151MPD2    H3 2356   2.297   3.282  12.423 -2.1607  1.2275 -0.1069
  151MPD2     N 2357   2.502   3.603  12.163  0.5800  0.0952 -0.0458
  151MPD2    H5 2358   2.494   3.651  12.074  1.8591 -2.4226 -1.5195
  151MPD2    N1 2359   2.174   3.317  11.988  0.1101  0.4548  0.3176
  151MPD2    H7 2360   2.119   3.232  11.999 -0.7051  0.5869 -2.7330
  152TMC2    C1 2361   2.899   3.485  12.699  1.3382 -0.5864  0.8483
  152TMC2    C2 2362   2.962   3.366  12.716 -0.1675 -0.1023 -0.6648
  152TMC2    C3 2363   3.094   3.373  12.710  0.0570  0.1617  0.2077
  152TMC2    C4 2364   2.956   3.609  12.688  0.7290  0.8292  0.0122
  152TMC2    C5 2365   3.091   3.613  12.687  0.3116  0.2037 -0.3114
  152TMC2    C6 2366   3.155   3.494  12.698  0.1677 -0.0788  0.4265
  152TMC2     C 2367   2.750   3.480  12.695  0.2959 -0.2803  0.5901
  152TMC2     O 2368   2.696   3.592  12.694  0.2037  0.0330 -0.7175
  152TMC2     H 2369   2.914   3.270  12.730 -2.5930  1.0722 -0.9764
  152TMC2    H1 2370   2.894   3.697  12.683  2.0212  1.6819 -0.7273
  152TMC2    H2 2371   3.258   3.494  12.665  0.7427  0.8131  2.2477
  152TMC2    C7 2372   3.152   3.741  12.691  0.7092  0.6595 -0.5899
  152TMC2    C8 2373   3.177   3.261  12.739 -0.0292  0.7643  0.8290
  152TMC2    O1 2374   3.089   3.839  12.654 -0.1258 -0.4732 -0.0990
  152TMC2    O2 2375   3.292   3.274  12.785 -0.0505  0.1120  0.0534
  152TMC2    O5 2376   3.128   3.149  12.680  0.3121 -0.2424  0.0078
  152TMC2    H5 2377   3.044   3.153  12.629 -0.1122 -0.8046  0.6664
  153MPD2     C 2378   2.522   3.189  12.717  0.5593 -0.4958 -0.1158
  153MPD2    C1 2379   2.555   3.325  12.712  0.0490  0.6313  0.1196
  153MPD2    C2 2380   2.456   3.422  12.720  0.0302 -0.6138 -0.0058
  153MPD2    C3 2381   2.323   3.377  12.710  0.0234 -0.4489  0.1459
  153MPD2    C4 2382   2.292   3.243  12.704  0.1030  0.1628  0.0238
  153MPD2    C5 2383   2.392   3.151  12.722  0.7502 -0.2129  0.7987
  153MPD2     H 2384   2.491   3.524  12.712  0.4346 -0.7950 -0.5767
  153MPD2    H1 2385   2.188   3.213  12.710  0.1599  0.1410  0.7833
  153MPD2    H2 2386   2.605   3.120  12.704 -0.8365 -2.4184  1.0741
  153MPD2    H3 2387   2.366   3.045  12.718  1.2736 -0.2919 -0.5372
  153MPD2     N 2388   2.225   3.482  12.701  0.3277  0.1984 -0.5234
  153MPD2    H5 2389   2.270   3.573  12.708 -0.4776  0.5536  0.0496
  153MPD2    N1 2390   2.700   3.353  12.710 -0.7903  0.0007  0.1981
  153MPD2    H7 2391   2.758   3.271  12.690  0.2141  0.3078  1.8668
  154TMC2    C1 2392   0.424   2.817   1.113 -0.0440 -0.2186 -0.1486
  154TMC2    C2 2393   0.536   2.841   1.187  0.0700 -0.2890  0.0531
  154TMC2    C3 2394   0.648   2.797   1.133  0.4055 -0.1748 -0.0374
  154TMC2    C4 2395   0.429   2.754   0.992  0.0679  0.1491  0.1262
  154TMC2    C5 2396   0.551   2.713   0.943 -0.3565 -0.4689  0.3722
  154TMC2    C6 2397   0.661   2.731   1.022 -0.2075  0.8562  0.1429
  154TMC2     C 2398   0.313   2.904   1.148 -0.5230 -0.5288  0.6607
  154TMC2     O 2399   0.338   2.976   1.247  0.0229  0.3475 -0.2904
  154TMC2     H 2400   0.540   2.897   1.280  1.2453 -2.6254  1.4360
  154TMC2    H1 2401   0.343   2.738   0.927 -1.3088 -0.5499  2.1210
  154TMC2    H2 2402   0.756   2.705   0.976  0.2403 -0.4778  1.7912
  154TMC2    C7 2403   0.573   2.642   0.822  0.5540  0.6351  0.1310
  154TMC2    C8 2404   0.776   2.815   1.196  0.3459  0.4724  0.4207
  154TMC2    O1 2405   0.670   2.563   0.816  0.1861 -0.0865  0.0453
  154TMC2    O2 2406   0.866   2.734   1.195  0.7936 -0.7931 -0.4293
  154TMC2    O5 2407   0.770   2.944   1.249  0.7332 -0.4293 -0.4150
  154TMC2    H5 2408   0.693   2.990   1.211  0.0860 -0.3648  0.9788
  155MPD2     C 2409   0.011   2.984   0.958 -0.8221 -0.3850  0.2852
  155MPD2    C1 2410   0.092   2.973   1.070  0.0709 -0.0050 -0.4507
  155MPD2    C2 2411   0.063   3.036   1.189 -0.4189 -0.1236 -0.1921
  155MPD2    C3 2412   4.682   3.114   1.203  0.3437 -0.2349  0.0873
  155MPD2    C4 2413   4.604   3.123   1.090 -1.0242  0.1134 -0.3548
  155MPD2    C5 2414   4.633   3.060   0.972  0.2146  0.2313 -0.1090
  155MPD2     H 2415   0.125   3.032   1.277 -0.6716 -0.2410 -0.0198
  155MPD2    H1 2416   4.519   3.191   1.090 -0.6280  0.6110 -0.1732
  155MPD2    H2 2417   0.039   2.940   0.863 -0.8584 -0.2456  0.2094
  155MPD2    H3 2418   4.586   3.100   0.882 -1.9097 -0.1525  0.8350
  155MPD2     N 2419   4.654   3.185   1.327  0.7161  0.2737  0.0504
  155MPD2    H5 2420   4.724   3.176   1.400 -0.0513 -0.6580  0.6526
  155MPD2    N1 2421   0.207   2.889   1.066 -0.3132 -0.2767 -0.0957
  155MPD2    H7 2422   0.206   2.831   0.983 -1.5103  2.4501 -1.9785
  156TMC2    C1 2423   3.067   0.673  11.132 -0.5572 -0.3989  0.7581
  156TMC2    C2 2424   3.168   0.597  11.081 -0.0900  0.1004 -0.1347
  156TMC2    C3 2425   3.149   0.545  10.953 -0.1819 -0.0341  0.5973
  156TMC2    C4 2426   2.955   0.711  11.064 -0.5651  0.5716 -0.5888
  156TMC2    C5 2427   2.939   0.654  10.938  0.0256  0.6377 -0.0778
  156TMC2    C6 2428   3.035   0.570  10.885  0.5529  0.3884 -0.1685
  156TMC2     C 2429   3.076   0.718  11.271 -0.1404 -0.5369 -0.2282
  156TMC2     O 2430   2.981   0.703  11.349  0.2863  0.3856  0.1146
  156TMC2     H 2431   3.258   0.565  11.132 -0.9649  1.9862  2.5506
  156TMC2    H1 2432   2.874   0.770  11.106  1.1188  3.1915 -1.0191
  156TMC2    H2 2433   3.021   0.534  10.783 -0.3717 -1.1717  0.5126
  156TMC2    C7 2434   2.836   0.693  10.842 -0.7198  0.3810  0.4448
  156TMC2    C8 2435   3.272   0.518  10.884 -0.4779 -0.2490  0.2293
  156TMC2    O1 2436   2.811   0.625  10.744  0.1855  0.4610  0.3061
  156TMC2    O2 2437   3.351   0.608  10.887 -0.2056 -0.7423 -0.2205
  156TMC2    O5 2438   3.243   0.453  10.771  0.7008 -0.1582 -0.0016
  156TMC2    H5 2439   3.170   0.390  10.790  0.8254 -0.1945  0.3501
  157MPD2     C 2440   3.429   0.751  11.412 -0.9366  0.1472 -0.3599
  157MPD2    C1 2441   3.287   0.746  11.418 -0.4987 -0.0331  0.2515
  157MPD2    C2 2442   3.222   0.768  11.536  0.0307  0.8419 -0.2779
  157MPD2    C3 2443   3.292   0.777  11.651  0.0068  0.3632 -0.0754
  157MPD2    C4 2444   3.436   0.761  11.649  0.0219 -0.3601 -0.5180
  157MPD2    C5 2445   3.500   0.759  11.527 -0.7426  0.2225 -0.1499
  157MPD2     H 2446   3.116   0.786  11.535 -0.4024 -1.6981  0.6766
  157MPD2    H1 2447   3.505   0.767  11.733  1.9683 -1.2917 -2.0744
  157MPD2    H2 2448   3.476   0.743  11.315  1.8098  0.4226  0.9406
  157MPD2    H3 2449   3.608   0.752  11.518 -0.7661 -0.7061  0.3607
  157MPD2     N 2450   3.216   0.810  11.763 -0.6066  0.1415 -0.2175
  157MPD2    H5 2451   3.117   0.831  11.749 -0.7450  0.8744  1.8517
  157MPD2    N1 2452   3.214   0.726  11.291  0.2718 -0.3225  0.0126
  157MPD2    H7 2453   3.270   0.715  11.207  0.6906 -0.6511  0.3387
  158TMC2    C1 2454   3.469   4.586  13.352 -0.1826 -0.8116  0.4253
  158TMC2    C2 2455   3.557   4.632  13.259  0.2326 -0.1719 -0.4360
  158TMC2    C3 2456   3.500   4.664  13.135  0.8207  0.2002  0.5317
  158TMC2    C4 2457   3.332   4.563  13.323 -0.2208  0.1012 -0.5988
  158TMC2    C5 2458   3.284   4.612  13.207 -0.2488  0.4537 -0.0894
  158TMC2    C6 2459   3.368   4.671  13.114  0.5721  0.4042  0.6887
  158TMC2     C 2460   3.536   4.518  13.458  0.3159  0.4161 -0.3515
  158TMC2     O 2461   3.646   4.558  13.491 -0.2085 -0.3424 -0.1928
  158TMC2     H 2462   3.658   4.660  13.285 -0.0166 -1.4657  1.9967
  158TMC2    H1 2463   3.261   4.547  13.403 -1.8235  0.3765 -1.9496
  158TMC2    H2 2464   3.327   4.691  13.016  0.3982  2.2573  1.1486
  158TMC2    C7 2465   3.142   4.592  13.167  0.1107 -0.4715 -0.0605
  158TMC2    C8 2466   3.576   4.704  13.020  0.6257  0.4282  0.4295
  158TMC2    O1 2467   3.099   4.661  13.071  0.1772 -0.3951 -0.0446
  158TMC2    O2 2468   3.542   0.044  12.934 -0.1123 -0.5292 -0.1034
  158TMC2    O5 2469   3.672   4.610  13.003 -0.3237 -0.4319 -0.3596
  158TMC2    H5 2470   3.676   4.535  13.066  2.5297  0.2694  0.2785
  159MPD2     C 2471   3.550   4.182  13.846 -0.7077 -0.3975  0.4060
  159MPD2    C1 2472   3.439   4.157  13.768  0.6057  0.0608  0.0666
  159MPD2    C2 2473   3.413   4.236  13.658 -0.4078  0.0856  0.4798
  159MPD2    C3 2474   3.493   4.345  13.631 -0.2530  0.2829 -0.1169
  159MPD2    C4 2475   3.595   4.373  13.715  0.5191  0.3897 -0.2108
  159MPD2    C5 2476   3.627   4.287  13.817 -0.0073  0.2156  0.1107
  159MPD2     H 2477   3.331   4.221  13.590  0.4051  1.0070 -0.7059
  159MPD2    H1 2478   3.658   4.459  13.695  0.4692  1.1328  2.9327
  159MPD2    H2 2479   3.587   4.122  13.928 -0.2696 -1.9501 -0.9324
  159MPD2    H3 2480   3.719   4.308  13.870  0.0788  0.8461 -0.2945
  159MPD2     N 2481   3.464   4.416  13.513 -0.5440 -0.4895  0.1840
  159MPD2    H5 2482   3.377   4.394  13.466 -2.0888  0.7747  2.4553
  159MPD2    N1 2483   3.349   4.054  13.804  0.8543  0.3904  0.4228
  159MPD2    H7 2484   3.377   4.013  13.893  0.8107 -1.8258 -0.5898
  160TMC2    C1 2485   3.325   1.737   1.288  0.3231  0.2256  0.5881
  160TMC2    C2 2486   3.369   1.694   1.405 -0.4524  0.0535 -0.4198
  160TMC2    C3 2487   3.501   1.709   1.439  0.4764 -0.5915 -0.1608
  160TMC2    C4 2488   3.408   1.794   1.196 -0.5087  0.1686  0.2815
  160TMC2    C5 2489   3.539   1.813   1.232 -0.0820 -0.9469 -0.6596
  160TMC2    C6 2490   3.595   1.775   1.356  0.6736  0.2716 -0.9357
  160TMC2     C 2491   3.185   1.757   1.286 -0.0063  0.2097  0.2935
  160TMC2     O 2492   3.117   1.664   1.340 -0.2334  0.0316 -0.2130
  160TMC2     H 2493   3.296   1.662   1.479  0.6598 -1.2437  0.1007
  160TMC2    H1 2494   3.364   1.827   1.102 -0.4968 -0.5734  0.0143
  160TMC2    H2 2495   3.703   1.773   1.364  0.7140  1.0158 -1.3464
  160TMC2    C7 2496   3.626   1.883   1.136  0.4351  0.7112 -0.1014
  160TMC2    C8 2497   3.547   1.673   1.575  0.4189  0.2437 -0.3397
  160TMC2    O1 2498   3.577   1.890   1.023 -1.0855  0.0634  0.6416
  160TMC2    O2 2499   3.461   1.641   1.655 -0.6630  1.2633  0.0340
  160TMC2    O5 2500   3.658   1.749   1.601 -0.6397  0.2104 -0.0208
  160TMC2    H5 2501   3.723   1.788   1.539  1.8143 -3.2693  0.3366
  161MPD2     C 2502   2.920   1.827   1.168  0.0884  0.3030  0.2892
  161MPD2    C1 2503   3.028   1.912   1.167  0.1544 -0.5852 -0.0372
  161MPD2    C2 2504   3.008   2.033   1.106  0.5117 -0.6356 -0.0555
  161MPD2    C3 2505   2.882   2.071   1.048  0.2257  0.8887 -0.1487
  161MPD2    C4 2506   2.794   1.968   1.024  0.4403  0.2174  0.4256
  161MPD2    C5 2507   2.805   1.855   1.098 -0.2606  0.1858  0.4826
  161MPD2     H 2508   3.084   2.109   1.113  0.4478 -0.4949 -0.9001
  161MPD2    H1 2509   2.705   1.983   0.964  0.4046  0.1525  0.4621
  161MPD2    H2 2510   2.921   1.733   1.223  0.4662  0.9927  1.4505
  161MPD2    H3 2511   2.732   1.776   1.088 -0.4442  0.4510 -0.3292
  161MPD2     N 2512   2.852   2.201   0.990  0.4382  0.2045  0.4575
  161MPD2    H5 2513   2.764   2.217   0.942 -0.7532 -1.5546  2.0403
  161MPD2    N1 2514   3.154   1.874   1.215 -0.6922 -0.1668  0.1564
  161MPD2    H7 2515   3.222   1.949   1.206  0.6630 -1.3228  0.6965
  162TMC2    C1 2516   1.705   4.288   1.159  1.0100  0.6701  0.7351
  162TMC2    C2 2517   1.643   4.391   1.212  0.5754 -0.9127 -0.6863
  162TMC2    C3 2518   1.723   4.472   1.287  0.1128 -0.2648  0.7820
  162TMC2    C4 2519   1.833   4.255   1.191 -0.9293  0.0920  0.2386
  162TMC2    C5 2520   1.909   4.345   1.257  0.3007  0.0710  0.3963
  162TMC2    C6 2521   1.854   4.454   1.311 -0.1371 -0.0173  0.2464
  162TMC2     C 2522   1.653   4.227   1.039  0.1462  0.0077 -0.3822
  162TMC2     O 2523   1.593   4.296   0.961  0.0768 -0.2772 -0.1324
  162TMC2     H 2524   1.552   4.433   1.170  1.3312  0.2835 -1.1520
  162TMC2    H1 2525   1.877   4.169   1.141  0.6495 -0.5018  2.6795
  162TMC2    H2 2526   1.906   4.529   1.371  0.9730 -0.4566 -0.1845
  162TMC2    C7 2527   2.054   4.352   1.244  0.5235  1.8434  0.6665
  162TMC2    C8 2528   1.677   4.611   1.325 -0.0900  0.1597  0.3823
  162TMC2    O1 2529   2.105   4.428   1.323 -0.1338 -0.0091 -0.3090
  162TMC2    O2 2530   1.760   4.701   1.333 -0.3019  0.3147  0.2251
  162TMC2    O5 2531   1.577   4.592   1.415 -0.0116  0.0894 -0.2097
  162TMC2    H5 2532   1.548   4.498   1.413  0.8732 -0.1830 -0.1294
  163MPD2     C 2533   1.586   3.814   0.766 -0.0757 -0.0972 -0.3166
  163MPD2    C1 2534   1.575   3.943   0.726 -0.0106  0.0671 -0.1267
  163MPD2    C2 2535   1.600   4.045   0.813 -0.1552  0.7210  0.0034
  163MPD2    C3 2536   1.628   4.006   0.944  0.1071 -0.5335  0.4152
  163MPD2    C4 2537   1.632   3.876   0.980 -0.2784  0.9141 -0.3687
  163MPD2    C5 2538   1.609   3.777   0.892  0.0672 -0.5300  0.6730
  163MPD2     H 2539   1.595   4.145   0.771 -0.9476  0.7913  0.2745
  163MPD2    H1 2540   1.650   3.854   1.084 -2.6665 -0.1943 -0.1816
  163MPD2    H2 2541   1.565   3.735   0.694  3.1084  0.4425 -1.8318
  163MPD2    H3 2542   1.611   3.676   0.930 -2.3537 -0.6145  0.5625
  163MPD2     N 2543   1.675   4.092   1.043  0.4009  1.1377  0.1463
  163MPD2    H5 2544   1.706   4.051   1.130  0.4978  2.4971  0.7552
  163MPD2    N1 2545   1.531   3.962   0.593  0.1076 -0.3183 -0.4274
  163MPD2    H7 2546   1.498   3.881   0.541  0.4690 -0.2592 -0.7475
  164TMC2    C1 2547   1.520   3.940  11.023  0.6850  0.1054 -0.1698
  164TMC2    C2 2548   1.630   3.989  11.084 -0.1573  0.2429 -0.4789
  164TMC2    C3 2549   1.615   4.102  11.163 -0.4326  0.2543  0.3130
  164TMC2    C4 2550   1.404   4.008  11.026 -0.3752  0.1805 -1.0811
  164TMC2    C5 2551   1.385   4.101  11.120 -0.9971 -0.6851  0.4049
  164TMC2    C6 2552   1.490   4.153  11.184 -0.1672  0.4297 -0.4587
  164TMC2     C 2553   1.517   3.801  10.982 -0.0075 -0.2670 -0.2292
  164TMC2     O 2554   1.422   3.735  11.021  0.1362 -0.3415 -0.2885
  164TMC2     H 2555   1.723   3.934  11.080  0.0279  0.3335  2.6347
  164TMC2    H1 2556   1.315   3.965  10.982 -0.1536 -2.4571  1.0125
  164TMC2    H2 2557   1.483   4.249  11.234  0.0955  0.2569 -0.0834
  164TMC2    C7 2558   1.250   4.121  11.163  0.2649 -0.0704  0.2902
  164TMC2    C8 2559   1.718   4.131  11.262  0.0708  0.7796 -0.3886
  164TMC2    O1 2560   1.162   4.071  11.097  0.2483  0.2750 -0.8975
  164TMC2    O2 2561   1.701   4.161  11.380  0.2390 -0.8239 -0.2736
  164TMC2    O5 2562   1.836   4.096  11.210 -0.4749 -0.6970 -0.0543
  164TMC2    H5 2563   1.833   4.086  11.112  0.3649  0.2296 -0.1706
  165TMC2    C1 2564   3.164   1.405   1.127  0.3789  0.7571  0.3657
  165TMC2    C2 2565   3.064   1.467   1.062  0.4842  0.8938  0.6516
  165TMC2    C3 2566   3.092   1.561   0.971  0.5167 -0.0418 -0.2218
  165TMC2    C4 2567   3.297   1.430   1.103 -0.2906  1.2882 -0.5275
  165TMC2    C5 2568   3.323   1.510   1.003  0.5757 -0.2539  0.9814
  165TMC2    C6 2569   3.227   1.581   0.935  0.2969  0.5497  0.0329
  165TMC2     C 2570   3.131   1.307   1.221 -0.6982  0.1184 -0.2858
  165TMC2     O 2571   3.216   1.306   1.308 -0.4754 -0.0556  0.6975
  165TMC2     H 2572   2.966   1.434   1.093  0.6504 -0.9093 -0.7325
  165TMC2    H1 2573   3.373   1.369   1.151 -1.1233 -0.1864 -1.0995
  165TMC2    H2 2574   3.252   1.657   0.862  1.6605  0.5997  0.5495
  165TMC2    C7 2575   3.469   1.539   0.975 -0.4570  0.0167 -1.1796
  165TMC2    C8 2576   2.980   1.589   0.881 -0.4359 -0.1827 -1.2479
  165TMC2    O1 2577   3.551   1.532   1.067  0.2823 -0.0157  0.5313
  165TMC2    O2 2578   2.866   1.591   0.920  0.1430 -0.2132  0.0010
  165TMC2    O5 2579   3.009   1.528   0.762  0.2934  0.6980 -0.3617
  165TMC2    H5 2580   3.103   1.520   0.733 -0.2826 -0.3929 -1.9399
  166MPD2     C 2581   2.868   0.904   1.409 -0.1678  0.1398 -0.1846
  166MPD2    C1 2582   2.984   0.959   1.453  0.7123 -0.2377 -0.3692
  166MPD2    C2 2583   3.039   1.073   1.384 -0.3541 -0.1285 -0.4681
  166MPD2    C3 2584   2.977   1.127   1.272 -0.4936 -0.1086  0.3072
  166MPD2    C4 2585   2.860   1.066   1.239  0.3980 -0.1980  0.5847
  166MPD2    C5 2586   2.810   0.954   1.296  0.1252 -0.0244  0.2918
  166MPD2     H 2587   3.133   1.114   1.418 -1.0919  2.0705 -1.0517
  166MPD2    H1 2588   2.804   1.102   1.154 -2.1521  0.6688  2.6634
  166MPD2    H2 2589   2.829   0.817   1.460 -0.9386  0.8632  0.4768
  166MPD2    H3 2590   2.719   0.913   1.254 -0.0429 -0.5142  1.1431
  166MPD2     N 2591   3.023   1.233   1.192  0.3015 -0.5314  0.3406
  166MPD2    H5 2592   2.973   1.250   1.105  1.1005  0.5975  0.1039
  166MPD2    N1 2593   3.042   0.905   1.570  0.4268  0.1962 -0.3560
  166MPD2    H7 2594   2.990   0.832   1.619  0.0611  0.5980 -0.1397
  167TMC2    C1 2595   0.936   3.800  12.726  0.5003 -0.2682 -0.1795
  167TMC2    C2 2596   0.887   3.842  12.843 -0.3155 -0.5048 -0.1499
  167TMC2    C3 2597   0.870   3.751  12.941 -0.0625 -0.0121 -0.7917
  167TMC2    C4 2598   0.977   3.672  12.702 -0.5498  0.2136  0.0794
  167TMC2    C5 2599   0.946   3.587  12.797  0.3660 -0.1229 -0.3400
  167TMC2    C6 2600   0.898   3.618  12.921  0.5400  0.4004 -0.0383
  167TMC2     C 2601   0.945   3.900  12.617 -0.1615  0.0833  0.5806
  167TMC2     O 2602   0.878   4.003  12.623  0.0425 -0.4819 -0.0214
  167TMC2     H 2603   0.858   3.946  12.855 -0.2305 -0.5035  0.0496
  167TMC2    H1 2604   1.008   3.645  12.602 -1.8860 -0.8160 -0.0495
  167TMC2    H2 2605   0.905   3.546  13.002  2.5703  1.5264  0.8048
  167TMC2    C7 2606   0.977   3.446  12.783  0.3847 -0.1147  1.1010
  167TMC2    C8 2607   0.859   3.789  13.082 -0.9448 -0.6949  0.0073
  167TMC2    O1 2608   0.893   3.374  12.840  0.0420 -0.1942 -0.2419
  167TMC2    O2 2609   0.891   3.711  13.172 -0.1284 -0.3365 -0.0881
  167TMC2    O5 2610   0.771   3.894  13.097 -0.0758  0.1825  0.0723
  167TMC2    H5 2611   0.740   3.943  13.019  1.1061 -1.5190 -1.4796
  168MPD2     C 2612   1.054   4.064  12.398  0.8675 -0.1386 -0.7768
  168MPD2    C1 2613   1.094   3.940  12.427 -0.7555  0.9497  0.6560
  168MPD2    C2 2614   1.184   3.873  12.342  0.2977  0.1144  0.6347
  168MPD2    C3 2615   1.224   3.940  12.229  0.2689  0.2101 -0.3997
  168MPD2    C4 2616   1.200   4.076  12.218 -0.1692  0.5488  0.2740
  168MPD2    C5 2617   1.108   4.130  12.295 -0.4108 -0.3566 -0.1541
  168MPD2     H 2618   1.209   3.768  12.354  1.0923  0.3576  1.0555
  168MPD2    H1 2619   1.219   4.127  12.124  0.3553 -0.5576 -0.2247
  168MPD2    H2 2620   0.979   4.127  12.444 -0.6125 -1.1495 -1.8461
  168MPD2    H3 2621   1.072   4.226  12.259 -0.3386 -1.3875 -2.9831
  168MPD2     N 2622   1.277   3.875  12.117 -0.2194 -0.1238  0.1727
  168MPD2    H5 2623   1.282   3.927  12.029 -0.6941 -2.3621 -1.1759
  168MPD2    N1 2624   1.054   3.867  12.539  0.1751 -0.2362  0.1318
  168MPD2    H7 2625   1.106   3.784  12.562  0.9225  0.6922  1.7926
  169MPD1     C 2626   3.363   4.639   8.699  0.3561  0.8577 -0.9969
  169MPD1    C1 2627   3.270   4.568   8.772  0.8741  0.0418 -0.1587
  169MPD1    C2 2628   3.311   4.457   8.843 -0.9072 -0.5895 -0.4220
  169MPD1    C3 2629   3.447   4.419   8.840 -0.2900 -0.6284  0.1122
  169MPD1    C4 2630   3.534   4.498   8.772 -0.4115 -0.3896  0.6901
  169MPD1    C5 2631   3.492   4.597   8.691  0.7473  0.3522 -0.0429
  169MPD1     H 2632   3.236   4.403   8.900  0.4092 -0.9688  0.9591
  169MPD1    H1 2633   3.642   4.490   8.777 -0.1991  0.5477 -1.9814
  169MPD1    H2 2634   3.335   4.725   8.639  1.1491  2.0189  0.2935
  169MPD1    H3 2635   3.563   4.645   8.625 -0.4481  2.4305  0.2088
  169MPD1     N 2636   3.500   4.315   8.922  0.1333 -0.4921  0.3769
  169MPD1    H5 2637   3.432   4.268   8.982 -2.7170  2.0084 -0.9229
  169MPD1    N1 2638   3.133   4.607   8.768 -0.0166  0.5804 -0.3192
  169MPD1    H6 2639   3.123   4.706   8.747  2.9481  1.0544  0.4346
  169MPD1    H7 2640   3.090   4.596   8.860  0.4184  1.0404 -0.0623
  170MPD1     C 2641   2.511   1.403  13.037 -0.5240 -0.1073 -0.4274
  170MPD1    C1 2642   2.490   1.340  13.158 -0.2417  0.5461  0.0807
  170MPD1    C2 2643   2.368   1.291  13.186  0.1329  0.2154  0.7215
  170MPD1    C3 2644   2.273   1.294  13.082 -0.7919 -0.9919 -0.2703
  170MPD1    C4 2645   2.296   1.351  12.957  0.1753 -0.5885  0.4545
  170MPD1    C5 2646   2.423   1.389  12.929  0.7950  0.1738 -0.2574
  170MPD1     H 2647   2.355   1.232  13.277 -1.4322 -0.6519 -0.0627
  170MPD1    H1 2648   2.215   1.360  12.886 -0.8986 -1.2280  1.5982
  170MPD1    H2 2649   2.603   1.459  13.022  0.2757 -1.2251  0.3173
  170MPD1    H3 2650   2.441   1.431  12.831  2.0666  4.1232  1.6255
  170MPD1     N 2651   2.148   1.245  13.113  0.0758 -0.6274  0.0008
  170MPD1    H5 2652   2.134   1.215  13.209  0.7037 -0.8093  0.0367
  170MPD1    N1 2653   2.588   1.365  13.251 -0.1551  0.3846 -0.5501
  170MPD1    H6 2654   2.588   1.316  13.340  0.7592  0.9722 -0.2291
  170MPD1    H7 2655   2.678   1.378  13.206 -0.3685  2.0874 -0.4934
  171MPD1     C 2656   0.492   2.519  15.592  0.4079  0.1569  0.5644
  171MPD1    C1 2657   0.404   2.420  15.639 -0.5714 -0.3044  0.4472
  171MPD1    C2 2658   0.451   2.287  15.640 -0.4001 -0.5136  0.8414
  171MPD1    C3 2659   0.583   2.262  15.600  0.6003  0.7577  0.1095
  171MPD1    C4 2660   0.672   2.364  15.577 -0.1711  0.4149 -0.2448
  171MPD1    C5 2661   0.623   2.494  15.572  0.0918  0.3287 -0.2435
  171MPD1     H 2662   0.379   2.208  15.658 -0.4268 -0.9530 -1.1572
  171MPD1    H1 2663   0.777   2.341  15.572 -0.1649  0.3018  0.4417
  171MPD1    H2 2664   0.458   2.619  15.568 -0.4382 -0.2574  0.0344
  171MPD1    H3 2665   0.692   2.566  15.528  0.7186 -0.5433 -0.6879
  171MPD1     N 2666   0.639   2.137  15.595  0.1047 -0.1114 -0.6569
  171MPD1    H5 2667   0.739   2.122  15.601  0.5089  2.4001 -1.4325
  171MPD1    N1 2668   0.268   2.453  15.669 -0.0167 -0.3132 -0.5935
  171MPD1    H6 2669   0.251   2.406  15.758 -1.9232 -2.0069 -1.8506
  171MPD1    H7 2670   0.263   2.553  15.688 -2.3631 -0.4883 -0.3388
  172MPD1     C 2671   4.703   2.093  17.416  0.2729  0.1484 -0.5275
  172MPD1    C1 2672   4.616   2.056  17.517 -0.2581  0.2502 -0.1242
  172MPD1    C2 2673   4.624   2.136  17.625 -0.0826 -0.6819 -0.4068
  172MPD1    C3 2674   4.726   2.222  17.656 -0.5139 -0.9278 -0.3061
  172MPD1    C4 2675   0.097   2.222  17.569 -0.0491 -0.0659  0.1758
  172MPD1    C5 2676   0.079   2.167  17.445 -0.3954  0.1761 -0.4694
  172MPD1     H 2677   4.539   2.135  17.693  0.7002 -0.7985  0.5700
  172MPD1    H1 2678   0.187   2.280  17.586  0.7758 -1.1278 -0.5391
  172MPD1    H2 2679   4.695   2.047  17.318 -0.5029 -0.3769 -0.2187
  172MPD1    H3 2680   0.156   2.180  17.370  0.7717  0.3927  0.7828
  172MPD1     N 2681   0.005   2.272   0.044  0.2573  0.4127  0.1080
  172MPD1    H5 2682   0.102   2.286   0.070  0.0457  2.0216  0.0524
  172MPD1    N1 2683   4.494   1.987  17.485 -0.4466 -0.0771 -0.1596
  172MPD1    H6 2684   4.503   1.919  17.409  1.5917 -0.4892  0.4581
  172MPD1    H7 2685   4.446   1.944  17.564  2.8105 -1.5003  1.0180
  173MPD1     C 2686   1.273   1.616  13.373  0.0793  0.3033  0.6076
  173MPD1    C1 2687   1.404   1.588  13.406  0.3274  0.2554 -0.5327
  173MPD1    C2 2688   1.424   1.562  13.540  0.1461  0.1124  0.2548
  173MPD1    C3 2689   1.336   1.560  13.641 -0.5398 -0.1105  0.1022
  173MPD1    C4 2690   1.206   1.585  13.607 -0.6058  0.1383 -0.3553
  173MPD1    C5 2691   1.178   1.613  13.475  0.0370  0.7642  0.8765
  173MPD1     H 2692   1.524   1.532  13.571  0.7419  0.1058 -1.6699
  173MPD1    H1 2693   1.133   1.586  13.687  1.1431 -1.9811  1.2838
  173MPD1    H2 2694   1.240   1.628  13.270 -0.9568 -0.8742  0.8004
  173MPD1    H3 2695   1.075   1.632  13.449 -0.8395 -2.2940  2.1566
  173MPD1     N 2696   1.368   1.529  13.778  0.1451  0.0648 -0.1653
  173MPD1    H5 2697   1.465   1.511  13.800 -0.2784 -2.2921 -0.2686
  173MPD1    N1 2698   1.502   1.545  13.312  0.1056 -0.0338 -0.6217
  173MPD1    H6 2699   1.489   1.578  13.216  2.0842  0.3500 -0.7762
  173MPD1    H7 2700   1.596   1.542  13.351  0.3404 -0.0563 -1.1837
  174MPD1     C 2701   1.940   1.051  14.478 -0.1526 -0.0382  0.1870
  174MPD1    C1 2702   1.960   1.115  14.351 -0.2779  0.0881  0.4001
  174MPD1    C2 2703   1.856   1.176  14.282  0.0333 -0.0644  1.1107
  174MPD1    C3 2704   1.731   1.183  14.340  0.9688  0.2517  0.1533
  174MPD1    C4 2705   1.710   1.112  14.464  0.6172  0.7231  0.0940
  174MPD1    C5 2706   1.815   1.055  14.532 -0.5787  0.3471 -0.1465
  174MPD1     H 2707   1.879   1.211  14.182 -1.7130  0.5511  0.9384
  174MPD1    H1 2708   1.613   1.098  14.509  1.1343 -1.0616  0.6519
  174MPD1    H2 2709   2.024   1.026  14.542 -0.9984  0.5641  1.5448
  174MPD1    H3 2710   1.797   1.020  14.633  0.0484  0.8262  0.1323
  174MPD1     N 2711   1.617   1.250  14.283  0.4679  0.2410  0.2144
  174MPD1    H5 2712   1.523   1.246  14.321  0.4772  1.7454  0.4140
  174MPD1    N1 2713   2.083   1.093  14.300  0.4272  0.0960  0.7837
  174MPD1    H6 2714   2.109   1.157  14.225  2.0965  0.2476  1.4857
  174MPD1    H7 2715   2.159   1.094  14.368 -1.2672 -0.8360  2.7017
  175MPD1     C 2716   4.565   3.452  16.070  0.1137  0.6697  0.4456
  175MPD1    C1 2717   4.591   3.410  15.940  0.2253  0.7701  0.7024
  175MPD1    C2 2718   4.539   3.289  15.890  0.2394  0.0790 -0.3691
  175MPD1    C3 2719   4.456   3.211  15.971  0.8628  0.4337 -0.8128
  175MPD1    C4 2720   4.421   3.265  16.096  0.8128  0.6584  0.3009
  175MPD1    C5 2721   4.478   3.377  16.151 -0.5468 -0.8237 -0.2814
  175MPD1     H 2722   4.557   3.264  15.786  1.4360 -1.3121  0.1852
  175MPD1    H1 2723   4.347   3.208  16.151  1.1796  1.1701  1.3220
  175MPD1    H2 2724   4.602   3.548  16.104  2.2757  1.4307 -4.0699
  175MPD1    H3 2725   4.449   3.405  16.251  0.1824  1.0894 -0.6174
  175MPD1     N 2726   4.399   3.086  15.927  0.2049 -0.1209 -0.0656
  175MPD1    H5 2727   4.332   3.033  15.982 -0.5571  0.3422 -0.5337
  175MPD1    N1 2728   4.699   3.471  15.878  0.1838  0.4035  0.2139
  175MPD1    H6 2729   4.728   3.456  15.781  1.9676  0.0542  0.7952
  175MPD1    H7 2730   4.718   3.566  15.910 -1.5834  1.4893 -1.9311
  176MPD1     C 2731   0.953   4.583   0.137 -0.2524 -0.1553  0.3377
  176MPD1    C1 2732   0.962   4.575  17.744 -0.4258 -0.2966 -0.6365
  176MPD1    C2 2733   1.023   4.679  17.675  0.7166 -0.4220 -0.2613
  176MPD1    C3 2734   1.062   0.052   0.003 -0.0385 -0.7642 -0.9106
  176MPD1    C4 2735   1.050   0.059   0.143  0.2087 -0.2923  0.2400
  176MPD1    C5 2736   1.001   4.686   0.210  0.9401  0.4927  0.5679
  176MPD1     H 2737   1.030   4.681  17.567 -2.1476  1.2705 -0.4198
  176MPD1    H1 2738   1.090   0.141   0.200  0.2566 -0.8130  0.9483
  176MPD1    H2 2739   0.913   4.493   0.184 -0.1102 -2.8614 -4.6672
  176MPD1    H3 2740   0.977   4.703   0.314 -0.2238  1.4324  0.1554
  176MPD1     N 2741   1.112   0.166  17.676 -0.2058  0.4081 -0.4577
  176MPD1    H5 2742   1.151   0.152  17.583  1.6735 -0.0945  0.3938
  176MPD1    N1 2743   0.945   4.454  17.681 -0.6579 -0.5351 -0.2178
  176MPD1    H6 2744   0.924   4.472  17.583 -1.6062  0.3835  0.1640
  176MPD1    H7 2745   0.874   4.391  17.719  1.3104 -2.0929  0.9353
  177MPD1     C 2746   4.207   4.458   9.129 -0.2763  0.2666  0.6003
  177MPD1    C1 2747   4.097   4.418   9.207  0.4152 -0.4776  0.0194
  177MPD1    C2 2748   3.976   4.483   9.182  0.0219  0.9904  0.3654
  177MPD1    C3 2749   3.963   4.579   9.082  0.5461 -0.3376  0.2824
  177MPD1    C4 2750   4.070   4.613   9.005  0.2388 -0.0963  0.6778
  177MPD1    C5 2751   4.185   4.543   9.024  0.2817  0.7426  0.3417
  177MPD1     H 2752   3.894   4.457   9.247  0.5643 -0.4309  0.4694
  177MPD1    H1 2753   4.052   4.681   8.922  0.3192 -1.2395 -0.2732
  177MPD1    H2 2754   4.305   4.414   9.138 -0.1990  0.8042  2.3370
  177MPD1    H3 2755   4.259   4.554   8.947 -0.7858 -0.6952 -0.8843
  177MPD1     N 2756   3.835   4.638   9.080 -0.0091 -0.2205 -0.1236
  177MPD1    H5 2757   3.758   4.595   9.130  0.8905 -0.1431  1.3186
  177MPD1    N1 2758   4.122   4.339   9.322 -0.8442 -0.0435 -0.6445
  177MPD1    H6 2759   4.034   4.304   9.360  0.3995 -2.2412  0.2191
  177MPD1    H7 2760   4.184   4.260   9.300 -0.7298  0.1973 -1.1789
  178MPD1     C 2761   1.449   0.054  17.698  0.0341 -0.2694  0.2041
  178MPD1    C1 2762   1.581   0.100  17.714 -0.1866  0.3684 -0.8099
  178MPD1    C2 2763   1.647   0.139  17.595  0.3276 -0.0437 -0.1956
  178MPD1    C3 2764   1.594   0.120  17.465 -0.2241 -0.2928 -0.3094
  178MPD1    C4 2765   1.464   0.072  17.457 -0.8608  0.6471  0.4455
  178MPD1    C5 2766   1.397   0.041  17.572 -0.0604 -0.3916  0.1540
  178MPD1     H 2767   1.749   0.173  17.603  0.1812  0.3377  0.0904
  178MPD1    H1 2768   1.410   0.053  17.365  1.1484  1.1528 -0.8393
  178MPD1    H2 2769   1.399   0.030   0.045 -0.0315  0.8748  0.4672
  178MPD1    H3 2770   1.300   4.731  17.562 -0.2020 -0.2935  1.0354
  178MPD1     N 2771   1.659   0.142  17.338  0.8254 -0.5624 -0.2975
  178MPD1    H5 2772   1.607   0.108  17.258  0.2719  1.1026 -0.6506
  178MPD1    N1 2773   1.624   0.144   0.096  0.1806  0.5349  0.6282
  178MPD1    H6 2774   1.578   0.087   0.166  2.8626 -2.1774  0.2019
  178MPD1    H7 2775   1.726   0.147   0.105  0.3186 -1.3458 -0.2382
  179MPD1     C 2776   2.678   2.792  15.474 -0.0257 -0.1650  0.0207
  179MPD1    C1 2777   2.578   2.892  15.478  0.1746 -0.2534  0.4943
  179MPD1    C2 2778   2.468   2.887  15.557  0.0988 -0.0960  0.0987
  179MPD1    C3 2779   2.456   2.782  15.654 -0.0030  0.2629 -0.9706
  179MPD1    C4 2780   2.565   2.698  15.667  0.1436 -0.1282 -0.5394
  179MPD1    C5 2781   2.672   2.697  15.578  0.1616 -0.1641  0.2958
  179MPD1     H 2782   2.390   2.962  15.548  0.4957  0.2425 -0.4934
  179MPD1    H1 2783   2.565   2.619  15.742 -1.5696  1.1253  0.7714
  179MPD1    H2 2784   2.748   2.780  15.392 -0.9873  2.2607 -1.1402
  179MPD1    H3 2785   2.752   2.624  15.589 -0.6608 -0.7854  2.1102
  179MPD1     N 2786   2.337   2.762  15.729  0.2013  0.2638 -0.1848
  179MPD1    H5 2787   2.349   2.689  15.799  0.7594  1.3912  0.8960
  179MPD1    N1 2788   2.586   2.994  15.381 -0.2544 -0.4298 -0.6942
  179MPD1    H6 2789   2.546   3.077  15.424  0.8439  0.7839 -2.0081
  179MPD1    H7 2790   2.678   3.027  15.351 -0.4028  1.4126  0.8648
  180MPD1     C 2791   2.075   4.241  14.999 -0.4183 -0.1533  0.3468
  180MPD1    C1 2792   1.971   4.153  14.991  0.6624  0.2084  0.1891
  180MPD1    C2 2793   1.881   4.179  14.887  0.7244  0.4143  0.8976
  180MPD1    C3 2794   1.903   4.282  14.785  0.3572 -0.4178 -0.0505
  180MPD1    C4 2795   2.023   4.356  14.794  0.3858  0.3571 -0.6800
  180MPD1    C5 2796   2.095   4.343  14.910 -0.7024  0.2290  0.3885
  180MPD1     H 2797   1.790   4.121  14.879 -0.0017  1.7935 -0.9235
  180MPD1    H1 2798   2.063   4.424  14.719  0.7811  1.0540  0.1696
  180MPD1    H2 2799   2.147   4.219  15.077 -1.8237 -0.1002  1.6662
  180MPD1    H3 2800   2.178   4.410  14.930  0.1371 -1.2337  1.8310
  180MPD1     N 2801   1.822   4.290  14.666 -0.1203 -0.2897  0.3352
  180MPD1    H5 2802   1.733   4.241  14.668  0.3632 -1.1146  1.9271
  180MPD1    N1 2803   1.946   4.071  15.101 -0.1235 -0.3853 -0.0015
  180MPD1    H6 2804   2.020   4.011  15.136  1.2721  0.9461 -0.6561
  180MPD1    H7 2805   1.866   4.014  15.077 -1.5775  2.3426 -1.6136
  181MPD1     C 2806   3.024   2.929   9.831 -0.7469 -0.1318  0.0408
  181MPD1    C1 2807   3.116   2.898   9.934 -0.2041  0.2888  0.0737
  181MPD1    C2 2808   3.212   2.807   9.897 -0.0464  0.2303 -0.2824
  181MPD1    C3 2809   3.187   2.711   9.800  0.2225 -0.5060 -0.0803
  181MPD1    C4 2810   3.078   2.734   9.713 -0.5785  0.5095 -0.2245
  181MPD1    C5 2811   3.001   2.848   9.722 -0.3512  1.0988  0.4962
  181MPD1     H 2812   3.301   2.790   9.956 -1.1000 -1.9150  0.6798
  181MPD1    H1 2813   3.064   2.675   9.624  1.4593 -2.5517  1.4999
  181MPD1    H2 2814   2.968   3.021   9.827  0.1654  0.4274  0.1586
  181MPD1    H3 2815   2.922   2.866   9.650  2.3151 -0.0553 -2.7217
  181MPD1     N 2816   3.270   2.604   9.764 -0.0562 -0.3973 -0.2004
  181MPD1    H5 2817   3.251   2.551   9.680  0.9254  0.1349 -0.7601
  181MPD1    N1 2818   3.135   2.991  10.035 -0.1826  0.1392  0.0802
  181MPD1    H6 2819   3.062   3.055  10.066 -2.0619 -0.9701 -2.0320
  181MPD1    H7 2820   3.165   2.945  10.120 -0.3366  3.6534  2.0270
  182MPD1     C 2821   4.479   0.695   0.952  0.4661  0.3747  0.3197
  182MPD1    C1 2822   4.442   0.643   0.829  0.2575 -0.0005 -0.3514
  182MPD1    C2 2823   4.319   0.683   0.775  0.4314  0.7777 -0.3218
  182MPD1    C3 2824   4.237   0.780   0.832 -0.1872 -0.3068  0.2915
  182MPD1    C4 2825   4.290   0.844   0.950  0.1087 -0.3472 -0.7932
  182MPD1    C5 2826   4.399   0.786   1.008 -0.5153  0.1933  0.4856
  182MPD1     H 2827   4.301   0.651   0.673 -0.3276 -0.8117  0.3115
  182MPD1    H1 2828   4.238   0.929   0.993  1.2365 -0.3742  0.6385
  182MPD1    H2 2829   4.569   0.657   0.999  1.0980 -0.1962 -1.3557
  182MPD1    H3 2830   4.425   0.806   1.111  0.0997  1.0728  0.1603
  182MPD1     N 2831   4.118   0.823   0.775 -0.3049 -0.1467  0.1584
  182MPD1    H5 2832   4.079   0.904   0.823 -0.9190 -0.0490 -0.4998
  182MPD1    N1 2833   4.516   0.526   0.790  0.6731 -0.5756 -0.0800
  182MPD1    H6 2834   4.610   0.525   0.828  1.0100  0.7431 -0.8582
  182MPD1    H7 2835   4.503   0.503   0.692 -1.3652 -0.1473  0.0762
  183MPD1     C 2836   0.318   2.368  10.168  0.0580 -0.1143 -0.2079
  183MPD1    C1 2837   0.195   2.375  10.119 -0.2763 -0.3729 -0.8586
  183MPD1    C2 2838   0.130   2.253  10.092 -0.0916  0.2939  0.0096
  183MPD1    C3 2839   0.200   2.136  10.095 -0.0684  0.4255  0.0718
  183MPD1    C4 2840   0.335   2.135  10.130  0.8386  0.3171 -0.0618
  183MPD1    C5 2841   0.392   2.253  10.168  0.7238  0.5998  0.1727
  183MPD1     H 2842   0.025   2.255  10.067 -0.3533  0.4875  1.1303
  183MPD1    H1 2843   0.394   2.044  10.132  0.3754  0.0345  0.7602
  183MPD1    H2 2844   0.372   2.455  10.204 -1.9227  1.3611 -0.8491
  183MPD1    H3 2845   0.497   2.257  10.196  0.7148 -1.5913  0.5244
  183MPD1     N 2846   0.142   2.012  10.071  0.1653  0.3097  0.3441
  183MPD1    H5 2847   0.207   1.935  10.080  0.2184  0.2301 -0.7546
  183MPD1    N1 2848   0.140   2.501  10.134  0.2044 -0.1562  0.0615
  183MPD1    H6 2849   0.072   2.522  10.061 -0.9044 -0.2940  1.0411
  183MPD1    H7 2850   0.204   2.579  10.123 -0.6751  0.3960 -1.1523
  184MPD1     C 2851   2.853   0.122   8.645  0.3284 -0.3156  0.1866
  184MPD1    C1 2852   2.976   0.171   8.685 -0.3241  1.3983 -0.1846
  184MPD1    C2 2853   2.987   0.209   8.815  0.2858  0.0204 -0.0876
  184MPD1    C3 2854   2.876   0.248   8.889 -0.1803 -0.2244 -0.7167
  184MPD1    C4 2855   2.756   0.220   8.836 -0.3676 -0.6246 -0.1148
  184MPD1    C5 2856   2.748   0.147   8.719  0.3370 -0.3234  0.1710
  184MPD1     H 2857   3.090   0.221   8.846  0.8114  0.9615 -2.1594
  184MPD1    H1 2858   2.665   0.259   8.882  0.3081 -0.6361  1.2301
  184MPD1    H2 2859   2.837   0.078   8.547 -1.0305  0.3600  0.1012
  184MPD1    H3 2860   2.657   0.093   8.695 -0.2778  0.7743  0.0603
  184MPD1     N 2861   2.879   0.309   9.012  0.3426 -0.5992  0.5572
  184MPD1    H5 2862   2.791   0.330   9.058 -0.2691  0.5874 -1.1495
  184MPD1    N1 2863   3.090   0.136   8.617 -0.2102 -0.3578  0.2141
  184MPD1    H6 2864   3.075   0.123   8.517 -1.1282 -0.9699  0.4247
  184MPD1    H7 2865   3.165   0.205   8.623 -1.1593  0.5340  1.9983
  185MPD1     C 2866   2.284   0.599   9.725 -0.2389 -0.1519 -0.2562
  185MPD1    C1 2867   2.264   0.514   9.614 -0.0013 -0.0047 -0.2680
  185MPD1    C2 2868   2.384   0.469   9.554 -0.5023  0.0546  0.1676
  185MPD1    C3 2869   2.505   0.496   9.606  0.1234 -0.7613 -0.9785
  185MPD1    C4 2870   2.519   0.573   9.718 -0.0549 -0.1399 -0.1066
  185MPD1    C5 2871   2.411   0.626   9.774 -0.0399 -0.5060  0.1335
  185MPD1     H 2872   2.382   0.425   9.455 -1.8988 -0.2574  0.3342
  185MPD1    H1 2873   2.614   0.595   9.765 -1.3381  1.8470  1.5582
  185MPD1    H2 2874   2.195   0.645   9.767  0.1331  0.0141  0.3485
  185MPD1    H3 2875   2.425   0.682   9.866 -1.4310 -1.5341  0.9757
  185MPD1     N 2876   2.626   0.458   9.539  0.9596  0.4405  0.1021
  185MPD1    H5 2877   2.705   0.510   9.573  0.3329  2.9669 -2.3080
  185MPD1    N1 2878   2.138   0.491   9.559 -0.3342 -0.6374  0.6039
  185MPD1    H6 2879   2.057   0.505   9.618 -0.5749  0.6966 -0.0341
  185MPD1    H7 2880   2.132   0.402   9.509  1.6146  0.7938 -2.1976
  186MPD1     C 2881   1.834   3.179  15.540 -0.0252 -0.7500  0.0729
  186MPD1    C1 2882   1.962   3.145  15.581 -0.2718  0.1986 -0.8984
  186MPD1    C2 2883   2.010   3.168  15.707  0.1484  0.3168  0.7233
  186MPD1    C3 2884   1.927   3.237  15.794 -0.4490  0.3119 -0.4787
  186MPD1    C4 2885   1.800   3.254  15.760  0.5055 -0.2610 -0.2083
  186MPD1    C5 2886   1.751   3.233  15.632  0.7516  0.2442 -0.2269
  186MPD1     H 2887   2.114   3.147  15.729  1.3905  3.0540 -2.6075
  186MPD1    H1 2888   1.735   3.300  15.834  0.1920  0.4634 -0.9346
  186MPD1    H2 2889   1.788   3.169  15.442 -2.5273 -1.0114  1.2735
  186MPD1    H3 2890   1.647   3.252  15.606 -0.1684 -1.8452  1.9533
  186MPD1     N 2891   1.964   3.286  15.924  0.6668  0.0700 -0.0148
  186MPD1    H5 2892   1.893   3.314  15.991 -1.2310  1.3919 -2.5867
  186MPD1    N1 2893   2.041   3.090  15.480 -0.4290 -0.3462  0.1450
  186MPD1    H6 2894   1.993   3.042  15.404 -1.4523 -1.5466  1.5638
  186MPD1    H7 2895   2.115   3.036  15.523 -0.3222 -1.4781 -1.4372
  187MPD1     C 2896   2.036   0.968  17.265  0.0698 -0.5155 -1.0385
  187MPD1    C1 2897   1.934   0.893  17.318 -0.6947 -1.0531 -0.1582
  187MPD1    C2 2898   1.808   0.920  17.268  0.2718 -0.2433 -0.2846
  187MPD1    C3 2899   1.778   1.021  17.177  0.4242 -0.4397 -0.6791
  187MPD1    C4 2900   1.890   1.098  17.144  0.3339  0.0091  0.4201
  187MPD1    C5 2901   2.017   1.075  17.183 -0.7845 -0.2114  0.1158
  187MPD1     H 2902   1.727   0.865  17.314  0.1888  1.6780  1.8368
  187MPD1    H1 2903   1.871   1.193  17.095  1.7735 -0.6102 -1.3284
  187MPD1    H2 2904   2.135   0.946  17.305  0.6254  3.4000 -0.2367
  187MPD1    H3 2905   2.101   1.139  17.156 -0.2432 -0.1375  1.9460
  187MPD1     N 2906   1.650   1.061  17.138 -0.4271  0.1158 -0.6753
  187MPD1    H5 2907   1.650   1.149  17.087  1.5178  1.4402  1.5927
  187MPD1    N1 2908   1.950   0.787  17.411 -0.3165 -0.1684 -0.7381
  187MPD1    H6 2909   1.872   0.783  17.476 -0.1940  2.5749 -0.4116
  187MPD1    H7 2910   2.040   0.804  17.456 -1.4154 -1.6205  1.9724
  188MPD1     C 2911   0.386   0.220   9.558  0.9023 -0.3024 -0.0165
  188MPD1    C1 2912   0.493   0.183   9.482  0.9813 -0.1098  0.7221
  188MPD1    C2 2913   0.589   0.105   9.541 -1.1531  0.3015  1.2235
  188MPD1    C3 2914   0.560   0.023   9.653  0.2124  0.3605 -0.3591
  188MPD1    C4 2915   0.441   0.054   9.715 -1.2367  0.0096  0.6767
  188MPD1    C5 2916   0.357   0.156   9.671 -0.2055 -0.5560  0.4265
  188MPD1     H 2917   0.686   0.108   9.493 -2.5105  1.5033 -1.4271
  188MPD1    H1 2918   0.411   0.023   9.815  1.7035 -1.8357  0.9783
  188MPD1    H2 2919   0.320   0.293   9.513  0.3259 -0.3523  0.7563
  188MPD1    H3 2920   0.262   0.173   9.720 -1.3150 -1.8812 -1.2849
  188MPD1     N 2921   0.645   4.655   9.702 -0.2895 -0.0266  0.1101
  188MPD1    H5 2922   0.610   4.598   9.779  1.7203 -1.5600 -0.1169
  188MPD1    N1 2923   0.526   0.254   9.364  0.2127 -0.7004  0.1562
  188MPD1    H6 2924   0.444   0.277   9.308  1.3620 -0.3828 -1.3826
  188MPD1    H7 2925   0.589   0.193   9.313  0.0855 -0.4650 -0.2764
  189MPD1     C 2926   3.401   1.718   0.352 -0.3067 -0.4133  0.2735
  189MPD1    C1 2927   3.298   1.633   0.326  0.2074 -0.1617  0.1043
  189MPD1    C2 2928   3.168   1.689   0.311 -0.5891  0.7815 -0.3842
  189MPD1    C3 2929   3.148   1.824   0.295 -0.2358  0.3571  0.1659
  189MPD1    C4 2930   3.259   1.904   0.294  0.7594  0.7900 -0.0678
  189MPD1    C5 2931   3.385   1.852   0.334  0.3678  0.1379  0.5401
  189MPD1     H 2932   3.079   1.628   0.311 -1.1887  1.6497 -0.3472
  189MPD1    H1 2933   3.262   2.011   0.279  1.4102  1.1536  2.6907
  189MPD1    H2 2934   3.493   1.684   0.397 -0.4720 -1.3996 -0.1190
  189MPD1    H3 2935   3.462   1.920   0.367  0.0311  1.1026 -0.6798
  189MPD1     N 2936   3.019   1.878   0.266 -0.0837 -0.0564 -0.4450
  189MPD1    H5 2937   2.940   1.816   0.280  1.3887 -1.8620 -0.1557
  189MPD1    N1 2938   3.312   1.492   0.342 -0.1318 -0.1610 -0.5647
  189MPD1    H6 2939   3.261   1.427   0.282 -0.1763 -1.0222  0.4074
  189MPD1    H7 2940   3.410   1.466   0.334  0.1329  1.3332 -2.2320
  190MPD1     C 2941   1.600   4.046  15.726  0.4122  0.4985  0.8415
  190MPD1    C1 2942   1.573   4.177  15.753  1.0863 -0.5523 -0.2748
  190MPD1    C2 2943   1.673   4.268  15.748 -0.0665 -0.1320 -0.4008
  190MPD1    C3 2944   1.805   4.237  15.714 -0.0317 -0.5197  0.6953
  190MPD1    C4 2945   1.831   4.107  15.683  0.5289  0.0041 -0.3094
  190MPD1    C5 2946   1.726   4.015  15.678  0.0547  0.0482 -0.6248
  190MPD1     H 2947   1.652   4.374  15.752  1.3972  0.1144  0.6385
  190MPD1    H1 2948   1.934   4.075  15.667 -0.3183 -2.9558  0.1841
  190MPD1    H2 2949   1.527   3.966  15.725 -0.2069  1.0617  1.2527
  190MPD1    H3 2950   1.753   3.914  15.649 -0.8145 -0.4417  0.2675
  190MPD1     N 2951   1.900   4.339  15.721  0.2348  0.0736 -0.3037
  190MPD1    H5 2952   1.862   4.430  15.744  0.9920  0.3145 -0.0076
  190MPD1    N1 2953   1.441   4.204  15.778 -0.7261  0.3824  0.9778
  190MPD1    H6 2954   1.412   4.295  15.813 -2.7607  1.7038 -4.1415
  190MPD1    H7 2955   1.385   4.123  15.804  0.2817  0.1488  2.4778
  191MPD1     C 2956   2.024   1.935  11.135  0.0661  0.6257 -0.0373
  191MPD1    C1 2957   1.898   1.979  11.087 -0.4841  0.4342  0.5849
  191MPD1    C2 2958   1.784   1.910  11.131 -0.7083  0.9271  0.4127
  191MPD1    C3 2959   1.793   1.803  11.225  0.1424  0.6333 -0.3058
  191MPD1    C4 2960   1.914   1.770  11.281  0.0456  0.3671  0.0078
  191MPD1    C5 2961   2.030   1.840  11.235 -0.7407 -0.3343 -0.0511
  191MPD1     H 2962   1.689   1.937  11.087 -1.2749 -1.7639 -0.0327
  191MPD1    H1 2963   1.924   1.693  11.357  1.4274  0.0142 -0.5225
  191MPD1    H2 2964   2.118   1.972  11.097  0.9352 -1.5814 -0.0692
  191MPD1    H3 2965   2.127   1.806  11.269 -0.6422  2.2556  2.2687
  191MPD1     N 2966   1.675   1.740  11.262  0.5106  0.8033 -0.2381
  191MPD1    H5 2967   1.591   1.772  11.214  1.0040  0.6256 -1.2121
  191MPD1    N1 2968   1.878   2.053  10.970 -0.2281 -0.3166  0.5506
  191MPD1    H6 2969   1.783   2.089  10.971 -0.5469 -1.1386  0.1110
  191MPD1    H7 2970   1.952   2.123  10.970  0.2353 -0.8031 -0.8501
  192MPD1     C 2971   0.758   1.728  10.965  0.5573  0.0581  0.0950
  192MPD1    C1 2972   0.869   1.807  10.988 -0.3146  0.7410 -0.2865
  192MPD1    C2 2973   0.959   1.767  11.077  0.5970  0.2707  0.2144
  192MPD1    C3 2974   0.974   1.637  11.113 -0.5156  0.4996 -0.7280
  192MPD1    C4 2975   0.868   1.554  11.086 -0.0460  0.0712 -0.0315
  192MPD1    C5 2976   0.756   1.601  11.014 -0.0406  0.1731  0.4681
  192MPD1     H 2977   1.039   1.833  11.107  0.0937  1.0273 -0.1189
  192MPD1    H1 2978   0.883   1.453  11.123 -0.7620  0.4247  1.2340
  192MPD1    H2 2979   0.676   1.759  10.902  0.6647 -0.3002 -0.2222
  192MPD1    H3 2980   0.676   1.533  10.990 -0.5872  0.7586  0.6319
  192MPD1     N 2981   1.080   1.587  11.191 -0.1539 -0.5328  0.8397
  192MPD1    H5 2982   1.070   1.497  11.235 -0.7323 -0.0744  1.6517
  192MPD1    N1 2983   0.875   1.946  10.947 -0.3459 -0.2647 -0.1650
  192MPD1    H6 2984   0.819   1.971  10.865 -0.7148 -0.9374 -0.1192
  192MPD1    H7 2985   0.969   1.981  10.932 -0.3995  0.7137  1.7660
  193MPD1     C 2986   0.514   1.838  15.950 -0.1470  0.2997  0.2691
  193MPD1    C1 2987   0.595   1.722  15.951 -0.7655 -0.3253  0.0885
  193MPD1    C2 2988   0.709   1.738  16.036 -0.1249 -0.1527  0.0295
  193MPD1    C3 2989   0.739   1.858  16.099  0.6511 -0.0893 -0.4623
  193MPD1    C4 2990   0.664   1.967  16.074  0.0337  0.1027  0.1360
  193MPD1    C5 2991   0.549   1.958  16.006  0.0896  0.4235  0.1069
  193MPD1     H 2992   0.772   1.650  16.042  0.6564  0.3325 -1.0771
  193MPD1    H1 2993   0.692   2.060  16.122 -2.4868  1.1647 -0.4369
  193MPD1    H2 2994   0.412   1.837  15.911 -0.8182  0.0921  2.0313
  193MPD1    H3 2995   0.489   2.046  15.981  0.2994  0.2907 -0.8635
  193MPD1     N 2996   0.860   1.889  16.167  0.2407  0.2347 -0.3105
  193MPD1    H5 2997   0.879   1.986  16.189  0.4291 -0.1319  1.1887
  193MPD1    N1 2998   0.554   1.594  15.915 -0.1641 -0.0831  0.3451
  193MPD1    H6 2999   0.481   1.595  15.845  1.5494 -2.3949 -1.4545
  193MPD1    H7 3000   0.628   1.526  15.899 -0.1126  0.7055 -2.7118
  194MPD1     C 3001   2.955   3.966  17.063  0.5256 -0.1525 -0.0282
  194MPD1    C1 3002   2.950   3.911  17.189  0.2788  0.8433 -0.3323
  194MPD1    C2 3003   3.015   3.792  17.211  0.1927 -0.1763  0.6599
  194MPD1    C3 3004   3.082   3.731  17.100  1.3169  0.7433 -0.1882
  194MPD1    C4 3005   3.058   3.767  16.975 -0.2336  0.0790 -0.0644
  194MPD1    C5 3006   3.003   3.897  16.960 -1.0622 -0.6704  0.1628
  194MPD1     H 3007   3.013   3.752  17.312  1.7499  1.4093  1.3184
  194MPD1    H1 3008   3.110   3.720  16.892 -1.2886  1.0411 -1.2705
  194MPD1    H2 3009   2.919   4.066  17.042  2.3003  0.2087 -1.3757
  194MPD1    H3 3010   3.005   3.942  16.861  4.5078 -2.2442 -0.4438
  194MPD1     N 3011   3.148   3.612  17.115  0.3369  0.1112 -0.4362
  194MPD1    H5 3012   3.166   3.569  17.024  0.7765 -2.5096  0.9035
  194MPD1    N1 3013   2.897   3.992  17.293 -0.5461 -0.6537 -0.2195
  194MPD1    H6 3014   2.849   3.936  17.364  0.1888 -0.8321  0.1298
  194MPD1    H7 3015   2.830   4.062  17.262 -0.0140 -0.7523 -1.5758
  195MPD1     C 3016   0.020   1.238  17.010  0.1608 -0.1842 -0.6452
  195MPD1    C1 3017   4.720   1.112  17.047  0.1419  0.3450  0.3325
  195MPD1    C2 3018   0.044   1.055  17.159 -1.0233 -0.4008  0.2029
  195MPD1    C3 3019   0.116   1.135  17.242 -0.5134 -0.7228  0.6292
  195MPD1    C4 3020   0.155   1.264  17.204  0.6542 -0.0729 -0.1206
  195MPD1    C5 3021   0.106   1.312  17.085 -0.2197 -0.2895 -0.2278
  195MPD1     H 3022   0.026   0.949  17.174  0.0930 -0.7676 -0.9976
  195MPD1    H1 3023   0.224   1.318  17.267 -1.4470  2.0299  0.4011
  195MPD1    H2 3024   4.726   1.285  16.917  0.7347  1.7074  0.1211
  195MPD1    H3 3025   0.130   1.410  17.047  1.9201 -0.7540 -0.0537
  195MPD1     N 3026   0.165   1.092  17.364  0.0784 -0.1157  0.1215
  195MPD1    H5 3027   0.234   1.148  17.413  2.6229 -2.2226 -1.0492
  195MPD1    N1 3028   4.650   1.037  16.961 -0.3555 -0.5685 -0.4931
  195MPD1    H6 3029   4.573   1.088  16.918  0.3528  0.4395 -0.5649
  195MPD1    H7 3030   4.617   0.951  17.004 -0.4303 -0.5298 -0.4727
  196MPD1     C 3031   3.480   0.777  17.334  0.3749  0.2152  0.3352
  196MPD1    C1 3032   3.562   0.890  17.343  0.0360 -0.2746  0.5757
  196MPD1    C2 3033   3.676   0.881  17.421  0.8085  0.1731  0.4808
  196MPD1    C3 3034   3.715   0.764  17.485 -0.1128  0.0882 -0.2043
  196MPD1    C4 3035   3.631   0.658  17.475  0.0037  0.0472  0.2080
  196MPD1    C5 3036   3.515   0.667  17.398  0.1605  0.3238  0.3265
  196MPD1     H 3037   3.741   0.968  17.413  0.5173  0.2345 -1.3214
  196MPD1    H1 3038   3.649   0.570  17.535  0.1448 -1.1022 -1.5276
  196MPD1    H2 3039   3.384   0.780  17.283 -0.2613  1.2312  1.5927
  196MPD1    H3 3040   3.456   0.577  17.385  0.7120  0.1047 -0.6979
  196MPD1     N 3041   3.830   0.745  17.565 -0.4134 -0.8850 -0.7821
  196MPD1    H5 3042   3.845   0.650  17.599 -0.4570 -0.6124 -0.0039
  196MPD1    N1 3043   3.517   1.019  17.310  0.1185 -0.2886 -0.5203
  196MPD1    H6 3044   3.448   1.016  17.235 -0.1721  2.5167 -0.3647
  196MPD1    H7 3045   3.598   1.068  17.273 -0.2063  1.2838  0.8899
  197MPD1     C 3046   3.967   1.978  17.247  0.2794 -0.6362 -0.1411
  197MPD1    C1 3047   4.092   2.015  17.294  1.3542 -0.0246 -0.7009
  197MPD1    C2 3048   4.184   2.082  17.217  0.1145 -0.1812  0.3466
  197MPD1    C3 3049   4.151   2.127  17.088  0.1390 -0.4211 -0.5433
  197MPD1    C4 3050   4.030   2.095  17.039 -0.1033 -0.2322 -0.2959
  197MPD1    C5 3051   3.945   2.018  17.117 -0.0882  0.6784  0.3496
  197MPD1     H 3052   4.282   2.096  17.262  0.6618 -1.0552 -0.5761
  197MPD1    H1 3053   4.007   2.113  16.935  0.6994  1.4457 -0.1837
  197MPD1    H2 3054   3.888   1.922  17.296  1.8222 -3.8877 -1.3555
  197MPD1    H3 3055   3.857   1.989  17.062 -0.5356  1.0972  0.8419
  197MPD1     N 3056   4.235   2.202  17.005 -0.2579  0.4345 -0.0759
  197MPD1    H5 3057   4.191   2.220  16.916  2.5925 -1.4329 -1.8595
  197MPD1    N1 3058   4.112   2.000  17.433 -0.0049  0.1089 -0.0665
  197MPD1    H6 3059   4.068   1.916  17.470 -1.1942  0.7009 -0.1103
  197MPD1    H7 3060   4.209   2.010  17.462 -0.3927  2.8546  0.2575
  198MPD1     C 3061   1.476   0.892  15.129 -0.2861  0.9089 -0.3719
  198MPD1    C1 3062   1.591   0.944  15.087  0.2190 -0.1203  0.9845
  198MPD1    C2 3063   1.673   0.991  15.189  0.3355 -0.6449 -0.1911
  198MPD1    C3 3064   1.643   0.999  15.324 -0.0164  0.0274  0.2763
  198MPD1    C4 3065   1.526   0.944  15.357 -0.5651 -0.0937  0.3582
  198MPD1    C5 3066   1.443   0.895  15.265 -0.2199  0.3704 -0.5023
  198MPD1     H 3067   1.771   1.025  15.157  0.2876  0.7781  1.1569
  198MPD1    H1 3068   1.491   0.929  15.458  0.6214  0.3604  0.8421
  198MPD1    H2 3069   1.415   0.836  15.060 -0.0557  1.1205 -0.7438
  198MPD1    H3 3070   1.344   0.860  15.292  0.1841 -1.0033 -0.7789
  198MPD1     N 3071   1.731   1.063  15.416 -0.0839 -0.4136  0.4587
  198MPD1    H5 3072   1.812   1.108  15.373 -1.2813 -0.0188 -1.3443
  198MPD1    N1 3073   1.639   0.920  14.956 -0.1658 -0.4920 -0.2539
  198MPD1    H6 3074   1.572   0.909  14.880  0.2664  0.8800 -0.8264
  198MPD1    H7 3075   1.705   0.994  14.933 -1.2496  0.6582  0.3393
  199MPD1     C 3076   4.184   2.777   9.638 -0.1659  0.0732  0.0674
  199MPD1    C1 3077   4.081   2.680   9.631 -0.2171 -0.5770  0.3480
  199MPD1    C2 3078   3.950   2.724   9.617 -0.1792  0.4607  0.6336
  199MPD1    C3 3079   3.922   2.850   9.576  0.7052 -0.2621  0.7410
  199MPD1    C4 3080   4.026   2.937   9.572  0.1089  0.5612  0.4317
  199MPD1    C5 3081   4.155   2.905   9.604 -0.0893  0.7820  0.0113
  199MPD1     H 3082   3.868   2.653   9.628 -1.2853  1.3766 -1.6007
  199MPD1    H1 3083   4.019   3.034   9.525  0.2763 -0.4604 -1.6768
  199MPD1    H2 3084   4.289   2.756   9.657 -0.2492 -1.4915 -1.2090
  199MPD1    H3 3085   4.239   2.973   9.605 -1.2253  2.1962 -0.5694
  199MPD1     N 3086   3.798   2.910   9.556 -0.4934 -0.1605 -0.0496
  199MPD1    H5 3087   3.808   3.008   9.532 -0.7481 -0.2952 -0.7019
  199MPD1    N1 3088   4.112   2.552   9.674 -0.3548 -0.1249 -0.0166
  199MPD1    H6 3089   4.208   2.518   9.670 -0.8134 -1.0742 -2.6470
  199MPD1    H7 3090   4.049   2.485   9.631 -1.6316  2.0658 -1.5361
  200MPD1     C 3091   3.357   2.806  15.272  0.1729  0.2742 -0.3596
  200MPD1    C1 3092   3.372   2.695  15.194 -0.5490  1.1149  0.3327
  200MPD1    C2 3093   3.354   2.719  15.061 -0.6119  0.4669  0.0367
  200MPD1    C3 3094   3.337   2.844  15.008 -0.3701  0.0790 -1.0724
  200MPD1    C4 3095   3.330   2.958  15.084  0.8273 -0.2065  0.2880
  200MPD1    C5 3096   3.342   2.937  15.217 -0.3204 -0.1680 -0.5996
  200MPD1     H 3097   3.358   2.636  14.991 -0.1806 -0.8731  1.6608
  200MPD1    H1 3098   3.305   3.058  15.052 -1.6059 -1.3638 -1.4165
  200MPD1    H2 3099   3.340   2.806  15.379  2.5949  2.0563  0.0368
  200MPD1    H3 3100   3.346   3.030  15.272 -0.1365 -1.4777  1.5783
  200MPD1     N 3101   3.334   2.860  14.865 -0.1445 -0.0711 -0.1819
  200MPD1    H5 3102   3.303   2.783  14.807 -0.6094  1.2563 -1.6753
  200MPD1    N1 3103   3.375   2.563  15.235 -0.2354  0.5205 -0.4325
  200MPD1    H6 3104   3.427   2.559  15.322 -1.2621  1.6960  0.2493
  200MPD1    H7 3105   3.412   2.499  15.165  1.7633 -0.0857  1.1756
  201MPD1     C 3106   0.673   1.112  12.930 -0.0927  0.0551 -0.0705
  201MPD1    C1 3107   0.578   1.072  13.020 -0.3971  0.2792 -0.1300
  201MPD1    C2 3108   0.618   0.999  13.132  0.3816 -0.9124  0.3643
  201MPD1    C3 3109   0.754   0.998  13.168 -0.1888  0.4549 -0.9016
  201MPD1    C4 3110   0.846   1.051  13.087  0.1447 -0.6290  0.4227
  201MPD1    C5 3111   0.808   1.103  12.963 -0.3231  0.3712 -0.1278
  201MPD1     H 3112   0.542   0.957  13.197 -1.4288 -2.3993 -2.7296
  201MPD1    H1 3113   0.951   1.039  13.114  0.1695 -1.9099 -0.2552
  201MPD1    H2 3114   0.639   1.153  12.835 -1.1433  0.2262  0.3783
  201MPD1    H3 3115   0.884   1.139  12.895  0.0850  2.5795  1.4973
  201MPD1     N 3116   0.781   0.931  13.288 -0.2429 -0.5790 -0.2766
  201MPD1    H5 3117   0.701   0.892  13.337  1.3171 -2.4501  0.7937
  201MPD1    N1 3118   0.441   1.069  12.986 -0.1478 -0.2252 -0.1090
  201MPD1    H6 3119   0.384   1.077  13.071 -1.1848 -1.2662 -0.6988
  201MPD1    H7 3120   0.413   1.150  12.932  0.5650 -1.2384 -1.9964
  202MPD1     C 3121   4.476   0.521   9.091 -0.4944 -0.1224 -0.9636
  202MPD1    C1 3122   4.453   0.636   9.160 -0.0752 -0.2975 -0.5705
  202MPD1    C2 3123   4.517   0.646   9.278 -0.1579 -0.5563 -0.1813
  202MPD1    C3 3124   4.552   0.533   9.345 -0.7203 -0.9758  0.5283
  202MPD1    C4 3125   4.556   0.412   9.279 -0.0242 -0.0456  0.2465
  202MPD1    C5 3126   4.531   0.406   9.145 -0.6063  0.2766  0.7025
  202MPD1     H 3127   4.510   0.745   9.323 -2.7620  0.3074 -2.4772
  202MPD1    H1 3128   4.590   0.322   9.329 -0.0468  0.9527  2.0686
  202MPD1    H2 3129   4.439   0.512   8.990  0.5449 -0.1190 -1.3502
  202MPD1    H3 3130   4.546   0.314   9.089 -0.0776 -0.5743  2.2193
  202MPD1     N 3131   4.590   0.535   9.483  0.0399  0.2613  0.0453
  202MPD1    H5 3132   4.618   0.450   9.530  0.3304 -0.0703 -0.7165
  202MPD1    N1 3133   4.438   0.754   9.083 -0.4700 -0.4511  0.4710
  202MPD1    H6 3134   4.371   0.732   9.009 -0.8561 -2.1573  1.3281
  202MPD1    H7 3135   4.419   0.848   9.116 -1.0211 -0.9206  1.4659
  203MPD1     C 3136   3.664   1.968  12.182  0.3976 -0.1123  0.0651
  203MPD1    C1 3137   3.793   1.946  12.226 -0.6701  0.4234  0.8875
  203MPD1    C2 3138   3.832   1.819  12.269  0.3645  0.2132  0.1608
  203MPD1    C3 3139   3.747   1.714  12.296 -0.3344  0.0202  0.4792
  203MPD1    C4 3140   3.618   1.746  12.259 -0.3082  0.0288 -0.0433
  203MPD1    C5 3141   3.576   1.864  12.198  0.3595 -0.9395 -0.2657
  203MPD1     H 3142   3.935   1.799  12.297 -0.0446 -0.8541  0.9002
  203MPD1    H1 3143   3.538   1.674  12.250 -0.1273 -0.2855  0.8350
  203MPD1    H2 3144   3.626   2.057  12.133  0.3813  0.7441  1.6276
  203MPD1    H3 3145   3.474   1.875  12.164  0.8910  0.1084 -1.5048
  203MPD1     N 3146   3.783   1.593  12.348  0.3980  0.1788  0.4347
  203MPD1    H5 3147   3.881   1.571  12.362  0.3036  0.5445  1.7337
  203MPD1    N1 3148   3.893   2.032  12.185  0.1487 -0.2216  0.6561
  203MPD1    H6 3149   3.978   2.038  12.240  0.1595 -0.8331  0.7022
  203MPD1    H7 3150   3.849   2.123  12.172 -1.0885 -1.2859 -2.6610
  204MPD1     C 3151   3.061   3.463  17.686 -0.1163  0.0396  0.2225
  204MPD1    C1 3152   3.058   3.361   0.042 -0.0659  0.0372 -0.1771
  204MPD1    C2 3153   3.034   3.228   0.003  0.7211 -0.3019  0.1881
  204MPD1    C3 3154   3.050   3.195  17.610 -0.2517 -0.3108  0.0064
  204MPD1    C4 3155   3.078   3.296  17.519 -0.3394  0.3557  1.3841
  204MPD1    C5 3156   3.062   3.427  17.556 -0.6044  0.2495 -0.7157
  204MPD1     H 3157   3.034   3.144   0.071 -3.6815  1.0701  1.9177
  204MPD1    H1 3158   3.090   3.279  17.412 -1.0677  1.8014  1.0735
  204MPD1    H2 3159   3.062   3.569  17.707  0.5292 -0.0024  0.4095
  204MPD1    H3 3160   3.069   3.506  17.482  0.6923  0.7410 -0.0758
  204MPD1     N 3161   3.070   3.060  17.564  0.2490 -0.3912 -0.5907
  204MPD1    H5 3162   3.090   2.995  17.639 -0.5354  1.1428  0.9405
  204MPD1    N1 3163   3.031   3.406   0.174  0.5098 -0.5687 -0.1366
  204MPD1    H6 3164   3.081   3.494   0.190 -2.2768  1.0098 -0.1859
  204MPD1    H7 3165   3.060   3.339   0.244 -0.0875 -2.2219 -1.4818
  205MPD1     C 3166   4.061   1.549   0.319  0.3066  1.0198 -0.0532
  205MPD1    C1 3167   4.000   1.461   0.230 -0.5252  0.6595 -0.0793
  205MPD1    C2 3168   3.872   1.494   0.178  0.4517 -0.4995 -0.1645
  205MPD1    C3 3169   3.817   1.618   0.204 -0.4243  0.0431 -0.2515
  205MPD1    C4 3170   3.889   1.706   0.284 -0.2505 -0.0424 -0.2456
  205MPD1    C5 3171   4.011   1.674   0.335 -0.1922 -0.5340  0.0610
  205MPD1     H 3172   3.824   1.422   0.114 -1.3673 -0.2206  0.8891
  205MPD1    H1 3173   3.836   1.796   0.314 -0.0473 -0.0708  0.2074
  205MPD1    H2 3174   4.151   1.524   0.374  0.6837  2.7952  0.1248
  205MPD1    H3 3175   4.054   1.744   0.406  3.0613 -2.1594 -0.2761
  205MPD1     N 3176   3.690   1.656   0.160  0.2201  0.2108  0.3649
  205MPD1    H5 3177   3.679   1.756   0.174 -1.0704  0.2408 -0.8724
  205MPD1    N1 3178   4.046   1.334   0.212  0.2928 -0.2995 -0.5231
  205MPD1    H6 3179   4.010   1.289   0.128 -0.6293  0.8023 -0.7107
  205MPD1    H7 3180   4.147   1.324   0.224  0.5622  2.0485 -0.8393
  206MPD1     C 3181   3.007   4.572  16.315 -0.5021  0.0535  0.7155
  206MPD1    C1 3182   3.121   4.505  16.274 -0.1163 -0.0651 -0.0939
  206MPD1    C2 3183   3.150   4.512  16.137 -0.1801 -0.4871 -0.4207
  206MPD1    C3 3184   3.056   4.557  16.047  0.0603  0.0232 -0.3806
  206MPD1    C4 3185   2.940   4.605  16.090  0.2089 -0.0801  0.1545
  206MPD1    C5 3186   2.914   4.622  16.227  0.3090  0.2080  0.0983
  206MPD1     H 3187   3.252   4.490  16.107  0.1698  0.0546  0.3480
  206MPD1    H1 3188   2.868   4.639  16.016 -0.9569  1.5746  2.0604
  206MPD1    H2 3189   2.977   4.585  16.418  0.1512  0.4456  0.8566
  206MPD1    H3 3190   2.824   4.668  16.268 -0.5664 -1.0913 -0.3829
  206MPD1     N 3191   3.080   4.573  15.909  0.5998  0.7478 -0.1455
  206MPD1    H5 3192   3.007   4.622  15.858 -2.1161 -1.8631  1.1945
  206MPD1    N1 3193   3.221   4.465  16.357 -0.2930 -0.0445 -0.2611
  206MPD1    H6 3194   3.277   4.391  16.316  0.6032  0.3835  0.1961
  206MPD1    H7 3195   3.174   4.421  16.436 -0.6809  0.4887 -0.1857
  207MPD1     C 3196   1.479   2.154   9.042  0.3390 -0.2528  0.2541
  207MPD1    C1 3197   1.374   2.109   9.123  0.2602 -0.2012  0.4514
  207MPD1    C2 3198   1.344   2.195   9.228 -0.6326  0.4058  0.5091
  207MPD1    C3 3199   1.418   2.309   9.255  0.8029 -0.5747  0.3924
  207MPD1    C4 3200   1.521   2.342   9.170  0.4331  0.6268 -0.7536
  207MPD1    C5 3201   1.556   2.263   9.064 -0.0465  0.2754 -0.6341
  207MPD1     H 3202   1.269   2.148   9.291  0.9447 -1.5295  0.9243
  207MPD1    H1 3203   1.582   2.431   9.181  2.3963 -0.8296  0.1590
  207MPD1    H2 3204   1.512   2.096   8.956  0.7687  2.2030 -1.2333
  207MPD1    H3 3205   1.636   2.291   8.996  1.1265 -0.8037  0.3069
  207MPD1     N 3206   1.391   2.393   9.364 -0.1675  0.1811  0.0714
  207MPD1    H5 3207   1.468   2.454   9.392 -0.0500  1.1572 -2.2890
  207MPD1    N1 3208   1.286   2.011   9.076  0.0615  0.3045  0.0578
  207MPD1    H6 3209   1.346   1.946   9.025  1.7308  0.0903  2.2983
  207MPD1    H7 3210   1.247   1.952   9.149  1.8887 -2.0140 -0.8517
  208MPD1     C 3211   2.508   0.096  17.478 -0.0609 -0.0007  0.0956
  208MPD1    C1 3212   2.464   0.221  17.434  0.4257  0.3454  0.0282
  208MPD1    C2 3213   2.538   0.334  17.464  0.2793  0.5361  0.0947
  208MPD1    C3 3214   2.661   0.324  17.519 -0.3422 -0.9343 -0.1544
  208MPD1    C4 3215   2.709   0.193  17.543 -0.4976  0.1007 -0.7085
  208MPD1    C5 3216   2.633   0.083  17.516 -0.6842  0.2208  0.2086
  208MPD1     H 3217   2.510   0.432  17.428 -0.9354 -0.0980 -0.6794
  208MPD1    H1 3218   2.789   0.177  17.615 -1.5311  2.6010  1.0160
  208MPD1    H2 3219   2.449   0.006  17.461 -1.8589  1.1738  0.1461
  208MPD1    H3 3220   2.664   4.719  17.541  0.3776 -0.3714 -3.4259
  208MPD1     N 3221   2.728   0.441  17.553 -0.7286  0.0589 -0.2998
  208MPD1    H5 3222   2.683   0.528  17.526 -0.7285  0.8112  2.1335
  208MPD1    N1 3223   2.337   0.237  17.378  0.6950 -0.3520  0.0008
  208MPD1    H6 3224   2.338   0.302  17.299  0.1116 -3.2359 -2.3759
  208MPD1    H7 3225   2.300   0.150  17.342 -1.7094  0.1972  1.0991
  209MPD1     C 3226   1.455   1.337  11.062 -0.0276 -0.5913 -0.6017
  209MPD1    C1 3227   1.577   1.380  11.028  0.0399 -0.0227  0.1262
  209MPD1    C2 3228   1.593   1.494  10.943 -0.0508  1.3710  0.0800
  209MPD1    C3 3229   1.483   1.554  10.892  0.5350  1.0486  0.0635
  209MPD1    C4 3230   1.358   1.498  10.912 -0.3690 -0.7440  0.0625
  209MPD1    C5 3231   1.347   1.399  11.001  0.2867  0.6774 -0.7034
  209MPD1     H 3232   1.696   1.526  10.927 -0.5795  1.7468 -2.5003
  209MPD1    H1 3233   1.264   1.545  10.888  0.0216 -0.9151 -1.8289
  209MPD1    H2 3234   1.437   1.272  11.147 -1.5874  0.2896 -0.2666
  209MPD1    H3 3235   1.245   1.370  11.027  1.1040 -1.2584  0.3825
  209MPD1     N 3236   1.502   1.674  10.809  0.2014 -0.1338  0.0509
  209MPD1    H5 3237   1.599   1.701  10.791  0.1656 -0.7240 -0.9684
  209MPD1    N1 3238   1.683   1.334  11.110 -0.0552 -0.1918 -0.5299
  209MPD1    H6 3239   1.665   1.243  11.152  1.8044  0.3517  1.4703
  209MPD1    H7 3240   1.766   1.332  11.051  1.4336  2.0568  1.4764
  210MPD1     C 3241   1.687   2.389  11.216  0.4793 -0.2031  0.9303
  210MPD1    C1 3242   1.731   2.422  11.086  0.8549  0.0813  0.1072
  210MPD1    C2 3243   1.690   2.347  10.977  0.2315 -0.5627  0.2877
  210MPD1    C3 3244   1.609   2.232  10.997  0.8321 -0.6203  0.8339
  210MPD1    C4 3245   1.551   2.210  11.126  0.3375  0.3157  1.0211
  210MPD1    C5 3246   1.590   2.289  11.232 -0.6498 -0.0456  0.0330
  210MPD1     H 3247   1.718   2.381  10.878  0.6515 -1.3438  0.1377
  210MPD1    H1 3248   1.492   2.123  11.151  3.6537 -3.4234 -4.0401
  210MPD1    H2 3249   1.712   2.447  11.305  0.5897  1.5500 -0.2430
  210MPD1    H3 3250   1.549   2.259  11.328 -1.8706  0.9196 -0.1785
  210MPD1     N 3251   1.573   2.146  10.901 -0.6782  0.2303  0.2034
  210MPD1    H5 3252   1.510   2.074  10.936 -2.5950  0.8584 -1.9488
  210MPD1    N1 3253   1.810   2.535  11.063  0.6679 -0.2902  0.2380
  210MPD1    H6 3254   1.889   2.503  11.007  1.5290 -2.2276  2.5767
  210MPD1    H7 3255   1.857   2.576  11.144  2.5481 -1.3881 -0.2796
  211MPD1     C 3256   3.520   0.516  16.011  0.4620  0.2218  0.0062
  211MPD1    C1 3257   3.581   0.621  15.936 -0.5179 -0.0165 -0.3525
  211MPD1    C2 3258   3.620   0.745  15.997 -0.4476 -0.0486 -0.1164
  211MPD1    C3 3259   3.600   0.762  16.130 -0.3476  0.0490 -0.2164
  211MPD1    C4 3260   3.540   0.664  16.209  0.4013  0.1239  0.5296
  211MPD1    C5 3261   3.502   0.548  16.144 -0.5284 -0.2066  0.5372
  211MPD1     H 3262   3.672   0.818  15.937 -0.4899  1.0236  1.1660
  211MPD1    H1 3263   3.514   0.670  16.314  0.0041  0.3030  0.4230
  211MPD1    H2 3264   3.497   0.415  15.978 -0.6796  0.4963 -0.0502
  211MPD1    H3 3265   3.464   0.468  16.208 -0.8831  1.4361  2.3828
  211MPD1     N 3266   3.632   0.881  16.193  0.7649  0.0516  0.2836
  211MPD1    H5 3267   3.667   0.963  16.145 -0.5471  0.7117  0.4537
  211MPD1    N1 3268   3.610   0.603  15.795  0.3929 -0.3624  0.4209
  211MPD1    H6 3269   3.604   0.692  15.746  1.1285 -0.1696  0.6884
  211MPD1    H7 3270   3.542   0.542  15.750  1.5877  0.0576 -1.9855
  212MPD1     C 3271   2.987   4.172  16.290 -0.1504 -0.5200  0.2032
  212MPD1    C1 3272   2.884   4.210  16.363  0.2599 -0.3088 -0.0840
  212MPD1    C2 3273   2.823   4.119  16.442 -0.1905  0.2893  0.2920
  212MPD1    C3 3274   2.882   3.996  16.469 -0.7907  0.1792 -0.1611
  212MPD1    C4 3275   2.986   3.955  16.391 -0.2808  0.5280  0.0127
  212MPD1    C5 3276   3.034   4.039  16.298  0.0254 -0.0007  0.3707
  212MPD1     H 3277   2.732   4.153  16.489  0.1566  1.8948 -0.2046
  212MPD1    H1 3278   3.031   3.857  16.405  0.9657  0.6571 -3.2987
  212MPD1    H2 3279   3.025   4.234  16.209  0.2278  1.6259  2.0391
  212MPD1    H3 3280   3.106   4.008  16.223  0.7073  0.2102  0.9390
  212MPD1     N 3281   2.831   3.910  16.570 -0.2159 -0.5512 -0.3771
  212MPD1    H5 3282   2.869   3.816  16.566 -2.0268 -1.2973  0.1395
  212MPD1    N1 3283   2.818   4.329  16.318  0.3941 -0.2439 -0.6002
  212MPD1    H6 3284   2.750   4.361  16.388 -0.8629 -1.2420 -1.3579
  212MPD1    H7 3285   2.881   4.408  16.311  0.9831 -0.6272  0.3326
  213MPD1     C 3286   0.969   0.262  15.895 -0.2295  0.4561  0.1084
  213MPD1    C1 3287   0.885   0.163  15.851 -0.2818  0.1918 -0.1115
  213MPD1    C2 3288   0.826   0.179  15.729 -0.3506 -0.1575 -0.3183
  213MPD1    C3 3289   0.823   0.306  15.667  0.5193  0.3918  0.6508
  213MPD1    C4 3290   0.884   0.413  15.731 -0.3142  0.0991  0.0361
  213MPD1    C5 3291   0.950   0.394  15.845  0.5023  0.2382  0.4121
  213MPD1     H 3292   0.777   0.098  15.677 -2.6799 -0.4723  2.3634
  213MPD1    H1 3293   0.886   0.513  15.688  0.2929  0.3107  0.5646
  213MPD1    H2 3294   1.019   0.262  15.992  1.2377 -1.2996 -0.6486
  213MPD1    H3 3295   1.006   0.475  15.891  1.7801  0.0413 -0.7691
  213MPD1     N 3296   0.764   0.306  15.541  0.1349 -0.4717 -0.2270
  213MPD1    H5 3297   0.728   0.219  15.501 -1.5313 -0.1791  0.6638
  213MPD1    N1 3298   0.909   0.028  15.890 -0.2368 -0.7530 -0.3192
  213MPD1    H6 3299   0.933   0.031  15.989 -3.0958  1.7423  0.3061
  213MPD1    H7 3300   0.827   4.704  15.880 -1.7546  1.2013  0.1281
  214MPD1     C 3301   0.063   4.568  15.291  0.4071  0.1408 -0.7455
  214MPD1    C1 3302   0.151   4.562  15.186 -0.0126 -0.0239 -0.0288
  214MPD1    C2 3303   0.262   4.646  15.172 -0.5040  0.2997  0.0925
  214MPD1    C3 3304   0.284   0.007  15.269  0.4664  0.0666  0.0553
  214MPD1    C4 3305   0.188   0.016  15.375  0.6529 -0.1191 -0.1456
  214MPD1    C5 3306   0.082   4.668  15.385  0.5678  0.4483 -0.3792
  214MPD1     H 3307   0.312   4.638  15.076 -2.7401 -0.6938 -0.9926
  214MPD1    H1 3308   0.202   0.100  15.442 -0.0573 -0.3298  0.2660
  214MPD1    H2 3309   4.718   4.501  15.316 -0.4370  2.0852  1.7323
  214MPD1    H3 3310   0.014   4.669  15.470  0.6777  0.0369 -0.2883
  214MPD1     N 3311   0.383   0.108  15.267  0.1708  0.2301 -0.6445
  214MPD1    H5 3312   0.377   0.180  15.338 -0.9755 -0.7038  0.2006
  214MPD1    N1 3313   0.112   4.463  15.090 -0.4696  0.3016  0.2324
  214MPD1    H6 3314   0.072   4.382  15.138  0.1589 -0.3502 -0.3548
  214MPD1    H7 3315   0.191   4.422  15.041 -0.0440  0.9930  0.3351
  215MPD1     C 3316   1.739   1.448  10.129  0.1248 -0.2564 -0.5104
  215MPD1    C1 3317   1.629   1.514  10.075 -0.2019 -0.5225 -0.2371
  215MPD1    C2 3318   1.510   1.511  10.140  0.1425 -0.0528  0.5220
  215MPD1    C3 3319   1.491   1.450  10.261 -0.1320  0.2758 -0.3875
  215MPD1    C4 3320   1.594   1.378  10.311 -0.7339 -0.0627 -0.0609
  215MPD1    C5 3321   1.717   1.368  10.240  0.7093 -0.3839 -0.2644
  215MPD1     H 3322   1.424   1.544  10.082 -1.2456  1.1151  3.2420
  215MPD1    H1 3323   1.584   1.348  10.414 -1.5863  0.1397 -0.0862
  215MPD1    H2 3324   1.840   1.461  10.091 -0.2947  2.7051 -0.6409
  215MPD1    H3 3325   1.798   1.320  10.293  1.2630  0.8060 -0.0245
  215MPD1     N 3326   1.357   1.461  10.321 -0.6001  0.0325 -0.1522
  215MPD1    H5 3327   1.292   1.517  10.267 -0.9775  1.3574  1.7033
  215MPD1    N1 3328   1.640   1.593   9.959  0.0432 -0.2233  0.1652
  215MPD1    H6 3329   1.711   1.554   9.897 -0.3183  1.4833 -1.3204
  215MPD1    H7 3330   1.548   1.609   9.921 -1.0277 -0.6000  2.5627
  216MPD1     C 3331   2.399   4.549  17.742  0.4557  0.0747  0.7647
  216MPD1    C1 3332   2.344   4.425  17.715 -0.3058  0.4830 -0.5311
  216MPD1    C2 3333   2.431   4.318  17.711  0.1917  0.4751  0.0507
  216MPD1    C3 3334   2.558   4.328  17.744  0.3469  0.0278  0.1225
  216MPD1    C4 3335   2.610   4.450   0.035 -0.7727 -0.0360 -0.0861
  216MPD1    C5 3336   2.528   4.561   0.026  0.0799  0.2078  0.8624
  216MPD1     H 3337   2.385   4.227  17.673  1.5576  0.3028 -1.1504
  216MPD1    H1 3338   2.713   4.476   0.054 -0.5173 -1.1865  0.1439
  216MPD1    H2 3339   2.347   4.644  17.729 -2.6646 -1.3005  3.2852
  216MPD1    H3 3340   2.568   4.660   0.044 -0.1260  0.3112  0.7543
  216MPD1     N 3341   2.641   4.214  17.739 -0.2520  0.1169 -0.0123
  216MPD1    H5 3342   2.589   4.128  17.723  1.6649 -0.6252 -2.2129
  216MPD1    N1 3343   2.213   4.421  17.658 -0.0781 -0.0627  0.3993
  216MPD1    H6 3344   2.144   4.489  17.690 -1.6299 -0.7166 -1.5654
  216MPD1    H7 3345   2.172   4.328  17.658  1.7412 -0.8683  0.6686
  217MPD1     C 3346   3.004   0.971   8.024  0.4223 -0.6968 -0.0337
  217MPD1    C1 3347   3.135   0.975   8.046  0.0003 -0.0676 -0.5596
  217MPD1    C2 3348   3.171   0.963   8.177 -0.4015  0.2047  0.1262
  217MPD1    C3 3349   3.077   0.921   8.275  0.2097 -0.3491  0.0831
  217MPD1    C4 3350   2.948   0.909   8.248 -0.3073 -0.4728 -0.0651
  217MPD1    C5 3351   2.911   0.938   8.121  0.2435 -0.3276 -0.6819
  217MPD1     H 3352   3.270   0.988   8.212  0.0226 -0.6619 -0.4652
  217MPD1    H1 3353   2.868   0.895   8.319 -1.5649  0.3405 -1.3147
  217MPD1    H2 3354   2.965   0.987   7.924  0.5718  1.1505  0.2076
  217MPD1    H3 3355   2.805   0.938   8.095 -0.2948 -2.7832  1.5222
  217MPD1     N 3356   3.107   0.894   8.407  0.4914  0.2966  0.0282
  217MPD1    H5 3357   3.028   0.879   8.470  3.1363  1.8812  3.6944
  217MPD1    N1 3358   3.221   1.038   7.960  0.7544 -0.1458 -0.0439
  217MPD1    H6 3359   3.318   1.012   7.972 -0.0361 -2.1753  1.8429
  217MPD1    H7 3360   3.202   1.017   7.862  0.8990 -0.2684 -0.0458
  218MPD1     C 3361   4.244   0.528  12.801  0.6430 -0.4534  0.0144
  218MPD1    C1 3362   4.323   0.638  12.793  0.0252  0.1169 -0.0081
  218MPD1    C2 3363   4.439   0.637  12.716 -0.3147  0.1379 -0.2540
  218MPD1    C3 3364   4.476   0.516  12.657  0.0086 -0.0880  0.0023
  218MPD1    C4 3365   4.399   0.400  12.671 -0.3159  0.2562  0.1278
  218MPD1    C5 3366   4.289   0.415  12.750 -0.5488 -0.7149 -0.7660
  218MPD1     H 3367   4.502   0.724  12.704 -1.4374  1.2121  1.4212
  218MPD1    H1 3368   4.428   0.305  12.627 -0.2562 -0.1569  1.0744
  218MPD1    H2 3369   4.144   0.531  12.843 -0.2324  0.0992 -2.1429
  218MPD1    H3 3370   4.221   0.330  12.750 -1.9202  0.3813 -0.4301
  218MPD1     N 3371   4.593   0.515  12.584  0.2189  0.4609 -0.0762
  218MPD1    H5 3372   4.657   0.586  12.618  0.5421  0.1686 -0.0705
  218MPD1    N1 3373   4.279   0.763  12.838  0.1058 -0.1881  0.4450
  218MPD1    H6 3374   4.348   0.833  12.862  0.4968 -0.4680  0.1399
  218MPD1    H7 3375   4.218   0.761  12.919 -0.2572 -1.2510  0.1385
  219MPD1     C 3376   4.731   0.185  11.638 -0.1336  0.4747 -0.0546
  219MPD1    C1 3377   0.106   0.263  11.669  1.1191  0.5190  0.2550
  219MPD1    C2 3378   0.134   0.306  11.802 -0.3261 -0.1699  0.1505
  219MPD1    C3 3379   0.033   0.287  11.898  0.0554  0.3478  0.3997
  219MPD1    C4 3380   4.652   0.222  11.865 -0.3479 -0.9772  0.4702
  219MPD1    C5 3381   4.651   0.156  11.745 -0.4655 -0.3000 -0.2900
  219MPD1     H 3382   0.230   0.352  11.821 -0.2043 -1.2095  2.0902
  219MPD1    H1 3383   4.567   0.221  11.932 -1.2207  0.4380 -0.6002
  219MPD1    H2 3384   4.713   0.142  11.540  0.1512 -0.7077  0.4159
  219MPD1    H3 3385   4.569   0.087  11.723 -2.0461  1.1018  1.1949
  219MPD1     N 3386   0.039   0.333  12.027 -0.2843  0.0762  0.4149
  219MPD1    H5 3387   4.700   0.302  12.087 -0.5773 -0.3854 -0.1973
  219MPD1    N1 3388   0.213   0.272  11.581  0.3379  0.1300 -0.5992
  219MPD1    H6 3389   0.187   0.277  11.482 -1.1854  2.6270 -0.0763
  219MPD1    H7 3390   0.286   0.340  11.602  0.2333  0.4865 -1.3789
  220MPD1     C 3391   4.378   2.525  10.927  0.1724 -0.6674  0.0989
  220MPD1    C1 3392   4.321   2.423  10.864  0.4355  0.4000 -0.5366
  220MPD1    C2 3393   4.402   2.356  10.780  0.3494 -0.1185 -0.3462
  220MPD1    C3 3394   4.523   2.396  10.735  0.3903 -0.1971 -0.6414
  220MPD1    C4 3395   4.556   2.522  10.780 -0.3196 -0.2376 -0.1269
  220MPD1    C5 3396   4.490   2.584  10.880 -0.1347  0.1513  0.0706
  220MPD1     H 3397   4.360   2.262  10.745  0.0214 -0.2832  0.4952
  220MPD1    H1 3398   4.647   2.567  10.742  0.2395 -0.7682  0.5910
  220MPD1    H2 3399   4.327   2.589  10.998  1.2635  0.9781 -0.5852
  220MPD1    H3 3400   4.526   2.669  10.936 -0.7945  1.7126 -1.8881
  220MPD1     N 3401   4.601   2.314  10.649  0.3414 -0.4908  0.0617
  220MPD1    H5 3402   4.565   2.222  10.629 -0.4327 -0.1733  0.0060
  220MPD1    N1 3403   4.197   2.375  10.924  0.2506 -0.1878  0.1467
  220MPD1    H6 3404   4.141   2.447  10.967  1.3788  0.6717  0.1640
  220MPD1    H7 3405   4.137   2.333  10.854  0.5364 -1.0560  0.4212
  221MPD1     C 3406   2.610   1.232  16.757 -0.4880  0.0095 -0.3008
  221MPD1    C1 3407   2.595   1.117  16.684 -0.5190 -0.5578 -0.3587
  221MPD1    C2 3408   2.706   1.038  16.677 -0.0135 -0.5731  0.4998
  221MPD1    C3 3409   2.827   1.073  16.734  0.1219 -0.1469  0.8700
  221MPD1    C4 3410   2.840   1.184  16.812 -0.6473  0.0879 -0.2398
  221MPD1    C5 3411   2.721   1.262  16.825 -0.3835  0.2487 -0.0357
  221MPD1     H 3412   2.695   0.943  16.626  2.0670 -1.3864  1.5589
  221MPD1    H1 3413   2.937   1.219  16.845 -0.4774 -0.4213 -0.1961
  221MPD1    H2 3414   2.526   1.301  16.753  1.5717  2.5627  0.3030
  221MPD1    H3 3415   2.723   1.347  16.892  0.5402  0.5731 -0.4718
  221MPD1     N 3416   2.946   1.000  16.714 -0.4069  0.0696  0.0383
  221MPD1    H5 3417   3.016   0.997  16.788 -0.6313 -0.9983  0.2069
  221MPD1    N1 3418   2.481   1.091  16.605  0.3602 -0.7947  0.1676
  221MPD1    H6 3419   2.467   0.992  16.586  1.6669 -0.8156 -0.6956
  221MPD1    H7 3420   2.402   1.146  16.637  0.6376  0.7388 -1.7965
  222MPD1     C 3421   2.503   3.702   0.158  0.0999 -0.2249  0.3747
  222MPD1    C1 3422   2.403   3.793   0.126 -0.5762  0.0634 -0.1822
  222MPD1    C2 3423   2.414   3.918   0.180  0.5114  0.6743  0.4560
  222MPD1    C3 3424   2.501   3.946   0.286 -0.2225 -0.2271 -0.8894
  222MPD1    C4 3425   2.595   3.850   0.317  0.3674 -1.3311 -0.6935
  222MPD1    C5 3426   2.601   3.728   0.252  0.4347  0.5393  0.6858
  222MPD1     H 3427   2.345   3.993   0.142  1.5995  0.6347 -1.5982
  222MPD1    H1 3428   2.660   3.864   0.403 -1.9529 -0.5273  0.9460
  222MPD1    H2 3429   2.498   3.603   0.114 -1.2980  0.3998 -0.8937
  222MPD1    H3 3430   2.677   3.656   0.279 -0.7761 -0.4351  1.4874
  222MPD1     N 3431   2.513   4.075   0.339 -0.0152  0.6323 -0.3348
  222MPD1    H5 3432   2.599   4.087   0.393 -1.0937  2.3309  0.9839
  222MPD1    N1 3433   2.331   3.771   0.012  0.1079 -0.0272 -0.3009
  222MPD1    H6 3434   2.241   3.820   0.014 -0.0388 -0.3476  1.2067
  222MPD1    H7 3435   2.299   3.675  17.744 -0.6963  0.2389 -0.3374
  223MPD1     C 3436   3.143   4.570   0.894 -0.3680 -1.2919 -0.3338
  223MPD1    C1 3437   3.032   4.644   0.889  0.3279  0.2201 -0.0502
  223MPD1    C2 3438   2.929   4.617   0.802  0.1128 -0.1431 -0.3487
  223MPD1    C3 3439   2.941   4.536   0.695  0.2591  0.2049  0.1977
  223MPD1    C4 3440   3.063   4.472   0.688  0.1309  0.0286  0.0102
  223MPD1    C5 3441   3.159   4.491   0.788  0.0736  0.2597  0.6434
  223MPD1     H 3442   2.831   4.660   0.823  0.8165  2.1417 -1.8020
  223MPD1    H1 3443   3.090   4.408   0.605 -0.8195  0.3563 -0.5524
  223MPD1    H2 3444   3.224   4.584   0.965 -1.2772  1.9596  0.0910
  223MPD1    H3 3445   3.254   4.439   0.784  0.4019  0.6908  3.0905
  223MPD1     N 3446   2.832   4.521   0.602 -0.1167 -0.2212 -0.2915
  223MPD1    H5 3447   2.748   4.571   0.632 -0.6933 -0.3373 -1.6783
  223MPD1    N1 3448   3.008   4.729   1.001 -0.3352 -0.5745  0.3634
  223MPD1    H6 3449   2.941   0.066   0.980  0.3647 -0.7551 -2.5265
  223MPD1    H7 3450   3.094   0.024   1.047 -1.0051  0.4726  0.9076
  224MPD1     C 3451   3.081   1.309   8.539 -0.2666 -0.3635  0.3206
  224MPD1    C1 3452   3.004   1.382   8.624  0.0493  0.3139  0.2887
  224MPD1    C2 3453   3.044   1.395   8.755 -0.0370  0.0166 -0.6769
  224MPD1    C3 3454   3.159   1.352   8.802  0.4714  1.0438  0.2882
  224MPD1    C4 3455   3.241   1.284   8.717 -0.1551 -0.4380 -0.7673
  224MPD1    C5 3456   3.199   1.266   8.586  0.1583 -0.0074  0.0735
  224MPD1     H 3457   2.975   1.445   8.823  1.7672 -0.9014  1.8162
  224MPD1    H1 3458   3.331   1.237   8.754 -1.0004 -1.8176 -0.4568
  224MPD1    H2 3459   3.042   1.274   8.443  0.0037  0.9464 -0.2623
  224MPD1    H3 3460   3.256   1.195   8.527  1.0900  1.9106 -1.3381
  224MPD1     N 3461   3.196   1.363   8.936 -0.1526 -1.2388  0.0922
  224MPD1    H5 3462   3.288   1.326   8.958 -0.1112  0.0607  2.1876
  224MPD1    N1 3463   2.867   1.393   8.593  0.1112  0.0290  0.0767
  224MPD1    H6 3464   2.828   1.473   8.643 -2.2148 -3.3675  3.7044
  224MPD1    H7 3465   2.857   1.406   8.492 -1.2761  1.6405  0.4314
  225MPD1     C 3466   0.436   2.588  12.024  0.3637 -0.0409 -0.2059
  225MPD1    C1 3467   0.453   2.644  12.144 -0.2957  0.2933  0.0162
  225MPD1    C2 3468   0.336   2.662  12.223 -0.2865 -0.1455 -0.0672
  225MPD1    C3 3469   0.217   2.601  12.196 -0.4635 -0.1893  0.9514
  225MPD1    C4 3470   0.209   2.528  12.081 -0.5480  0.2319 -0.3408
  225MPD1    C5 3471   0.315   2.524  11.995  0.2063 -0.0231 -0.1884
  225MPD1     H 3472   0.349   2.728  12.308  0.7332  1.4729 -1.4834
  225MPD1    H1 3473   0.123   2.465  12.062  0.3640 -2.1841  3.5373
  225MPD1    H2 3474   0.517   2.599  11.953  0.5594  1.4672  0.2462
  225MPD1    H3 3475   0.304   2.472  11.900 -0.4376 -2.4987  1.2660
  225MPD1     N 3476   0.088   2.624  12.260 -0.6135 -0.5195 -0.5203
  225MPD1    H5 3477   0.006   2.580  12.220 -1.0753  0.9690 -1.2192
  225MPD1    N1 3478   0.566   2.719  12.178  0.2310 -0.0841 -0.9920
  225MPD1    H6 3479   0.650   2.666  12.155  0.1590  0.5951 -2.7865
  225MPD1    H7 3480   0.575   2.719  12.279  1.3099 -1.8112 -1.0883
  226MPD1     C 3481   3.117   1.841   9.041  0.0699 -0.2529 -0.3820
  226MPD1    C1 3482   3.142   1.862   9.178 -0.6383  0.0397 -0.8402
  226MPD1    C2 3483   3.263   1.822   9.232  0.0710 -0.3525  0.1498
  226MPD1    C3 3484   3.348   1.742   9.159  0.6625 -0.3166 -0.2653
  226MPD1    C4 3485   3.313   1.703   9.033  0.9256  0.5500  0.8840
  226MPD1    C5 3486   3.200   1.757   8.970  0.3499 -0.0881  0.3127
  226MPD1     H 3487   3.291   1.852   9.333 -2.0558 -0.5835  0.7977
  226MPD1    H1 3488   3.377   1.637   8.975 -1.8052  0.0453 -1.5697
  226MPD1    H2 3489   3.035   1.890   8.990  1.3346  1.7773 -0.4805
  226MPD1    H3 3490   3.189   1.737   8.864  2.0190  1.1329 -0.0798
  226MPD1     N 3491   3.473   1.712   9.212  0.0306 -0.2234  0.1012
  226MPD1    H5 3492   3.491   1.748   9.305  1.1963  0.2508 -0.3112
  226MPD1    N1 3493   3.052   1.956   9.234  0.5066 -0.0257  0.5663
  226MPD1    H6 3494   3.045   1.945   9.335 -0.1329  0.8186  0.6088
  226MPD1    H7 3495   2.958   1.938   9.199  0.5386  2.7027 -0.9203
  227MPD1     C 3496   4.162   1.052   8.876  0.1549 -0.3320  0.3227
  227MPD1    C1 3497   4.029   1.048   8.890 -0.1078  0.8708 -0.3807
  227MPD1    C2 3498   3.965   1.161   8.953  0.3710  0.2928  0.6545
  227MPD1    C3 3499   4.038   1.248   9.041  0.0312 -0.3736 -0.2298
  227MPD1    C4 3500   4.171   1.227   9.051 -0.2588  0.0059  0.0797
  227MPD1    C5 3501   4.232   1.140   8.959  1.1724  0.3371  0.3598
  227MPD1     H 3502   3.859   1.183   8.958  0.3901  0.3228  0.9352
  227MPD1    H1 3503   4.239   1.275   9.120  1.2072  1.1233 -2.1661
  227MPD1    H2 3504   4.217   0.976   8.822 -0.8723  0.2142 -1.4650
  227MPD1    H3 3505   4.340   1.141   8.959  1.1904 -0.7429  2.4163
  227MPD1     N 3506   3.964   1.346   9.116 -0.3769  0.2411 -0.1036
  227MPD1    H5 3507   3.867   1.357   9.090  0.2432  3.9793 -0.8340
  227MPD1    N1 3508   3.958   0.963   8.807  0.6014  0.3911  0.0755
  227MPD1    H6 3509   3.867   0.931   8.838 -0.3534  0.6870 -2.4299
  227MPD1    H7 3510   3.999   0.870   8.795  0.2761  0.6021 -2.8042
  228MPD1     C 3511   1.894   0.817  12.673 -0.0081  0.5507  0.1059
  228MPD1    C1 3512   1.762   0.818  12.641 -0.4525  0.4931  1.3369
  228MPD1    C2 3513   1.700   0.694  12.645  0.0993  0.2430 -0.1952
  228MPD1    C3 3514   1.765   0.577  12.682 -0.6534 -0.3294  0.2812
  228MPD1    C4 3515   1.899   0.575  12.721 -0.3104  0.6049 -0.0871
  228MPD1    C5 3516   1.955   0.700  12.713 -0.0485  0.2839  0.0942
  228MPD1     H 3517   1.595   0.684  12.620  0.1822 -1.5853  0.1741
  228MPD1    H1 3518   1.961   0.490  12.748 -0.3909  0.4849 -0.2795
  228MPD1    H2 3519   1.965   0.899  12.663  0.9561 -0.3360 -0.3155
  228MPD1    H3 3520   2.057   0.707  12.750  0.1055  4.0050 -1.0890
  228MPD1     N 3521   1.691   0.460  12.660 -0.4500  0.0571 -0.3666
  228MPD1    H5 3522   1.598   0.483  12.625 -0.3832 -0.9021 -1.1878
  228MPD1    N1 3523   1.705   0.929  12.577 -0.3249 -0.2484 -0.0871
  228MPD1    H6 3524   1.603   0.927  12.579 -0.3201 -1.2325 -0.7237
  228MPD1    H7 3525   1.741   1.015  12.618 -1.0021 -0.4725  0.9796
  229MPD1     C 3526   1.948   3.827  14.324 -0.2159 -0.3304 -0.8604
  229MPD1    C1 3527   2.061   3.893  14.371 -0.3771  0.4843  0.0720
  229MPD1    C2 3528   2.137   3.815  14.464 -0.0998  0.4159  0.3399
  229MPD1    C3 3529   2.109   3.682  14.494 -0.6869 -0.4980  0.2328
  229MPD1    C4 3530   2.000   3.625  14.431 -0.2830 -0.2380 -0.4724
  229MPD1    C5 3531   1.920   3.701  14.356  0.1986 -0.1023 -0.0915
  229MPD1     H 3532   2.227   3.858  14.507 -0.4410  0.5588  0.9047
  229MPD1    H1 3533   1.977   3.524  14.463  0.6114  0.2953  1.8787
  229MPD1    H2 3534   1.886   3.874  14.248 -0.5785 -0.2552 -0.5212
  229MPD1    H3 3535   1.830   3.661  14.312  0.6010 -0.3387 -0.7005
  229MPD1     N 3536   2.174   3.619  14.597 -0.8934 -0.6797 -0.6434
  229MPD1    H5 3537   2.128   3.530  14.612  0.0654 -1.2669 -1.2391
  229MPD1    N1 3538   2.084   4.026  14.349  0.0857  0.2414 -0.0680
  229MPD1    H6 3539   2.043   4.058  14.261 -1.9622  1.3193  1.2949
  229MPD1    H7 3540   2.184   4.046  14.351  0.1594 -0.3556  2.3785
  230MPD1     C 3541   2.067   2.847  15.176  0.9939 -0.1816 -0.0568
  230MPD1    C1 3542   2.188   2.882  15.224 -0.0015 -0.1692 -0.4581
  230MPD1    C2 3543   2.249   2.985  15.160 -0.3004 -1.2311 -0.2381
  230MPD1    C3 3544   2.184   3.064  15.058 -0.4778 -1.2830 -0.6878
  230MPD1    C4 3545   2.055   3.024  15.016  0.0507  0.0786 -1.0688
  230MPD1    C5 3546   1.999   2.916  15.080  0.1107 -0.3991  0.2479
  230MPD1     H 3547   2.350   3.009  15.192 -0.4410 -0.9586  0.0051
  230MPD1    H1 3548   2.006   3.077  14.936 -2.9665  1.5960  1.7983
  230MPD1    H2 3549   2.009   2.761  15.209  1.1096 -0.6058 -0.9473
  230MPD1    H3 3550   1.899   2.888  15.049 -0.0374  1.0154 -0.5274
  230MPD1     N 3551   2.253   3.166  14.994 -0.5216 -0.1753 -0.1552
  230MPD1    H5 3552   2.349   3.189  15.018 -0.5148 -1.4120  1.0413
  230MPD1    N1 3553   2.255   2.797  15.318 -0.0189  0.6070 -0.1776
  230MPD1    H6 3554   2.195   2.737  15.374 -2.3605  3.7738  0.7315
  230MPD1    H7 3555   2.317   2.857  15.372 -1.7589  2.3071 -0.0719
  231MPD1     C 3556   0.184   0.443  15.250  0.0710  1.1044  0.3039
  231MPD1    C1 3557   0.209   0.368  15.140 -0.4196 -0.3708 -0.3339
  231MPD1    C2 3558   0.290   0.414  15.041 -0.0778 -0.5671 -0.0503
  231MPD1    C3 3559   0.365   0.528  15.066  0.2246 -0.4735  0.0156
  231MPD1    C4 3560   0.338   0.607  15.174  0.5638 -0.7080 -0.1004
  231MPD1    C5 3561   0.245   0.563  15.264 -0.6504  0.9701 -0.1849
  231MPD1     H 3562   0.297   0.366  14.944  1.8786 -1.2069  0.4151
  231MPD1    H1 3563   0.366   0.709  15.198 -0.4433 -0.4980  0.1649
  231MPD1    H2 3564   0.116   0.402  15.324 -0.7422  0.8444 -0.5877
  231MPD1    H3 3565   0.197   0.628  15.336 -1.4233  1.2034 -0.9201
  231MPD1     N 3566   0.460   0.575  14.972 -0.2454  0.1834 -0.1815
  231MPD1    H5 3567   0.473   0.529  14.883  1.8583  2.2900 -0.9848
  231MPD1    N1 3568   0.120   0.260  15.114  0.0543  0.3205 -0.2103
  231MPD1    H6 3569   0.164   0.194  15.050  1.9196  2.6260 -1.2755
  231MPD1    H7 3570   0.108   0.205  15.198  0.5228 -2.0302 -1.6790
  232MPD1     C 3571   2.289   3.373   0.273 -0.2271 -0.3064 -0.5340
  232MPD1    C1 3572   2.255   3.249   0.229  0.2926  0.4228  0.9699
  232MPD1    C2 3573   2.135   3.229   0.173 -0.2778  0.6810 -0.6225
  232MPD1    C3 3574   2.042   3.327   0.155 -0.4374 -0.3813  0.7116
  232MPD1    C4 3575   2.082   3.455   0.187 -0.2728  0.4402 -0.3327
  232MPD1    C5 3576   2.203   3.474   0.250  0.2907  0.1033  0.4165
  232MPD1     H 3577   2.092   3.133   0.145  1.8811  0.0830 -1.9004
  232MPD1    H1 3578   2.021   3.545   0.179  0.1284  0.7630  0.2388
  232MPD1    H2 3579   2.390   3.388   0.309  1.1219 -1.9469 -3.7038
  232MPD1    H3 3580   2.234   3.572   0.284  0.0604 -0.4546  2.2629
  232MPD1     N 3581   1.914   3.292   0.099  0.4066 -0.2220 -0.2536
  232MPD1    H5 3582   1.884   3.195   0.105  1.3485 -0.3977  1.7999
  232MPD1    N1 3583   2.347   3.142   0.238 -0.3270  0.1774 -0.0105
  232MPD1    H6 3584   2.299   3.053   0.248 -0.1619  0.0260 -0.5938
  232MPD1    H7 3585   2.419   3.150   0.309  0.5266 -0.5617 -0.8003
  233MPD1     C 3586   2.836   0.485   0.824 -0.0447  0.0819  0.1348
  233MPD1    C1 3587   2.952   0.430   0.878 -0.0699  0.5371 -0.3528
  233MPD1    C2 3588   3.024   0.509   0.961 -0.5940 -0.1085  0.0342
  233MPD1    C3 3589   2.970   0.629   1.008 -0.0470  0.4580 -0.3315
  233MPD1    C4 3590   2.837   0.660   0.974  0.5417  0.1054  0.6930
  233MPD1    C5 3591   2.782   0.595   0.871 -0.5722 -0.7646  0.3648
  233MPD1     H 3592   3.129   0.482   0.970 -0.3976  0.1805 -1.3192
  233MPD1    H1 3593   2.781   0.743   1.014 -0.4942  0.2978 -1.1782
  233MPD1    H2 3594   2.798   0.438   0.734 -0.3954 -4.7145  2.7734
  233MPD1    H3 3595   2.688   0.634   0.834 -0.0537  0.4645  0.3583
  233MPD1     N 3596   3.038   0.711   1.096 -0.7700 -0.8661  0.2556
  233MPD1    H5 3597   2.988   0.795   1.124 -0.8031 -0.8637  0.1891
  233MPD1    N1 3598   3.019   0.323   0.813 -0.7125 -0.6800 -0.0742
  233MPD1    H6 3599   2.950   0.256   0.779 -1.6141 -1.1397  2.7061
  233MPD1    H7 3600   3.078   0.286   0.886  0.1707  0.3561 -0.2601
  234MPD1     C 3601   4.382   0.023   9.478  0.4993  0.4141 -0.1001
  234MPD1    C1 3602   4.365   0.051   9.346 -0.2734  0.4787  0.3275
  234MPD1    C2 3603   4.314   0.177   9.315 -0.1657  0.6525 -0.2359
  234MPD1    C3 3604   4.285   0.266   9.411  0.1155 -0.2999  0.5359
  234MPD1    C4 3605   4.319   0.241   9.538  0.1148 -0.0653  0.2904
  234MPD1    C5 3606   4.370   0.118   9.570 -0.1797  0.6179 -0.0968
  234MPD1     H 3607   4.302   0.201   9.210 -3.9130  0.1791  0.0858
  234MPD1    H1 3608   4.303   0.311   9.619  1.1338  1.6691 -1.0332
  234MPD1    H2 3609   4.418   4.662   9.507  0.2439  0.2421 -0.3625
  234MPD1    H3 3610   4.386   0.092   9.675 -2.2496 -1.9490 -0.4094
  234MPD1     N 3611   4.222   0.385   9.371  0.3645  0.2572  0.1181
  234MPD1    H5 3612   4.217   0.415   9.274 -2.1872 -0.7234 -0.0440
  234MPD1    N1 3613   4.410   4.698   9.247 -0.4975 -0.2788  0.3303
  234MPD1    H6 3614   4.339   4.691   9.174 -0.6063 -0.5479  0.4595
  234MPD1    H7 3615   4.450   4.614   9.289  2.0246  0.6180 -0.3076
  235MPD1     C 3616   0.885   2.552   9.885  0.3426 -0.0136 -0.8274
  235MPD1    C1 3617   0.917   2.611   9.767 -0.4587  1.5301  0.0545
  235MPD1    C2 3618   1.003   2.717   9.763  0.1459 -0.0680  0.6109
  235MPD1    C3 3619   1.083   2.753   9.866 -0.3552 -0.3603  0.0933
  235MPD1    C4 3620   1.058   2.685   9.989 -0.3935 -0.7891  0.1090
  235MPD1    C5 3621   0.968   2.589   9.990 -0.6298 -0.1387  0.3385
  235MPD1     H 3622   1.002   2.777   9.672 -0.8323 -0.7052  0.1948
  235MPD1    H1 3623   1.093   2.723  10.084 -1.6609 -0.4857  0.4505
  235MPD1    H2 3624   0.808   2.476   9.895  1.1054 -0.5790  0.7037
  235MPD1    H3 3625   0.930   2.546  10.082 -1.3209  0.7125  0.4555
  235MPD1     N 3626   1.173   2.864   9.857  0.1590 -0.0136  0.0755
  235MPD1    H5 3627   1.171   2.922   9.774  0.7146 -1.2562 -0.8083
  235MPD1    N1 3628   0.848   2.580   9.649  0.4403  0.6221 -0.2325
  235MPD1    H6 3629   0.898   2.606   9.564  2.7584 -0.5463  0.7619
  235MPD1    H7 3630   0.838   2.479   9.641  0.1252  0.6732 -0.4776
  236MPD1     C 3631   1.139   2.777   9.408  0.1045 -0.4392  0.1977
  236MPD1    C1 3632   1.001   2.764   9.392  0.2166 -0.4749  0.4851
  236MPD1    C2 3633   0.914   2.866   9.418  0.6702  0.3908 -0.3169
  236MPD1    C3 3634   0.962   2.987   9.475 -0.4011 -0.6182 -0.5654
  236MPD1    C4 3635   1.101   3.008   9.474  0.2011 -0.1215  0.6676
  236MPD1    C5 3636   1.191   2.900   9.444  0.9781  0.4661  0.2638
  236MPD1     H 3637   0.808   2.851   9.402  1.0159  0.1475 -2.3364
  236MPD1    H1 3638   1.142   3.094   9.525  2.9424 -0.2047 -1.3731
  236MPD1    H2 3639   1.214   2.702   9.387 -0.0057 -0.6071  0.3986
  236MPD1    H3 3640   1.298   2.915   9.453  1.1003 -0.7031  0.7425
  236MPD1     N 3641   0.872   3.079   9.546 -0.2848  0.0090  0.2989
  236MPD1    H5 3642   0.913   3.168   9.572  0.6776 -0.4323  0.2905
  236MPD1    N1 3643   0.954   2.643   9.355  0.4011 -0.4398 -0.2012
  236MPD1    H6 3644   1.015   2.594   9.289  0.4566 -0.5831 -0.0443
  236MPD1    H7 3645   0.860   2.646   9.318  1.1042 -1.2338 -2.0876
  237MPD1     C 3646   1.048   1.880  15.204 -0.3808  0.0140 -0.4798
  237MPD1    C1 3647   0.967   1.990  15.216  0.1667 -0.0671 -0.3423
  237MPD1    C2 3648   0.826   1.972  15.207  0.2945  0.0468 -0.3015
  237MPD1    C3 3649   0.775   1.844  15.186 -0.1379 -0.1737 -0.1743
  237MPD1    C4 3650   0.861   1.734  15.173  0.7716 -0.2230  0.0974
  237MPD1    C5 3651   0.997   1.755  15.186  0.0651 -0.4383  0.4788
  237MPD1     H 3652   0.763   2.058  15.225 -0.6974 -0.7573  0.0848
  237MPD1    H1 3653   0.823   1.634  15.156 -3.4999  1.8632 -2.9028
  237MPD1    H2 3654   1.155   1.892  15.202 -0.2907  0.0124  4.1143
  237MPD1    H3 3655   1.066   1.673  15.169 -0.9499 -1.1338 -0.3966
  237MPD1     N 3656   0.629   1.825  15.173  0.2518 -0.3105  0.8210
  237MPD1    H5 3657   0.596   1.729  15.168 -0.9841  0.1108  0.7727
  237MPD1    N1 3658   1.013   2.122  15.238 -0.5799  0.1547  0.4129
  237MPD1    H6 3659   1.110   2.128  15.267 -0.1741 -1.5614 -0.5822
  237MPD1    H7 3660   0.959   2.171  15.308 -2.2443 -0.0771 -0.7085
  238MPD1     C 3661   2.202   0.374  15.250 -0.2973  1.1745 -0.1366
  238MPD1    C1 3662   2.106   0.285  15.297  0.5994 -0.4434 -0.3883
  238MPD1    C2 3663   1.980   0.265  15.225  0.1671 -0.2152 -0.7726
  238MPD1    C3 3664   1.967   0.322  15.098  0.1300  0.3157 -0.4339
  238MPD1    C4 3665   2.066   0.409  15.056  0.5196  0.4940 -0.0573
  238MPD1    C5 3666   2.175   0.444  15.136  0.0450  0.5558  0.3673
  238MPD1     H 3667   1.922   0.180  15.261  2.5084 -1.7249 -0.5628
  238MPD1    H1 3668   2.050   0.456  14.960 -0.3815  0.8927  0.2894
  238MPD1    H2 3669   2.298   0.382  15.298  0.1133 -2.0007 -0.3833
  238MPD1    H3 3670   2.252   0.500  15.083 -0.7266  0.6373 -0.6622
  238MPD1     N 3671   1.857   0.302  15.022 -0.0917 -0.0169  0.7244
  238MPD1    H5 3672   1.847   0.362  14.940  1.5274  2.2349  2.1783
  238MPD1    N1 3673   2.123   0.221  15.421 -0.6144  0.5378  0.0401
  238MPD1    H6 3674   2.219   0.193  15.440 -0.8590  0.0587  0.5697
  238MPD1    H7 3675   2.062   0.142  15.440  1.0289 -0.5937  0.6782
  239MPD1     C 3676   2.606   1.568  14.074  0.5440  0.2079 -0.6365
  239MPD1    C1 3677   2.549   1.628  14.181  0.3328 -0.7029  0.2386
  239MPD1    C2 3678   2.422   1.673  14.154  0.6255  0.0767 -0.0114
  239MPD1    C3 3679   2.349   1.638  14.040 -0.3990 -0.5443  0.2682
  239MPD1    C4 3680   2.411   1.576  13.941  0.9722  0.2591 -0.3258
  239MPD1    C5 3681   2.538   1.531  13.962 -0.2081  0.1388  0.4460
  239MPD1     H 3682   2.370   1.731  14.230 -0.3286 -3.7385  2.2008
  239MPD1    H1 3683   2.364   1.552  13.847  0.6117 -0.4974  0.0517
  239MPD1    H2 3684   2.712   1.548  14.080  0.8574  1.9512 -0.4428
  239MPD1    H3 3685   2.594   1.476  13.887 -1.2541 -0.3180 -0.0082
  239MPD1     N 3686   2.212   1.667  14.030 -0.0134  0.1698  0.1035
  239MPD1    H5 3687   2.171   1.617  13.952 -4.1555  0.2067  2.2195
  239MPD1    N1 3688   2.629   1.686  14.281  0.8387 -0.2091 -0.6638
  239MPD1    H6 3689   2.691   1.617  14.321 -0.2435 -1.8831 -1.9025
  239MPD1    H7 3690   2.569   1.707  14.361  1.9544 -1.4445  0.5027
  240MPD1     C 3691   1.533   1.193  13.706 -0.5932 -0.0327 -0.4585
  240MPD1    C1 3692   1.407   1.182  13.765  0.5458  0.0210 -0.1697
  240MPD1    C2 3693   1.399   1.103  13.879  0.6158 -0.1526  0.7012
  240MPD1    C3 3694   1.513   1.030  13.920  0.0175 -0.0314 -0.2905
  240MPD1    C4 3695   1.633   1.059  13.860 -0.4979  0.5346 -0.1718
  240MPD1    C5 3696   1.646   1.124  13.745  0.6257 -0.4302  0.0459
  240MPD1     H 3697   1.302   1.097  13.925  0.9411 -1.2536  1.2623
  240MPD1    H1 3698   1.729   1.016  13.886 -0.6967 -0.0288 -0.3683
  240MPD1    H2 3699   1.535   1.253  13.615  0.1356  1.3732  0.4953
  240MPD1    H3 3700   1.745   1.142  13.704  0.0099 -0.3334 -1.3955
  240MPD1     N 3701   1.498   0.944  14.035 -0.8520 -0.3745  0.0048
  240MPD1    H5 3702   1.405   0.942  14.075 -1.2492 -2.1263 -1.0168
  240MPD1    N1 3703   1.300   1.198  13.681  0.4028 -0.7308 -0.1944
  240MPD1    H6 3704   1.326   1.252  13.599  0.3298  0.6518  0.6844
  240MPD1    H7 3705   1.209   1.215  13.723  0.2718 -2.2789  0.1401
  241MPD1     C 3706   2.121   0.758  14.809 -0.8983 -0.2932  0.0113
  241MPD1    C1 3707   1.996   0.761  14.862 -0.4752  0.0243 -0.3810
  241MPD1    C2 3708   1.891   0.780  14.776 -0.5469 -0.2883  0.2712
  241MPD1    C3 3709   1.909   0.741  14.640  0.3698  0.3270  0.2170
  241MPD1    C4 3710   2.033   0.715  14.589 -0.3293  0.4072 -0.3705
  241MPD1    C5 3711   2.143   0.725  14.673 -0.0345 -0.0255 -0.2462
  241MPD1     H 3712   1.791   0.799  14.812 -1.3251  0.5894 -2.3975
  241MPD1    H1 3713   2.052   0.676  14.490  1.0498  0.1819 -0.0144
  241MPD1    H2 3714   2.206   0.760  14.877  1.2118 -1.3212 -2.5804
  241MPD1    H3 3715   2.241   0.720  14.629 -0.0471  2.4255 -0.5231
  241MPD1     N 3716   1.810   0.733  14.543  0.1484 -0.4302  0.0180
  241MPD1    H5 3717   1.836   0.725  14.445 -2.1192  1.9887 -0.7832
  241MPD1    N1 3718   1.976   0.785  14.999 -0.1446 -0.5548  0.0157
  241MPD1    H6 3719   1.886   0.748  15.028 -1.2587  0.8977 -1.6409
  241MPD1    H7 3720   2.053   0.745  15.054  1.6470  2.1588 -0.5031
  242MPD1     C 3721   1.046   4.494  15.631 -0.1237 -0.7027 -0.3933
  242MPD1    C1 3722   1.100   4.402  15.715  0.2778  0.1840 -0.9463
  242MPD1    C2 3723   1.106   4.266  15.675 -0.3187 -0.2288 -0.8370
  242MPD1    C3 3724   1.072   4.234  15.548  0.1741 -0.4256  0.5565
  242MPD1    C4 3725   1.037   4.336  15.457  0.7121 -0.1093  0.0497
  242MPD1    C5 3726   1.018   4.462  15.500 -1.1416 -0.5905 -0.3140
  242MPD1     H 3727   1.121   4.191  15.751 -2.6231 -0.6178 -0.7626
  242MPD1    H1 3728   1.010   4.315  15.354 -0.4508 -0.3873  0.4175
  242MPD1    H2 3729   1.020   4.595  15.659 -0.8314 -1.4964  1.7804
  242MPD1    H3 3730   0.976   4.532  15.429  0.5887  0.8405  0.0616
  242MPD1     N 3731   1.083   4.111  15.481  0.0576  0.3022 -0.3862
  242MPD1    H5 3732   1.086   4.111  15.380  2.0919 -0.3838 -0.3188
  242MPD1    N1 3733   1.127   4.434  15.849  0.1591  0.5441  0.1288
  242MPD1    H6 3734   1.196   4.370  15.888 -1.2816 -2.1594 -1.7292
  242MPD1    H7 3735   1.148   4.532  15.863 -0.4333  0.9042 -1.4765
  243MPD1     C 3736   2.859   2.727  17.444  0.7324 -0.5771 -0.3905
  243MPD1    C1 3737   2.832   2.703  17.315 -0.3027 -0.3488 -0.5686
  243MPD1    C2 3738   2.907   2.600  17.260  0.5911  0.2372  0.1052
  243MPD1    C3 3739   2.985   2.513  17.336 -0.5576  0.2485 -0.5592
  243MPD1    C4 3740   2.990   2.530  17.474  0.1928 -0.7761  0.2829
  243MPD1    C5 3741   2.930   2.643  17.522  0.4717 -0.3214 -0.4891
  243MPD1     H 3742   2.909   2.593  17.152 -2.0136 -0.8355  0.1205
  243MPD1    H1 3743   3.043   2.458  17.534 -0.0723  0.2156  1.7237
  243MPD1    H2 3744   2.820   2.814  17.496  0.7288  0.4249 -2.0450
  243MPD1    H3 3745   2.942   2.670  17.626 -2.4168 -0.5544 -0.0966
  243MPD1     N 3746   3.056   2.413  17.271 -0.2083  0.2149  0.1965
  243MPD1    H5 3747   3.025   2.393  17.176  0.9542 -1.3299  0.1487
  243MPD1    N1 3748   2.772   2.799  17.234  0.7648 -0.0098  0.1718
  243MPD1    H6 3749   2.723   2.757  17.155  3.2636  1.6305 -2.2292
  243MPD1    H7 3750   2.693   2.836  17.288  0.8575 -0.5102  0.6515
  244MPD1     C 3751   3.755   1.693  17.517 -0.2369 -0.5954  0.2286
  244MPD1    C1 3752   3.771   1.826  17.532  0.3673 -0.0949  0.2710
  244MPD1    C2 3753   3.687   1.916  17.467  0.1662  0.4982 -0.4533
  244MPD1    C3 3754   3.579   1.863  17.395 -0.5933  0.1031  0.8086
  244MPD1    C4 3755   3.553   1.730  17.393  0.0085  0.0489 -0.9277
  244MPD1    C5 3756   3.639   1.645  17.458  0.6554  0.3103  0.5672
  244MPD1     H 3757   3.716   2.020  17.462  1.0670  0.2140 -1.1835
  244MPD1    H1 3758   3.457   1.691  17.360 -0.9563 -0.2697  2.2345
  244MPD1    H2 3759   3.825   1.629  17.568 -0.2651 -0.9031 -0.1138
  244MPD1    H3 3760   3.621   1.538  17.459 -2.2903  0.7970 -0.0819
  244MPD1     N 3761   3.500   1.957  17.322 -0.8789  0.1237 -0.5230
  244MPD1    H5 3762   3.528   2.055  17.324  0.1619 -0.1905  0.3006
  244MPD1    N1 3763   3.890   1.867  17.576 -0.1444 -0.7860 -0.0801
  244MPD1    H6 3764   3.889   1.962  17.613 -0.6648 -1.2329  1.0384
  244MPD1    H7 3765   3.930   1.809  17.649 -2.2650 -1.3154  0.6495
  245MPD1     C 3766   0.101   3.037  12.659 -0.1382  0.0875 -0.6203
  245MPD1    C1 3767   0.203   3.080  12.739  0.3847  0.7206  0.5387
  245MPD1    C2 3768   0.191   3.196  12.814 -0.6371  0.0372  0.1665
  245MPD1    C3 3769   0.081   3.281  12.805 -0.1596  0.0200 -0.3273
  245MPD1    C4 3770   4.716   3.229  12.724  0.0248 -0.3686 -0.1719
  245MPD1    C5 3771   4.728   3.118  12.650 -0.1934  0.3753 -0.7340
  245MPD1     H 3772   0.273   3.231  12.876 -0.2508 -1.4934  0.5116
  245MPD1    H1 3773   4.621   3.279  12.708  1.3433  1.5129 -2.1753
  245MPD1    H2 3774   0.098   2.942  12.606  0.3242 -1.1749  1.6192
  245MPD1    H3 3775   4.641   3.097  12.590  0.2733 -0.3357 -1.1652
  245MPD1     N 3776   0.088   3.406  12.874 -0.3190  0.1289  0.1501
  245MPD1    H5 3777   0.174   3.424  12.925 -1.1339 -0.2327  1.6842
  245MPD1    N1 3778   0.315   3.001  12.766  1.2007  0.2641  0.1374
  245MPD1    H6 3779   0.393   3.062  12.791  3.0550 -2.9239  2.0956
  245MPD1    H7 3780   0.346   2.955  12.681 -0.8128 -0.7146 -0.0557
  246MPD1     C 3781   2.206   4.557   9.798  0.1825 -0.8101 -0.0934
  246MPD1    C1 3782   2.143   4.475   9.706  0.9542  0.1225 -0.0763
  246MPD1    C2 3783   2.079   4.543   9.600 -0.7394 -0.1391 -0.4389
  246MPD1    C3 3784   2.088   4.677   9.586  0.5474  0.2094  0.0384
  246MPD1    C4 3785   2.174   0.020   9.664 -0.1727  1.1352 -0.2839
  246MPD1    C5 3786   2.233   4.688   9.766  0.0419  0.2177  0.8696
  246MPD1     H 3787   2.020   4.481   9.533 -0.0414  0.5344 -1.6731
  246MPD1    H1 3788   2.174   0.128   9.663 -3.0903  1.1299 -0.6161
  246MPD1    H2 3789   2.239   4.519   9.894 -3.7723 -0.3118  1.4472
  246MPD1    H3 3790   2.278   4.736   9.852  4.9913 -0.2731 -1.4927
  246MPD1     N 3791   2.008   4.727   9.487  0.9553 -0.0791  0.2390
  246MPD1    H5 3792   1.944   4.665   9.439  1.1752 -0.9861  1.1247
  246MPD1    N1 3793   2.113   4.344   9.733 -0.2158 -0.1156 -0.2438
  246MPD1    H6 3794   2.173   4.291   9.796 -1.0494 -0.6492  0.1020
  246MPD1    H7 3795   2.113   4.291   9.646  1.8081  0.2337 -0.4670
  247MPD1     C 3796   3.782   3.033  16.729  0.0869 -0.4937 -0.5961
  247MPD1    C1 3797   3.647   3.046  16.705  0.2203  0.5950  0.5786
  247MPD1    C2 3798   3.598   3.039  16.576  0.3818  0.5967  0.3007
  247MPD1    C3 3799   3.678   3.032  16.465  0.0383  0.2212  0.5076
  247MPD1    C4 3800   3.817   3.044  16.489  0.9142  0.7626 -0.7288
  247MPD1    C5 3801   3.859   3.034  16.621  0.1289  0.0672  0.0794
  247MPD1     H 3802   3.492   3.020  16.565  0.4054  1.1163 -0.8422
  247MPD1    H1 3803   3.891   3.042  16.410 -0.5132 -4.4090 -1.9378
  247MPD1    H2 3804   3.819   3.032  16.831 -0.6172 -3.1411 -0.3782
  247MPD1    H3 3805   3.962   3.019  16.650  0.0734 -0.8373 -0.1776
  247MPD1     N 3806   3.639   3.027  16.326  0.4972 -0.1433 -0.2621
  247MPD1    H5 3807   3.714   3.044  16.259  1.4461 -2.0785  0.3260
  247MPD1    N1 3808   3.559   3.069  16.810  0.3735 -0.4868 -0.4675
  247MPD1    H6 3809   3.460   3.058  16.788  1.1460 -3.9358 -2.3254
  247MPD1    H7 3810   3.588   3.005  16.884 -1.7984 -1.3272 -0.3473
  248MPD1     C 3811   0.449   2.550   0.339 -0.1990 -0.2224  0.0659
  248MPD1    C1 3812   0.365   2.650   0.380 -0.1135 -0.2994  0.1427
  248MPD1    C2 3813   0.381   2.697   0.513 -0.0514  0.6256 -0.2907
  248MPD1    C3 3814   0.471   2.635   0.599 -0.9528  0.3479 -0.2717
  248MPD1    C4 3815   0.537   2.521   0.555  0.2322  0.2363 -0.0804
  248MPD1    C5 3816   0.532   2.486   0.422 -0.4519  0.2495 -0.0848
  248MPD1     H 3817   0.320   2.782   0.540 -1.2316 -1.6423  4.2106
  248MPD1    H1 3818   0.616   2.480   0.617  1.3366 -0.1604 -1.7396
  248MPD1    H2 3819   0.443   2.505   0.241  0.5474  1.6770 -0.8556
  248MPD1    H3 3820   0.589   2.401   0.387 -1.4482 -1.7171  3.0376
  248MPD1     N 3821   0.481   2.685   0.728  0.1193  0.3125  0.3496
  248MPD1    H5 3822   0.417   2.757   0.760 -1.3915  0.0516 -2.0693
  248MPD1    N1 3823   0.285   2.721   0.285 -0.4247 -0.2158 -0.2077
  248MPD1    H6 3824   0.200   2.736   0.339 -0.4185 -0.5722 -0.1002
  248MPD1    H7 3825   0.264   2.655   0.210 -0.4976  0.8180 -1.0942
  249MPD1     C 3826   1.603   2.209   9.554  0.0957  0.1126  0.4363
  249MPD1    C1 3827   1.588   2.236   9.687 -0.4118 -0.9725  0.3963
  249MPD1    C2 3828   1.663   2.338   9.738  0.0836 -0.0805 -0.1697
  249MPD1    C3 3829   1.750   2.417   9.655  1.2276 -0.0905  0.2682
  249MPD1    C4 3830   1.780   2.365   9.528 -0.2301  0.5397 -0.1864
  249MPD1    C5 3831   1.693   2.270   9.478 -0.2046 -0.2256  0.3052
  249MPD1     H 3832   1.653   2.368   9.842  1.5574  0.5736 -0.2241
  249MPD1    H1 3833   1.858   2.409   9.468 -0.4197 -1.2158 -1.7222
  249MPD1    H2 3834   1.550   2.127   9.507  0.8818 -0.3261  0.3068
  249MPD1    H3 3835   1.702   2.233   9.377 -0.4690  0.3877  0.0561
  249MPD1     N 3836   1.839   2.517   9.714  0.8833  0.1160 -0.3127
  249MPD1    H5 3837   1.831   2.533   9.813  1.8854 -2.7071  0.2186
  249MPD1    N1 3838   1.487   2.177   9.767  0.0514 -0.0774  0.0210
  249MPD1    H6 3839   1.455   2.085   9.741 -1.0619  0.6095 -1.0329
  249MPD1    H7 3840   1.506   2.187   9.867  1.3124  1.0184 -0.3325
  250MPD2     C 3841   3.136   1.754  12.521 -0.0836  0.4575 -0.3522
  250MPD2    C1 3842   3.004   1.798  12.503  0.0553 -0.4948 -0.4036
  250MPD2    C2 3843   2.927   1.750  12.389 -0.0978 -0.2241 -0.1005
  250MPD2    C3 3844   2.980   1.656  12.302  0.0596 -0.4523 -0.1880
  250MPD2    C4 3845   3.112   1.618  12.322  0.2581  0.5241  0.1712
  250MPD2    C5 3846   3.186   1.669  12.423 -0.0173  0.5047 -0.3765
  250MPD2     H 3847   2.823   1.780  12.388 -0.1726 -0.4350  1.5725
  250MPD2    H1 3848   3.161   1.546  12.258 -1.1300  1.0924 -1.5335
  250MPD2    H2 3849   3.208   1.796  12.589  0.1175 -0.5527  0.0647
  250MPD2    H3 3850   3.291   1.642  12.428 -1.0687 -3.0109  2.8419
  250MPD2     N 3851   2.901   1.583  12.213  0.0459 -0.7322  0.5614
  250MPD2    H5 3852   2.939   1.507  12.159 -0.2901 -0.8575  0.5008
  250MPD2    N1 3853   2.946   1.877  12.603  0.2821 -0.7034 -0.5678
  250MPD2    H7 3854   2.991   1.880  12.694  0.7732 -1.2463 -0.7987
  251TMC3    C1 3855   2.774   2.008  12.722 -0.6580 -0.4321 -0.0440
  251TMC3    C2 3856   2.849   2.006  12.840  0.1388  0.2173  0.2385
  251TMC3    C3 3857   2.813   2.092  12.945  1.0383  0.0469 -1.1723
  251TMC3    C4 3858   2.664   2.086  12.710 -0.5226  0.1771  0.1227
  251TMC3    C5 3859   2.638   2.175  12.811  0.3911 -0.2184  0.4178
  251TMC3    C6 3860   2.701   2.174  12.934 -0.2779 -0.5140 -0.4243
  251TMC3     C 3861   2.828   1.947  12.591 -0.1115 -1.0809 -0.4405
  251TMC3     O 3862   2.753   1.964  12.493  0.2887  0.8251  0.1123
  251TMC3     H 3863   2.938   1.944  12.841  1.2010  1.6885 -2.5337
  251TMC3    H1 3864   2.599   2.091  12.623  1.4608  2.1987 -1.2350
  251TMC3    H2 3865   2.678   2.258  12.999  0.9018  0.0239 -0.6945
  251TMC3    C7 3866   2.545   2.278  12.771 -0.7714 -0.4015 -0.2435
  251TMC3    C8 3867   2.917   2.133  13.038 -0.4389  0.1283 -0.0995
  251TMC3    O1 3868   2.436   2.231  12.739 -0.4925 -0.4543  0.2452
  251TMC3    O2 3869   2.884   2.233  13.103 -0.0620 -0.6320  0.4271
  252TMC3    C1 3870   3.660   4.174   9.045 -0.5776  0.0287  0.0256
  252TMC3    C2 3871   3.764   4.193   9.131 -0.8021 -1.1282  0.3866
  252TMC3    C3 3872   3.765   4.104   9.235  0.2162  0.0440  0.4547
  252TMC3    C4 3873   3.569   4.080   9.062  0.3858  0.1911 -0.4796
  252TMC3    C5 3874   3.576   3.986   9.160  0.3957 -0.2986  0.0383
  252TMC3    C6 3875   3.673   3.996   9.256  0.2517 -0.0471  0.0228
  252TMC3     C 3876   3.634   4.285   8.949  0.8373 -0.0014  0.0396
  252TMC3     O 3877   3.736   4.348   8.925  0.0011  0.3830 -0.2511
  252TMC3     H 3878   3.841   4.268   9.112  0.4759 -2.6068 -0.2853
  252TMC3    H1 3879   3.492   4.078   8.985 -1.6415 -1.0130  1.5821
  252TMC3    H2 3880   3.665   3.943   9.351 -1.7436  0.7778  0.3208
  252TMC3    C7 3881   3.457   3.893   9.176  0.1698  0.7025  0.4585
  252TMC3    C8 3882   3.831   4.148   9.357  0.0131 -0.6506  0.3766
  252TMC3    O1 3883   3.346   3.939   9.146  0.3121  0.2283  0.4843
  252TMC3    O2 3884   3.838   4.274   9.369 -0.1393  0.0477 -0.4749
  253MPD2     C 3885   0.084   1.977  15.651 -0.3255 -0.0897 -0.4986
  253MPD2    C1 3886   4.690   1.937  15.629 -0.6738  0.7229  0.2872
  253MPD2    C2 3887   4.606   1.891  15.727  0.9192  0.0090  0.0973
  253MPD2    C3 3888   4.651   1.890  15.859  0.3255  0.1346 -0.0929
  253MPD2    C4 3889   0.046   1.914  15.877 -1.1348  0.4777  0.0536
  253MPD2    C5 3890   0.122   1.970  15.786 -0.0554 -0.4730 -0.6452
  253MPD2     H 3891   4.507   1.855  15.702  1.8442 -2.2583 -0.2897
  253MPD2    H1 3892   0.096   1.909  15.973  0.6993  1.1734 -0.8608
  253MPD2    H2 3893   0.143   2.035  15.581  0.6581  0.8330  1.1258
  253MPD2    H3 3894   0.223   1.996  15.814 -0.9306  1.8408  0.3344
  253MPD2     N 3895   4.572   1.849  15.967 -0.4322 -0.3226 -0.3300
  253MPD2    H5 3896   4.621   1.818  16.051  0.6393  0.7306 -0.5695
  253MPD2    N1 3897   4.624   1.953  15.501 -0.4820  0.4371 -0.5435
  253MPD2    H7 3898   4.526   1.930  15.493 -0.9535  1.9853  0.9285
  254TMC3    C1 3899   4.368   1.810  16.096 -0.0315  0.3742  0.0923
  254TMC3    C2 3900   4.230   1.832  16.091  0.0414 -0.3828  0.5724
  254TMC3    C3 3901   4.154   1.826  16.210  0.2553  0.3849  0.6837
  254TMC3    C4 3902   4.434   1.776  16.218  0.3941  0.4623  0.2823
  254TMC3    C5 3903   4.348   1.765  16.327 -0.1025  1.5225 -0.2362
  254TMC3    C6 3904   4.213   1.787  16.327  0.2405  0.2704  0.2721
  254TMC3     C 3905   4.437   1.829  15.965  0.4754 -0.4555 -0.0195
  254TMC3     O 3906   4.362   1.855  15.869 -0.4972  0.1022 -0.6141
  254TMC3     H 3907   4.187   1.870  15.998  2.7376 -2.4469 -1.5067
  254TMC3    H1 3908   4.540   1.754  16.222  0.5370  1.3546  1.6325
  254TMC3    H2 3909   4.148   1.757  16.408  1.3096  0.4444  1.2020
  254TMC3    C7 3910   4.405   1.718  16.457  0.1569 -0.4212  0.0677
  254TMC3    C8 3911   4.032   1.899  16.208  0.0633 -0.4642  0.3617
  254TMC3    O1 3912   4.322   1.700  16.541  0.3782  0.6024 -0.7212
  254TMC3    O2 3913   4.005   1.944  16.322 -0.2922  0.6161  0.4745
  255MPD2     C 3914   2.575   0.917  10.061  0.4377  0.6392  1.0629
  255MPD2    C1 3915   2.528   1.010   9.974 -0.0600 -0.1595 -0.1699
  255MPD2    C2 3916   2.556   1.004   9.841 -0.7607  0.2112 -0.1528
  255MPD2    C3 3917   2.643   0.903   9.791 -0.5079  0.3959 -0.2942
  255MPD2    C4 3918   2.687   0.806   9.882  0.0509  0.6603 -0.1222
  255MPD2    C5 3919   2.656   0.815  10.013 -0.4198 -0.5539 -0.3521
  255MPD2     H 3920   2.524   1.085   9.776 -1.2663 -1.7315 -2.3307
  255MPD2    H1 3921   2.769   0.740   9.859  1.6011  1.5841  2.6829
  255MPD2    H2 3922   2.556   0.928  10.167  0.8340 -2.3987  1.4543
  255MPD2    H3 3923   2.704   0.752  10.086  0.4106 -0.9761 -1.2721
  255MPD2     N 3924   2.675   0.899   9.651 -0.0105 -0.4481 -0.1771
  255MPD2    H5 3925   2.646   0.984   9.604  1.3511  2.0762  3.5277
  255MPD2    N1 3926   2.425   1.089  10.028 -0.4034  0.1037  0.0444
  255MPD2    H7 3927   2.418   1.082  10.129 -1.3963 -1.8379 -0.1492
  256TMC3    C1 3928   2.253   1.261  10.047 -0.2291 -0.6115 -0.2043
  256TMC3    C2 3929   2.178   1.334   9.956  0.3240  0.3559 -0.4566
  256TMC3    C3 3930   2.042   1.315   9.961  0.8505  0.1731  0.8655
  256TMC3    C4 3931   2.204   1.174  10.140 -0.2187  0.3991  0.6582
  256TMC3    C5 3932   2.073   1.165  10.148 -0.2761  0.1665  1.0207
  256TMC3    C6 3933   1.989   1.233  10.059 -0.0456 -0.0157 -0.3886
  256TMC3     C 3934   2.372   1.205   9.972 -0.2645  0.6201 -0.5026
  256TMC3     O 3935   2.408   1.257   9.870 -0.4008 -0.0706 -0.5408
  256TMC3     H 3936   2.217   1.407   9.886 -2.6163  0.8902 -1.5527
  256TMC3    H1 3937   2.259   1.116  10.214  2.8089  1.7351 -0.5445
  256TMC3    H2 3938   1.883   1.210  10.059 -0.2682  0.9941 -0.7723
  256TMC3    C7 3939   2.014   1.033  10.197 -0.0479  0.0412  0.0033
  256TMC3    C8 3940   1.962   1.337   9.840 -1.2728 -0.1060 -0.5115
  256TMC3    O1 3941   1.923   0.982  10.134 -0.1278  0.4691  0.3280
  256TMC3    O2 3942   1.840   1.322   9.835  0.1962 -0.2578  0.1209
  257MPD2     C 3943   1.386   1.667  12.857 -0.4376  0.1131  0.1962
  257MPD2    C1 3944   1.513   1.639  12.805 -0.0808 -0.0084  0.3357
  257MPD2    C2 3945   1.596   1.541  12.863 -0.2466  0.1140 -0.0108
  257MPD2    C3 3946   1.541   1.467  12.966  0.1489  0.5368 -0.0310
  257MPD2    C4 3947   1.408   1.483  13.005  0.2463 -0.0941  0.7221
  257MPD2    C5 3948   1.334   1.588  12.954  0.5062 -0.0792 -0.2422
  257MPD2     H 3949   1.694   1.524  12.821  0.7259 -2.4025  3.3533
  257MPD2    H1 3950   1.368   1.411  13.075 -1.1791 -0.3339 -0.3396
  257MPD2    H2 3951   1.323   1.742  12.812  0.8612 -0.0977 -1.9824
  257MPD2    H3 3952   1.243   1.602  13.011  0.7908  1.2996 -0.1452
  257MPD2     N 3953   1.630   1.373  13.019  0.0536 -0.3042 -0.1537
  257MPD2    H5 3954   1.730   1.383  13.010  0.0473 -0.8228 -0.7772
  257MPD2    N1 3955   1.565   1.716  12.699 -0.5756 -0.7916  0.2849
  257MPD2    H7 3956   1.499   1.788  12.673  1.5755  1.0311 -0.0857
  258TMC3    C1 3957   1.709   1.171  13.118 -0.5798 -0.0713 -0.4639
  258TMC3    C2 3958   1.819   1.191  13.043 -0.6668  0.7038 -0.3610
  258TMC3    C3 3959   1.938   1.151  13.086  0.4616 -0.2166  0.3345
  258TMC3    C4 3960   1.706   1.099  13.229  0.7040  0.2190  0.0095
  258TMC3    C5 3961   1.831   1.072  13.280  0.8049 -0.0767  0.2447
  258TMC3    C6 3962   1.948   1.095  13.211 -0.4565  0.3760 -0.1671
  258TMC3     C 3963   1.602   1.263  13.097  0.4870 -0.4359  0.2087
  258TMC3     O 3964   1.495   1.232  13.150 -0.1355 -0.1774  0.2437
  258TMC3     H 3965   1.799   1.228  12.943 -0.1767  0.1827 -0.6492
  258TMC3    H1 3966   1.627   1.117  13.301  0.0608  0.5270 -0.7747
  258TMC3    H2 3967   2.037   1.040  13.240 -0.9215  0.5213  1.5429
  258TMC3    C7 3968   1.836   1.039  13.415  0.3255 -0.1609  0.6165
  258TMC3    C8 3969   2.048   1.216  13.025 -0.2303 -0.4608 -0.2400
  258TMC3    O1 3970   1.737   0.982  13.462  0.0503 -0.0080 -0.2050
  258TMC3    O2 3971   2.042   1.218  12.903  0.4815  0.3000 -0.6096
  259MPD2     C 3972   1.222   3.764   0.782  0.2822  0.2972 -0.0154
  259MPD2    C1 3973   1.206   3.632   0.753 -0.2868  0.0450  0.1892
  259MPD2    C2 3974   1.105   3.587   0.685  0.8545 -0.0265 -0.6083
  259MPD2    C3 3975   1.008   3.671   0.638 -0.0516  0.6141  0.0987
  259MPD2    C4 3976   1.020   3.810   0.659  0.0156  0.4244 -0.4157
  259MPD2    C5 3977   1.124   3.851   0.735 -0.1275  0.3458 -0.5923
  259MPD2     H 3978   1.090   3.484   0.657 -0.3310 -0.5187  1.8594
  259MPD2    H1 3979   0.941   3.880   0.636  0.7386  1.6282  0.7876
  259MPD2    H2 3980   1.295   3.799   0.854  0.4137 -0.8206  0.3947
  259MPD2    H3 3981   1.110   3.952   0.774  0.5139  0.9033 -1.7962
  259MPD2     N 3982   0.898   3.604   0.584 -0.2025  0.2394 -0.2264
  259MPD2    H5 3983   0.901   3.503   0.579 -1.5200  0.1913  0.1044
  259MPD2    N1 3984   1.292   3.536   0.804 -0.1425 -0.1741 -0.2803
  259MPD2    H7 3985   1.367   3.568   0.865  0.7232 -0.6251 -1.1164
  260TMC3    C1 3986   0.706   3.571   0.447  0.2273  0.3301 -0.4789
  260TMC3    C2 3987   0.670   3.640   0.329  0.5876  0.7316  0.5286
  260TMC3    C3 3988   0.672   3.564   0.218  0.3358 -0.1318  0.6390
  260TMC3    C4 3989   0.743   3.442   0.443 -0.0413  0.0168 -0.5186
  260TMC3    C5 3990   0.735   3.371   0.329 -0.4577 -0.4378  0.2422
  260TMC3    C6 3991   0.699   3.435   0.218 -0.5686 -0.3086  0.4314
  260TMC3     C 3992   0.791   3.662   0.527  0.8014 -0.5441 -0.3489
  260TMC3     O 3993   0.779   3.783   0.508  0.0798  0.1300 -0.0510
  260TMC3     H 3994   0.629   3.740   0.338 -0.7509  0.3389 -1.2759
  260TMC3    H1 3995   0.772   3.380   0.527 -0.8317  0.4323  0.0653
  260TMC3    H2 3996   0.670   3.374   0.133 -1.3945  1.7337 -0.7388
  260TMC3    C7 3997   0.804   3.245   0.316 -0.0610 -0.7945 -0.6100
  260TMC3    C8 3998   0.765   3.626   0.119 -0.7761  0.0693 -0.0540
  260TMC3    O1 3999   0.793   3.195   0.205  0.3822  0.3687  1.1029
  260TMC3    O2 4000   0.792   3.740   0.144 -0.1631 -0.4597 -0.3525
  261MPD2     C 4001   2.133   1.470  11.837 -0.1078  0.7835  0.4905
  261MPD2    C1 4002   2.249   1.542  11.858  0.1812  0.6227  0.1619
  261MPD2    C2 4003   2.257   1.666  11.792 -0.3570  0.7203  0.5577
  261MPD2    C3 4004   2.140   1.723  11.739  0.0078  0.0639  0.4409
  261MPD2    C4 4005   2.026   1.654  11.727 -0.4216 -0.3294 -0.3140
  261MPD2    C5 4006   2.023   1.529  11.774 -0.0189  0.8186  0.9129
  261MPD2     H 4007   2.343   1.730  11.810  0.4591 -0.2548  0.0947
  261MPD2    H1 4008   1.947   1.691  11.663  1.0330 -0.2200 -2.0267
  261MPD2    H2 4009   2.115   1.371  11.878  0.4353  0.6888  0.4990
  261MPD2    H3 4010   1.938   1.463  11.759 -0.4262  1.0509  2.1763
  261MPD2     N 4011   2.151   1.851  11.684  0.2715 -0.1449 -0.7124
  261MPD2    H5 4012   2.244   1.881  11.657 -1.4639  3.4821 -2.5819
  261MPD2    N1 4013   2.370   1.494  11.911 -0.1884  0.1862  0.3127
  261MPD2    H7 4014   2.455   1.548  11.895  0.6230 -0.9581  0.7590
  262TMC3    C1 4015   2.082   2.057  11.592  0.0359 -0.1299 -0.2805
  262TMC3    C2 4016   2.068   2.170  11.664 -0.0565  0.1762  0.3989
  262TMC3    C3 4017   2.149   2.275  11.627 -0.3726 -0.3419 -0.6460
  262TMC3    C4 4018   2.191   2.043  11.502  0.3128  0.0017  0.7638
  262TMC3    C5 4019   2.271   2.147  11.474 -0.4633 -0.0572 -0.2378
  262TMC3    C6 4020   2.250   2.267  11.527  0.5837  0.4554  0.0561
  262TMC3     C 4021   2.044   1.935  11.657  0.0285  0.5530  0.2281
  262TMC3     O 4022   1.929   1.923  11.694  0.7096 -0.3453  0.7107
  262TMC3     H 4023   1.973   2.181  11.714 -0.8396 -1.1399 -0.7744
  262TMC3    H1 4024   2.197   1.951  11.446 -1.5926 -1.2102  2.5392
  262TMC3    H2 4025   2.288   2.354  11.474 -0.1870  0.2170 -0.8805
  262TMC3    C7 4026   2.355   2.136  11.355 -0.5244 -0.4686  0.1723
  262TMC3    C8 4027   2.121   2.408  11.683  0.1565  0.2272 -0.0477
  262TMC3    O1 4028   2.321   2.046  11.280  0.1258 -0.2542 -0.6942
  262TMC3    O2 4029   2.177   2.499  11.624 -0.4182  0.3423 -0.1436
  263MPD2     C 4030   3.199   1.155  11.577  0.0172  0.0470 -0.4640
  263MPD2    C1 4031   3.306   1.194  11.500  0.2625 -0.1874  0.0062
  263MPD2    C2 4032   3.281   1.248  11.375  0.4526 -0.2282 -0.5133
  263MPD2    C3 4033   3.158   1.243  11.323 -0.4086 -0.2663  0.3088
  263MPD2    C4 4034   3.052   1.197  11.397  0.4741  0.6606  0.2721
  263MPD2    C5 4035   3.072   1.161  11.524 -0.0788 -0.3111  0.1550
  263MPD2     H 4036   3.361   1.274  11.308  1.3429 -0.4761  0.4460
  263MPD2    H1 4037   2.951   1.201  11.356  1.0012 -0.6279 -1.1507
  263MPD2    H2 4038   3.215   1.113  11.675 -5.0524  0.1451  0.3946
  263MPD2    H3 4039   2.993   1.127  11.591 -0.6673  2.5373  0.9165
  263MPD2     N 4040   3.145   1.294  11.194 -0.2352  0.2187 -0.0069
  263MPD2    H5 4041   3.229   1.336  11.156 -1.1450 -0.7771 -3.1327
  263MPD2    N1 4042   3.440   1.188  11.539  0.4176 -0.0117  0.1802
  263MPD2    H7 4043   3.509   1.204  11.467  1.3336  0.3827  1.1459
  264TMC3    C1 4044   3.048   1.356  10.990 -0.3304  0.1475  0.1993
  264TMC3    C2 4045   2.997   1.484  10.996  0.3733  0.0531  0.2757
  264TMC3    C3 4046   3.050   1.571  10.905  0.8756  0.0628 -1.0668
  264TMC3    C4 4047   3.153   1.321  10.908 -0.4542 -0.5918 -0.2232
  264TMC3    C5 4048   3.202   1.408  10.820  0.2555 -0.3630  0.5327
  264TMC3    C6 4049   3.146   1.533  10.815  0.1964  0.1345  0.1946
  264TMC3     C 4050   3.035   1.279  11.110 -0.0476  0.6798 -0.1639
  264TMC3     O 4051   2.921   1.238  11.128 -0.3277 -0.3312 -0.0672
  264TMC3     H 4052   2.940   1.520  11.081  0.0389  0.9525 -0.3324
  264TMC3    H1 4053   3.206   1.228  10.922 -0.9938 -0.9474 -0.5770
  264TMC3    H2 4054   3.196   1.611  10.758 -1.4491  1.3176  0.3722
  264TMC3    C7 4055   3.325   1.383  10.741 -0.9769 -0.6637 -0.0350
  264TMC3    C8 4056   3.084   1.699  10.961 -0.2174 -0.6795  0.5282
  264TMC3    O1 4057   3.342   1.455  10.647 -0.3137 -0.5208  0.7884
  264TMC3    O2 4058   3.196   1.740  10.942 -0.1444 -0.3344 -0.0291
  265MPD2     C 4059   0.720   1.317  15.356  0.9264 -0.5916  0.0279
  265MPD2    C1 4060   0.825   1.400  15.361 -1.0989 -0.2888  0.4189
  265MPD2    C2 4061   0.939   1.371  15.288  0.0908  0.0114  0.3387
  265MPD2    C3 4062   0.933   1.266  15.196  0.8740  0.6921 -0.2471
  265MPD2    C4 4063   0.827   1.177  15.196 -0.5199 -0.5057  1.0020
  265MPD2    C5 4064   0.724   1.200  15.285 -0.1167 -0.4550  0.2675
  265MPD2     H 4065   1.025   1.437  15.294 -0.9784  1.1927  2.8963
  265MPD2    H1 4066   0.817   1.087  15.137  1.0674 -0.9109  1.3620
  265MPD2    H2 4067   0.639   1.316  15.428  0.7820  1.5897 -0.1054
  265MPD2    H3 4068   0.653   1.121  15.307 -0.8105  0.3683  1.0060
  265MPD2     N 4069   1.035   1.239  15.096 -0.0499  0.3511  0.6851
  265MPD2    H5 4070   1.030   1.147  15.053 -0.1572  1.1626 -1.0329
  265MPD2    N1 4071   0.826   1.516  15.446  0.1159 -0.6547  0.4336
  265MPD2    H7 4072   0.908   1.576  15.438  0.3229 -1.0197 -0.2363
  266TMC3    C1 4073   0.738   1.699  15.571 -0.8173  0.7131  0.3278
  266TMC3    C2 4074   0.838   1.708  15.663  0.0066  0.7422 -0.5940
  266TMC3    C3 4075   0.854   1.825  15.731 -0.4020  0.3105  1.3101
  266TMC3    C4 4076   0.649   1.797  15.551  0.1384 -0.8285 -1.2962
  266TMC3    C5 4077   0.660   1.909  15.625  0.2690  0.7552 -0.0924
  266TMC3    C6 4078   0.766   1.927  15.714 -0.0537  0.2463 -0.0365
  266TMC3     C 4079   0.713   1.568  15.503 -0.2273  0.3786  0.2848
  266TMC3     O 4080   0.596   1.534  15.483  0.3058 -0.5010  0.1692
  266TMC3     H 4081   0.905   1.622  15.668  0.4170  1.2021  1.6741
  266TMC3    H1 4082   0.583   1.795  15.465  1.4584 -1.5480 -2.2955
  266TMC3    H2 4083   0.767   2.015  15.778 -2.8913  1.1273 -1.2368
  266TMC3    C7 4084   0.564   2.018  15.596 -0.4719  0.9236 -0.0185
  266TMC3    C8 4085   0.970   1.828  15.815 -0.4153  0.5752  0.3262
  266TMC3    O1 4086   0.459   1.983  15.543  0.2467 -0.5641  0.0899
  266TMC3    O2 4087   1.034   1.722  15.827  0.3711 -0.1937  0.4495
  267MPD2     C 4088   3.347   3.824   0.618  0.1583 -0.1545  0.5081
  267MPD2    C1 4089   3.327   3.729   0.525  0.1286 -0.0527 -0.3293
  267MPD2    C2 4090   3.226   3.756   0.434  0.1115  0.5376 -0.2929
  267MPD2    C3 4091   3.149   3.874   0.435  0.2654 -0.4999 -0.1745
  267MPD2    C4 4092   3.176   3.970   0.531  0.2439 -0.9698 -0.1966
  267MPD2    C5 4093   3.284   3.950   0.615  0.4220  0.5032  0.2974
  267MPD2     H 4094   3.201   3.676   0.364  1.3093  0.0908 -0.2095
  267MPD2    H1 4095   3.125   4.066   0.539 -0.1637 -0.9716 -2.5562
  267MPD2    H2 4096   3.423   3.813   0.695  0.1302  0.7096  0.6556
  267MPD2    H3 4097   3.307   4.023   0.692  0.1509  0.5278  0.3538
  267MPD2     N 4098   3.052   3.902   0.333  0.0964  0.0574 -0.1955
  267MPD2    H5 4099   2.998   3.986   0.352  0.6690  0.4820 -0.4487
  267MPD2    N1 4100   3.406   3.614   0.528 -0.1724 -0.2180 -0.2138
  267MPD2    H7 4101   3.456   3.593   0.614 -0.3111  1.3707  0.2600
  268TMC3    C1 4102   3.533   3.441   0.436  0.0211  0.0616 -1.2707
  268TMC3    C2 4103   3.629   3.457   0.339  0.0868  0.4118 -0.0017
  268TMC3    C3 4104   3.755   3.411   0.369  0.1969 -0.4167  0.3278
  268TMC3    C4 4105   3.550   3.387   0.554 -0.2288 -0.1242 -0.4626
  268TMC3    C5 4106   3.673   3.339   0.584  0.7839 -0.1598 -0.1285
  268TMC3    C6 4107   3.770   3.339   0.483 -0.5293 -0.0949 -0.1024
  268TMC3     C 4108   3.418   3.525   0.420 -0.4186  0.0880 -0.4246
  268TMC3     O 4109   3.376   3.536   0.306 -0.3480  0.4956 -0.9150
  268TMC3     H 4110   3.601   3.502   0.244 -1.5305  0.3397  0.4343
  268TMC3    H1 4111   3.468   3.382   0.625  0.6294  0.1162  0.5435
  268TMC3    H2 4112   3.863   3.285   0.500 -0.6461 -1.0358 -2.5046
  268TMC3    C7 4113   3.690   3.247   0.692  0.8646 -0.1171  0.0704
  268TMC3    C8 4114   3.834   3.366   0.257  0.1335  0.7031  0.1143
  268TMC3    O1 4115   3.770   3.153   0.684 -0.2643 -0.1593  0.3047
  268TMC3    O2 4116   3.932   3.295   0.279  0.4376 -0.0464  0.1085
  269MPD2     C 4117   3.797   2.435  15.222  0.6230 -0.6739 -0.2075
  269MPD2    C1 4118   3.710   2.495  15.316 -0.3250 -0.3642 -0.3682
  269MPD2    C2 4119   3.688   2.632  15.307  0.1155  0.7070  0.9393
  269MPD2    C3 4120   3.749   2.714  15.215 -0.5919 -0.1752 -0.1755
  269MPD2    C4 4121   3.841   2.647  15.123  0.1718 -0.4557 -0.4508
  269MPD2    C5 4122   3.858   2.510  15.123  0.5777  0.7036 -0.3291
  269MPD2     H 4123   3.632   2.672  15.391 -1.8017  1.7475 -0.8653
  269MPD2    H1 4124   3.891   2.710  15.051 -0.7451 -0.3058 -0.9556
  269MPD2    H2 4125   3.809   2.328  15.210 -1.0528 -0.9090  0.2437
  269MPD2    H3 4126   3.908   2.457  15.043  0.4116 -1.3254  0.9088
  269MPD2     N 4127   3.718   2.848  15.206  0.0839  0.0282 -0.0667
  269MPD2    H5 4128   3.658   2.890  15.276  1.5805 -1.1382  1.9235
  269MPD2    N1 4129   3.630   2.402  15.390 -0.8981  0.0220 -0.0671
  269MPD2    H7 4130   3.644   2.303  15.371 -0.0283 -0.1649  1.5506
  270TMC3    C1 4131   3.450   2.326  15.517  0.1718 -0.1597  0.0056
  270TMC3    C2 4132   3.328   2.309  15.463 -0.2709 -0.5692 -0.0649
  270TMC3    C3 4133   3.267   2.188  15.478 -0.5897  0.2777 -0.6323
  270TMC3    C4 4134   3.521   2.218  15.572  0.1517 -0.6819  0.6654
  270TMC3    C5 4135   3.460   2.100  15.586  0.4419  0.3062  0.9019
  270TMC3    C6 4136   3.333   2.083  15.549  0.5029 -0.1309 -0.7639
  270TMC3     C 4137   3.526   2.438  15.473  0.3390 -0.4137  0.6960
  270TMC3     O 4138   3.488   2.546  15.520 -0.1269 -0.2878 -0.0501
  270TMC3     H 4139   3.281   2.390  15.410 -2.3947 -2.0787 -0.4698
  270TMC3    H1 4140   3.624   2.248  15.591 -0.2095 -0.1827  1.8202
  270TMC3    H2 4141   3.289   1.984  15.541 -2.8773  1.2876  0.2310
  270TMC3    C7 4142   3.537   1.980  15.610  0.8024  0.3181  0.2009
  270TMC3    C8 4143   3.166   2.165  15.383  0.7885 -0.6964 -0.9075
  270TMC3    O1 4144   3.654   1.974  15.570 -0.3060  0.4095 -0.1412
  270TMC3    O2 4145   3.090   2.259  15.368 -0.3938  0.3489  0.2912
  271MPD2     C 4146   2.749   1.661  13.537  0.3670  0.1947 -0.7810
  271MPD2    C1 4147   2.724   1.763  13.625  1.1740 -0.2873 -0.0891
  271MPD2    C2 4148   2.619   1.853  13.603 -0.0307 -0.7141 -0.6731
  271MPD2    C3 4149   2.541   1.840  13.488  0.3789  0.6905  0.5715
  271MPD2    C4 4150   2.568   1.734  13.408  0.8747 -0.2030  0.6875
  271MPD2    C5 4151   2.663   1.647  13.431  0.3300 -0.4768 -0.7643
  271MPD2     H 4152   2.605   1.934  13.674  1.4118 -0.3364 -0.8330
  271MPD2    H1 4153   2.517   1.733  13.313 -1.1044 -1.0599  1.7646
  271MPD2    H2 4154   2.838   1.599  13.546 -0.1930 -0.4564  0.2369
  271MPD2    H3 4155   2.687   1.585  13.346  1.2620 -1.2075  0.0308
  271MPD2     N 4156   2.440   1.929  13.449 -0.0482 -0.8150 -0.3765
  271MPD2    H5 4157   2.385   1.907  13.367  0.1446  0.4641 -0.8528
  271MPD2    N1 4158   2.790   1.774  13.752  0.2648  0.3095  0.3882
  271MPD2    H7 4159   2.748   1.832  13.823 -0.5856 -0.1235  0.2492
  272TMC3    C1 4160   2.932   1.714  13.931  0.3205  0.8680 -0.3183
  272TMC3    C2 4161   2.987   1.604  13.987 -0.7948  0.1865 -0.0877
  272TMC3    C3 4162   3.000   1.600  14.125 -0.2552  1.3078  0.3755
  272TMC3    C4 4163   2.892   1.813  14.011  0.5850  0.2957 -0.2627
  272TMC3    C5 4164   2.914   1.815  14.145  0.0307 -0.1055 -0.1545
  272TMC3    C6 4165   2.966   1.706  14.206  0.4109 -0.6232  0.3229
  272TMC3     C 4166   2.896   1.702  13.789 -0.4222  0.3841  0.0488
  272TMC3     O 4167   2.984   1.657  13.722  0.7920  0.2297 -0.3738
  272TMC3     H 4168   3.016   1.524  13.919 -0.0596  2.1458 -2.0588
  272TMC3    H1 4169   2.836   1.894  13.966 -1.0507 -0.8110 -0.2150
  272TMC3    H2 4170   2.978   1.698  14.314 -0.5977  0.8925  0.5523
  272TMC3    C7 4171   2.854   1.925  14.215  0.2998  0.6015 -0.2961
  272TMC3    C8 4172   3.065   1.481  14.177  0.0778 -0.2997 -0.5124
  272TMC3    O1 4173   2.762   1.987  14.164 -0.1698 -0.4235  0.1974
  272TMC3    O2 4174   3.106   1.407  14.087  0.0516 -0.9097 -0.1866
  273MPD2     C 4175   3.757   4.499  11.088  0.9695  0.2998  0.2001
  273MPD2    C1 4176   3.833   4.581  11.164  0.0325 -0.4256 -0.0130
  273MPD2    C2 4177   3.896   4.679  11.090 -0.1251  0.0747 -0.0172
  273MPD2    C3 4178   3.893   4.698  10.953 -0.8822 -0.2605  0.2327
  273MPD2    C4 4179   3.839   4.595  10.881  0.4860 -0.4167 -0.1143
  273MPD2    C5 4180   3.769   4.497  10.949 -0.2011 -0.4972  0.0504
  273MPD2     H 4181   3.957   0.010  11.150 -0.0743  0.5164 -0.5672
  273MPD2    H1 4182   3.847   4.602  10.773  1.2831 -1.3811 -0.1090
  273MPD2    H2 4183   3.713   4.408  11.129 -0.1739  0.1356 -1.3919
  273MPD2    H3 4184   3.712   4.424  10.893 -0.5130 -0.8787  0.8704
  273MPD2     N 4185   3.941   0.079  10.888 -0.2703 -0.1318 -0.2385
  273MPD2    H5 4186   3.941   0.084  10.787  0.3464 -2.5841 -0.3625
  273MPD2    N1 4187   3.843   4.570  11.309  0.4408  0.0113 -0.5885
  273MPD2    H7 4188   3.767   4.526  11.360  0.5948  1.3466  0.8040
  274TMC3    C1 4189   4.006   0.312  10.869  0.5276  0.3089 -0.1603
  274TMC3    C2 4190   3.928   0.325  10.752 -0.1641 -0.1457  0.3114
  274TMC3    C3 4191   3.933   0.452  10.697 -0.2533 -0.3738 -0.3647
  274TMC3    C4 4192   4.086   0.416  10.917 -0.4159  0.3479 -0.1941
  274TMC3    C5 4193   4.067   0.535  10.860 -0.3466  0.5294  0.7832
  274TMC3    C6 4194   3.991   0.566  10.752 -0.8830  0.1912  0.1149
  274TMC3     C 4195   3.983   0.194  10.958  0.1543 -0.2883 -0.3642
  274TMC3     O 4196   3.990   0.219  11.077 -0.3888  0.1556  0.6610
  274TMC3     H 4197   3.858   0.247  10.725 -0.4031 -0.5451  2.1386
  274TMC3    H1 4198   4.150   0.399  11.003  1.8307 -2.0375 -2.3201
  274TMC3    H2 4199   4.001   0.650  10.684 -1.2250  1.2315  1.3615
  274TMC3    C7 4200   4.141   0.638  10.935 -0.2247  0.2261  0.7095
  274TMC3    C8 4201   3.826   0.487  10.599  0.0230  0.0273 -0.3973
  274TMC3    O1 4202   4.232   0.700  10.877  0.1079  0.2855  0.1428
  274TMC3    O2 4203   3.796   0.608  10.589 -0.4209  0.4968 -0.0924
  275MPD2     C 4204   4.011   3.156  14.213  0.3097 -0.5929  0.2459
  275MPD2    C1 4205   4.021   3.028  14.257 -0.5555  0.4822 -0.0750
  275MPD2    C2 4206   3.951   2.925  14.186 -0.2756 -0.5263 -0.2784
  275MPD2    C3 4207   3.860   2.961  14.085 -0.8314 -0.0705 -0.7880
  275MPD2    C4 4208   3.850   3.098  14.052 -0.5593  0.3081  0.0831
  275MPD2    C5 4209   3.927   3.189  14.112  0.3493  0.7489 -0.4392
  275MPD2     H 4210   3.952   2.822  14.221  3.1300 -0.5302 -0.4325
  275MPD2    H1 4211   3.785   3.138  13.975  0.6019 -0.6418 -1.3792
  275MPD2    H2 4212   4.069   3.233  14.262 -1.0880  1.0976 -0.7114
  275MPD2    H3 4213   3.920   3.292  14.079 -2.8256  1.4883  2.5416
  275MPD2     N 4214   3.771   2.875  14.022  0.7948  0.2519  0.2437
  275MPD2    H5 4215   3.709   2.909  13.950  2.4082  1.1265 -0.7302
  275MPD2    N1 4216   4.102   3.003  14.369 -0.5097 -0.1141  0.1589
  275MPD2    H7 4217   4.110   2.904  14.386 -1.2536 -0.1706  0.1656
  276TMC3    C1 4218   4.244   3.023  14.544 -1.3255 -0.5789 -0.0032
  276TMC3    C2 4219   4.285   2.899  14.506  0.4228 -0.1312 -0.6136
  276TMC3    C3 4220   4.355   2.827  14.597 -0.2510  0.2288 -0.5444
  276TMC3    C4 4221   4.275   3.085  14.660 -0.2188 -0.3937 -0.0881
  276TMC3    C5 4222   4.344   3.003  14.746  0.1947  0.5836  0.0076
  276TMC3    C6 4223   4.391   2.878  14.716  0.5527 -0.0656 -0.4191
  276TMC3     C 4224   4.150   3.091  14.459  0.2321 -0.0251  0.3309
  276TMC3     O 4225   4.100   3.201  14.486  0.5530  0.1105  0.0364
  276TMC3     H 4226   4.266   2.850  14.411  1.4690  1.4745 -1.6676
  276TMC3    H1 4227   4.229   3.180  14.685 -2.8887 -1.0641 -2.4851
  276TMC3    H2 4228   4.450   2.823  14.788 -0.0154  0.3253  0.3592
  276TMC3    C7 4229   4.398   3.067  14.856 -0.1889  0.0053 -0.3714
  276TMC3    C8 4230   4.411   2.709  14.545 -0.1952  0.2834  0.1733
  276TMC3    O1 4231   4.406   3.005  14.964 -0.6189  0.9062 -0.7545
  276TMC3    O2 4232   4.395   2.691  14.425  0.0726 -0.0491 -0.0708
  277MPD2     C 4233   0.888   1.932  13.110  0.4242 -0.5942 -0.4780
  277MPD2    C1 4234   0.790   2.006  13.162 -0.8602  0.1074 -0.7482
  277MPD2    C2 4235   0.770   2.012  13.299  0.0795  0.0370  0.5980
  277MPD2    C3 4236   0.857   1.941  13.384 -0.0483  0.0079 -0.0461
  277MPD2    C4 4237   0.971   1.889  13.331  0.5498  0.2435  0.5706
  277MPD2    C5 4238   0.984   1.881  13.194  0.0530 -0.5375 -0.2045
  277MPD2     H 4239   0.681   2.056  13.343  0.3905  0.3183  0.9479
  277MPD2    H1 4240   1.048   1.851  13.397 -0.4256 -0.6669  1.1795
  277MPD2    H2 4241   0.903   1.925  13.003 -1.0261  0.3097 -0.7354
  277MPD2    H3 4242   1.066   1.824  13.151 -0.1288  0.2033 -1.5124
  277MPD2     N 4243   0.818   1.929  13.522 -0.2311 -0.3663  0.0365
  277MPD2    H5 4244   0.725   1.958  13.550  0.2553  0.7006  0.5727
  277MPD2    N1 4245   0.703   2.072  13.069 -0.1153  0.5263 -0.0660
  277MPD2    H7 4246   0.719   2.059  12.969  0.5993 -0.3521  0.1558
  278TMC3    C1 4247   0.830   1.858  13.745 -0.0807  0.0876 -0.3358
  278TMC3    C2 4248   0.860   1.743  13.820  0.5254  0.0189 -0.6410
  278TMC3    C3 4249   0.805   1.726  13.943  0.0080  0.3860 -0.1329
  278TMC3    C4 4250   0.736   1.944  13.797  0.3906 -0.6247 -0.2926
  278TMC3    C5 4251   0.677   1.916  13.914 -0.1182 -0.1993  0.0413
  278TMC3    C6 4252   0.707   1.808  13.990  0.4201  0.0231 -0.4385
  278TMC3     C 4253   0.894   1.870  13.616 -0.4189 -0.5027 -0.3669
  278TMC3     O 4254   1.011   1.829  13.617 -0.5042  0.2289 -0.4304
  278TMC3     H 4255   0.931   1.671  13.779 -0.2896 -1.5086  0.6437
  278TMC3    H1 4256   0.715   2.040  13.751  1.1115 -0.7769 -0.9399
  278TMC3    H2 4257   0.670   1.805  14.092 -0.4574 -0.5771 -0.7794
  278TMC3    C7 4258   0.577   2.013  13.975 -0.1243  0.5316 -1.2772
  278TMC3    C8 4259   0.824   1.603  14.016  0.1750  0.0368  0.3265
  278TMC3    O1 4260   0.600   2.129  13.948 -0.7929 -0.1547 -0.5046
  278TMC3    O2 4261   0.784   1.606  14.136  0.1534  0.3520  0.4915
  279MPD2     C 4262   0.428   2.156   0.599  0.1012 -0.0247  0.2172
  279MPD2    C1 4263   0.390   2.154   0.473 -0.6992 -0.0451 -0.8226
  279MPD2    C2 4264   0.443   2.056   0.390  0.0319 -0.1126 -0.1647
  279MPD2    C3 4265   0.534   1.960   0.428 -0.4008 -0.0606  0.2531
  279MPD2    C4 4266   0.583   1.974   0.555  0.5832  0.3284 -0.6713
  279MPD2    C5 4267   0.522   2.064   0.635  0.5681  0.1427  0.0646
  279MPD2     H 4268   0.397   2.051   0.292 -1.9911  0.1480  0.7765
  279MPD2    H1 4269   0.664   1.909   0.586  1.2051  0.2342 -2.4907
  279MPD2    H2 4270   0.399   2.239   0.663 -1.3685  0.0870 -0.5988
  279MPD2    H3 4271   0.572   2.060   0.731  1.2323  3.1638 -0.1561
  279MPD2     N 4272   0.592   1.869   0.341  0.5468  0.0050 -0.0008
  279MPD2    H5 4273   0.673   1.816   0.373  0.0686 -0.0006  1.1958
  279MPD2    N1 4274   0.293   2.238   0.421 -0.4152 -0.4022  0.0345
  279MPD2    H7 4275   0.251   2.214   0.332  1.6001 -1.9437 -0.5063
  280TMC3    C1 4276   0.113   2.390   0.410 -0.3170 -0.8380 -0.2657
  280TMC3    C2 4277   0.056   2.311   0.313  0.4661  1.0054  0.0171
  280TMC3    C3 4278   4.673   2.350   0.261  0.1789 -0.7692 -0.5673
  280TMC3    C4 4279   0.056   2.511   0.455 -0.0860 -0.1263  0.1417
  280TMC3    C5 4280   4.675   2.552   0.394 -0.1719 -0.0673  0.2637
  280TMC3    C6 4281   4.617   2.471   0.297  0.2094  0.5343  0.1517
  280TMC3     C 4282   0.226   2.336   0.486  0.5264 -0.6776 -0.3977
  280TMC3     O 4283   0.226   2.365   0.603 -0.8930 -0.4244 -0.0544
  280TMC3     H 4284   0.086   2.209   0.290 -0.2642  0.9990 -0.9192
  280TMC3    H1 4285   0.100   2.559   0.542  0.6171 -0.5691  0.0314
  280TMC3    H2 4286   4.525   2.500   0.246  0.7024  2.5254  0.3889
  280TMC3    C7 4287   4.669   2.695   0.357  0.0651  0.1608  0.2994
  280TMC3    C8 4288   4.641   2.299   0.130 -0.3238  0.6591  0.5197
  280TMC3    O1 4289   0.015   2.760   0.416 -0.0113 -0.2661  0.4432
  280TMC3    O2 4290   4.521   2.312   0.099 -0.3840 -0.0540  0.5016
  281TMC3    C1 4291   3.411   2.192  12.866  0.3185 -0.9615  0.5870
  281TMC3    C2 4292   3.313   2.270  12.812 -0.6221  0.7432  0.6436
  281TMC3    C3 4293   3.214   2.201  12.745  0.3693 -0.1560  0.1965
  281TMC3    C4 4294   3.419   2.051  12.848 -0.8529  0.7676 -0.4145
  281TMC3    C5 4295   3.312   1.994  12.787  0.5861  0.3050  0.3309
  281TMC3    C6 4296   3.213   2.071  12.735  0.0079 -0.3519 -0.5390
  281TMC3     C 4297   3.539   2.240  12.915  0.5149  0.1380  0.0193
  281TMC3     O 4298   3.630   2.159  12.923 -0.4036 -0.3768  0.1018
  281TMC3     H 4299   3.336   2.376  12.805 -1.3744  1.1328  3.7648
  281TMC3    H1 4300   3.498   1.989  12.887 -0.6412  1.1032 -0.3047
  281TMC3    H2 4301   3.136   2.019  12.679 -0.0470 -0.9835  0.1148
  281TMC3    C7 4302   3.269   1.864  12.841 -0.1650  0.0645  0.2420
  281TMC3    C8 4303   3.091   2.271  12.710 -0.5523  0.0787 -0.4663
  281TMC3    O1 4304   3.145   1.852  12.833 -0.2107  0.5261 -0.2311
  281TMC3    O2 4305   3.008   2.211  12.644  0.4014 -0.2617  0.4116
  282MPD2     C 4306   0.949   3.388  14.793  0.5955  0.6952 -0.7242
  282MPD2    C1 4307   0.836   3.472  14.796  0.5298  0.0448 -0.1758
  282MPD2    C2 4308   0.788   3.524  14.673  0.7322 -0.1644  0.0567
  282MPD2    C3 4309   0.860   3.506  14.553  0.0613  0.0783 -0.2682
  282MPD2    C4 4310   0.983   3.434  14.565  0.3310  0.4317 -0.4261
  282MPD2    C5 4311   1.021   3.376  14.681  0.7873 -0.3240  0.0512
  282MPD2     H 4312   0.698   3.585  14.680  1.2514  0.6365 -0.3131
  282MPD2    H1 4313   1.052   3.416  14.484 -0.9005 -0.5064 -1.2663
  282MPD2    H2 4314   0.987   3.336  14.880  0.7829 -0.5349 -1.5338
  282MPD2    H3 4315   1.116   3.327  14.695  0.6987 -0.6556 -0.4964
  282MPD2     N 4316   0.812   3.558  14.428  0.1587  0.2614 -0.6110
  282MPD2    H5 4317   0.711   3.573  14.427 -0.1181 -1.7107 -2.0936
  282MPD2    N1 4318   0.753   3.494  14.902  0.4348 -0.1907 -0.1703
  282MPD2    H7 4319   0.672   3.553  14.888 -0.0448 -0.4825  1.3032
  283TMC3    C1 4320   0.653   3.486  15.109 -0.3800  0.7964  0.2155
  283TMC3    C2 4321   0.604   3.617  15.101 -0.5985 -0.7497  0.5005
  283TMC3    C3 4322   0.487   3.635  15.158 -0.0625 -0.5253 -0.5912
  283TMC3    C4 4323   0.589   3.384  15.175 -0.1381  0.2512 -0.7054
  283TMC3    C5 4324   0.465   3.412  15.233  0.1956 -0.0391 -0.4665
  283TMC3    C6 4325   0.418   3.539  15.225 -0.0950  0.1528 -0.0308
  283TMC3     C 4326   0.762   3.442  15.023 -0.3816 -0.5030  0.3564
  283TMC3     O 4327   0.845   3.367  15.075 -0.3410  0.2309  0.8674
  283TMC3     H 4328   0.660   3.699  15.057 -0.8463 -0.5023  0.6429
  283TMC3    H1 4329   0.641   3.290  15.189  0.3710  0.7896  0.9861
  283TMC3    H2 4330   0.319   3.558  15.265  0.8811 -0.1302  2.4767
  283TMC3    C7 4331   0.393   3.322  15.319 -0.7132  0.0008 -1.0079
  283TMC3    C8 4332   0.458   3.772  15.199 -0.7883 -0.1958 -0.1892
  283TMC3    O1 4333   0.451   3.260  15.406  0.0963  0.5463  0.1110
  283TMC3    O2 4334   0.503   3.854  15.118  0.2009 -0.0209 -0.1959
  284MPD2     C 4335   3.443   3.120  12.053  0.5356 -0.1752 -0.6565
  284MPD2    C1 4336   3.541   3.177  11.976  0.2011  0.5045  0.6506
  284MPD2    C2 4337   3.670   3.172  12.025 -0.2550  0.2403 -0.0734
  284MPD2    C3 4338   3.700   3.104  12.138 -0.0638 -0.5144 -0.2961
  284MPD2    C4 4339   3.600   3.043  12.204 -0.3394 -0.1571 -0.3061
  284MPD2    C5 4340   3.472   3.051  12.165  0.0784  0.3408 -0.8805
  284MPD2     H 4341   3.745   3.219  11.961 -0.3967 -0.2664 -0.6158
  284MPD2    H1 4342   3.614   2.974  12.286  2.0451  0.8798  0.1569
  284MPD2    H2 4343   3.341   3.114  12.017 -0.1730 -0.8670  1.4590
  284MPD2    H3 4344   3.400   2.995  12.224  0.2231  1.8756  0.7380
  284MPD2     N 4345   3.833   3.086  12.173  0.2498  0.3495 -0.2879
  284MPD2    H5 4346   3.852   3.014  12.242 -3.1328  0.2083  0.5162
  284MPD2    N1 4347   3.519   3.217  11.846 -0.1002 -0.9579  0.6526
  284MPD2    H7 4348   3.597   3.250  11.790 -0.7025 -0.8166 -0.0878
  285TMC3    C1 4349   3.428   3.230  11.634  0.1251 -0.3586 -0.1296
  285TMC3    C2 4350   3.395   3.126  11.552 -0.2423  0.3820 -0.2828
  285TMC3    C3 4351   3.446   3.125  11.426 -0.0814 -0.6121  0.1940
  285TMC3    C4 4352   3.504   3.336  11.594  0.0806 -0.8649 -0.4849
  285TMC3    C5 4353   3.542   3.333  11.460  0.4484 -0.1625 -0.3727
  285TMC3    C6 4354   3.528   3.230  11.379  0.1664  1.0144  0.4500
  285TMC3     C 4355   3.402   3.209  11.778 -0.5473  0.6808 -0.5815
  285TMC3     O 4356   3.291   3.168  11.811  0.3054 -0.0303  0.0100
  285TMC3     H 4357   3.350   3.039  11.599 -0.2045 -0.7412 -2.3226
  285TMC3    H1 4358   3.507   3.432  11.644 -3.8891  0.6320 -3.0671
  285TMC3    H2 4359   3.607   3.223  11.306 -1.2638  1.1424 -1.0954
  285TMC3    C7 4360   3.607   3.439  11.394  0.2985 -0.4111 -0.2085
  285TMC3    C8 4361   3.447   2.998  11.364  0.0270 -0.6031  0.0766
  285TMC3    O1 4362   3.583   3.471  11.278 -0.2215  0.4481 -0.3006
  285TMC3    O2 4363   3.416   2.903  11.438  0.0847 -0.4798  0.5095
  286MPD2     C 4364   4.522   1.403   1.147  0.2441  0.2091 -0.4811
  286MPD2    C1 4365   4.465   1.436   1.024 -0.6385 -0.5088  0.0219
  286MPD2    C2 4366   4.465   1.339   0.929 -0.1112 -0.0046  0.7911
  286MPD2    C3 4367   4.517   1.218   0.950 -0.1749  0.0616  0.1699
  286MPD2    C4 4368   4.555   1.180   1.076 -0.0517 -0.1432 -0.2045
  286MPD2    C5 4369   4.559   1.276   1.169  0.2029  0.9693 -0.0136
  286MPD2     H 4370   4.440   1.362   0.826 -0.7585 -2.6556  0.3517
  286MPD2    H1 4371   4.603   1.085   1.096  0.1121 -0.0123  0.0208
  286MPD2    H2 4372   4.540   1.474   1.227 -0.9010  1.7618 -1.5936
  286MPD2    H3 4373   4.604   1.254   1.265  2.3393 -0.7083 -1.4237
  286MPD2     N 4374   4.526   1.119   0.844 -0.8308  0.1990 -0.1238
  286MPD2    H5 4375   4.584   1.037   0.861  0.7305  0.8327 -2.3717
  286MPD2    N1 4376   4.417   1.564   0.994  0.4553  0.5031 -0.4448
  286MPD2    H7 4377   4.383   1.586   0.901  1.3877 -1.8475 -1.3344
  287TMC3    C1 4378   4.498   1.016   0.648 -0.1764 -0.1719 -0.0620
  287TMC3    C2 4379   4.401   0.971   0.560  0.4279  0.2133  0.0184
  287TMC3    C3 4380   4.432   0.855   0.484 -0.3451 -0.2526  0.0327
  287TMC3    C4 4381   4.614   0.941   0.673 -0.3512  0.2805 -0.2515
  287TMC3    C5 4382   4.632   0.827   0.599  0.3535  0.5398 -0.0968
  287TMC3    C6 4383   4.540   0.782   0.507  0.6275 -0.3742  0.4014
  287TMC3     C 4384   4.458   1.122   0.724  0.3038 -0.7402  0.3513
  287TMC3     O 4385   4.385   1.209   0.680 -0.8596 -0.4965  0.3410
  287TMC3     H 4386   4.307   1.024   0.544 -0.9372 -2.2298 -0.1065
  287TMC3    H1 4387   4.699   0.961   0.738 -1.1533 -0.9345  1.1680
  287TMC3    H2 4388   4.565   0.690   0.456  1.3732 -1.2134  2.2520
  287TMC3    C7 4389   0.027   0.755   0.628  0.4443  0.0528 -0.0223
  287TMC3    C8 4390   4.332   0.787   0.403 -0.7764  0.5510  0.2502
  287TMC3    O1 4391   0.058   0.756   0.747 -0.1668 -0.7580  0.0787
  287TMC3    O2 4392   4.360   0.679   0.357  0.0939 -0.3066 -0.3788
  288TMC3    C1 4393   1.488   1.381  14.143  0.4645  0.7977  0.1807
  288TMC3    C2 4394   1.408   1.397  14.257  0.2090 -0.0436  0.6346
  288TMC3    C3 4395   1.294   1.466  14.238 -0.7341 -0.1794 -0.6989
  288TMC3    C4 4396   1.463   1.436  14.021 -0.3882 -0.3779  0.2785
  288TMC3    C5 4397   1.341   1.496  14.012 -0.5485  0.4227 -0.4373
  288TMC3    C6 4398   1.252   1.507  14.114  0.4028  0.3008 -0.6247
  288TMC3     C 4399   1.618   1.309  14.160 -0.7711  0.3952 -0.2305
  288TMC3     O 4400   1.702   1.325  14.070 -0.1491 -0.6179 -0.1924
  288TMC3     H 4401   1.431   1.364  14.358 -0.8187 -1.5322  0.3836
  288TMC3    H1 4402   1.531   1.415  13.939 -3.2568 -1.4419 -1.8141
  288TMC3    H2 4403   1.150   1.541  14.103  1.1139  2.4175 -0.6677
  288TMC3    C7 4404   1.287   1.541  13.888 -0.4171  0.3697 -0.5801
  288TMC3    C8 4405   1.191   1.467  14.341  0.1576  0.3412 -0.3413
  288TMC3    O1 4406   1.187   1.607  13.899 -0.2220  0.0466  0.2582
  288TMC3    O2 4407   1.105   1.554  14.341 -0.4592 -0.2900  0.7261
  289MPD2     C 4408   1.116   0.323  14.470  0.3251 -0.2709  0.7643
  289MPD2    C1 4409   1.133   0.436  14.398 -0.0494  0.0694  0.4917
  289MPD2    C2 4410   1.015   0.467  14.327  0.4642  0.4131  0.5300
  289MPD2    C3 4411   0.903   0.392  14.310 -0.5482 -0.3313 -0.2479
  289MPD2    C4 4412   0.891   0.283  14.389 -0.0490 -0.4917 -0.0994
  289MPD2    C5 4413   1.000   0.257  14.467 -0.2993 -0.1553 -0.4135
  289MPD2     H 4414   1.015   0.557  14.267 -3.5586 -0.2421 -0.4430
  289MPD2    H1 4415   0.801   0.223  14.390 -0.0136 -0.5177  0.7604
  289MPD2    H2 4416   1.188   0.286  14.541  1.0429  0.1951  0.2814
  289MPD2    H3 4417   0.997   0.166  14.526 -1.5979  0.6329  0.7505
  289MPD2     N 4418   0.788   0.434  14.233  0.1364  0.0695 -0.1986
  289MPD2    H5 4419   0.725   0.365  14.194 -1.8799  2.2291 -0.7149
  289MPD2    N1 4420   1.253   0.521  14.402  0.4236 -0.2981 -0.1859
  289MPD2    H7 4421   1.333   0.467  14.434  1.1324  0.0847 -1.3244
  290TMC3    C1 4422   0.662   0.598  14.117 -0.7286  0.3693 -0.1944
  290TMC3    C2 4423   0.640   0.732  14.092  0.5701 -0.5984  0.3243
  290TMC3    C3 4424   0.557   0.775  13.995 -0.2875  0.3989 -0.1548
  290TMC3    C4 4425   0.627   0.510  14.021 -0.3732 -0.4509 -0.7856
  290TMC3    C5 4426   0.536   0.554  13.929 -0.8753 -0.9200 -0.2421
  290TMC3    C6 4427   0.505   0.688  13.912  0.3942 -0.4944  0.3684
  290TMC3     C 4428   0.770   0.568  14.210  0.1423 -0.7748 -0.1312
  290TMC3     O 4429   0.808   0.667  14.273  0.3040  0.2157  0.4410
  290TMC3     H 4430   0.679   0.800  14.167 -1.1612  1.1305 -0.3664
  290TMC3    H1 4431   0.670   0.411  14.019 -0.9314 -0.7327  1.0474
  290TMC3    H2 4432   0.446   0.731  13.831 -0.8112 -0.4964  1.2417
  290TMC3    C7 4433   0.431   0.468  13.896  0.0149  0.0830 -0.5202
  290TMC3    C8 4434   0.533   0.919  13.965  0.2430 -0.2740 -0.7418
  290TMC3    O1 4435   0.383   0.480  13.785 -0.2705  0.6264  0.2831
  290TMC3    O2 4436   0.491   0.948  13.855  0.2040  0.0421  0.2411
  291MPD2     C 4437   4.723   0.192  17.713 -0.1558  0.1680 -0.0461
  291MPD2    C1 4438   0.116   0.211   0.014  0.2305  0.3889 -0.1749
  291MPD2    C2 4439   0.158   0.341   0.041  0.4847 -0.8281  0.4239
  291MPD2    C3 4440   0.078   0.448  17.739 -0.2246 -0.6818 -0.3646
  291MPD2    C4 4441   4.684   0.424  17.696  0.2540 -0.3964 -0.4111
  291MPD2    C5 4442   4.637   0.297  17.684 -0.4159 -0.7461 -0.4711
  291MPD2     H 4443   0.259   0.352   0.079  0.4847  2.3764 -0.5245
  291MPD2    H1 4444   4.628   0.509  17.660 -0.2648 -1.4293 -2.0426
  291MPD2    H2 4445   4.682   0.092  17.719 -2.2312  0.9993 -0.5831
  291MPD2    H3 4446   4.530   0.290  17.671 -0.4453  0.0977 -0.7563
  291MPD2     N 4447   0.116   0.583  17.734  0.3998 -0.2713  0.1656
  291MPD2    H5 4448   0.054   0.648  17.686 -0.4929 -1.6761 -0.5767
  291MPD2    N1 4449   0.200   0.096   0.047 -0.4241  0.8420  0.4248
  291MPD2    H7 4450   0.274   0.118   0.113 -0.0318 -1.5383  0.7800
  292TMC3    C1 4451   0.268   4.607   0.063 -0.0964 -0.3605 -0.0718
  292TMC3    C2 4452   0.374   4.639   0.137  0.5915  0.6581 -0.2366
  292TMC3    C3 4453   0.440   4.543   0.207 -0.3088  0.2720 -0.2503
  292TMC3    C4 4454   0.226   4.472   0.049 -0.4077 -0.4269 -0.7877
  292TMC3    C5 4455   0.294   4.382   0.125  0.1962 -0.5917  0.1327
  292TMC3    C6 4456   0.398   4.414   0.206 -0.3510 -0.0383  0.2784
  292TMC3     C 4457   0.183   4.706  17.742 -0.0402 -0.6400  0.7359
  292TMC3     O 4458   0.103   4.665  17.662  0.8152 -0.0582  0.8072
  292TMC3     H 4459   0.405   0.006   0.147  2.1101  0.0723  1.0926
  292TMC3    H1 4460   0.137   4.443  17.741 -1.1024 -0.9055  0.6364
  292TMC3    H2 4461   0.462   4.337   0.249  0.1221  1.0379  1.5183
  292TMC3    C7 4462   0.270   4.241   0.089  0.3016  0.2033 -0.5674
  292TMC3    C8 4463   0.558   4.584   0.285 -0.7901 -0.3834  0.2479
  292TMC3    O1 4464   0.216   4.218  17.728  0.0188 -0.2607 -0.3300
  292TMC3    O2 4465   0.621   4.679   0.238  0.4377  0.2000 -0.2080
  293MPD2     C 4466   1.999   1.471  12.191 -0.1374  0.5050 -0.3561
  293MPD2    C1 4467   1.889   1.452  12.280 -0.4480  0.5953 -0.6151
  293MPD2    C2 4468   1.910   1.498  12.410  0.1272 -0.3458  0.3088
  293MPD2    C3 4469   2.035   1.548  12.455 -0.0738 -0.2122  0.1763
  293MPD2    C4 4470   2.134   1.572  12.361 -0.6126  0.0582  0.2305
  293MPD2    C5 4471   2.113   1.537  12.230  0.0495  0.0174 -0.2309
  293MPD2     H 4472   1.827   1.485  12.480 -2.2350 -0.5285 -2.5414
  293MPD2    H1 4473   2.236   1.605  12.381 -0.0618 -1.7732  0.3942
  293MPD2    H2 4474   1.982   1.444  12.088 -0.3073  1.3845 -0.5617
  293MPD2    H3 4475   2.183   1.562  12.151  1.6132 -1.1400  0.7988
  293MPD2     N 4476   2.054   1.569  12.601  0.2930 -0.6893 -0.5931
  293MPD2    H5 4477   1.971   1.571  12.660  0.6430  0.7335 -0.1520
  293MPD2    N1 4478   1.769   1.388  12.244 -0.6711 -0.1142  0.5632
  293MPD2    H7 4479   1.770   1.355  12.148 -2.3064 -0.1112  0.5494
  294TMC3    C1 4480   1.562   1.285  12.251  0.7227  0.3047 -0.1436
  294TMC3    C2 4481   1.487   1.199  12.324 -0.4686 -0.2435 -0.3748
  294TMC3    C3 4482   1.424   1.096  12.258 -0.6918 -0.3735  0.4952
  294TMC3    C4 4483   1.568   1.276  12.113  0.1301 -0.1000 -0.4866
  294TMC3    C5 4484   1.525   1.160  12.056 -0.6400  0.6219 -0.2085
  294TMC3    C6 4485   1.450   1.068  12.131  0.6595  0.2929 -0.2013
  294TMC3     C 4486   1.662   1.361  12.321 -0.2725 -0.1329  0.1264
  294TMC3     O 4487   1.644   1.370  12.440  0.4916  0.6981  0.6032
  294TMC3     H 4488   1.465   1.227  12.427 -1.3297  0.0573 -0.6372
  294TMC3    H1 4489   1.630   1.347  12.058 -0.7554  0.9928 -0.0697
  294TMC3    H2 4490   1.409   0.977  12.088 -0.4939  1.5066 -1.6478
  294TMC3    C7 4491   1.481   1.179  11.922 -0.1867  0.8827 -0.1145
  294TMC3    C8 4492   1.287   1.081  12.290 -0.3850 -0.2871 -1.2274
  294TMC3    O1 4493   1.394   1.101  11.896 -0.8052  0.3301 -0.5173
  294TMC3    O2 4494   1.239   1.070  12.403 -0.1681  0.4144 -0.0932
  295MPD2     C 4495   3.372   0.752   0.755  0.3208  0.2709 -0.2458
  295MPD2    C1 4496   3.292   0.643   0.736 -0.3255 -0.6518 -1.0672
  295MPD2    C2 4497   3.324   0.520   0.787 -0.2525 -0.3800 -0.2119
  295MPD2    C3 4498   3.441   0.506   0.860 -0.1867  0.1484  0.2325
  295MPD2    C4 4499   3.524   0.617   0.875  0.5147 -0.1879  0.4120
  295MPD2    C5 4500   3.493   0.738   0.822 -0.1660  0.1407  0.2774
  295MPD2     H 4501   3.255   0.440   0.763  0.2260  0.0607 -3.0680
  295MPD2    H1 4502   3.621   0.596   0.920  1.2750  1.5572 -0.3970
  295MPD2    H2 4503   3.358   0.839   0.693 -0.6603  0.7351  0.6221
  295MPD2    H3 4504   3.560   0.820   0.844 -0.1257  0.4124 -0.8887
  295MPD2     N 4505   3.481   0.383   0.913  0.2240  0.3292 -0.1323
  295MPD2    H5 4506   3.570   0.388   0.961  0.1719 -0.3984  0.0358
  295MPD2    N1 4507   3.173   0.654   0.657 -0.5501  0.2325 -0.0301
  295MPD2    H7 4508   3.129   0.564   0.642  0.9586 -0.4226 -0.4715
  296TMC3    C1 4509   3.502   0.151   0.944  0.0075  0.0579  0.6418
  296TMC3    C2 4510   3.562   0.174   1.067  0.2981 -0.2498 -0.1754
  296TMC3    C3 4511   3.631   0.071   1.128 -0.7419  0.3150  0.1088
  296TMC3    C4 4512   3.485   0.030   0.889  0.0419 -0.3121  0.0905
  296TMC3    C5 4513   3.542   4.660   0.961 -0.1064  0.3187  0.4041
  296TMC3    C6 4514   3.626   4.677   1.071 -0.0418  1.1476 -0.1963
  296TMC3     C 4515   3.433   0.258   0.878 -0.0909 -0.7088 -0.0909
  296TMC3     O 4516   3.336   0.226   0.812 -0.1224  0.7930  0.2106
  296TMC3     H 4517   3.578   0.273   1.110 -0.3415 -0.2403  0.0549
  296TMC3    H1 4518   3.437   0.015   0.793  0.7608  0.5081 -0.3924
  296TMC3    H2 4519   3.673   4.594   1.122  2.0339  2.4707  0.0045
  296TMC3    C7 4520   3.548   4.536   0.889 -0.0322  0.4135  0.3953
  296TMC3    C8 4521   3.660   0.073   1.266 -0.2768 -0.2102 -0.2573
  296TMC3    O1 4522   3.500   4.532   0.778 -0.5562  0.4049 -0.2606
  296TMC3    O2 4523   3.736   4.727   1.314 -0.5013 -0.8165 -0.0990
  297MPD2     C 4524   4.547   2.329  15.815  0.1926 -0.0391  0.4041
  297MPD2    C1 4525   4.593   2.460  15.822 -0.2482 -0.6362  0.0712
  297MPD2    C2 4526   4.716   2.481  15.884  0.7826 -1.2624  0.6921
  297MPD2    C3 4527   0.059   2.378  15.923 -0.0366 -0.6174 -0.2564
  297MPD2    C4 4528   0.007   2.251  15.925 -0.1749 -0.2484 -0.3689
  297MPD2    C5 4529   4.625   2.231  15.870  0.5063  0.3624 -0.2493
  297MPD2     H 4530   0.011   2.581  15.911 -1.8290 -0.2699  0.1332
  297MPD2    H1 4531   0.059   2.167  15.971 -0.9517 -1.0344 -0.9215
  297MPD2    H2 4532   4.449   2.305  15.774  0.7204 -1.6538  0.1083
  297MPD2    H3 4533   4.573   2.136  15.885 -1.2122  1.2067 -0.8099
  297MPD2     N 4534   0.189   2.408  15.971  0.0726  0.4373  0.0558
  297MPD2    H5 4535   0.220   2.501  15.996 -1.3953  0.7240  0.8278
  297MPD2    N1 4536   4.518   2.570  15.774  0.3984 -0.0345  0.3410
  297MPD2    H7 4537   4.548   2.665  15.794 -2.3290  1.2105 -1.4696
  298TMC3    C1 4538   4.330   2.686  15.704  0.5205 -0.1059 -0.4989
  298TMC3    C2 4539   4.400   2.803  15.726  0.4163 -0.4942  0.7342
  298TMC3    C3 4540   4.336   2.907  15.794 -0.0390 -0.4433 -0.0888
  298TMC3    C4 4541   4.202   2.679  15.749  0.5445 -0.3374 -0.0036
  298TMC3    C5 4542   4.145   2.784  15.804 -0.6582 -0.2063 -0.1408
  298TMC3    C6 4543   4.200   2.909  15.817  0.6961  0.5358 -0.0854
  298TMC3     C 4544   4.400   2.562  15.713 -0.0410 -0.4902  0.8472
  298TMC3     O 4545   4.334   2.467  15.674  0.4412  0.3148 -0.1706
  298TMC3     H 4546   4.504   2.816  15.695  0.4804  1.0101  1.5617
  298TMC3    H1 4547   4.158   2.580  15.741  1.5785 -0.7439 -0.7144
  298TMC3    H2 4548   4.156   2.989  15.874 -0.9939  1.0324 -2.0593
  298TMC3    C7 4549   4.016   2.764  15.861  0.2017  1.0987 -0.8846
  298TMC3    C8 4550   4.426   3.022  15.807  0.3615 -0.0569  0.4327
  298TMC3    O1 4551   3.991   2.842  15.951  0.2390  0.0422 -0.5986
  298TMC3    O2 4552   4.518   3.052  15.728  0.4683  0.1529 -0.0645
  299MPD2     C 4553   0.189   1.421  11.033 -0.3977  0.4098  0.6262
  299MPD2    C1 4554   0.205   1.548  10.974  0.5271 -0.5430 -0.1085
  299MPD2    C2 4555   0.106   1.593  10.888 -0.2614  0.1587  0.0666
  299MPD2    C3 4556   0.002   1.513  10.853  0.3800  0.2540  0.2993
  299MPD2    C4 4557   4.728   1.387  10.903 -0.1007 -0.1880  0.3468
  299MPD2    C5 4558   0.079   1.341  11.000  0.2385 -0.1886  0.2571
  299MPD2     H 4559   0.101   1.694  10.851  1.0299 -0.0293 -0.6477
  299MPD2    H1 4560   4.642   1.326  10.878  0.4745 -0.6888 -0.4329
  299MPD2    H2 4561   0.260   1.391  11.109 -0.0719 -0.0504  0.1462
  299MPD2    H3 4562   0.064   1.252  11.061 -0.7716 -2.0805 -2.7346
  299MPD2     N 4563   4.625   1.558  10.776 -0.5850  0.1145  0.1850
  299MPD2    H5 4564   4.546   1.495  10.771 -0.2731 -0.2755  0.1682
  299MPD2    N1 4565   0.307   1.640  11.020  0.3019  0.1349  0.0230
  299MPD2    H7 4566   0.356   1.610  11.103  1.1264  0.9300 -0.1783
  300TMC3    C1 4567   4.470   1.701  10.675  0.6717  0.3233  0.5606
  300TMC3    C2 4568   4.457   1.817  10.603  0.5493 -0.5283 -0.4876
  300TMC3    C3 4569   4.331   1.881  10.608 -0.2092  0.0183  0.1885
  300TMC3    C4 4570   4.371   1.642  10.743  0.0626 -0.1417 -0.0728
  300TMC3    C5 4571   4.249   1.711  10.737 -0.1714 -0.3129 -0.0662
  300TMC3    C6 4572   4.225   1.831  10.681  0.9969  0.3869 -0.3567
  300TMC3     C 4573   4.606   1.677  10.714  0.0237  0.5891 -0.0189
  300TMC3     O 4574   4.690   1.765  10.691  0.1081  0.3299 -0.4097
  300TMC3     H 4575   4.536   1.871  10.551 -0.0308  3.0200  2.3034
  300TMC3    H1 4576   4.371   1.548  10.797 -0.4696 -0.4550 -0.6257
  300TMC3    H2 4577   4.128   1.879  10.681  0.3484 -0.9172 -0.5534
  300TMC3    C7 4578   4.137   1.644  10.805  0.0910  0.0253 -0.2826
  300TMC3    C8 4579   4.342   2.024  10.570 -0.9485  0.6542 -0.0685
  300TMC3    O1 4580   4.144   1.522  10.831 -0.0292 -0.0651  0.3042
  300TMC3    O2 4581   4.453   2.079  10.574  0.1295 -0.4624  0.4039
  301MPD2     C 4582   3.168   3.188   1.104 -0.0524  0.5372  0.4935
  301MPD2    C1 4583   3.055   3.186   1.023 -0.6995  0.5032 -0.0938
  301MPD2    C2 4584   2.983   3.069   1.008 -0.5670 -0.1612  0.0286
  301MPD2    C3 4585   3.021   2.948   1.066  0.2476  0.3126 -0.4769
  301MPD2    C4 4586   3.132   2.953   1.151  0.1153 -0.2267  0.6580
  301MPD2    C5 4587   3.199   3.072   1.172 -0.0831  0.2516  0.1176
  301MPD2     H 4588   2.890   3.069   0.953  0.7464  0.4743 -2.2272
  301MPD2    H1 4589   3.158   2.866   1.210 -0.2283 -1.5927 -1.2203
  301MPD2    H2 4590   3.218   3.281   1.130  0.7932 -0.2081  1.5255
  301MPD2    H3 4591   3.275   3.070   1.249 -0.1144  0.2116  0.1478
  301MPD2     N 4592   2.969   2.820   1.042  0.4238  0.0481 -0.0283
  301MPD2    H5 4593   3.013   2.734   1.073  0.0130  0.2975  1.2696
  301MPD2    N1 4594   3.007   3.296   0.954 -0.3232 -0.4336 -0.3099
  301MPD2    H7 4595   2.912   3.293   0.918 -0.9094  1.9137  1.1077
  302TMC3    C1 4596   2.810   2.664   0.950 -1.4278 -0.0284 -0.8041
  302TMC3    C2 4597   2.889   2.562   0.994  0.2118 -0.4590 -0.0811
  302TMC3    C3 4598   2.854   2.433   0.954 -0.2097  0.4934 -0.7759
  302TMC3    C4 4599   2.729   2.652   0.838  0.9734  0.2850 -0.1547
  302TMC3    C5 4600   2.718   2.526   0.783 -0.0602 -0.2111  0.2767
  302TMC3    C6 4601   2.776   2.414   0.840  0.2041 -0.7722  0.1138
  302TMC3     C 4602   2.854   2.804   0.972 -0.4505  0.7308  0.6438
  302TMC3     O 4603   2.773   2.887   0.934  0.3993 -0.0701 -0.2349
  302TMC3     H 4604   2.954   2.572   1.080  0.8247  0.8385 -0.6852
  302TMC3    H1 4605   2.677   2.740   0.803  1.3569  1.4824  2.3254
  302TMC3    H2 4606   2.752   2.318   0.797 -1.7720 -0.7412  1.1769
  302TMC3    C7 4607   2.638   2.509   0.667  0.6344  0.4728  0.5603
  302TMC3    C8 4608   2.916   2.320   1.024  0.6905  0.4999  0.5295
  302TMC3    O1 4609   2.660   2.418   0.591  0.0997 -0.0110  0.3286
  302TMC3    O2 4610   3.010   2.328   1.099  0.3036 -0.4764  0.3454
  303MPD2     C 4611   2.620   2.671  10.080  0.7962  1.2340  0.3358
  303MPD2    C1 4612   2.495   2.620  10.045 -0.0263 -1.1894  0.3855
  303MPD2    C2 4613   2.455   2.635   9.915  0.3042  0.2770  0.0408
  303MPD2    C3 4614   2.543   2.687   9.820  0.0777  0.1816  0.4284
  303MPD2    C4 4615   2.664   2.729   9.858 -0.7295 -0.1379 -0.3420
  303MPD2    C5 4616   2.703   2.729   9.986 -0.5435 -0.1141 -0.6198
  303MPD2     H 4617   2.356   2.603   9.882  1.4908 -0.7666 -2.5638
  303MPD2    H1 4618   2.727   2.773   9.781 -0.3750 -1.6928 -0.9363
  303MPD2    H2 4619   2.653   2.655  10.182 -1.1963 -2.6719  0.3871
  303MPD2    H3 4620   2.793   2.779  10.021 -0.7053  0.3971 -0.9377
  303MPD2     N 4621   2.508   2.690   9.681 -0.2149 -0.2387 -0.1070
  303MPD2    H5 4622   2.585   2.719   9.622  0.4821 -2.7123 -0.4056
  303MPD2    N1 4623   2.417   2.557  10.140 -0.6852 -0.2168  0.0174
  303MPD2    H7 4624   2.462   2.546  10.230 -0.6153  1.1355  0.1524
  304TMC3    C1 4625   2.251   2.435  10.247  0.1707  0.5310 -0.8027
  304TMC3    C2 4626   2.118   2.434  10.285 -0.4090 -0.0235 -0.5419
  304TMC3    C3 4627   2.078   2.326  10.361  0.5226  0.1882 -1.0271
  304TMC3    C4 4628   2.332   2.326  10.274 -0.4201  0.2073 -0.7782
  304TMC3    C5 4629   2.286   2.220  10.352  0.1758  0.5352 -0.4397
  304TMC3    C6 4630   2.161   2.226  10.406  0.5562 -0.4110  0.0837
  304TMC3     C 4631   2.295   2.502  10.124  0.1261  0.0281  0.4323
  304TMC3     O 4632   2.224   2.479  10.027 -0.4722  0.0134  0.2975
  304TMC3     H 4633   2.049   2.502  10.237  1.1742 -0.2339 -3.1435
  304TMC3    H1 4634   2.437   2.329  10.247 -0.9655  0.0106 -2.9496
  304TMC3    H2 4635   2.122   2.147  10.470  1.6502 -0.1362  1.0990
  304TMC3    C7 4636   2.305   2.088  10.293  0.4335 -0.3690 -0.6001
  304TMC3    C8 4637   1.955   2.269  10.305  0.1795 -0.0841 -0.5040
  304TMC3    O1 4638   2.236   1.994  10.326 -0.3894  0.2758  0.4042
  304TMC3    O2 4639   1.937   2.292  10.188 -0.3524  0.4749 -0.3627
  305MPD2     C 4640   0.850   4.012  13.843  0.1446 -0.6400  0.3510
  305MPD2    C1 4641   0.911   3.887  13.859 -0.2367 -0.3679 -0.4522
  305MPD2    C2 4642   0.883   3.787  13.766  0.5005  0.6202 -0.4397
  305MPD2    C3 4643   0.793   3.816  13.661 -0.3843  0.4969  0.1567
  305MPD2    C4 4644   0.734   3.942  13.643 -0.1394 -0.3004 -0.5397
  305MPD2    C5 4645   0.759   4.039  13.744 -0.2743  0.8614  0.0725
  305MPD2     H 4646   0.940   3.695  13.766  1.0943  1.0114 -2.6635
  305MPD2    H1 4647   0.671   3.971  13.560 -0.7631 -2.3389 -0.7567
  305MPD2    H2 4648   0.883   4.086  13.914 -0.3762  0.1638 -0.2494
  305MPD2    H3 4649   0.715   4.137  13.733 -0.6587  0.4868 -1.7820
  305MPD2     N 4650   0.767   3.724  13.560 -0.3050 -0.3033  0.1516
  305MPD2    H5 4651   0.717   3.753  13.477 -0.6192  2.6396  1.3714
  305MPD2    N1 4652   0.995   3.875  13.973  0.5045 -0.7633  0.3739
  305MPD2    H7 4653   1.011   3.961  14.024 -1.4268 -0.1188 -0.0973
  306TMC3    C1 4654   1.141   3.765  14.128  0.7229  0.7298  0.0106
  306TMC3    C2 4655   1.218   3.657  14.156  0.4662 -0.0277 -0.1157
  306TMC3    C3 4656   1.254   3.630  14.291  0.2576  0.1210 -0.0978
  306TMC3    C4 4657   1.079   3.839  14.231 -0.0156  0.4825  0.2737
  306TMC3    C5 4658   1.108   3.800  14.363 -0.2537 -0.6547 -0.3747
  306TMC3    C6 4659   1.198   3.702  14.394  1.1111 -0.3850  0.0439
  306TMC3     C 4660   1.067   3.761  14.002 -0.1211  0.0269  0.4007
  306TMC3     O 4661   1.058   3.654  13.946  0.9630 -0.2819  0.3819
  306TMC3     H 4662   1.261   3.614  14.066  0.8644  0.6306 -0.2432
  306TMC3    H1 4663   0.993   3.903  14.215 -0.3651 -0.4237 -1.4083
  306TMC3    H2 4664   1.206   3.671  14.497 -1.3554 -1.4432 -0.0888
  306TMC3    C7 4665   1.012   3.854  14.459  0.3934  0.0300  0.0709
  306TMC3    C8 4666   1.313   3.500  14.310 -0.4754 -0.2055 -0.0403
  306TMC3    O1 4667   0.900   3.875  14.412 -0.0679 -0.2244  0.2420
  306TMC3    O2 4668   1.369   3.449  14.217  0.5541 -0.0622  0.5761
  307MPD2     C 4669   3.959   2.202   0.419  0.6941  0.7187  0.5050
  307MPD2    C1 4670   3.859   2.299   0.428 -0.4761 -0.6840  0.4243
  307MPD2    C2 4671   3.737   2.252   0.482 -0.2991 -0.4573 -0.0673
  307MPD2    C3 4672   3.717   2.127   0.535 -0.2990  0.2387 -0.3465
  307MPD2    C4 4673   3.818   2.031   0.515  0.2752 -0.9148  0.0566
  307MPD2    C5 4674   3.929   2.074   0.455 -0.2360  0.8337  0.4240
  307MPD2     H 4675   3.652   2.319   0.475  1.1472  1.2946 -0.7049
  307MPD2    H1 4676   3.818   1.932   0.559  1.1015 -1.8091 -1.9239
  307MPD2    H2 4677   4.051   2.225   0.366  0.4569 -0.6855 -0.5010
  307MPD2    H3 4678   3.996   1.989   0.449 -0.3301  0.7146  1.1398
  307MPD2     N 4679   3.595   2.118   0.599 -0.4178  0.5248 -0.2913
  307MPD2    H5 4680   3.534   2.199   0.597 -1.7405 -0.4567 -0.2231
  307MPD2    N1 4681   3.870   2.435   0.393 -0.1853  0.3824 -0.6092
  307MPD2    H7 4682   3.792   2.497   0.411  0.4699  0.1914  2.8944
  308TMC3    C1 4683   3.218   1.977   0.790 -1.1099 -1.4124  0.0408
  308TMC3    C2 4684   3.189   2.106   0.838  0.7746 -0.5600  0.1199
  308TMC3    C3 4685   3.303   2.183   0.853  0.9318 -0.3901  0.4654
  308TMC3    C4 4686   3.344   1.939   0.750  0.0071 -0.4617  0.3449
  308TMC3    C5 4687   3.433   2.036   0.741  0.7599  0.8015 -0.1511
  308TMC3    C6 4688   3.419   2.154   0.798 -0.3120 -0.1378  0.0363
  308TMC3     C 4689   3.110   1.913   0.724  0.1176 -0.3562  0.3632
  308TMC3     O 4690   3.130   1.798   0.690 -0.5275 -0.5031 -0.2899
  308TMC3     H 4691   3.088   2.129   0.870  0.0944 -1.0847 -1.6612
  308TMC3    H1 4692   3.365   1.851   0.691 -1.0813 -0.0763 -0.6138
  308TMC3    H2 4693   3.488   2.236   0.792  0.5741 -0.6599  3.1744
  308TMC3    C7 4694   3.558   2.007   0.667  0.4706 -0.1316 -0.1976
  308TMC3    C8 4695   3.271   2.319   0.868  0.2586 -0.5287 -0.3024
  308TMC3    O1 4696   3.613   1.901   0.681 -0.6203 -0.8761  0.0113
  308TMC3    O2 4697   3.167   2.348   0.812 -0.1610  0.1908 -0.3262
  309MPD2     C 4698   2.764   2.178  17.297 -0.1395 -0.3936 -0.1168
  309MPD2    C1 4699   2.694   2.133  17.190 -0.6472 -0.1460  0.4424
  309MPD2    C2 4700   2.567   2.183  17.170  0.1212 -0.1875 -0.4006
  309MPD2    C3 4701   2.514   2.288  17.240 -0.5826  0.5623 -0.3807
  309MPD2    C4 4702   2.581   2.332  17.350  0.8632 -0.8881  0.3389
  309MPD2    C5 4703   2.706   2.277  17.380 -0.1910 -0.0411  0.8665
  309MPD2     H 4704   2.510   2.142  17.087  1.9660 -1.8400 -0.8413
  309MPD2    H1 4705   2.539   2.408  17.414  1.3426 -1.6111  1.5239
  309MPD2    H2 4706   2.862   2.139  17.323  0.7976  1.6604 -0.5989
  309MPD2    H3 4707   2.765   2.323  17.459  1.0227  1.8204 -1.1342
  309MPD2     N 4708   2.383   2.340  17.216  0.0997  0.1903 -0.7273
  309MPD2    H5 4709   2.342   2.407  17.280 -0.9132  0.0431 -1.2162
  309MPD2    N1 4710   2.748   2.040  17.096 -0.3048 -0.7938  0.5267
  309MPD2    H7 4711   2.682   1.998  17.031 -0.4453  1.4423 -0.7764
  310TMC3    C1 4712   2.901   1.918  16.974  0.0334 -0.3995 -0.4021
  310TMC3    C2 4713   2.832   1.951  16.863  0.1588 -0.0346  0.6242
  310TMC3    C3 4714   2.869   1.894  16.747  0.4234 -0.3979 -0.1942
  310TMC3    C4 4715   3.023   1.847  16.960  0.3477  0.1243 -0.1757
  310TMC3    C5 4716   3.051   1.790  16.838 -0.6734  0.0099  0.1811
  310TMC3    C6 4717   2.971   1.804  16.730  0.1426  0.7081 -0.0747
  310TMC3     C 4718   2.876   1.989  17.099 -0.6454 -0.4870 -0.2604
  310TMC3     O 4719   2.966   1.984  17.176 -0.3006  0.5008 -0.4182
  310TMC3     H 4720   2.766   2.037  16.855  1.2441  0.6444 -1.2251
  310TMC3    H1 4721   3.071   1.821  17.054  1.0836  2.3083  0.0413
  310TMC3    H2 4722   3.003   1.767  16.633 -0.2392  0.3345 -0.0609
  310TMC3    C7 4723   3.149   1.682  16.821 -0.1500 -0.9849 -1.0152
  310TMC3    C8 4724   2.794   1.931  16.624 -0.4489  0.4927  0.8902
  310TMC3    O1 4725   3.142   1.619  16.716 -0.6811  0.4015  0.7362
  310TMC3    O2 4726   2.840   1.899  16.513 -0.1851  0.8014  0.0283
  311MPD2     C 4727   4.519   4.071  12.361  0.2317 -0.0256 -0.4097
  311MPD2    C1 4728   4.570   3.997  12.464 -0.2068 -0.6219  0.2634
  311MPD2    C2 4729   4.505   3.883  12.509  0.4170  0.8073 -0.4338
  311MPD2    C3 4730   4.378   3.854  12.451  0.7574 -0.2421  0.0003
  311MPD2    C4 4731   4.326   3.931  12.351 -0.1800  0.0411  0.4871
  311MPD2    C5 4732   4.402   4.041  12.305 -0.4891 -0.5719 -0.0170
  311MPD2     H 4733   4.551   3.819  12.583  2.0243  1.3640 -0.9466
  311MPD2    H1 4734   4.231   3.907  12.305  0.4404 -0.4387 -0.5152
  311MPD2    H2 4735   4.574   4.148  12.309  1.5512 -0.4745  0.3185
  311MPD2    H3 4736   4.374   4.107  12.223  3.5242  1.7856  0.5076
  311MPD2     N 4737   4.299   3.760  12.521 -0.4215  0.5119  0.5747
  311MPD2    H5 4738   4.340   3.725  12.607  2.9441  2.3165 -0.3010
  311MPD2    N1 4739   4.693   4.030  12.521  0.0887 -0.1990  0.6761
  311MPD2    H7 4740   0.002   3.960  12.578 -0.3625 -0.7832  0.3163
  312TMC3    C1 4741   4.105   3.679  12.621  0.7091  0.4879 -0.1306
  312TMC3    C2 4742   3.976   3.722  12.653 -0.2547  0.3601 -0.4994
  312TMC3    C3 4743   3.918   3.682  12.767  0.6604 -0.3970 -0.3697
  312TMC3    C4 4744   4.170   3.594  12.709 -0.2149  0.3277 -1.1943
  312TMC3    C5 4745   4.112   3.547  12.820  0.0871  0.0478  0.8491
  312TMC3    C6 4746   3.987   3.593  12.851  0.3957 -0.5923  0.5914
  312TMC3     C 4747   4.168   3.728  12.500  0.6584 -0.1195  0.5875
  312TMC3     O 4748   4.086   3.765  12.419  0.3247 -0.4082  0.2298
  312TMC3     H 4749   3.915   3.775  12.582 -0.4274  0.4539 -0.2802
  312TMC3    H1 4750   4.260   3.543  12.674 -0.0521 -0.6981  0.7110
  312TMC3    H2 4751   3.942   3.542  12.935 -0.1375  1.1288  1.3636
  312TMC3    C7 4752   4.141   3.408  12.851 -0.0974  0.0162  0.1929
  312TMC3    C8 4753   3.785   3.726  12.819 -0.0399  0.3739 -0.4471
  312TMC3    O1 4754   4.045   3.336  12.881  0.0245 -0.3417 -0.0938
  312TMC3    O2 4755   3.730   3.663  12.908 -0.0268  0.5375 -0.2929
  313MPD2     C 4756   3.526   2.338  10.901 -0.2328  0.0423  0.2051
  313MPD2    C1 4757   3.644   2.334  10.824  0.4063  0.4179 -0.5490
  313MPD2    C2 4758   3.693   2.209  10.789  0.1880 -0.0883 -0.1670
  313MPD2    C3 4759   3.640   2.094  10.841  0.5190 -0.7083  0.7120
  313MPD2    C4 4760   3.540   2.101  10.934  0.8655 -0.3102  0.1367
  313MPD2    C5 4761   3.476   2.224  10.957  0.1342 -0.6012 -1.4532
  313MPD2     H 4762   3.775   2.194  10.720 -1.0258 -1.2287 -1.3423
  313MPD2    H1 4763   3.507   2.016  10.994 -0.9977 -0.0087 -0.4491
  313MPD2    H2 4764   3.479   2.433  10.926 -3.0093 -1.3379  0.2278
  313MPD2    H3 4765   3.384   2.226  11.015 -0.0779 -2.0562 -1.7485
  313MPD2     N 4766   3.688   1.972  10.791 -0.3126  0.1917 -0.0330
  313MPD2    H5 4767   3.769   1.975  10.730  1.5690  1.5803  2.5630
  313MPD2    N1 4768   3.699   2.447  10.762 -0.2251  0.5172  0.3717
  313MPD2    H7 4769   3.639   2.529  10.755 -1.0876 -0.2243 -1.0614
  314TMC3    C1 4770   3.871   2.579  10.671 -0.1409 -0.0879 -0.9376
  314TMC3    C2 4771   3.997   2.618  10.708  0.1876  0.8357  0.0155
  314TMC3    C3 4772   4.052   2.721  10.639 -0.4759  0.0541 -0.1904
  314TMC3    C4 4773   3.799   2.642  10.565 -0.3067 -0.2734  0.7716
  314TMC3    C5 4774   3.864   2.745  10.505  0.8335 -0.1209 -0.3205
  314TMC3    C6 4775   3.987   2.787  10.537 -0.2042  0.2885 -0.1278
  314TMC3     C 4776   3.830   2.450  10.723  0.0954 -0.4833  0.5042
  314TMC3     O 4777   3.924   2.377  10.753 -0.0876  0.0001 -0.0863
  314TMC3     H 4778   4.045   2.565  10.788 -0.0496  1.0871  0.3232
  314TMC3    H1 4779   3.704   2.604  10.528 -0.7848  0.8011  0.9025
  314TMC3    H2 4780   4.021   2.880  10.493  0.8609 -0.1455 -0.2405
  314TMC3    C7 4781   3.772   2.840  10.444 -0.2135  0.0697  0.0824
  314TMC3    C8 4782   4.132   2.807  10.724 -0.5660 -0.0536 -0.4648
  314TMC3    O1 4783   3.652   2.825  10.450 -0.2185 -0.2248 -0.1409
  314TMC3    O2 4784   4.210   2.884  10.666  0.1090 -0.8102 -0.2054
  315MPD2     C 4785   3.836   2.359  17.693 -1.0092 -0.4009  0.4121
  315MPD2    C1 4786   3.974   2.365  17.707  0.0110  0.6089  0.9464
  315MPD2    C2 4787   4.042   2.475  17.656 -0.5587  0.4973 -0.1288
  315MPD2    C3 4788   3.979   2.570  17.574 -0.8164  0.1683 -0.0571
  315MPD2    C4 4789   3.847   2.549  17.546  0.3537 -0.0910 -0.1345
  315MPD2    C5 4790   3.782   2.442  17.604 -1.1067  0.1807  0.7602
  315MPD2     H 4791   4.147   2.477  17.680 -0.6938 -1.5613  0.6130
  315MPD2    H1 4792   3.783   2.608  17.481 -0.6307  0.4617  1.3354
  315MPD2    H2 4793   3.772   2.279  17.728 -0.8178 -1.0284 -0.7018
  315MPD2    H3 4794   3.684   2.428  17.560 -0.0100  0.1702 -1.6369
  315MPD2     N 4795   4.058   2.667  17.520 -0.1961 -0.9297  0.0893
  315MPD2    H5 4796   4.154   2.664  17.555 -1.0499 -0.2239  2.5401
  315MPD2    N1 4797   4.057   2.269   0.023 -0.4131  0.5537 -0.2216
  315MPD2    H7 4798   4.156   2.287   0.016 -0.1336 -0.5735  0.8440
  316TMC3    C1 4799   4.132   2.815  17.354  0.3840 -0.5724  0.0594
  316TMC3    C2 4800   4.234   2.862  17.434 -0.3185  0.1725  0.4510
  316TMC3    C3 4801   4.349   2.911  17.377  0.6010  0.4069 -0.4086
  316TMC3    C4 4802   4.158   2.801  17.216  0.1299  0.1482  0.7714
  316TMC3    C5 4803   4.270   2.860  17.163  0.5087  0.8165 -0.5184
  316TMC3    C6 4804   4.369   2.904  17.243 -0.4722 -0.3222  0.0380
  316TMC3     C 4805   4.024   2.735  17.409  0.7781 -0.1634  0.3506
  316TMC3     O 4806   3.926   2.719  17.333 -0.3090  0.0594 -0.3533
  316TMC3     H 4807   4.218   2.871  17.540  1.3401 -1.1093  0.8080
  316TMC3    H1 4808   4.079   2.741  17.172  1.3707  0.7289 -2.2630
  316TMC3    H2 4809   4.466   2.932  17.203 -0.7798  2.3282  1.1891
  316TMC3    C7 4810   4.309   2.833  17.024  0.0279  0.0909 -0.5871
  316TMC3    C8 4811   4.455   2.958  17.460  0.2415 -0.0211 -0.4077
  316TMC3    O1 4812   4.423   2.843  16.990 -0.3360 -0.0679 -0.4280
  316TMC3    O2 4813   4.517   3.053  17.418 -0.1889 -0.1752 -0.0559
  317MPD2     C 4814   0.605   0.170  12.415 -0.0275 -0.0378 -0.2958
  317MPD2    C1 4815   0.731   0.159  12.367  0.3577  0.3781 -0.1736
  317MPD2    C2 4816   0.834   0.127  12.466 -0.1836  1.2307 -0.0334
  317MPD2    C3 4817   0.800   0.111  12.597 -0.3470 -0.8620 -0.1850
  317MPD2    C4 4818   0.675   0.122  12.637 -0.3457  0.4237 -0.6553
  317MPD2    C5 4819   0.582   0.163  12.549  0.9000  0.3630 -0.0468
  317MPD2     H 4820   0.936   0.109  12.432  0.9296  1.0452  3.4400
  317MPD2    H1 4821   0.641   0.108  12.739 -1.5454  0.2436 -1.0790
  317MPD2    H2 4822   0.513   0.191  12.361 -1.1401 -2.8769  0.4783
  317MPD2    H3 4823   0.478   0.168  12.581  0.9885  0.9427  0.1515
  317MPD2     N 4824   0.889   0.071  12.703 -1.0014  0.0348 -0.6277
  317MPD2    H5 4825   0.843   0.047  12.790 -0.2246  0.1799 -0.1876
  317MPD2    N1 4826   0.776   0.176  12.234 -0.1339  0.2885  0.4695
  317MPD2    H7 4827   0.877   0.178  12.220 -0.3486 -1.0384 -1.3737
  318TMC3    C1 4828   1.090   0.017  12.809 -0.2277 -0.5291 -0.3440
  318TMC3    C2 4829   1.044   4.644  12.882  0.2323  0.0362  0.7905
  318TMC3    C3 4830   1.117   4.589  12.979  0.1810  0.3098  1.6494
  318TMC3    C4 4831   1.217   0.068  12.831  0.0526  0.0899  0.7375
  318TMC3    C5 4832   1.285   0.013  12.936  0.2312 -0.0774  0.2181
  318TMC3    C6 4833   1.241   4.642  13.013  0.3454  0.6726 -0.1971
  318TMC3     C 4834   1.028   0.061  12.692  0.1585  0.8391  0.3594
  318TMC3     O 4835   1.093   0.108  12.600  0.0583 -0.0701  0.0907
  318TMC3     H 4836   0.946   4.599  12.872  1.0114 -1.4668 -0.0527
  318TMC3    H1 4837   1.257   0.153  12.777  0.9843 -0.7146  0.1781
  318TMC3    H2 4838   1.292   4.602  13.100  0.7275  0.1863 -0.6465
  318TMC3    C7 4839   1.383   0.110  12.989 -0.0132  0.2189  0.1423
  318TMC3    C8 4840   1.077   4.478  13.059  0.8865 -0.0190 -0.0411
  318TMC3    O1 4841   1.378   0.225  12.950  0.2755  0.2023  0.2381
  318TMC3    O2 4842   1.163   4.405  13.096 -0.9967  0.2413  0.0940
  319MPD2     C 4843   1.716   1.098  16.801 -0.7799 -0.2370  0.0114
  319MPD2    C1 4844   1.635   1.194  16.739 -0.4361 -0.0106 -0.6527
  319MPD2    C2 4845   1.580   1.169  16.616 -1.2910 -1.1332 -0.3294
  319MPD2    C3 4846   1.597   1.045  16.557 -0.1577 -0.5290 -0.4130
  319MPD2    C4 4847   1.668   0.948  16.626 -0.2384 -0.1027  0.0807
  319MPD2    C5 4848   1.724   0.973  16.748 -0.6057  0.1279  0.0882
  319MPD2     H 4849   1.516   1.247  16.576  0.1426  0.8197  1.1631
  319MPD2    H1 4850   1.680   0.847  16.589 -0.6172  0.7922 -2.4719
  319MPD2    H2 4851   1.765   1.114  16.896 -0.5066 -0.6768 -0.0572
  319MPD2    H3 4852   1.774   0.893  16.802  1.1605  1.1160 -0.0646
  319MPD2     N 4853   1.542   0.997  16.428  0.0871 -0.2235  0.2880
  319MPD2    H5 4854   1.586   0.917  16.384 -0.6176 -0.4795  0.0467
  319MPD2    N1 4855   1.633   1.329  16.785 -0.1361 -0.7279  0.2343
  319MPD2    H7 4856   1.599   1.402  16.722  2.3764  2.1559  2.2196
  320TMC3    C1 4857   1.409   1.005  16.234  0.0176  0.9314  0.4549
  320TMC3    C2 4858   1.395   1.095  16.128  0.3701  0.0658 -0.1374
  320TMC3    C3 4859   1.413   1.047  15.997  0.1059 -0.5711 -1.0797
  320TMC3    C4 4860   1.457   0.876  16.207 -0.3427  0.5696 -0.4550
  320TMC3    C5 4861   1.464   0.838  16.078 -0.5660 -0.4413 -0.6717
  320TMC3    C6 4862   1.438   0.920  15.967  0.0121  0.1418 -0.1532
  320TMC3     C 4863   1.455   1.070  16.358  0.4801  0.1396  0.2518
  320TMC3     O 4864   1.398   1.173  16.389  0.0727  0.0328 -0.4201
  320TMC3     H 4865   1.371   1.197  16.153  1.7825  0.0851  1.1557
  320TMC3    H1 4866   1.457   0.795  16.280  1.0760 -0.4326 -1.5684
  320TMC3    H2 4867   1.463   0.885  15.867  3.4668  0.0299  0.7363
  320TMC3    C7 4868   1.528   0.717  16.043  0.7819 -0.0703  0.3770
  320TMC3    C8 4869   1.404   1.150  15.893  0.0070 -0.2277 -0.1119
  320TMC3    O1 4870   1.602   0.725  15.947 -0.4227  0.6479  0.4541
  320TMC3    O2 4871   1.390   1.265  15.930 -0.5439 -0.1442  0.3274
  321TMC3    C1 4872   1.648   1.506  16.940 -0.2548 -0.1949 -0.2317
  321TMC3    C2 4873   1.601   1.529  17.062 -0.1152  0.3077  0.2688
  321TMC3    C3 4874   1.638   1.639  17.137 -0.1869 -0.8492 -0.2748
  321TMC3    C4 4875   1.742   1.588  16.884  0.3697 -0.0095 -0.4936
  321TMC3    C5 4876   1.758   1.712  16.944  0.3948 -0.7429 -0.5592
  321TMC3    C6 4877   1.697   1.747  17.068  0.7188  0.1805  0.2609
  321TMC3     C 4878   1.667   1.364  16.916  0.2123  0.4308 -0.6313
  321TMC3     O 4879   1.683   1.304  17.014 -0.6600  0.5668  0.4054
  321TMC3     H 4880   1.527   1.458  17.097 -1.2034  2.1561  1.7941
  321TMC3    H1 4881   1.793   1.563  16.792 -1.3320  1.2251 -1.7680
  321TMC3    H2 4882   1.725   1.840  17.115 -0.1285  0.6702 -0.2063
  321TMC3    C7 4883   1.894   1.763  16.925 -0.4676 -0.3673 -0.1654
  321TMC3    C8 4884   1.712   1.613  17.257 -0.6343  0.4931  0.0661
  321TMC3    O1 4885   1.977   1.685  16.876 -0.4718  0.1991 -0.6168
  321TMC3    O2 4886   1.783   1.704  17.300 -0.0087 -0.0492 -0.9367
  322MPD2     C 4887   1.018   2.912  13.079  0.0054  0.6708  0.7566
  322MPD2    C1 4888   1.038   2.877  13.209  0.2758 -0.2245  0.5283
  322MPD2    C2 4889   1.022   2.742  13.243 -0.2946 -0.0419  1.3022
  322MPD2    C3 4890   1.000   2.648  13.139 -0.4074  0.8122 -0.2906
  322MPD2    C4 4891   0.977   2.691  13.011  0.0805 -0.0151 -0.3992
  322MPD2    C5 4892   0.991   2.826  12.978 -0.1375 -0.0252  0.3775
  322MPD2     H 4893   1.043   2.707  13.343 -0.9372 -0.3042  1.3479
  322MPD2    H1 4894   0.937   2.619  12.941 -2.8514  1.0431  0.1808
  322MPD2    H2 4895   1.031   3.017  13.052 -0.5043 -0.2840 -3.1350
  322MPD2    H3 4896   0.960   2.866  12.881 -0.4648 -3.5756 -0.9733
  322MPD2     N 4897   1.003   2.509  13.178  0.6511 -0.2179 -0.2107
  322MPD2    H5 4898   1.037   2.498  13.273 -2.8015  0.5738  1.0988
  322MPD2    N1 4899   1.058   2.979  13.296 -0.7228 -0.3042  0.5699
  322MPD2    H7 4900   1.093   3.065  13.255  1.8332 -1.7961 -0.3705
  323TMC3    C1 4901   1.135   3.068  13.499 -0.3287 -0.7579  0.5569
  323TMC3    C2 4902   1.208   3.161  13.426 -0.6459 -0.8107 -0.4270
  323TMC3    C3 4903   1.305   3.227  13.493 -0.6783 -0.0511 -0.2094
  323TMC3    C4 4904   1.143   3.059  13.634 -0.0736  0.2892  0.1454
  323TMC3    C5 4905   1.236   3.139  13.696 -0.2192  0.7046 -0.2146
  323TMC3    C6 4906   1.312   3.228  13.629  0.1603 -0.1626 -1.1601
  323TMC3     C 4907   1.065   2.959  13.434 -0.8565  0.4783 -0.4696
  323TMC3     O 4908   1.010   2.875  13.506 -0.5180 -0.0279 -0.0832
  323TMC3     H 4909   1.216   3.175  13.319 -0.1569 -2.7891 -0.6625
  323TMC3    H1 4910   1.102   2.984  13.700  1.2273  0.3864  1.0704
  323TMC3    H2 4911   1.381   3.298  13.675 -1.1840  0.8145 -0.6297
  323TMC3    C7 4912   1.264   3.093  13.834 -0.2008 -0.5297  0.3722
  323TMC3    C8 4913   1.409   3.297  13.419 -0.1609  0.0608 -0.8024
  323TMC3    O1 4914   1.320   2.985  13.848  0.0982 -0.4738  0.1490
  323TMC3    O2 4915   1.379   3.329  13.306 -0.0058  0.3372 -0.3354
  324MPD2     C 4916   2.400   3.968  13.598  0.2196  0.6014 -0.4560
  324MPD2    C1 4917   2.344   3.955  13.717  0.1472 -0.0457  0.4714
  324MPD2    C2 4918   2.223   3.891  13.734  0.2567  0.3341  0.0868
  324MPD2    C3 4919   2.165   3.836  13.625  0.0915 -0.2350  0.1478
  324MPD2    C4 4920   2.213   3.855  13.504  0.0201 -0.3059 -0.1370
  324MPD2    C5 4921   2.331   3.921  13.488 -0.4400 -0.3408 -0.5811
  324MPD2     H 4922   2.182   3.882  13.834  0.2986  1.6078  0.2155
  324MPD2    H1 4923   2.162   3.819  13.415 -0.9424 -2.6499  1.3711
  324MPD2    H2 4924   2.504   3.994  13.580  0.6361 -0.2929  0.6532
  324MPD2    H3 4925   2.370   3.929  13.387 -1.0992 -1.0687 -0.8967
  324MPD2     N 4926   2.042   3.766  13.635  0.4178 -0.2775  0.3502
  324MPD2    H5 4927   2.006   3.727  13.549 -2.4362 -0.8091  1.7901
  324MPD2    N1 4928   2.407   3.986  13.839 -0.7731 -0.3288  0.0609
  324MPD2    H7 4929   2.353   3.958  13.920  1.8869 -2.7057  1.0008
  325TMC3    C1 4930   1.837   3.712  13.695  0.0273  0.0265 -0.0841
  325TMC3    C2 4931   1.839   3.642  13.578  1.0485  0.0538  0.4519
  325TMC3    C3 4932   1.754   3.689  13.476 -0.9135 -0.5288 -0.0410
  325TMC3    C4 4933   1.762   3.828  13.717  0.2511  0.5693 -0.4620
  325TMC3    C5 4934   1.681   3.864  13.614  0.2517 -0.5978 -0.4798
  325TMC3    C6 4935   1.676   3.801  13.494  0.1133 -0.1985  0.2367
  325TMC3     C 4936   1.968   3.743  13.744 -0.6508  0.8624 -0.3125
  325TMC3     O 4937   1.980   3.798  13.853  0.0091 -0.2885 -0.5284
  325TMC3     H 4938   1.909   3.562  13.559 -0.6974 -1.1834 -0.7297
  325TMC3    H1 4939   1.774   3.875  13.813  1.7868 -1.9167  0.5736
  325TMC3    H2 4940   1.619   3.835  13.408  1.3311  1.5464  0.1344
  325TMC3    C7 4941   1.642   4.005  13.604 -0.7461 -0.0202 -0.7321
  325TMC3    C8 4942   1.816   3.672  13.353 -0.4898 -0.6506  0.4238
  325TMC3    O1 4943   1.607   4.048  13.497 -0.0055 -0.2909 -0.6233
  325TMC3    O2 4944   1.938   3.665  13.349  0.7945  0.6570 -0.1931
  326MPD2     C 4945   3.262   0.960  11.059 -0.5820  0.0453  0.4472
  326MPD2    C1 4946   3.324   0.946  10.941 -0.1049 -0.2051 -0.3665
  326MPD2    C2 4947   3.460   0.964  10.940 -0.3491 -0.3086 -0.3028
  326MPD2    C3 4948   3.537   0.975  11.056 -0.9616 -0.4288 -0.1454
  326MPD2    C4 4949   3.472   0.984  11.172  0.2918 -0.3971 -0.0354
  326MPD2    C5 4950   3.333   0.989  11.172 -0.3089  0.1812 -0.0735
  326MPD2     H 4951   3.513   0.958  10.845  2.8678  0.6292  1.4208
  326MPD2    H1 4952   3.529   0.974  11.264  0.6472  0.7312 -0.1313
  326MPD2    H2 4953   3.156   0.945  11.076 -1.1433  0.3609 -2.7518
  326MPD2    H3 4954   3.276   1.008  11.263 -0.7361  1.6826 -0.6607
  326MPD2     N 4955   3.678   0.968  11.053 -0.1476 -0.2413  0.6489
  326MPD2    H5 4956   3.736   0.985  11.135  1.0185 -1.4394  0.0903
  326MPD2    N1 4957   3.262   0.929  10.813 -0.0448 -0.9911 -0.1254
  326MPD2    H7 4958   3.320   0.907  10.733 -0.0118 -0.9167 -0.1224
  327TMC3    C1 4959   3.089   0.867  10.662 -0.4374  0.2372  0.1901
  327TMC3    C2 4960   2.978   0.920  10.599  0.3503 -0.1443  0.3125
  327TMC3    C3 4961   2.958   0.875  10.472  0.1677 -0.1488  0.1123
  327TMC3    C4 4962   3.178   0.780  10.610 -0.2853  0.6597 -0.3830
  327TMC3    C5 4963   3.153   0.742  10.475 -0.0379 -0.9405  0.0172
  327TMC3    C6 4964   3.047   0.794  10.411 -0.6780  0.4425  0.2405
  327TMC3     C 4965   3.123   0.925  10.794 -0.5761  0.3104  0.4466
  327TMC3     O 4966   3.034   0.957  10.867 -0.0074 -0.3591  0.0878
  327TMC3     H 4967   2.932   1.005  10.647  0.8648  0.6164 -0.5333
  327TMC3    H1 4968   3.239   0.717  10.674  1.1275  0.6679 -1.7244
  327TMC3    H2 4969   3.021   0.749  10.316 -0.6652 -0.3767  0.6217
  327TMC3    C7 4970   3.214   0.621  10.421 -0.2129 -0.3368  0.2664
  327TMC3    C8 4971   2.889   0.965  10.381  0.1798 -0.1850  0.2229
  327TMC3    O1 4972   3.146   0.553  10.348 -0.0548 -0.3517 -0.4375
  327TMC3    O2 4973   2.929   0.977  10.268 -0.0880  0.4741  0.3316
  328MPD2     C 4974   1.508   0.624  17.072 -0.2144 -0.3953  0.0093
  328MPD2    C1 4975   1.414   0.536  17.121  0.4961  0.6466 -1.2342
  328MPD2    C2 4976   1.322   0.486  17.032 -0.6188 -0.2258 -0.5466
  328MPD2    C3 4977   1.326   0.524  16.896  0.2515 -0.0388  0.2082
  328MPD2    C4 4978   1.427   0.602  16.847 -0.5429  0.1451 -0.2164
  328MPD2    C5 4979   1.512   0.652  16.937  0.1779 -0.0616  0.5152
  328MPD2     H 4980   1.245   0.419  17.069 -0.5346 -0.3502 -0.5960
  328MPD2    H1 4981   1.405   0.651  16.753 -2.1833  2.1215  1.1909
  328MPD2    H2 4982   1.588   0.659  17.137  1.3841 -1.9902 -1.1003
  328MPD2    H3 4983   1.583   0.730  16.910 -2.2209  1.3964 -1.5875
  328MPD2     N 4984   1.224   0.499  16.802 -0.0553 -0.2879  0.4796
  328MPD2    H5 4985   1.226   0.535  16.707  0.5208 -3.3634 -0.6580
  328MPD2    N1 4986   1.427   0.498  17.256  0.0904 -0.2633  0.2800
  328MPD2    H7 4987   1.489   0.560  17.306  2.1941  0.0595 -2.6833
  329TMC3    C1 4988   1.339   0.445  17.468 -0.1117  0.7576 -0.3182
  329TMC3    C2 4989   1.340   0.583  17.506  0.1546  0.5395  0.0256
  329TMC3    C3 4990   1.283   0.616  17.621 -0.0635 -0.6844  0.0244
  329TMC3    C4 4991   1.269   0.353  17.536  0.2575 -0.0570  0.3861
  329TMC3    C5 4992   1.196   0.396  17.635  0.2392  0.2356  0.7128
  329TMC3    C6 4993   1.203   0.524  17.686  0.2691  0.6538 -0.2491
  329TMC3     C 4994   1.346   0.418  17.328  0.2790  0.0307  0.3801
  329TMC3     O 4995   1.269   0.337  17.283 -0.2073 -0.3676 -0.5567
  329TMC3     H 4996   1.378   0.653  17.433 -0.2508  0.7722  0.0368
  329TMC3    H1 4997   1.263   0.252  17.496 -3.7035  0.4816 -0.3496
  329TMC3    H2 4998   1.144   0.553   0.028  1.8092  2.9942  0.0057
  329TMC3    C7 4999   1.117   0.299  17.723  0.8259  0.6676  0.2509
  329TMC3    C8 5000   1.235   0.752  17.626 -0.2150 -0.3005  0.2939
  329TMC3    O1 5001   1.051   0.341   0.073 -0.1433  0.4408  0.5292
  329TMC3    O2 5002   1.308   0.842  17.595  0.4382 -0.1395 -0.2552
  330TMC3    C1 5003   3.497   0.193   8.939 -0.4263  0.8798 -0.2798
  330TMC3    C2 5004   3.402   0.126   9.017  0.4655  0.7325  0.0776
  330TMC3    C3 5005   3.438   0.011   9.075  0.0472  0.1273  0.9630
  330TMC3    C4 5006   3.624   0.147   8.929  0.1158  0.9028 -0.4271
  330TMC3    C5 5007   3.658   0.025   8.984  0.4066  0.7321  0.5177
  330TMC3    C6 5008   3.562   4.686   9.050  0.3380 -0.8022 -0.1722
  330TMC3     C 5009   3.451   0.257   8.818  0.2211  0.2442 -0.2842
  330TMC3     O 5010   3.501   0.231   8.707  0.6787  0.5171 -0.1924
  330TMC3     H 5011   3.300   0.165   9.017  0.4617  0.7301  0.9072
  330TMC3    H1 5012   3.682   0.187   8.847 -2.4404  0.0531 -2.6312
  330TMC3    H2 5013   3.586   4.587   9.086  1.2532 -1.0734 -1.5384
  330TMC3    C7 5014   3.800   0.003   8.995 -0.4502  0.3486  0.5542
  330TMC3    C8 5015   3.337   4.661   9.126 -0.2109  0.3564 -0.0877
  330TMC3    O1 5016   3.871   0.068   8.925 -0.1893 -0.1584 -0.3043
  330TMC3    O2 5017   3.224   4.701   9.103  0.7012  0.9920 -0.4664
  331MPD2     C 5018   2.515   4.172  12.092 -0.0253  0.0006 -0.5170
  331MPD2    C1 5019   2.383   4.165  12.063 -0.2013  0.7572 -0.2755
  331MPD2    C2 5020   2.305   4.076  12.134  0.6703 -0.0254  0.2434
  331MPD2    C3 5021   2.356   4.001  12.238 -1.3124 -0.9256 -0.3218
  331MPD2    C4 5022   2.488   4.018  12.280 -0.0256 -0.0051 -1.0297
  331MPD2    C5 5023   2.563   4.106  12.204 -0.0803 -0.0476  0.2870
  331MPD2     H 5024   2.208   4.051  12.092  0.8193  1.1317 -0.7695
  331MPD2    H1 5025   2.535   3.949  12.349  1.8658  2.1365 -0.1553
  331MPD2    H2 5026   2.570   4.248  12.037  1.9971 -0.6017  0.6640
  331MPD2    H3 5027   2.659   4.125  12.250  0.4922 -0.6907 -0.6399
  331MPD2     N 5028   2.274   3.903  12.295  0.2247 -0.2259  0.3084
  331MPD2    H5 5029   2.177   3.909  12.266  0.4417  1.5460 -0.0391
  331MPD2    N1 5030   2.337   4.251  11.961 -0.5402  0.7104 -0.2282
  331MPD2    H7 5031   2.409   4.287  11.899  0.2768 -0.4344  0.0555
  332TMC3    C1 5032   2.185   3.731  12.423 -0.2346  0.0096 -0.2360
  332TMC3    C2 5033   2.122   3.677  12.317 -0.2114 -0.4288 -0.4947
  332TMC3    C3 5034   2.036   3.577  12.334 -0.0188 -0.1695 -0.1043
  332TMC3    C4 5035   2.169   3.677  12.553 -0.7736  0.5295 -0.3148
  332TMC3    C5 5036   2.074   3.581  12.575 -0.3965  0.4007  0.0978
  332TMC3    C6 5037   2.003   3.532  12.463  0.0245 -0.0109 -0.1681
  332TMC3     C 5038   2.306   3.810  12.389  0.2926  0.4518 -0.5079
  332TMC3     O 5039   2.395   3.814  12.472 -0.1183  0.4157 -0.3422
  332TMC3     H 5040   2.143   3.714  12.217  1.4078  0.2699  0.1156
  332TMC3    H1 5041   2.226   3.719  12.635  2.5030 -2.2396 -1.1644
  332TMC3    H2 5042   1.919   3.466  12.484 -1.1029  0.9552 -1.6916
  332TMC3    C7 5043   2.094   3.473  12.669  0.5413  0.0038  0.0593
  332TMC3    C8 5044   1.972   3.525  12.216  0.7352  0.3600  0.1060
  332TMC3    O1 5045   2.017   3.378  12.660 -0.0131 -0.1675 -0.1250
  332TMC3    O2 5046   2.008   3.570  12.109  1.0119 -0.4476  0.3703
  333MPD2     C 5047   2.051   3.722  10.983 -0.1746 -0.1314  0.1972
  333MPD2    C1 5048   2.146   3.626  10.942 -0.2899 -0.0783  0.5617
  333MPD2    C2 5049   2.123   3.491  10.964  0.3699  0.0404 -0.1866
  333MPD2    C3 5050   2.015   3.442  11.033  0.3967 -0.0690  0.7903
  333MPD2    C4 5051   1.917   3.532  11.064  0.4808 -0.5378 -0.3145
  333MPD2    C5 5052   1.938   3.667  11.041 -0.1899  0.2030 -0.2070
  333MPD2     H 5053   2.194   3.421  10.922  0.9105 -0.3074  1.3256
  333MPD2    H1 5054   1.823   3.502  11.108 -0.2678 -1.3739 -2.4767
  333MPD2    H2 5055   2.058   3.831  10.982  1.3487 -0.2365 -0.1882
  333MPD2    H3 5056   1.859   3.733  11.073 -1.0700 -1.7298  1.5886
  333MPD2     N 5057   2.010   3.304  11.045 -0.4059  0.5151  0.2755
  333MPD2    H5 5058   2.085   3.259  10.995 -0.5129 -0.9005  1.3873
  333MPD2    N1 5059   2.265   3.662  10.870 -0.5345  0.2649  1.1783
  333MPD2    H7 5060   2.328   3.584  10.854 -1.0287 -0.0852  0.9417
  334TMC3    C1 5061   2.407   3.791  10.734 -0.2534  0.0773 -0.4881
  334TMC3    C2 5062   2.488   3.679  10.715  1.1180  0.5862  0.1487
  334TMC3    C3 5063   2.566   3.666  10.605  0.2464 -0.0100  0.1460
  334TMC3    C4 5064   2.416   3.902  10.647  0.2213 -0.3280 -0.4039
  334TMC3    C5 5065   2.494   3.884  10.540  0.0228  0.5005  0.1057
  334TMC3    C6 5066   2.573   3.773  10.520  0.2506 -0.5358 -0.2522
  334TMC3     C 5067   2.295   3.789  10.826 -0.4803 -0.2051  0.0100
  334TMC3     O 5068   2.235   3.894  10.839 -0.2652  0.2821 -0.0223
  334TMC3     H 5069   2.500   3.610  10.797 -0.2226  0.0780 -0.0783
  334TMC3    H1 5070   2.341   3.980  10.653 -1.3352 -2.0170  2.4392
  334TMC3    H2 5071   2.635   3.764  10.431 -0.1082  1.3341 -0.6816
  334TMC3    C7 5072   2.477   3.975  10.428  0.7576 -0.4009  0.1180
  334TMC3    C8 5073   2.657   3.550  10.592 -0.9228  0.5236  0.6856
  334TMC3    O1 5074   2.443   4.089  10.448  0.1485 -0.0069 -0.3519
  334TMC3    O2 5075   2.623   3.440  10.633 -0.2663  0.3516 -1.0299
  335TMC3    C1 5076   1.851   0.171  17.200 -0.4118 -0.0094  0.1669
  335TMC3    C2 5077   1.793   0.105  17.095 -0.5034 -0.1442 -0.9898
  335TMC3    C3 5078   1.859   0.097  16.973 -0.5163  0.2404  0.0602
  335TMC3    C4 5079   1.974   0.233  17.177 -0.0955 -0.8435  0.0669
  335TMC3    C5 5080   2.025   0.242  17.049 -0.5167  0.3920 -0.2987
  335TMC3    C6 5081   1.970   0.172  16.944 -0.3759 -0.4022  0.1038
  335TMC3     C 5082   1.789   0.194  17.330  0.0399 -0.4513  0.6586
  335TMC3     O 5083   1.855   0.253  17.416  0.1806  0.4883 -0.5464
  335TMC3     H 5084   1.705   0.043  17.109 -0.3078 -0.4817 -1.2472
  335TMC3    H1 5085   2.036   0.272  17.256 -0.8671  0.0302  0.2416
  335TMC3    H2 5086   2.016   0.172  16.846  3.0525  0.3229  1.7272
  335TMC3    C7 5087   2.162   0.289  17.045 -0.5392  0.9159 -0.2596
  335TMC3    C8 5088   1.794   0.041  16.859 -0.2281  0.2358  0.8059
  335TMC3    O1 5089   2.244   0.213  17.005 -0.3874 -0.1022 -0.4837
  335TMC3    O2 5090   1.832   0.070  16.745  0.0761  0.3723 -0.1610
  336MPD2     C 5091   2.037   2.510  16.360  0.1540  0.0001 -0.2794
  336MPD2    C1 5092   2.082   2.493  16.234 -0.4670 -0.3421 -0.4553
  336MPD2    C2 5093   2.093   2.365  16.176 -0.5715 -0.6716  0.5041
  336MPD2    C3 5094   2.072   2.252  16.254  0.2385  0.2066 -0.2027
  336MPD2    C4 5095   2.015   2.271  16.376  0.3485  0.1093  0.7172
  336MPD2    C5 5096   1.996   2.396  16.427  0.2646  0.3705 -0.1314
  336MPD2     H 5097   2.120   2.353  16.072 -0.8363  0.2456  0.3301
  336MPD2    H1 5098   2.011   2.187  16.445  0.6419 -0.6882 -0.2312
  336MPD2    H2 5099   2.030   2.612  16.398  1.9723  0.6889 -1.8164
  336MPD2    H3 5100   1.967   2.411  16.531  1.6870  1.9726  0.0474
  336MPD2     N 5101   2.111   2.126  16.207 -1.3615  0.6759 -0.2805
  336MPD2    H5 5102   2.070   2.045  16.254  0.8076 -0.3378 -0.1388
  336MPD2    N1 5103   2.112   2.602  16.152 -0.0059  0.3143 -0.0850
  336MPD2    H7 5104   2.144   2.590  16.057 -1.2403  2.6894 -0.7886
  337TMC3    C1 5105   2.072   2.815  16.050 -0.4843 -0.1942 -0.3904
  337TMC3    C2 5106   1.950   2.861  16.019  0.3713 -0.2697  0.7485
  337TMC3    C3 5107   1.914   2.889  15.893 -0.1425 -0.1226  0.2272
  337TMC3    C4 5108   2.162   2.792  15.946 -0.5063 -0.3576  0.3589
  337TMC3    C5 5109   2.121   2.820  15.820  0.1698  0.7461  0.2505
  337TMC3    C6 5110   1.996   2.864  15.785  0.0415 -0.1480 -0.7153
  337TMC3     C 5111   2.067   2.733  16.173  0.4071 -0.4758 -0.0768
  337TMC3     O 5112   2.000   2.785  16.260 -0.5917 -0.9502 -0.3196
  337TMC3     H 5113   1.887   2.890  16.103 -0.7317  0.9345 -0.4934
  337TMC3    H1 5114   2.267   2.767  15.957 -0.3015  0.9242  1.3990
  337TMC3    H2 5115   1.972   2.875  15.680 -0.2376  0.3131 -0.6040
  337TMC3    C7 5116   2.224   2.840  15.716 -0.1224 -0.1190 -0.2215
  337TMC3    C8 5117   1.776   2.912  15.879  0.4089 -0.0366  0.2161
  337TMC3    O1 5118   2.197   2.919  15.630  0.3954  0.4340  0.5386
  337TMC3    O2 5119   1.717   2.972  15.967  0.0589 -0.0291  0.4787
  338MPD2     C 5120   1.848   2.334   0.849 -0.0981  0.1310  0.4322
  338MPD2    C1 5121   1.857   2.315   0.712  0.3006  1.1528  0.9802
  338MPD2    C2 5122   1.744   2.281   0.643 -0.2237 -0.4871  0.4973
  338MPD2    C3 5123   1.616   2.285   0.692 -0.0319 -0.3747  0.4532
  338MPD2    C4 5124   1.604   2.331   0.823  0.5298 -0.8299  0.1228
  338MPD2    C5 5125   1.720   2.353   0.896  0.3096  0.3635  0.6931
  338MPD2     H 5126   1.749   2.280   0.535 -0.2623  0.3568  0.4868
  338MPD2    H1 5127   1.508   2.355   0.869  1.2051  0.6352  0.7818
  338MPD2    H2 5128   1.930   2.346   0.919  2.1549 -1.4488 -1.9417
  338MPD2    H3 5129   1.701   2.374   1.001 -2.0790  2.2717 -0.1172
  338MPD2     N 5130   1.512   2.268   0.602 -0.0404 -0.5142  0.2451
  338MPD2    H5 5131   1.541   2.239   0.509 -3.0888 -0.0517 -0.8533
  338MPD2    N1 5132   1.976   2.319   0.643 -0.6420  0.2971 -0.7813
  338MPD2    H7 5133   1.977   2.307   0.542  0.3822  1.5635 -0.9256
  339TMC3    C1 5134   1.290   2.265   0.517 -0.2178  0.5875 -0.2975
  339TMC3    C2 5135   1.318   2.150   0.461 -0.0718  0.5153  0.3503
  339TMC3    C3 5136   1.313   2.136   0.328 -1.0135 -0.4927  0.4400
  339TMC3    C4 5137   1.249   2.374   0.440  1.0133  0.6216  0.3116
  339TMC3    C5 5138   1.253   2.354   0.300 -0.2882  0.0078 -0.0290
  339TMC3    C6 5139   1.279   2.235   0.242 -0.8329 -0.0304 -0.0051
  339TMC3     C 5140   1.379   2.304   0.622  0.7584 -0.0227  0.1468
  339TMC3     O 5141   1.336   2.353   0.725 -0.2960  0.3434 -0.1134
  339TMC3     H 5142   1.375   2.076   0.516 -0.5587  0.0227  0.1863
  339TMC3    H1 5143   1.230   2.467   0.491  1.1604  0.7856  0.0718
  339TMC3    H2 5144   1.265   2.219   0.136  2.1408  0.9338 -0.5546
  339TMC3    C7 5145   1.305   2.465   0.226  0.4947  0.4649 -0.3883
  339TMC3    C8 5146   1.363   2.013   0.274 -0.6802 -0.0904 -0.7297
  339TMC3    O1 5147   1.276   2.576   0.272 -0.3208  0.1807  0.1226
  339TMC3    O2 5148   1.377   2.015   0.156  0.4820 -0.9299 -0.0854
  340MPD2     C 5149   2.044   0.606  10.459 -0.1303  0.4741  0.3139
  340MPD2    C1 5150   2.021   0.625  10.323 -0.3997 -0.5004  0.6200
  340MPD2    C2 5151   2.027   0.753  10.276 -0.0890 -0.3582 -1.1948
  340MPD2    C3 5152   2.059   0.859  10.362  0.5111 -0.1771 -0.2431
  340MPD2    C4 5153   2.102   0.835  10.494  0.4161 -0.1089 -0.7836
  340MPD2    C5 5154   2.079   0.709  10.544  0.6006  0.1772 -0.2788
  340MPD2     H 5155   2.003   0.769  10.172 -0.9108  1.1887 -0.7584
  340MPD2    H1 5156   2.129   0.908  10.569  1.2873 -0.6135 -0.6044
  340MPD2    H2 5157   2.036   0.502  10.489 -0.8814  0.7145  0.9634
  340MPD2    H3 5158   2.101   0.686  10.647 -1.3332  0.7713  0.2703
  340MPD2     N 5159   2.072   0.988  10.312  0.9468  0.3476  0.0024
  340MPD2    H5 5160   2.123   1.055  10.368  3.1986 -0.0728 -1.5146
  340MPD2    N1 5161   2.021   0.528  10.224 -0.1374  0.0328  0.0859
  340MPD2    H7 5162   2.023   0.563  10.129  2.0652 -3.0247 -1.0030
  341TMC3    C1 5163   1.992   0.313  10.122 -0.4035  0.4532 -0.1742
  341TMC3    C2 5164   2.007   0.174  10.124 -0.0475  0.7130 -0.1773
  341TMC3    C3 5165   1.997   0.105  10.005  0.7633  0.4630  0.5948
  341TMC3    C4 5166   1.989   0.382   9.999 -0.2433 -0.0080  0.0795
  341TMC3    C5 5167   1.977   0.307   9.888  0.5788 -0.8739  0.5225
  341TMC3    C6 5168   1.974   0.172   9.885  0.1470 -0.1622  0.4308
  341TMC3     C 5169   2.013   0.389  10.243  0.5788  0.0550 -0.6102
  341TMC3     O 5170   1.994   0.334  10.348 -0.2362 -1.0205 -0.1527
  341TMC3     H 5171   2.039   0.136  10.221  0.3467  3.1664  0.6606
  341TMC3    H1 5172   1.977   0.490   9.994 -0.5806 -0.0784 -0.5547
  341TMC3    H2 5173   1.978   0.113   9.794  1.8329  0.5413  0.0507
  341TMC3    C7 5174   1.924   0.370   9.779  0.8393 -0.3373  0.3883
  341TMC3    C8 5175   1.948   4.702   9.998 -0.0467 -0.5220  0.3463
  341TMC3    O1 5176   1.940   0.491   9.775 -0.5581 -0.1121 -0.6392
  341TMC3    O2 5177   1.916   4.668   9.885  0.2407 -0.0312 -0.3067
  342MPD2     C 5178   0.480   2.797  17.435  0.3327  0.0711  0.8369
  342MPD2    C1 5179   0.459   2.863  17.321  0.1531 -0.4311 -0.2877
  342MPD2    C2 5180   0.413   2.994  17.319 -0.3905 -0.3001  0.5004
  342MPD2    C3 5181   0.381   3.063  17.438  0.0270  0.4006 -0.0286
  342MPD2    C4 5182   0.415   2.997  17.550 -0.4193  0.3743 -0.5017
  342MPD2    C5 5183   0.469   2.868  17.547  0.2820 -0.3837  0.0893
  342MPD2     H 5184   0.403   3.056  17.231 -1.7633 -1.1830  0.0401
  342MPD2    H1 5185   0.404   3.041  17.648 -1.2376 -0.0924 -0.3862
  342MPD2    H2 5186   0.493   2.691  17.455  0.0782 -0.0417  0.4104
  342MPD2    H3 5187   0.495   2.816  17.638 -1.1089 -1.5225 -0.1644
  342MPD2     N 5188   0.332   3.203  17.451  0.2392 -0.0681 -0.3997
  342MPD2    H5 5189   0.347   3.240  17.544 -0.9303 -1.2863  0.2791
  342MPD2    N1 5190   0.460   2.801  17.193  0.0671  0.2297 -1.0729
  342MPD2    H7 5191   0.444   2.865  17.116  0.3811 -0.4086 -1.6696
  343TMC3    C1 5192   0.435   2.624  17.034  0.3550  0.4634 -0.6033
  343TMC3    C2 5193   0.509   2.682  16.933  0.5707 -0.0888 -0.0546
  343TMC3    C3 5194   0.506   2.628  16.810 -0.0220 -0.5488  0.7556
  343TMC3    C4 5195   0.375   2.500  17.027 -1.0815  0.2917 -0.4346
  343TMC3    C5 5196   0.377   2.446  16.897  0.5865 -0.3979  1.1118
  343TMC3    C6 5197   0.444   2.502  16.790 -0.1650 -0.1381  0.2707
  343TMC3     C 5198   0.465   2.665  17.169 -0.6409  0.3490 -0.0024
  343TMC3     O 5199   0.469   2.570  17.249  0.1802  0.1259 -0.4317
  343TMC3     H 5200   0.576   2.767  16.941 -0.2822  0.6573 -0.7497
  343TMC3    H1 5201   0.314   2.462  17.109 -0.4225 -1.0021 -0.5383
  343TMC3    H2 5202   0.460   2.460  16.691  0.6192  1.1032 -0.1259
  343TMC3    C7 5203   0.299   2.329  16.885  0.4669 -0.1470  0.2145
  343TMC3    C8 5204   0.628   2.653  16.729  0.5086  0.2086 -0.0301
  343TMC3    O1 5205   0.260   2.267  16.984  0.2016  0.2549 -0.1028
  343TMC3    O2 5206   0.674   2.768  16.721 -0.5903 -0.6517 -0.0220
  344MPD2     C 5207   0.347   2.391  10.799 -0.0928  0.8484  0.1046
  344MPD2    C1 5208   0.468   2.337  10.840 -0.2749 -0.8053  0.6275
  344MPD2    C2 5209   0.582   2.414  10.817 -1.1397 -0.4577 -0.4912
  344MPD2    C3 5210   0.583   2.536  10.756 -1.1067 -0.0895 -0.7452
  344MPD2    C4 5211   0.463   2.592  10.724  0.4376 -0.1919  0.1280
  344MPD2    C5 5212   0.351   2.515  10.744 -0.4041 -0.3731 -0.7098
  344MPD2     H 5213   0.679   2.372  10.842 -0.5943  1.3691  0.4299
  344MPD2    H1 5214   0.453   2.690  10.679 -0.8938 -0.6803 -0.6219
  344MPD2    H2 5215   0.253   2.350  10.835  0.2137  0.4664  0.4797
  344MPD2    H3 5216   0.254   2.557  10.721 -0.7647 -1.2243 -0.7294
  344MPD2     N 5217   0.697   2.598  10.711 -0.6541 -0.2137  0.0753
  344MPD2    H5 5218   0.684   2.685  10.662  0.9621  0.7664  1.4044
  344MPD2    N1 5219   0.462   2.210  10.904 -0.3872 -0.8241 -0.3378
  344MPD2    H7 5220   0.376   2.156  10.907 -0.9874  0.3031  2.6239
  345TMC3    C1 5221   0.926   2.662  10.703  0.2434 -0.1719 -0.7348
  345TMC3    C2 5222   1.046   2.664  10.771 -0.8404 -0.1921  0.1242
  345TMC3    C3 5223   1.155   2.723  10.710 -0.4027 -0.0349  0.1954
  345TMC3    C4 5224   0.914   2.720  10.576 -0.2767 -0.0420  0.8567
  345TMC3    C5 5225   1.027   2.778  10.522 -0.7559 -0.3531 -0.2666
  345TMC3    C6 5226   1.148   2.780  10.586  0.2884 -0.6940  0.2544
  345TMC3     C 5227   0.830   2.572  10.752  0.3350 -0.6073 -0.5000
  345TMC3     O 5228   0.865   2.492  10.838 -0.1778 -0.0575 -0.2217
  345TMC3     H 5229   1.058   2.621  10.870  2.9133  1.4990  0.4094
  345TMC3    H1 5230   0.825   2.722  10.515  1.6109  2.2228 -1.8680
  345TMC3    H2 5231   1.237   2.809  10.533 -1.2591  2.4781 -0.5674
  345TMC3    C7 5232   1.009   2.888  10.428 -0.4820  0.0423 -0.2953
  345TMC3    C8 5233   1.216   2.813  10.804  0.5430  0.2568 -0.6124
  345TMC3    O1 5234   1.090   2.979  10.441 -0.2811 -0.4668 -0.6348
  345TMC3    O2 5235   1.206   2.792  10.921 -0.0033  0.1507  0.8664
  346MPD2     C 5236   1.411   3.848  13.890 -0.4888  0.4510 -0.3635
  346MPD2    C1 5237   1.357   3.974  13.877 -0.3712 -0.3471 -0.3898
  346MPD2    C2 5238   1.363   4.060  13.984 -0.2780  0.4425  0.2627
  346MPD2    C3 5239   1.440   4.022  14.096  0.4263 -0.5252 -0.2365
  346MPD2    C4 5240   1.488   3.894  14.106  0.2076 -0.0842  0.1224
  346MPD2    C5 5241   1.468   3.807  14.004 -0.6191 -0.0934  0.0043
  346MPD2     H 5242   1.338   4.165  13.974  2.0364  1.1246  1.7908
  346MPD2    H1 5243   1.546   3.851  14.187 -2.3602  0.7916  2.4174
  346MPD2    H2 5244   1.422   3.782  13.804 -1.1291 -0.2113  0.0699
  346MPD2    H3 5245   1.512   3.708  14.012 -1.1181 -0.0458  3.2174
  346MPD2     N 5246   1.472   4.120  14.188 -0.3448 -0.5309  0.0723
  346MPD2    H5 5247   1.435   4.214  14.172  2.3809  0.5595  0.1562
  346MPD2    N1 5248   1.290   4.011  13.764  0.3449 -0.0330  0.2759
  346MPD2    H7 5249   1.243   4.101  13.772 -0.1503 -0.3692  1.2096
  347TMC3    C1 5250   1.560   4.245  14.361 -0.1031  0.0984  0.3366
  347TMC3    C2 5251   1.549   4.350  14.270 -0.2346 -0.8931 -0.6471
  347TMC3    C3 5252   1.658   4.423  14.252  0.6562 -0.8003  1.8256
  347TMC3    C4 5253   1.649   4.249  14.461  0.3453 -0.5780 -0.2388
  347TMC3    C5 5254   1.756   4.346  14.451  0.0736  0.2531  0.6293
  347TMC3    C6 5255   1.760   4.431  14.342  1.1004  0.0853  0.6161
  347TMC3     C 5256   1.557   4.111  14.302  0.0885  0.4156 -0.1515
  347TMC3     O 5257   1.603   4.012  14.359 -1.0581  0.4408  0.2167
  347TMC3     H 5258   1.474   4.359  14.192 -1.9629 -0.1714  1.1073
  347TMC3    H1 5259   1.664   4.159  14.520 -0.4850  0.3139  1.3307
  347TMC3    H2 5260   1.844   4.498  14.326  1.5629 -0.1752  1.9345
  347TMC3    C7 5261   1.858   4.348  14.548 -0.4036 -0.9947  0.3502
  347TMC3    C8 5262   1.697   4.427  14.119 -0.5786 -0.1241 -0.0015
  347TMC3    O1 5263   1.967   4.377  14.510 -0.3527 -0.5470  0.4764
  347TMC3    O2 5264   1.800   4.367  14.102  0.1500 -0.0512  0.8200
  348MPD2     C 5265   3.890   4.157  11.368 -0.5322 -0.0321  0.2695
  348MPD2    C1 5266   4.006   4.226  11.373  0.1928 -0.1465 -0.5079
  348MPD2    C2 5267   4.060   4.273  11.259 -0.1267 -0.7683 -0.3691
  348MPD2    C3 5268   4.000   4.255  11.134  0.2255  0.0826  0.5401
  348MPD2    C4 5269   3.880   4.177  11.126 -0.0127  0.0694 -0.7783
  348MPD2    C5 5270   3.830   4.132  11.245 -0.7047 -1.1064 -0.1898
  348MPD2     H 5271   4.149   4.336  11.266  0.1005 -1.2858  1.4713
  348MPD2    H1 5272   3.842   4.147  11.029  0.3596 -0.1586 -0.8516
  348MPD2    H2 5273   3.847   4.106  11.454 -2.8711 -0.5255 -1.1791
  348MPD2    H3 5274   3.746   4.063  11.240  0.0505 -2.1142  1.0798
  348MPD2     N 5275   4.061   4.324  11.026 -0.2404 -0.0941 -0.0272
  348MPD2    H5 5276   4.131   4.396  11.042  1.5583 -1.9072  0.1272
  348MPD2    N1 5277   4.070   4.254  11.495  0.3111 -0.2298  0.3484
  348MPD2    H7 5278   4.166   4.288  11.492  0.6148 -0.9062  2.5252
  349TMC3    C1 5279   4.135   4.250  11.717 -0.0393  0.4301 -0.2439
  349TMC3    C2 5280   4.109   4.163  11.816  0.0582  0.0680  0.0585
  349TMC3    C3 5281   4.212   4.079  11.838  0.1776 -0.7132  0.0637
  349TMC3    C4 5282   4.262   4.274  11.667 -0.1107 -0.2897 -0.3529
  349TMC3    C5 5283   4.363   4.188  11.693  0.1329 -0.0926  0.5190
  349TMC3    C6 5284   4.338   4.089  11.781  0.0335 -0.1141  0.1182
  349TMC3     C 5285   4.029   4.232  11.624  0.1372 -0.0637  0.0632
  349TMC3     O 5286   3.920   4.204  11.665 -0.0915  0.2839  0.1924
  349TMC3     H 5287   4.017   4.155  11.874 -0.1455 -0.4626 -0.3490
  349TMC3    H1 5288   4.273   4.339  11.581  1.4717  0.3904  0.3742
  349TMC3    H2 5289   4.407   4.006  11.788  2.0496  1.3948 -1.6690
  349TMC3    C7 5290   4.409   4.150  11.559 -0.1439  0.7470 -0.6427
  349TMC3    C8 5291   4.185   3.968  11.934  0.1916 -0.2250 -0.3508
  349TMC3    O1 5292   4.371   4.041  11.527  0.1381 -0.1690  0.2201
  349TMC3    O2 5293   4.071   3.923  11.937 -0.0325  0.3105  0.4920
  350MPD2     C 5294   3.954   2.224  10.075 -0.6496 -0.2247 -0.2281
  350MPD2    C1 5295   3.831   2.167  10.048  0.1924  0.4662  0.1344
  350MPD2    C2 5296   3.790   2.062  10.132 -0.3972  1.5419  0.2555
  350MPD2    C3 5297   3.869   2.011  10.238  0.8158 -0.3573 -0.1992
  350MPD2    C4 5298   4.002   2.064  10.257  0.0120  0.3631 -0.4638
  350MPD2    C5 5299   4.030   2.170  10.178 -0.3581  0.4473  0.4456
  350MPD2     H 5300   3.695   2.013  10.110 -0.3713  1.8830 -0.6169
  350MPD2    H1 5301   4.077   2.023  10.324 -1.0494  0.2373  0.6425
  350MPD2    H2 5302   4.003   2.289  10.004 -0.9189  0.8044  0.5233
  350MPD2    H3 5303   4.119   2.232  10.184  1.0565 -1.2815 -2.4910
  350MPD2     N 5304   3.811   1.910  10.321  0.3791 -0.0198  0.2877
  350MPD2    H5 5305   3.719   1.877  10.293 -0.0574  0.5323  1.0949
  350MPD2    N1 5306   3.744   2.208   9.944 -0.3595 -0.1853  0.2346
  350MPD2    H7 5307   3.657   2.158   9.928 -1.1887  1.3111  0.0820
  351TMC3    C1 5308   3.652   2.331   9.778 -0.3611 -0.0820 -0.2940
  351TMC3    C2 5309   3.586   2.223   9.745 -0.6213  0.9194  0.0025
  351TMC3    C3 5310   3.448   2.230   9.722  0.5559  0.3796 -0.4262
  351TMC3    C4 5311   3.588   2.449   9.784 -0.5054  0.3765  0.2777
  351TMC3    C5 5312   3.456   2.459   9.770 -0.2515 -0.1018  0.2452
  351TMC3    C6 5313   3.383   2.352   9.726 -0.0117 -0.0109 -0.3130
  351TMC3     C 5314   3.762   2.317   9.858 -0.4697  0.0005 -0.0864
  351TMC3     O 5315   3.840   2.408   9.859 -0.1462 -0.4893 -0.3079
  351TMC3     H 5316   3.634   2.127   9.728  0.4780  1.8648 -2.2810
  351TMC3    H1 5317   3.645   2.540   9.801 -0.9754  0.8408 -0.6324
  351TMC3    H2 5318   3.276   2.360   9.709 -0.1576 -0.1427  0.5325
  351TMC3    C7 5319   3.395   2.575   9.824 -0.7405  0.5870  0.2489
  351TMC3    C8 5320   3.388   2.100   9.698  0.4004  0.4348 -0.2276
  351TMC3    O1 5321   3.464   2.637   9.903  0.4378 -0.2581  0.4690
  351TMC3    O2 5322   3.455   2.006   9.662 -0.1371  0.0544  0.6599
  352MPD2     C 5323   2.830   4.273   0.901  0.6464  1.1160  0.2423
  352MPD2    C1 5324   2.746   4.178   0.839 -0.6820  0.0985  0.1513
  352MPD2    C2 5325   2.794   4.053   0.800  0.6303  0.4070 -0.6396
  352MPD2    C3 5326   2.923   4.017   0.823 -0.4011 -0.1677  0.0362
  352MPD2    C4 5327   3.008   4.107   0.882 -0.9483  0.2579  0.1333
  352MPD2    C5 5328   2.963   4.240   0.915 -0.0704  0.1862  0.4264
  352MPD2     H 5329   2.729   3.971   0.773 -0.6645  1.1929  0.1136
  352MPD2    H1 5330   3.109   4.072   0.902 -0.8877  0.6990  0.6240
  352MPD2    H2 5331   2.804   4.376   0.926  2.9035  1.7250  0.0785
  352MPD2    H3 5332   3.022   4.313   0.969 -1.3368  1.3722  0.2248
  352MPD2     N 5333   2.978   3.892   0.785 -0.4835 -0.0045 -0.4577
  352MPD2    H5 5334   3.079   3.891   0.794 -0.2530 -2.0178 -3.2639
  352MPD2    N1 5335   2.615   4.215   0.799 -0.0562 -0.1657 -0.4540
  352MPD2    H7 5336   2.586   4.305   0.834 -1.3474 -1.7037  2.4114
  353TMC3    C1 5337   2.989   3.675   0.684  0.0739  0.2287  0.7513
  353TMC3    C2 5338   3.029   3.613   0.798  0.8242  0.3486  0.5123
  353TMC3    C3 5339   3.013   3.484   0.811  0.2462 -0.7736  0.9294
  353TMC3    C4 5340   2.920   3.607   0.589 -0.0390 -0.0028  0.2655
  353TMC3    C5 5341   2.890   3.479   0.615 -0.4913 -0.2973  0.2972
  353TMC3    C6 5342   2.944   3.409   0.720  0.2976  0.3509 -0.1716
  353TMC3     C 5343   2.910   3.791   0.713  0.2642  0.1858  0.3129
  353TMC3     O 5344   2.802   3.796   0.659 -0.3122  0.4251 -0.1453
  353TMC3     H 5345   3.054   3.676   0.883  1.3933  2.4933 -1.2183
  353TMC3    H1 5346   2.870   3.656   0.506  0.7682 -1.1803 -0.9041
  353TMC3    H2 5347   2.914   3.307   0.740 -1.6635  1.0684  0.5648
  353TMC3    C7 5348   2.746   3.455   0.585 -0.0526  0.0340 -0.0885
  353TMC3    C8 5349   3.079   3.409   0.914 -0.1689 -0.3358 -0.4364
  353TMC3    O1 5350   2.703   3.338   0.595  0.5337 -0.0347  0.2107
  353TMC3    O2 5351   3.184   3.454   0.951 -0.0387 -0.5919  0.5802
  354TMC3    C1 5352   3.503   0.551  13.429  0.4891  0.5291  0.6645
  354TMC3    C2 5353   3.427   0.646  13.360 -0.3599 -0.0054  0.3493
  354TMC3    C3 5354   3.484   0.704  13.254 -0.0593  0.2317  0.3930
  354TMC3    C4 5355   3.636   0.527  13.407  0.2875  0.6853  0.1341
  354TMC3    C5 5356   3.688   0.579  13.293  0.0377 -0.2690  0.8786
  354TMC3    C6 5357   3.611   0.660  13.219  0.1143  0.4901 -0.1245
  354TMC3     C 5358   3.457   0.496  13.549  0.2230 -0.2002 -0.1697
  354TMC3     O 5359   3.333   0.484  13.559 -0.2692 -0.6438 -0.3526
  354TMC3     H 5360   3.326   0.667  13.394  0.3339 -2.4521  3.9286
  354TMC3    H1 5361   3.683   0.445  13.461 -0.7567 -0.8849 -1.3529
  354TMC3    H2 5362   3.656   0.705  13.131  1.8715  0.4980  0.7841
  354TMC3    C7 5363   3.828   0.564  13.268 -0.2377  0.0042  0.2411
  354TMC3    C8 5364   3.409   0.808  13.186 -0.1564 -0.3801 -0.2665
  354TMC3    O1 5365   3.880   0.456  13.294  0.2384 -0.4159  0.1375
  354TMC3    O2 5366   3.304   0.841  13.242 -0.2681  0.4315  0.2496
  355MPD2     C 5367   3.968   1.521  11.857 -0.0745 -0.1297  0.4633
  355MPD2    C1 5368   4.022   1.641  11.841  0.2131  0.5810  0.0799
  355MPD2    C2 5369   4.076   1.710  11.957 -0.2376 -0.0786 -0.3757
  355MPD2    C3 5370   4.087   1.645  12.078 -0.9601  0.4700  0.0159
  355MPD2    C4 5371   4.035   1.520  12.086  0.3169  0.2453  0.3602
  355MPD2    C5 5372   3.979   1.458  11.977 -0.4864  0.2859  1.0214
  355MPD2     H 5373   4.125   1.804  11.937  2.6225 -1.7814 -1.4663
  355MPD2    H1 5374   4.036   1.469  12.182  1.0246 -2.6086 -1.1781
  355MPD2    H2 5375   3.927   1.460  11.777  1.2862 -3.3221  2.1777
  355MPD2    H3 5376   3.945   1.355  11.981  1.9456 -0.4903  2.0600
  355MPD2     N 5377   4.156   1.714  12.175 -0.0112 -0.5090  0.0232
  355MPD2    H5 5378   4.205   1.801  12.155 -0.2676 -0.1091  1.1120
  355MPD2    N1 5379   3.996   1.693  11.708 -0.1656 -0.9786  0.3286
  355MPD2    H7 5380   3.954   1.630  11.641  0.5164  1.0974 -2.0405
  356TMC3    C1 5381   4.277   1.733  12.382 -0.7475  0.0155  0.4398
  356TMC3    C2 5382   4.371   1.800  12.314  0.2443 -0.3150  0.2498
  356TMC3    C3 5383   4.460   1.867  12.391  0.8467 -0.6786  0.2846
  356TMC3    C4 5384   4.273   1.732  12.522 -0.6384  0.2518  0.1766
  356TMC3    C5 5385   4.358   1.801  12.595 -1.0068  0.3883 -0.4450
  356TMC3    C6 5386   4.454   1.871  12.524  0.0112  0.3631 -0.1712
  356TMC3     C 5387   4.164   1.671  12.306  0.3942 -0.3884  0.4740
  356TMC3     O 5388   4.089   1.593  12.367 -0.0478 -0.9916  0.0669
  356TMC3     H 5389   4.404   1.765  12.217  0.1270  0.2068  0.0228
  356TMC3    H1 5390   4.181   1.694  12.567 -1.3915  1.3353 -0.4515
  356TMC3    H2 5391   4.539   1.916  12.574 -1.0725  2.5181 -0.2872
  356TMC3    C7 5392   4.305   1.882  12.699  0.6578  0.8647 -0.4880
  356TMC3    C8 5393   4.584   1.906  12.332  0.9739 -0.3654  0.6463
  356TMC3    O1 5394   4.214   1.837  12.767  0.9339 -0.3729  0.1467
  356TMC3    O2 5395   4.687   1.899  12.401 -0.0873  0.3065  0.1742
  357MPD2     C 5396   3.409   1.268   0.631  0.2322 -0.8102  0.0003
  357MPD2    C1 5397   3.501   1.224   0.716  0.4136  0.2841  0.0450
  357MPD2    C2 5398   3.463   1.183   0.845 -0.4514  1.1901 -0.3627
  357MPD2    C3 5399   3.331   1.171   0.875 -0.1039  0.4567  0.0520
  357MPD2    C4 5400   3.236   1.209   0.782  0.3238  0.4326  0.0919
  357MPD2    C5 5401   3.278   1.245   0.660  0.0153  0.0504  0.2733
  357MPD2     H 5402   3.535   1.143   0.914 -1.3418  1.4348  0.7151
  357MPD2    H1 5403   3.129   1.209   0.796  0.1585  0.8547 -1.1680
  357MPD2    H2 5404   3.427   1.303   0.530 -2.7270  0.6297 -0.0285
  357MPD2    H3 5405   3.209   1.278   0.583  0.2430  1.6954  0.7609
  357MPD2     N 5406   3.283   1.108   0.993 -0.5337  0.2328  0.3201
  357MPD2    H5 5407   3.189   1.071   0.984 -0.7477  0.5892  1.0673
  357MPD2    N1 5408   3.632   1.214   0.660  0.3800 -0.0352 -0.0094
  357MPD2    H7 5409   3.640   1.224   0.559  1.8839 -1.0444  0.0050
  358TMC3    C1 5410   3.791   1.043   0.626 -0.5436 -0.4081 -0.9168
  358TMC3    C2 5411   3.705   0.982   0.536 -0.1843 -0.0733 -0.0321
  358TMC3    C3 5412   3.721   0.855   0.510 -0.5464 -0.1209  0.4133
  358TMC3    C4 5413   3.896   0.971   0.681 -0.1315 -0.7947  0.4786
  358TMC3    C5 5414   3.918   0.843   0.646 -0.1776  1.1184 -0.1595
  358TMC3    C6 5415   3.830   0.785   0.555  0.0862  0.2502  0.2055
  358TMC3     C 5416   3.734   1.142   0.715 -0.8598  0.3754  0.3980
  358TMC3     O 5417   3.753   1.129   0.833  0.1726 -0.6793  0.4619
  358TMC3     H 5418   3.621   1.030   0.486  0.9178  1.6785 -0.2093
  358TMC3    H1 5419   3.954   1.023   0.756  0.7818  2.2114 -2.3501
  358TMC3    H2 5420   3.836   0.684   0.517  0.0116  0.7220 -1.0598
  358TMC3    C7 5421   4.038   0.767   0.681  0.6748  0.4235  0.2216
  358TMC3    C8 5422   3.617   0.790   0.427 -0.2171  0.5399  0.0337
  358TMC3    O1 5423   4.061   0.654   0.635  0.3964  0.0576 -0.3527
  358TMC3    O2 5424   3.563   0.843   0.329  0.5295  0.4212 -0.4433
  359MPD2     C 5425   3.429   4.338  11.811 -0.2143  0.0290 -0.2478
  359MPD2    C1 5426   3.439   4.450  11.730 -0.3649 -0.3583 -0.5244
  359MPD2    C2 5427   3.322   4.492  11.668 -0.4791  0.0104 -0.0973
  359MPD2    C3 5428   3.202   4.413  11.686 -0.0829 -0.2579 -0.7495
  359MPD2    C4 5429   3.190   4.318  11.783  0.1643  0.3415 -0.7375
  359MPD2    C5 5430   3.307   4.281  11.837  0.9490  0.2648 -0.0285
  359MPD2     H 5431   3.324   4.579  11.603  1.1361  0.7029  0.9012
  359MPD2    H1 5432   3.096   4.287  11.826  0.3751 -0.0274 -0.5369
  359MPD2    H2 5433   3.509   4.275  11.848  0.2877  0.2729 -0.9081
  359MPD2    H3 5434   3.305   4.209  11.919  0.4071  0.4150  0.0948
  359MPD2     N 5435   3.075   4.463  11.637 -0.1049  1.0251  0.2921
  359MPD2    H5 5436   2.992   4.430  11.685 -0.3085 -0.9424 -1.4480
  359MPD2    N1 5437   3.560   4.509  11.704  0.3263 -0.4258 -0.1991
  359MPD2    H7 5438   3.558   4.579  11.630  2.2258  0.7935  0.9257
  360TMC3    C1 5439   3.796   4.530  11.711  0.0379 -0.1628 -0.0899
  360TMC3    C2 5440   3.901   4.559  11.795 -0.5634  0.1523 -0.2243
  360TMC3    C3 5441   4.012   4.614  11.753 -0.1208  0.8103  0.9356
  360TMC3    C4 5442   3.806   4.560  11.579  0.2364 -0.4790 -0.5415
  360TMC3    C5 5443   3.921   4.611  11.536  0.5276 -0.5882  0.1104
  360TMC3    C6 5444   4.029   4.642  11.616 -0.7473  1.0131 -0.4802
  360TMC3     C 5445   3.676   4.476  11.771  0.0066 -1.0410  0.6050
  360TMC3     O 5446   3.689   4.422  11.882  0.3256 -0.4377 -0.0650
  360TMC3     H 5447   3.889   4.551  11.902  2.2723  0.5978  0.1216
  360TMC3    H1 5448   3.720   4.529  11.521  2.1997 -1.4958 -2.9063
  360TMC3    H2 5449   4.123   4.671  11.570 -1.4465  2.2388 -1.1450
  360TMC3    C7 5450   3.936   4.634  11.389 -1.1433  0.1366 -1.0430
  360TMC3    C8 5451   4.126   4.612  11.843 -0.5947 -0.0939 -0.1235
  360TMC3    O1 5452   4.037   4.695  11.351 -0.0777 -0.2468  0.1624
  360TMC3    O2 5453   4.109   4.598  11.964 -0.4169  0.6549  0.1582
  361MPD2     C 5454   1.321   3.605  16.134 -0.3217  0.5107 -0.1086
  361MPD2    C1 5455   1.256   3.639  16.251  0.2888  0.3757 -0.0838
  361MPD2    C2 5456   1.316   3.595  16.365 -0.4163  0.8210  0.4635
  361MPD2    C3 5457   1.430   3.516  16.366  0.2565 -0.2537 -0.6094
  361MPD2    C4 5458   1.487   3.485  16.245  0.4177  0.2721  0.5255
  361MPD2    C5 5459   1.436   3.535  16.129  0.0858  0.4005 -0.3749
  361MPD2     H 5460   1.279   3.630  16.461  0.2736 -1.7192  1.6642
  361MPD2    H1 5461   1.571   3.417  16.249  0.4798  0.3675  0.8401
  361MPD2    H2 5462   1.285   3.622  16.034 -2.2535 -1.4915  0.2210
  361MPD2    H3 5463   1.473   3.503  16.033 -1.7053  2.7909 -1.8422
  361MPD2     N 5464   1.470   3.433  16.474 -0.5510 -0.1785 -0.4234
  361MPD2    H5 5465   1.544   3.367  16.453 -0.5257 -0.7715  1.4895
  361MPD2    N1 5466   1.140   3.723  16.259 -0.1696 -0.5804  0.3308
  361MPD2    H7 5467   1.105   3.741  16.353 -0.0253  1.7658 -0.0771
  362TMC3    C1 5468   0.951   3.834  16.194  0.0861 -0.4477  0.1168
  362TMC3    C2 5469   0.886   3.791  16.309  0.2993 -0.6400 -0.2055
  362TMC3    C3 5470   0.781   3.855  16.352 -0.2658 -0.2041 -1.3464
  362TMC3    C4 5471   0.898   3.937  16.121 -0.7631 -0.3771  0.1912
  362TMC3    C5 5472   0.791   3.996  16.167  0.3859 -0.1119 -0.0089
  362TMC3    C6 5473   0.731   3.962  16.284  0.2098  0.3252  0.1994
  362TMC3     C 5474   1.072   3.774  16.149  0.4082 -0.2041 -0.4465
  362TMC3     O 5475   1.114   3.803  16.037  0.4060  0.1193 -0.1255
  362TMC3     H 5476   0.923   3.712  16.374  3.8743  1.0480 -0.1646
  362TMC3    H1 5477   0.956   3.974  16.038 -0.6872  0.6577  0.7083
  362TMC3    H2 5478   0.646   4.023  16.314 -0.6827 -0.2244 -1.1979
  362TMC3    C7 5479   0.715   4.074  16.069 -0.4096  0.0603 -0.3721
  362TMC3    C8 5480   0.726   3.821  16.483 -0.6017 -0.1349  0.0656
  362TMC3    O1 5481   0.626   4.153  16.108  0.0533  0.7029  0.1398
  362TMC3    O2 5482   0.744   3.706  16.518 -0.3864 -0.1672 -0.3924
  363TMC3    C1 5483   4.711   1.850  10.013 -0.1862 -0.3668 -0.5818
  363TMC3    C2 5484   0.056   1.741  10.023 -0.2851 -1.2983  0.4287
  363TMC3    C3 5485   4.731   1.615  10.027 -0.1896 -0.2147 -0.0293
  363TMC3    C4 5486   4.574   1.843   9.992 -0.7093 -0.8923 -0.3778
  363TMC3    C5 5487   4.526   1.718   9.979 -0.6597 -0.6858 -0.0844
  363TMC3    C6 5488   4.599   1.602   9.991 -0.5745 -0.1820 -0.2036
  363TMC3     C 5489   0.022   1.987  10.014  0.6520 -0.1824  0.7801
  363TMC3     O 5490   4.687   2.074   9.970 -0.3533  0.2103  0.4435
  363TMC3     H 5491   0.161   1.737  10.047 -0.1669 -1.3240 -0.0774
  363TMC3    H1 5492   4.512   1.932   9.983  0.8426  0.1103 -1.1668
  363TMC3    H2 5493   4.547   1.508   9.978 -1.1128 -0.1159  1.4080
  363TMC3    C7 5494   4.396   1.691   9.918 -0.3732  0.5965  0.8215
  363TMC3    C8 5495   0.079   1.502  10.059 -0.1002  0.0116  0.5716
  363TMC3    O1 5496   4.391   1.597   9.842 -0.1844  0.0590 -0.1846
  363TMC3    O2 5497   0.196   1.516  10.093 -0.5958  0.1658 -0.1869
  364MPD2     C 5498   2.522   1.321  10.299  0.7463  0.2889 -0.3090
  364MPD2    C1 5499   2.631   1.282  10.228  0.3909  0.1896 -0.0296
  364MPD2    C2 5500   2.714   1.180  10.277  0.5460  0.0210  0.4472
  364MPD2    C3 5501   2.684   1.113  10.395  0.3345 -0.1799  0.9877
  364MPD2    C4 5502   2.586   1.164  10.468 -0.0319 -0.1396  0.7077
  364MPD2    C5 5503   2.498   1.265  10.416 -0.3845 -0.5168  0.1948
  364MPD2     H 5504   2.798   1.146  10.217 -0.0612 -1.5165  0.4733
  364MPD2    H1 5505   2.565   1.117  10.563 -1.6868 -1.0076 -0.0893
  364MPD2    H2 5506   2.452   1.397  10.266 -0.1232 -1.2684 -2.0800
  364MPD2    H3 5507   2.413   1.292  10.478  1.3637  1.7105  1.6399
  364MPD2     N 5508   2.773   1.015  10.444  0.2313  0.5500 -0.2912
  364MPD2    H5 5509   2.765   0.988  10.542 -0.1911 -1.6273 -0.9404
  364MPD2    N1 5510   2.654   1.354  10.104  0.4209  0.3071 -0.2743
  364MPD2    H7 5511   2.592   1.433  10.087 -0.5338 -0.1892  0.8747
  365TMC3    C1 5512   2.818   1.455   9.961 -0.1966 -0.5929  0.5588
  365TMC3    C2 5513   2.945   1.446   9.913 -0.3022  0.0458 -0.0168
  365TMC3    C3 5514   3.022   1.567   9.910 -0.2764  0.6865  0.5947
  365TMC3    C4 5515   2.761   1.579   9.993  0.6826 -0.5338  0.6998
  365TMC3    C5 5516   2.834   1.692   9.975 -0.0652 -0.2159  0.4641
  365TMC3    C6 5517   2.964   1.688   9.937  0.4793  0.1685 -0.1351
  365TMC3     C 5518   2.768   1.342  10.029  0.1009  0.3762 -0.0925
  365TMC3     O 5519   2.828   1.237  10.025 -0.0390 -0.1224 -0.0532
  365TMC3     H 5520   2.987   1.347   9.902 -0.3693  0.1901 -1.5060
  365TMC3    H1 5521   2.658   1.582  10.027  0.4951 -1.5975  0.2598
  365TMC3    H2 5522   3.012   1.784   9.922 -2.9431  1.6897 -1.4810
  365TMC3    C7 5523   2.808   1.804  10.067 -0.4268 -0.5195 -0.1042
  365TMC3    C8 5524   3.163   1.571   9.916 -0.5479  0.1989  0.5754
  365TMC3    O1 5525   2.872   1.905  10.048  0.0545  0.4391  0.3588
  365TMC3    O2 5526   3.203   1.678   9.946 -0.1555  0.3887  0.0294
  366MPD2     C 5527   1.585   1.330  15.277 -0.5973  0.0984  1.1711
  366MPD2    C1 5528   1.662   1.425  15.340 -0.3140  0.3506  0.2411
  366MPD2    C2 5529   1.751   1.499  15.266 -0.5286 -0.4876  0.0143
  366MPD2    C3 5530   1.749   1.493  15.128  0.0297  0.2629  0.4631
  366MPD2    C4 5531   1.657   1.408  15.067  0.3502  0.1697 -0.5013
  366MPD2    C5 5532   1.581   1.317  15.141 -0.1355 -0.4677  0.2449
  366MPD2     H 5533   1.821   1.570  15.308 -0.6527 -0.5509  0.3241
  366MPD2    H1 5534   1.663   1.403  14.958 -0.0805 -0.8846 -0.4777
  366MPD2    H2 5535   1.515   1.275  15.340 -0.9582 -0.9776 -0.1746
  366MPD2    H3 5536   1.517   1.246  15.089  1.5615 -2.1806  0.4649
  366MPD2     N 5537   1.833   1.585  15.065 -0.1373  0.1364 -0.0010
  366MPD2    H5 5538   1.911   1.620  15.119 -1.3037  0.3680  1.5211
  366MPD2    N1 5539   1.646   1.441  15.480 -0.0151  0.3631 -0.1605
  366MPD2    H7 5540   1.605   1.359  15.524  1.2589  0.2636  0.8273
  367TMC3    C1 5541   1.704   1.676  15.525  0.6223 -0.0462  0.6870
  367TMC3    C2 5542   1.789   1.738  15.605  0.0511 -0.9826 -0.0751
  367TMC3    C3 5543   1.802   1.866  15.575 -0.0697 -0.5736  0.3787
  367TMC3    C4 5544   1.622   1.725  15.423 -0.0378 -0.0486 -0.6814
  367TMC3    C5 5545   1.650   1.856  15.404  0.4319 -0.0515 -0.3185
  367TMC3    C6 5546   1.735   1.929  15.473  0.7864 -0.2571  0.4342
  367TMC3     C 5547   1.675   1.543  15.570 -0.5184 -0.2174 -0.9451
  367TMC3     O 5548   1.665   1.526  15.692  0.1654 -0.3646 -0.4109
  367TMC3     H 5549   1.852   1.685  15.676  0.3168 -0.8325 -0.1967
  367TMC3    H1 5550   1.540   1.674  15.374  1.4747 -1.4572 -1.7411
  367TMC3    H2 5551   1.769   2.024  15.433 -0.1107  0.8040  2.1542
  367TMC3    C7 5552   1.565   1.938  15.319  0.1095  0.5977 -0.3158
  367TMC3    C8 5553   1.904   1.945  15.635 -0.0265 -0.0542 -0.1940
  367TMC3    O1 5554   1.578   2.056  15.340  0.1297  0.6712 -0.0687
  367TMC3    O2 5555   2.001   1.877  15.665  0.4506  0.2791  0.5305
  368MPD2     C 5556   3.347   4.443  12.756  0.1111 -0.0281  0.9728
  368MPD2    C1 5557   3.374   4.500  12.636 -0.4955 -0.2896  0.4471
  368MPD2    C2 5558   3.503   4.504  12.592 -0.3137 -0.2853  0.3161
  368MPD2    C3 5559   3.605   4.450  12.673  0.1511  0.5086  0.4806
  368MPD2    C4 5560   3.574   4.384  12.790 -0.1706 -0.3859  0.7109
  368MPD2    C5 5561   3.439   4.372  12.826 -0.5409 -0.1463  0.2720
  368MPD2     H 5562   3.526   4.556  12.499  0.8598  0.5484  1.0599
  368MPD2    H1 5563   3.647   4.323  12.842  0.8221  1.6206  1.6445
  368MPD2    H2 5564   3.245   4.444  12.794 -1.1255 -1.8490 -2.1709
  368MPD2    H3 5565   3.414   4.309  12.910 -0.9661  0.4044  0.5537
  368MPD2     N 5566   3.740   4.443  12.637  0.4647 -0.5130 -0.1433
  368MPD2    H5 5567   3.802   4.438  12.717  1.2692 -1.4592 -0.8059
  368MPD2    N1 5568   3.270   4.556  12.565 -0.9039 -0.5372 -0.6675
  368MPD2    H7 5569   3.179   4.565  12.608  0.2667  2.6771  1.1123
  369TMC3    C1 5570   3.146   4.644  12.389  0.6133  0.4760  0.1251
  369TMC3    C2 5571   3.130   0.019  12.308 -0.4504  0.1610 -0.1845
  369TMC3    C3 5572   3.000   0.051  12.284 -0.0981  0.4471  0.6750
  369TMC3    C4 5573   3.046   4.570  12.425 -0.3662  0.0817 -0.3357
  369TMC3    C5 5574   2.918   4.609  12.396 -0.0099  0.3408  1.0534
  369TMC3    C6 5575   2.891   4.716  12.314 -0.5717  0.3738  0.6143
  369TMC3     C 5576   3.278   4.592  12.433  0.4085 -0.6885  0.3761
  369TMC3     O 5577   3.371   4.617  12.361 -0.6638  0.0553 -0.1218
  369TMC3     H 5578   3.217   0.083  12.298  0.0113 -0.5452 -0.6653
  369TMC3    H1 5579   3.055   4.478  12.481  0.9579 -0.3544 -1.2646
  369TMC3    H2 5580   2.794   0.006  12.272 -0.5016 -2.1577 -1.1651
  369TMC3    C7 5581   2.820   4.506  12.413  0.0929 -0.5263  0.1103
  369TMC3    C8 5582   2.964   0.188  12.245 -0.8322 -0.2622 -0.0872
  369TMC3    O1 5583   2.838   4.433  12.505  0.2791  0.0057 -0.0007
  369TMC3    O2 5584   2.846   0.221  12.248 -0.3007  0.0300  0.4437
  370TMC3    C1 5585   2.168   4.466  16.114 -0.5038 -0.3839  0.4543
  370TMC3    C2 5586   2.077   4.390  16.182 -0.0528  0.1806  0.1916
  370TMC3    C3 5587   2.070   4.262  16.141  0.2441 -0.1466 -0.6463
  370TMC3    C4 5588   2.256   4.420  16.026  0.8364  0.1547 -0.4575
  370TMC3    C5 5589   2.256   4.285  16.001  0.5888  0.2515  0.0623
  370TMC3    C6 5590   2.157   4.206  16.053 -0.1783 -0.7073  0.1981
  370TMC3     C 5591   2.190   4.597  16.173  0.7620 -0.8102  0.4627
  370TMC3     O 5592   2.149   4.607  16.286 -0.0621 -0.5358 -0.0177
  370TMC3     H 5593   1.996   4.433  16.240  1.1526  1.2018  1.1276
  370TMC3    H1 5594   2.332   4.483  15.981  1.2117 -1.3681 -1.9583
  370TMC3    H2 5595   2.139   4.103  16.022  0.0037 -0.6854  0.0214
  370TMC3    C7 5596   2.338   4.233  15.889 -0.1143 -0.5144  0.0472
  370TMC3    C8 5597   2.015   4.173  16.237 -0.1037  0.1321 -0.4409
  370TMC3    O1 5598   2.385   4.311  15.809  0.0660 -0.1336  0.1425
  370TMC3    O2 5599   2.014   4.052  16.209  0.1275  0.4093  0.6651
  371TMC3    C1 5600   3.692   3.058  15.128 -0.0879 -0.8322 -0.0111
  371TMC3    C2 5601   3.653   3.098  15.248  0.7209  0.0844 -0.5920
  371TMC3    C3 5602   3.584   3.217  15.267 -0.2774 -0.8503 -0.0578
  371TMC3    C4 5603   3.682   3.142  15.021  0.4451  0.2159  0.3097
  371TMC3    C5 5604   3.624   3.264  15.042  0.8495 -0.4543  0.0505
  371TMC3    C6 5605   3.571   3.307  15.161 -0.1917  0.0386  0.3006
  371TMC3     C 5606   3.752   2.932  15.102 -0.3285 -0.1243 -0.5223
  371TMC3     O 5607   3.845   2.930  15.018 -0.0315  0.2425 -0.2821
  371TMC3     H 5608   3.675   3.043  15.339 -0.3601  0.1398 -0.2977
  371TMC3    H1 5609   3.741   3.125  14.931 -0.4381 -0.4893 -0.1329
  371TMC3    H2 5610   3.527   3.405  15.175  2.5684  1.2133  0.8713
  371TMC3    C7 5611   3.619   3.363  14.938  0.1354  0.2524 -0.1926
  371TMC3    C8 5612   3.572   3.257  15.404 -0.1420 -0.5673  0.0866
  371TMC3    O1 5613   3.594   3.474  14.979  0.2197 -0.0499 -0.4672
  371TMC3    O2 5614   3.670   3.239  15.479  0.5182 -0.1903  0.0452
  372MPD2     C 5615   2.892   4.460  13.098  0.1339  0.2765  0.3804
  372MPD2    C1 5616   2.984   4.409  13.183 -0.5398 -0.1762  0.1564
  372MPD2    C2 5617   2.963   4.287  13.242 -0.3263  0.3049 -0.6300
  372MPD2    C3 5618   2.857   4.205  13.210  0.9667  0.7435  0.7301
  372MPD2    C4 5619   2.773   4.247  13.111 -0.3022  0.2251 -0.3415
  372MPD2    C5 5620   2.797   4.372  13.059 -0.0415 -0.4325  0.3043
  372MPD2     H 5621   3.031   4.246  13.316 -3.6340  0.9995  2.7603
  372MPD2    H1 5622   2.700   4.183  13.063 -0.2283  0.8734 -1.3260
  372MPD2    H2 5623   2.898   4.552  13.041  2.3839 -1.1561 -1.7097
  372MPD2    H3 5624   2.719   4.398  12.989  0.7871 -0.8854 -0.8061
  372MPD2     N 5625   2.847   4.073  13.258  0.0823  0.0663 -0.0166
  372MPD2    H5 5626   2.917   4.039  13.324  1.9498  0.3041 -1.8515
  372MPD2    N1 5627   3.100   4.474  13.221  0.6018  0.0054  0.2237
  372MPD2    H7 5628   3.157   4.420  13.285  0.4266  0.3426  0.6609
  373TMC3    C1 5629   2.760   3.857  13.308  0.5979 -0.1338 -0.0421
  373TMC3    C2 5630   2.648   3.795  13.348  0.7006 -0.1865  0.4667
  373TMC3    C3 5631   2.638   3.672  13.401 -0.9062  0.0627 -0.4406
  373TMC3    C4 5632   2.881   3.792  13.316  0.4721 -0.1089 -0.0467
  373TMC3    C5 5633   2.873   3.662  13.364 -0.1250 -0.2863 -0.5073
  373TMC3    C6 5634   2.754   3.603  13.406 -0.2647 -0.5254 -0.0044
  373TMC3     C 5635   2.744   3.982  13.236 -0.4060 -0.1617 -0.4523
  373TMC3     O 5636   2.648   3.990  13.158 -0.0227  0.0983  0.2515
  373TMC3     H 5637   2.559   3.856  13.354 -0.4615 -1.8843  0.6789
  373TMC3    H1 5638   2.972   3.835  13.276 -1.8368  3.2673 -1.7548
  373TMC3    H2 5639   2.755   3.499  13.434 -1.6553  0.2973  3.0689
  373TMC3    C7 5640   2.992   3.584  13.400 -0.5593  0.8516 -0.2372
  373TMC3    C8 5641   2.510   3.598  13.391  0.0405 -0.0083  0.7435
  373TMC3    O1 5642   2.993   3.464  13.405  0.7891  0.6498 -0.4337
  373TMC3    O2 5643   2.480   3.569  13.279 -0.4386 -0.4283 -0.3911
  374TMC3    C1 5644   2.944   0.331   9.239 -0.6892 -0.3613  0.5534
  374TMC3    C2 5645   3.044   0.358   9.331  0.1384  0.3143 -0.5489
  374TMC3    C3 5646   3.013   0.395   9.456 -0.4444 -0.6017 -0.6935
  374TMC3    C4 5647   2.815   0.335   9.277 -0.7381 -0.3826 -0.5531
  374TMC3    C5 5648   2.787   0.365   9.407  0.4051 -0.0286 -0.7567
  374TMC3    C6 5649   2.882   0.401   9.493 -0.2724  1.2386 -0.6004
  374TMC3     C 5650   2.987   0.310   9.101 -0.1817  1.5236 -0.2654
  374TMC3     O 5651   3.107   0.288   9.082  0.5461  0.0577  0.4491
  374TMC3     H 5652   3.149   0.372   9.306  0.0222  1.7145 -0.2494
  374TMC3    H1 5653   2.741   0.288   9.213  0.9486 -3.0835 -0.5261
  374TMC3    H2 5654   2.860   0.429   9.595 -0.8760 -1.7910  0.1011
  374TMC3    C7 5655   2.644   0.369   9.442  0.7025 -0.0275 -0.5873
  374TMC3    C8 5656   3.106   0.483   9.525  0.0458  0.1110 -0.0564
  374TMC3    O1 5657   2.569   0.294   9.380  0.3869 -0.6595  0.3471
  374TMC3    O2 5658   3.061   0.576   9.592  0.4740 -0.1605 -0.0440
  375MPD2     C 5659   3.552   0.541  17.074  0.2446  0.3889  0.3879
  375MPD2    C1 5660   3.480   0.522  16.963 -0.1766  0.5148 -0.3174
  375MPD2    C2 5661   3.538   0.524  16.840  0.0516 -0.3124 -0.4807
  375MPD2    C3 5662   3.673   0.539  16.835  0.7088 -0.1659 -0.5577
  375MPD2    C4 5663   3.750   0.549  16.958 -0.2627 -0.4160 -0.4241
  375MPD2    C5 5664   3.685   0.546  17.079 -0.2323 -0.0637 -0.4158
  375MPD2     H 5665   3.476   0.516  16.751 -2.1433  1.1171  0.9271
  375MPD2    H1 5666   3.859   0.552  16.951 -0.3968  0.0000 -2.5883
  375MPD2    H2 5667   3.503   0.530  17.170  0.6714  1.0333  0.6765
  375MPD2    H3 5668   3.730   0.546  17.177 -0.6308 -0.7543 -0.2344
  375MPD2     N 5669   3.746   0.529  16.716  0.1538 -0.2555 -0.2581
  375MPD2    H5 5670   3.845   0.553  16.720  0.1525 -0.9668  4.2319
  375MPD2    N1 5671   3.346   0.479  16.965 -0.6469  0.6100  0.1170
  375MPD2    H7 5672   3.294   0.470  16.879  0.3253  0.1839 -0.4244
  376TMC3    C1 5673   3.788   0.479  16.483 -0.2490 -0.3518 -0.2325
  376TMC3    C2 5674   3.908   0.544  16.485  0.5213  0.4527 -0.1576
  376TMC3    C3 5675   3.977   0.543  16.365 -0.2396 -0.5385 -0.5073
  376TMC3    C4 5676   3.737   0.419  16.374 -0.0408 -0.4166 -0.4886
  376TMC3    C5 5677   3.817   0.411  16.267 -0.6876 -0.4076 -0.1646
  376TMC3    C6 5678   3.932   0.483  16.259  0.6328  0.1592 -0.0207
  376TMC3     C 5679   3.695   0.498  16.589  0.1971  0.3016  0.7727
  376TMC3     O 5680   3.581   0.457  16.564  0.1883 -0.1613 -0.1867
  376TMC3     H 5681   3.942   0.599  16.572  0.0411  0.9953 -0.3186
  376TMC3    H1 5682   3.641   0.370  16.385 -1.4587  2.7020  0.9647
  376TMC3    H2 5683   3.988   0.474  16.166 -0.3225 -0.6702 -0.5114
  376TMC3    C7 5684   3.782   0.324  16.151  0.1537 -0.6230 -0.0561
  376TMC3    C8 5685   4.120   0.579  16.360  0.0385 -0.5654  0.9213
  376TMC3    O1 5686   3.859   0.319  16.054  0.0076  0.2650  0.6463
  376TMC3    O2 5687   4.172   0.627  16.261  0.7478  0.6268  0.4637
  377MPD2     C 5688   1.881   4.384  12.637 -0.1229 -0.4924 -0.3173
  377MPD2    C1 5689   1.774   4.418  12.561 -0.1908  0.1091 -0.1253
  377MPD2    C2 5690   1.650   4.360  12.593 -0.2559  0.1935 -0.1957
  377MPD2    C3 5691   1.635   4.281  12.709 -1.1777  0.2094  0.4614
  377MPD2    C4 5692   1.750   4.245  12.782  0.0704  0.4230  0.0104
  377MPD2    C5 5693   1.866   4.301  12.747 -0.2941 -0.3687  0.2268
  377MPD2     H 5694   1.561   4.378  12.533 -0.2669  2.8128  0.6167
  377MPD2    H1 5695   1.747   4.188  12.874  1.1889  0.4825  0.0805
  377MPD2    H2 5696   1.981   4.412  12.605 -1.0930  2.2456 -0.9202
  377MPD2    H3 5697   1.952   4.272  12.806  0.8073  2.5083  0.0069
  377MPD2     N 5698   1.515   4.213  12.743 -0.0493 -0.3463  0.0973
  377MPD2    H5 5699   1.507   4.171  12.835 -0.8595  0.6666  0.4845
  377MPD2    N1 5700   1.794   4.492  12.443 -1.0562  0.2674 -0.5020
  377MPD2    H7 5701   1.884   4.538  12.442 -1.7144  1.5572 -0.4178
  378TMC3    C1 5702   1.683   4.692  12.030  0.4957  0.1426 -0.4070
  378TMC3    C2 5703   1.647   4.628  12.147 -0.1379 -0.2164 -0.1605
  378TMC3    C3 5704   1.740   4.602  12.240  0.8942  0.1940 -1.1767
  378TMC3    C4 5705   1.810   0.000  12.008 -0.9647  0.5560 -0.3894
  378TMC3    C5 5706   1.904   4.701  12.096  0.0207 -0.7700 -0.6004
  378TMC3    C6 5707   1.870   4.634  12.215 -0.0789  0.1057  0.0373
  378TMC3     C 5708   1.581   4.690  11.925 -0.2329  0.2443 -0.1155
  378TMC3     O 5709   1.478   4.638  11.956  0.0987  0.4218 -0.4743
  378TMC3     H 5710   1.543   4.605  12.165 -0.3432 -0.8769 -2.2000
  378TMC3    H1 5711   1.837   0.059  11.921 -0.3152  0.5866 -0.1638
  378TMC3    H2 5712   1.942   4.627  12.297 -0.4626 -2.4187  0.1666
  378TMC3    C7 5713   2.045   4.702  12.069 -0.3118 -0.1044  0.2436
  378TMC3    C8 5714   1.700   4.512  12.346  0.1899 -0.8731 -0.4727
  378TMC3    O1 5715   2.117   4.693  12.168  0.2666 -0.5400 -0.9733
  378TMC3    O2 5716   1.594   4.449  12.327  0.1678 -0.6125  0.3926
  379MPD2     C 5717   2.385   2.172  16.408  0.6291 -0.3925  0.2463
  379MPD2    C1 5718   2.503   2.139  16.352  0.5123  0.0634  0.0585
  379MPD2    C2 5719   2.598   2.068  16.434  0.7363 -0.2726 -0.2357
  379MPD2    C3 5720   2.574   2.052  16.566 -0.2048  0.6071  0.0964
  379MPD2    C4 5721   2.458   2.094  16.621  0.3289  0.0879  0.8080
  379MPD2    C5 5722   2.357   2.146  16.543  0.0235  0.9717  0.3143
  379MPD2     H 5723   2.702   2.047  16.411  0.7112 -1.5336  0.8520
  379MPD2    H1 5724   2.437   2.064  16.723 -0.9003 -1.1990  0.1816
  379MPD2    H2 5725   2.313   2.231  16.352  0.6813  2.0119  2.6817
  379MPD2    H3 5726   2.260   2.177  16.580 -1.5426 -1.1749 -1.9436
  379MPD2     N 5727   2.670   1.982  16.652 -0.0293 -0.9638 -0.1268
  379MPD2    H5 5728   2.636   1.980  16.748  1.5068 -1.6087  0.4054
  379MPD2    N1 5729   2.524   2.180  16.214  0.2580  0.3592 -0.2368
  379MPD2    H7 5730   2.450   2.227  16.163  1.6899  0.2641 -2.3889
  380TMC3    C1 5731   2.646   2.215  16.015 -1.0417  0.6354  0.0231
  380TMC3    C2 5732   2.708   2.140  15.925 -0.0879  0.8292  0.0407
  380TMC3    C3 5733   2.675   2.156  15.794 -0.5474  0.1339 -0.0190
  380TMC3    C4 5734   2.541   2.300  15.980 -0.5931  0.1006 -0.3654
  380TMC3    C5 5735   2.516   2.322  15.849 -0.2548  0.6905 -0.4252
  380TMC3    C6 5736   2.571   2.236  15.752 -0.0258 -0.1810 -0.6072
  380TMC3     C 5737   2.645   2.165  16.151  0.6958 -0.4868  0.3609
  380TMC3     O 5738   2.741   2.096  16.182  0.4845  0.0845 -0.3714
  380TMC3     H 5739   2.781   2.064  15.949 -0.4672  0.4036 -0.1574
  380TMC3    H1 5740   2.491   2.368  16.048  0.5880 -0.5925  1.1832
  380TMC3    H2 5741   2.534   2.233  15.650 -1.1710 -1.0790 -0.1598
  380TMC3    C7 5742   2.383   2.373  15.815 -0.6344  0.4491  0.5606
  380TMC3    C8 5743   2.785   2.202  15.709  0.2096 -0.5225  0.5506
  380TMC3    O1 5744   2.366   2.492  15.833 -0.3159  0.2294 -0.1790
  380TMC3    O2 5745   2.761   2.266  15.608 -0.3629 -0.1162  0.2817
  381TMC3    C1 5746   2.113   3.383  16.089  0.0507  0.2991 -0.0729
  381TMC3    C2 5747   2.192   3.496  16.077 -0.2692 -0.0098 -0.0572
  381TMC3    C3 5748   2.194   3.583  16.180 -0.7192 -0.0589  0.2579
  381TMC3    C4 5749   2.026   3.371  16.192  0.2123  0.0524  0.2831
  381TMC3    C5 5750   2.027   3.468  16.291 -0.0219  0.2563 -0.6297
  381TMC3    C6 5751   2.115   3.577  16.289  0.2109 -0.2646 -0.2194
  381TMC3     C 5752   2.096   3.316  15.962 -0.4487 -0.0063  0.0966
  381TMC3     O 5753   2.202   3.293  15.905 -0.2809 -0.5235 -0.7465
  381TMC3     H 5754   2.249   3.508  15.985  0.7368  0.5360  0.6463
  381TMC3    H1 5755   1.963   3.284  16.207 -0.0537  0.2146  0.1019
  381TMC3    H2 5756   2.131   3.647  16.370  3.0042  0.7047 -1.6271
  381TMC3    C7 5757   1.968   3.428  16.420  0.4744 -0.0143 -0.6246
  381TMC3    C8 5758   2.288   3.696  16.165 -0.5538 -0.8009  0.4668
  381TMC3    O1 5759   1.966   3.307  16.445 -0.0729  0.3197  0.3767
  381TMC3    O2 5760   2.354   3.681  16.064  0.5478 -0.5313  0.0539
  382MPD2     C 5761   1.134   1.678  16.617  0.4937 -0.9717 -0.4118
  382MPD2    C1 5762   1.232   1.681  16.714  0.1816 -0.0111 -0.0122
  382MPD2    C2 5763   1.273   1.566  16.765  0.3753 -0.4189 -0.2004
  382MPD2    C3 5764   1.222   1.442  16.728 -0.3660 -0.4550 -0.2104
  382MPD2    C4 5765   1.129   1.438  16.630 -0.0147  1.3136  0.3957
  382MPD2    C5 5766   1.082   1.557  16.579 -0.6745  0.3390 -0.2451
  382MPD2     H 5767   1.355   1.573  16.835  0.8493  2.4524 -1.0306
  382MPD2    H1 5768   1.095   1.343  16.590  3.3045  0.2944 -0.0302
  382MPD2    H2 5769   1.090   1.766  16.572 -0.3799 -0.0491  2.2278
  382MPD2    H3 5770   1.002   1.561  16.505 -2.4019 -2.3579  1.4879
  382MPD2     N 5771   1.260   1.319  16.788 -0.0565 -0.3365 -0.3201
  382MPD2    H5 5772   1.243   1.237  16.732 -0.2790 -0.2441 -0.3901
  382MPD2    N1 5773   1.299   1.800  16.750  0.1872  0.1010 -0.1372
  382MPD2    H7 5774   1.393   1.790  16.785 -0.0170  2.0852  0.9734
  383TMC3    C1 5775   1.334   1.166  16.947  0.6133 -0.1893  0.3185
  383TMC3    C2 5776   1.245   1.072  16.906 -0.3726  0.2709  0.4893
  383TMC3    C3 5777   1.237   0.958  16.976  0.0382  0.2648 -0.3891
  383TMC3    C4 5778   1.407   1.154  17.057 -0.8401  0.1593  0.0872
  383TMC3    C5 5779   1.409   1.038  17.116 -0.2409  0.0678  0.1064
  383TMC3    C6 5780   1.327   0.931  17.078  0.9316  0.9587  0.4028
  383TMC3     C 5781   1.304   1.301  16.919 -0.0465  0.2016  0.3834
  383TMC3     O 5782   1.323   1.385  17.007  0.5268  0.1946  0.3130
  383TMC3     H 5783   1.165   1.091  16.835 -0.1690  0.7566  0.3962
  383TMC3    H1 5784   1.463   1.240  17.092  1.3885 -1.8315  1.3885
  383TMC3    H2 5785   1.333   0.834  17.124  0.1595  0.2286 -1.0312
  383TMC3    C7 5786   1.530   0.995  17.173 -0.0138 -0.1312 -0.6866
  383TMC3    C8 5787   1.120   0.869  16.953 -0.1167 -1.0788  0.3024
  383TMC3    O1 5788   1.517   0.897  17.242 -0.2453 -0.1217  0.6012
  383TMC3    O2 5789   1.073   0.868  16.846 -0.1854  0.2540 -0.6517
  384MPD2     C 5790   2.437   2.476  12.047 -0.2600  0.6930  0.1917
  384MPD2    C1 5791   2.575   2.466  12.072 -0.5018 -0.0784  0.6262
  384MPD2    C2 5792   2.654   2.400  11.987  0.3636  0.3418  0.2427
  384MPD2    C3 5793   2.596   2.342  11.874  0.4610 -0.5203 -0.1312
  384MPD2    C4 5794   2.459   2.350  11.847  0.2647  0.2042  0.0284
  384MPD2    C5 5795   2.380   2.420  11.934 -0.3716  0.4410  0.2891
  384MPD2     H 5796   2.761   2.394  11.994  0.1387 -1.1058  2.3359
  384MPD2    H1 5797   2.419   2.302  11.758  0.7176 -2.3206  1.1721
  384MPD2    H2 5798   2.369   2.512  12.123 -0.9456 -1.8652  0.8037
  384MPD2    H3 5799   2.277   2.447  11.914 -0.0526  1.4177 -0.0319
  384MPD2     N 5800   2.688   2.283  11.783  0.8375  0.1541  0.4838
  384MPD2    H5 5801   2.787   2.289  11.804  0.9715  2.0549 -0.7088
  384MPD2    N1 5802   2.637   2.523  12.181  0.4004  0.5024 -0.0455
  384MPD2    H7 5803   2.730   2.488  12.203  0.4084 -0.3744 -1.4680
  385TMC3    C1 5804   2.778   2.193  11.596  0.2352 -0.0683 -0.0076
  385TMC3    C2 5805   2.774   2.066  11.563 -0.0210  0.1597  0.0535
  385TMC3    C3 5806   2.887   1.998  11.598 -0.0419  0.2836  0.1748
  385TMC3    C4 5807   2.891   2.257  11.646 -0.8317 -0.2462  0.3807
  385TMC3    C5 5808   2.991   2.177  11.705  0.1053  0.1525 -0.0860
  385TMC3    C6 5809   2.995   2.047  11.670 -0.1399  0.0101 -0.1677
  385TMC3     C 5810   2.658   2.220  11.670 -0.4108  0.2923  0.0953
  385TMC3     O 5811   2.558   2.147  11.647 -0.2753 -0.4285  0.1366
  385TMC3     H 5812   2.686   2.018  11.522  1.1155 -1.9443  0.0458
  385TMC3    H1 5813   2.891   2.364  11.659  0.1928 -0.3635  1.3879
  385TMC3    H2 5814   3.087   1.989  11.677 -0.3950 -0.3971 -0.1871
  385TMC3    C7 5815   3.007   2.206  11.848  0.0049 -1.0088  0.0898
  385TMC3    C8 5816   2.893   1.853  11.573 -0.2711 -0.7569  0.0425
  385TMC3    O1 5817   2.958   2.309  11.885  0.0701 -0.2936 -0.1197
  385TMC3    O2 5818   2.975   1.792  11.645 -0.1166  0.3366  0.3418
  386TMC3    C1 5819   3.142   4.443  11.083  0.4748 -0.1699 -0.1255
  386TMC3    C2 5820   3.145   4.434  10.951  0.2430  0.4287 -0.1541
  386TMC3    C3 5821   3.042   4.491  10.884  0.1434  0.2768 -0.0153
  386TMC3    C4 5822   3.042   4.493  11.157  0.5944 -0.0130 -0.5610
  386TMC3    C5 5823   2.938   4.546  11.085 -0.3464 -0.7732  0.1889
  386TMC3    C6 5824   2.932   4.552  10.949  0.1301 -0.9862  0.1855
  386TMC3     C 5825   3.263   4.407  11.155 -0.3771  0.7307 -0.3295
  386TMC3     O 5826   3.369   4.413  11.093 -0.0357  0.0754  0.0682
  386TMC3     H 5827   3.224   4.378  10.902  1.3352  2.3942 -0.6034
  386TMC3    H1 5828   3.035   4.513  11.263  2.2875  1.2494 -0.6918
  386TMC3    H2 5829   2.866   4.596  10.876  0.8271  2.8320  1.8312
  386TMC3    C7 5830   2.842   4.635  11.156  0.0794 -0.7828  0.7591
  386TMC3    C8 5831   3.026   4.472  10.745  0.3236  0.2525  0.9944
  386TMC3    O1 5832   2.862   4.667  11.273  0.2260 -0.3184 -0.2163
  386TMC3    O2 5833   2.911   4.470  10.705 -0.0790 -0.1119  0.1205
  387MPD2     C 5834   1.081   3.976   9.337  0.0174 -0.0092  0.2940
  387MPD2    C1 5835   1.085   3.994   9.471  0.1288  0.2591 -0.8276
  387MPD2    C2 5836   1.159   3.913   9.552 -0.6857 -0.2600 -0.2664
  387MPD2    C3 5837   1.224   3.804   9.507  0.3187 -0.5481  0.4201
  387MPD2    C4 5838   1.218   3.781   9.365 -0.3922  0.3117 -0.2380
  387MPD2    C5 5839   1.138   3.866   9.282 -0.1099 -0.2773 -0.1877
  387MPD2     H 5840   1.162   3.933   9.658  2.2526  1.0654 -0.5885
  387MPD2    H1 5841   1.280   3.707   9.317 -0.5426 -0.3230  0.5421
  387MPD2    H2 5842   1.029   4.046   9.272  4.0265  1.0563 -1.7273
  387MPD2    H3 5843   1.143   3.847   9.176  2.6971  0.0170 -0.0995
  387MPD2     N 5844   1.280   3.719   9.602  0.8097 -0.0322  0.1391
  387MPD2    H5 5845   1.290   3.755   9.697  0.4031 -0.4193  0.3276
  387MPD2    N1 5846   1.016   4.091   9.538  0.1115  0.1472  0.4853
  387MPD2    H7 5847   1.022   4.104   9.639  2.5476 -0.2427  0.3888
  388TMC3    C1 5848   0.869   4.272   9.593 -0.0747  0.2862 -0.3391
  388TMC3    C2 5849   0.830   4.399   9.560  0.3880 -0.1041 -0.1593
  388TMC3    C3 5850   0.782   4.471   9.668  0.4749 -0.0863 -0.3898
  388TMC3    C4 5851   0.834   4.214   9.716  0.7241  0.0095 -0.1598
  388TMC3    C5 5852   0.798   4.289   9.818  0.0952  0.0248 -0.0636
  388TMC3    C6 5853   0.763   4.419   9.792  0.6260  0.6558  0.5011
  388TMC3     C 5854   0.931   4.187   9.492 -0.1094  0.0278  0.4506
  388TMC3     O 5855   0.903   4.221   9.380 -0.0294  0.4538 -0.0096
  388TMC3     H 5856   0.841   4.453   9.467 -3.3380 -0.5798 -0.8942
  388TMC3    H1 5857   0.848   4.107   9.728 -1.5146 -0.4725 -1.7997
  388TMC3    H2 5858   0.750   4.489   9.874  1.4663  0.7373  0.5643
  388TMC3    C7 5859   0.847   4.261   9.950 -0.3308 -0.1331  0.2584
  388TMC3    C8 5860   0.758   4.613   9.645  0.4147  0.1875 -0.3819
  388TMC3    O1 5861   0.862   4.354  10.033  0.0654  0.3222 -0.4316
  388TMC3    O2 5862   0.824   4.661   9.553  0.8785  0.5177 -0.0411
  389MPD2     C 5863   0.321   2.935  10.613  0.6431 -0.1821  0.0694
  389MPD2    C1 5864   0.212   2.857  10.636 -0.1257  0.0999 -0.0394
  389MPD2    C2 5865   0.182   2.827  10.771 -0.0098 -0.7716 -0.0571
  389MPD2    C3 5866   0.263   2.865  10.878  0.0986  0.2003  0.5698
  389MPD2    C4 5867   0.368   2.952  10.850  0.5251 -1.0660  0.0225
  389MPD2    C5 5868   0.394   2.986  10.718  0.3617 -0.2191 -0.2734
  389MPD2     H 5869   0.092   2.768  10.783  0.3982 -1.5390 -0.7271
  389MPD2    H1 5870   0.435   2.994  10.924 -1.1195  0.1670  0.8418
  389MPD2    H2 5871   0.345   2.966  10.512 -0.2448  0.0785 -0.0586
  389MPD2    H3 5872   0.477   3.054  10.703 -0.4147  0.5328 -1.1076
  389MPD2     N 5873   0.238   2.815  11.007 -0.6982  0.3843  0.1837
  389MPD2    H5 5874   0.266   2.877  11.082  1.0136 -0.1086 -0.0525
  389MPD2    N1 5875   0.125   2.828  10.522  0.3117  0.0345 -0.6586
  389MPD2    H7 5876   0.149   2.874  10.435 -0.2391  0.5591 -0.5342
  390TMC3    C1 5877   0.089   2.717  11.162 -0.4218 -0.1802  0.8114
  390TMC3    C2 5878   4.712   2.644  11.172  0.0757 -0.0990  0.3845
  390TMC3    C3 5879   4.609   2.689  11.245  0.1476  0.3044 -0.0121
  390TMC3    C4 5880   0.111   2.823  11.255  0.2488  0.5575 -0.1702
  390TMC3    C5 5881   0.013   2.845  11.350  0.0006 -0.3160 -1.0097
  390TMC3    C6 5882   4.625   2.790  11.335 -0.0613 -0.1390  0.2837
  390TMC3     C 5883   0.153   2.713  11.032  0.3033 -0.5920 -0.1029
  390TMC3     O 5884   0.117   2.625  10.957  0.7035 -0.3334 -0.4997
  390TMC3     H 5885   4.702   2.556  11.109 -1.3344  1.0923 -1.0566
  390TMC3    H1 5886   0.210   2.868  11.256  0.3612  0.3285 -1.9532
  390TMC3    H2 5887   4.540   2.829  11.389  0.1299  0.2212  0.3286
  390TMC3    C7 5888   0.026   2.974  11.425  0.5111 -0.8062 -0.2922
  390TMC3    C8 5889   4.492   2.605  11.266  0.2085  0.2257  0.2829
  390TMC3    O1 5890   0.131   3.035  11.402 -0.3208 -0.4082 -0.2798
  390TMC3    O2 5891   4.514   2.488  11.251  0.2742 -0.3563 -0.2435
  391MPD2     C 5892   3.976   4.243  10.231  0.3128  0.3559 -0.9544
  391MPD2    C1 5893   4.055   4.350  10.277 -0.4019 -0.4459 -0.3405
  391MPD2    C2 5894   4.058   4.467  10.205  0.5060  1.2953 -0.6853
  391MPD2    C3 5895   3.985   4.486  10.088  0.0803 -0.6090 -0.0694
  391MPD2    C4 5896   3.913   4.375  10.046  0.8879  0.0004  0.2159
  391MPD2    C5 5897   3.903   4.257  10.114  0.1519  0.1801  0.2269
  391MPD2     H 5898   4.109   4.555  10.243 -2.0249  1.6870  1.8668
  391MPD2    H1 5899   3.865   4.379   9.949 -0.7656  2.3402  1.1390
  391MPD2    H2 5900   3.987   4.146  10.278  1.8800  0.5379 -0.9498
  391MPD2    H3 5901   3.856   4.172  10.066 -2.2285  0.5996  1.8350
  391MPD2     N 5902   3.978   4.615  10.024 -0.8241 -0.3352  0.7809
  391MPD2    H5 5903   4.037   4.683  10.071 -0.3987  0.7141 -1.2792
  391MPD2    N1 5904   4.118   4.320  10.403 -0.0227  0.7400 -0.1688
  391MPD2    H7 5905   4.073   4.249  10.460  1.2180  0.2865  0.2409
  392TMC3    C1 5906   3.930   0.039   9.848 -0.3709  0.3440 -0.7861
  392TMC3    C2 5907   3.828   0.085   9.775 -0.3750 -0.7745 -0.0963
  392TMC3    C3 5908   3.833   0.213   9.736 -0.4977  0.0656 -0.6519
  392TMC3    C4 5909   4.035   0.116   9.893  0.4168  0.9503  0.0662
  392TMC3    C5 5910   4.032   0.249   9.851  0.3817  0.3839 -0.5100
  392TMC3    C6 5911   3.931   0.303   9.780  0.0311  0.2034  0.0287
  392TMC3     C 5912   3.914   4.642   9.905  0.0320 -0.5230 -0.3018
  392TMC3     O 5913   3.844   4.570   9.832 -0.4079 -0.1672 -0.3476
  392TMC3     H 5914   3.734   0.031   9.772  0.7348 -2.7317  0.3753
  392TMC3    H1 5915   4.124   0.077   9.941 -1.3914 -1.8087  1.1617
  392TMC3    H2 5916   3.932   0.397   9.727 -0.3039 -0.1666 -0.6298
  392TMC3    C7 5917   4.132   0.328   9.917  0.2139 -0.2191 -0.2954
  392TMC3    C8 5918   3.724   0.277   9.670 -0.4561 -0.4546 -0.1704
  392TMC3    O1 5919   4.202   0.280  10.005 -0.1872 -0.7517 -0.0221
  392TMC3    O2 5920   3.661   0.193   9.604 -0.1843 -0.1595  0.7163
  393TMC3    C1 5921   3.183   2.474  10.588 -0.8730 -0.0216 -0.3115
  393TMC3    C2 5922   3.126   2.568  10.673  0.2855 -0.0959  0.6865
  393TMC3    C3 5923   3.002   2.534  10.728 -0.0753 -0.2333 -0.2213
  393TMC3    C4 5924   3.117   2.369  10.546  0.0948 -0.2900  0.3252
  393TMC3    C5 5925   2.997   2.334  10.602 -0.2912 -0.6656 -0.3415
  393TMC3    C6 5926   2.944   2.413  10.700 -0.0725 -0.1328 -0.5109
  393TMC3     C 5927   3.293   2.523  10.512 -0.6744 -0.3268  0.1219
  393TMC3     O 5928   3.294   2.644  10.488  0.3058  0.0020 -0.4910
  393TMC3     H 5929   3.171   2.663  10.698 -3.3828  1.7028  0.4053
  393TMC3    H1 5930   3.158   2.310  10.465  0.1115 -0.6416  0.5889
  393TMC3    H2 5931   2.852   2.380  10.746 -0.2331  0.5624 -0.3301
  393TMC3    C7 5932   2.947   2.197  10.592  0.4854 -0.6478  0.3613
  393TMC3    C8 5933   2.942   2.618  10.826  0.1600 -0.0627 -0.1807
  393TMC3    O1 5934   2.832   2.179  10.623 -0.3701  0.4299  0.0536
  393TMC3    O2 5935   2.870   2.564  10.910  0.4540  0.0105 -0.0967
  394TMC3    C1 5936   4.669   2.740  10.409  0.2276 -1.1298  0.2330
  394TMC3    C2 5937   4.534   2.716  10.421 -0.6707 -0.0031 -0.1488
  394TMC3    C3 5938   4.468   2.708  10.299 -0.5212 -0.3470 -0.2472
  394TMC3    C4 5939   4.733   2.753  10.291  0.5775 -0.3968  0.3341
  394TMC3    C5 5940   4.659   2.752  10.177  0.2194 -0.1508  0.0833
  394TMC3    C6 5941   4.523   2.728  10.175 -0.2135 -0.1324 -0.3535
  394TMC3     C 5942   4.731   2.790  10.530  0.5385  0.1665 -0.4646
  394TMC3     O 5943   4.648   2.809  10.624  0.0930 -0.4240  0.2772
  394TMC3     H 5944   4.478   2.690  10.510  0.0210 -0.2609  0.2171
  394TMC3    H1 5945   0.101   2.778  10.279  0.5744 -0.9230 -0.7916
  394TMC3    H2 5946   4.464   2.708  10.086 -1.5457 -2.1694  1.0044
  394TMC3    C7 5947   0.002   2.797  10.063  0.6984 -0.1900 -0.1183
  394TMC3    C8 5948   4.342   2.629  10.312  0.2760  0.1769 -0.4830
  394TMC3    O1 5949   0.122   2.772  10.052 -0.0288 -0.0191 -0.1674
  394TMC3    O2 5950   4.244   2.672  10.251 -0.0141  0.2176  0.1382
  395TMC3    C1 5951   0.018   4.662  14.264 -0.7420 -0.2517  0.0887
  395TMC3    C2 5952   0.078   4.538  14.269  0.0102 -0.5189 -0.1221
  395TMC3    C3 5953   0.206   4.540  14.312  0.1839 -0.6729 -0.4323
  395TMC3    C4 5954   0.083   0.044  14.267  0.9908 -0.1150  0.3560
  395TMC3    C5 5955   0.217   0.041  14.291  0.0945  0.7727 -0.4920
  395TMC3    C6 5956   0.278   4.660  14.320  0.8029  0.2204 -0.0027
  395TMC3     C 5957   4.625   4.676  14.201 -0.6375  0.7560  0.0847
  395TMC3     O 5958   4.555   0.034  14.219  0.0146 -0.2253 -0.4739
  395TMC3     H 5959   0.027   4.442  14.266  0.6026 -0.8089 -1.2537
  395TMC3    H1 5960   0.017   0.129  14.273 -0.4085 -1.1920  0.0399
  395TMC3    H2 5961   0.382   4.657  14.348  0.2643  1.9489  2.1994
  395TMC3    C7 5962   0.294   0.158  14.322  0.4882  0.4398  0.2540
  395TMC3    C8 5963   0.282   4.418  14.329 -0.1932  0.1572  0.0003
  395TMC3    O1 5964   0.404   0.143  14.380 -0.0787  0.0814  0.4109
  395TMC3    O2 5965   0.397   4.435  14.363  0.5064 -0.8075 -0.4121
  396MPD2     C 5966   4.071   0.727  17.293  0.7061 -0.1321  0.4767
  396MPD2    C1 5967   4.195   0.724  17.355 -0.0522 -0.9891  0.4737
  396MPD2    C2 5968   4.264   0.842  17.369  0.0325 -0.1987 -0.2614
  396MPD2    C3 5969   4.213   0.964  17.317  0.2021  0.6516 -0.6682
  396MPD2    C4 5970   4.087   0.968  17.265  0.6024  0.5590 -0.2597
  396MPD2    C5 5971   4.016   0.846  17.252 -0.0922  0.0539 -0.2381
  396MPD2     H 5972   4.348   0.845  17.438 -0.5175 -1.1996  0.4568
  396MPD2    H1 5973   4.040   1.065  17.253 -1.8634 -0.3501  2.1827
  396MPD2    H2 5974   4.018   0.633  17.288 -1.4299  1.1265 -0.7868
  396MPD2    H3 5975   3.914   0.850  17.216  0.2289 -3.0345 -1.4140
  396MPD2     N 5976   4.296   1.075  17.309  0.4393  0.4393 -0.3027
  396MPD2    H5 5977   4.385   1.077  17.358  0.8980 -1.6799 -1.0334
  396MPD2    N1 5978   4.250   0.597  17.392 -0.0157 -0.1318 -0.2370
  396MPD2    H7 5979   4.194   0.516  17.367  2.4132 -2.8218  3.0275
  397TMC3    C1 5980   4.403   0.435  17.447 -0.4534 -0.1842 -0.4776
  397TMC3    C2 5981   4.504   0.411  17.359  0.4177  1.1721  0.9995
  397TMC3    C3 5982   4.504   0.305  17.274  0.7848 -0.3207  0.1815
  397TMC3    C4 5983   4.297   0.351  17.442  0.2644  0.9853  0.0578
  397TMC3    C5 5984   4.301   0.236  17.363 -0.2108 -0.0334  0.1763
  397TMC3    C6 5985   4.405   0.214  17.273  0.0571 -0.5424 -0.3191
  397TMC3     C 5986   4.366   0.571  17.457 -0.2240  0.3184  0.8013
  397TMC3     O 5987   4.445   0.643  17.519 -0.0970 -0.0377 -0.1010
  397TMC3     H 5988   4.558   0.499  17.324  0.3556  0.3132 -1.2266
  397TMC3    H1 5989   4.215   0.374  17.508 -0.0395 -0.4754  0.1980
  397TMC3    H2 5990   4.395   0.149  17.187 -0.5318 -0.9781  0.0824
  397TMC3    C7 5991   4.200   0.132  17.369  0.0733  0.4532 -0.0663
  397TMC3    C8 5992   4.554   0.340  17.137 -0.7110  0.1854  0.5392
  397TMC3    O1 5993   4.219   0.031  17.301  0.0468  0.3698  0.2633
  397TMC3    O2 5994   4.468   0.333  17.050 -0.0586  0.3991  0.3261
  398MPD2     C 5995   2.658   2.611   0.024 -0.3786 -0.0293 -0.0316
  398MPD2    C1 5996   2.716   2.545   0.125  0.5313 -0.3592  0.4353
  398MPD2    C2 5997   2.772   2.621   0.229  0.0833 -0.1115 -0.0919
  398MPD2    C3 5998   2.759   2.757   0.234  0.0046  1.2306 -0.1137
  398MPD2    C4 5999   2.690   2.822   0.137 -0.1126 -0.2854 -0.1347
  398MPD2    C5 6000   2.644   2.748   0.031 -0.3536 -0.2108 -0.7474
  398MPD2     H 6001   2.817   2.571   0.314  0.5148  1.1668  0.4347
  398MPD2    H1 6002   2.675   2.929   0.126  0.6195 -0.1225  0.5179
  398MPD2    H2 6003   2.615   2.566  17.681  0.2393 -1.4893  0.4183
  398MPD2    H3 6004   2.600   2.789  17.687 -1.0795 -0.0335 -0.3072
  398MPD2     N 6005   2.820   2.814   0.345 -0.1737 -0.2372  0.0282
  398MPD2    H5 6006   2.867   2.746   0.404 -0.1902 -0.0150  0.2995
  398MPD2    N1 6007   2.736   2.405   0.143 -0.5626  0.0291  0.0320
  398MPD2    H7 6008   2.782   2.382   0.230  1.3584  2.5249 -0.3014
  399TMC3    C1 6009   2.700   2.176   0.115 -0.0756 -1.3393 -0.6521
  399TMC3    C2 6010   2.827   2.152   0.159  0.6380  0.0141 -0.0741
  399TMC3    C3 6011   2.849   2.033   0.219  0.2857 -0.2400  0.9521
  399TMC3    C4 6012   2.600   2.080   0.105 -0.3350 -0.2945 -0.0867
  399TMC3    C5 6013   2.634   1.958   0.149 -0.6767 -0.0383  0.7551
  399TMC3    C6 6014   2.753   1.937   0.215 -0.1221 -0.1499  0.5923
  399TMC3     C 6015   2.672   2.307   0.068 -0.2480  0.4503  0.3266
  399TMC3     O 6016   2.582   2.321  17.730  0.1033 -0.2507  0.0747
  399TMC3     H 6017   2.901   2.230   0.146  0.2122  0.4300 -0.0191
  399TMC3    H1 6018   2.498   2.104   0.077 -0.0264 -0.3656 -1.2769
  399TMC3    H2 6019   2.776   1.848   0.273  1.5053  0.3359  0.6835
  399TMC3    C7 6020   2.542   1.854   0.169  0.4227  0.1357 -0.5129
  399TMC3    C8 6021   2.994   2.011   0.247 -0.3837  0.6620  0.5058
  399TMC3    O1 6022   2.563   1.780   0.263  0.1014  0.3793  0.2826
  399TMC3    O2 6023   3.067   2.109   0.236 -0.2148  0.2940 -0.4155
  400TMC3    C1 6024   1.003   0.461  16.731 -0.7023 -0.0630 -0.0720
  400TMC3    C2 6025   0.902   0.371  16.716 -0.4730  0.1921 -0.4192
  400TMC3    C3 6026   0.804   0.408  16.625 -0.2841 -0.5104 -0.6423
  400TMC3    C4 6027   1.006   0.590  16.676  0.0808  0.0742  0.5084
  400TMC3    C5 6028   0.897   0.617  16.590 -0.0994  0.0119  0.3403
  400TMC3    C6 6029   0.794   0.533  16.570  0.2260 -0.1397 -0.1601
  400TMC3     C 6030   1.112   0.419  16.818 -0.4384  0.4602 -0.5621
  400TMC3     O 6031   1.090   0.331  16.904  0.3155 -0.7635  0.3618
  400TMC3     H 6032   0.905   0.266  16.744  0.7220  0.1209 -0.8279
  400TMC3    H1 6033   1.081   0.662  16.705 -0.1588  0.6675 -0.3413
  400TMC3    H2 6034   0.708   0.560  16.510 -0.2169 -0.3329  0.3845
  400TMC3    C7 6035   0.870   0.749  16.534 -0.0886 -0.1487 -0.1596
  400TMC3    C8 6036   0.693   0.312  16.616 -0.5639  0.1261  0.0715
  400TMC3    O1 6037   0.804   0.750  16.431 -0.4679 -0.3021 -0.7098
  400TMC3    O2 6038   0.683   0.227  16.707  0.4661 -0.0848  1.3378
  401MPD2     C 6039   0.062   4.180   1.415 -0.3411 -0.3318 -1.4581
  401MPD2    C1 6040   0.167   4.090   1.388 -0.2100  0.3152  1.0002
  401MPD2    C2 6041   0.141   3.957   1.414 -0.6252  0.0583 -0.4368
  401MPD2    C3 6042   0.012   3.913   1.451 -0.7570  0.9375 -0.5428
  401MPD2    C4 6043   4.646   3.996   1.467 -0.7721 -0.4193 -0.1461
  401MPD2    C5 6044   4.673   4.128   1.441 -0.0736 -0.3140  0.4595
  401MPD2     H 6045   0.224   3.889   1.401 -2.0061 -1.4800 -1.2166
  401MPD2    H1 6046   4.548   3.962   1.498 -0.9955 -0.9292 -1.4178
  401MPD2    H2 6047   0.064   4.288   1.411 -2.6713 -0.2392 -0.4952
  401MPD2    H3 6048   4.594   4.200   1.455  1.4648  1.6974 -1.2136
  401MPD2     N 6049   0.005   3.773   1.475  0.4736  0.2411  0.3078
  401MPD2    H5 6050   0.088   3.718   1.492  0.6506  1.1356  2.3497
  401MPD2    N1 6051   0.291   4.132   1.336  0.2067  0.1823 -0.2287
  401MPD2    H7 6052   0.368   4.067   1.322  0.8411  0.6692  0.9281
  402TMC3    C1 6053   4.640   3.557   1.537  0.3090 -0.3450 -0.2960
  402TMC3    C2 6054   0.009   3.504   1.607  0.2326  0.7850 -0.0980
  402TMC3    C3 6055   0.012   3.373   1.630  0.8539 -0.0929  0.6554
  402TMC3    C4 6056   4.546   3.481   1.469 -0.2940 -0.4768  0.1996
  402TMC3    C5 6057   4.564   3.347   1.475 -0.2510  0.3975  0.0568
  402TMC3    C6 6058   4.661   3.295   1.563  0.0940 -0.0026  0.3674
  402TMC3     C 6059   4.624   3.696   1.488  0.4442 -0.4311 -0.4949
  402TMC3     O 6060   4.510   3.738   1.481 -0.4224 -0.5715  0.3744
  402TMC3     H 6061   0.079   3.568   1.659 -0.7122  1.5513  0.2246
  402TMC3    H1 6062   4.471   3.533   1.410  0.5500 -0.4518 -0.8691
  402TMC3    H2 6063   4.673   3.188   1.573  1.6543  0.2975  1.7178
  402TMC3    C7 6064   4.552   3.278   1.345 -0.5317  0.5749  0.1577
  402TMC3    C8 6065   0.147   3.312   1.656 -0.1935 -0.9446  0.3530
  402TMC3    O1 6066   4.473   3.327   1.264  0.0134  0.2264  0.3064
  402TMC3    O2 6067   0.164   3.199   1.614 -0.8112  0.2980 -0.3834
  403MPD2     C 6068   2.714   1.697  12.928  0.2842 -0.1064 -0.9881
  403MPD2    C1 6069   2.632   1.772  13.000 -0.2362  0.5983 -0.7313
  403MPD2    C2 6070   2.676   1.821  13.116  0.4177 -0.5782  0.2120
  403MPD2    C3 6071   2.807   1.792  13.154 -0.3186  0.0913  0.6581
  403MPD2    C4 6072   2.894   1.711  13.073 -0.6022  0.5866  0.1289
  403MPD2    C5 6073   2.841   1.659  12.964 -0.1936 -0.4878 -0.9556
  403MPD2     H 6074   2.613   1.891  13.170 -1.2520 -1.9941  0.0764
  403MPD2    H1 6075   2.997   1.688  13.098 -0.9046 -0.9206 -0.0386
  403MPD2    H2 6076   2.671   1.650  12.840 -0.5161 -1.1936 -0.0242
  403MPD2    H3 6077   2.894   1.582  12.909  0.7543 -1.7842  1.8183
  403MPD2     N 6078   2.854   1.854  13.274 -0.0141 -0.5765 -0.6292
  403MPD2    H5 6079   2.784   1.901  13.330 -0.1128 -1.0675 -0.3331
  403MPD2    N1 6080   2.501   1.778  12.958 -0.0584 -0.4264 -0.1325
  403MPD2    H7 6081   2.478   1.743  12.865  0.5785 -0.7074 -0.1825
  404TMC3    C1 6082   2.265   1.747  12.981 -0.8084 -0.5013  0.2248
  404TMC3    C2 6083   2.160   1.716  13.061 -0.1413  0.1155  0.1283
  404TMC3    C3 6084   2.047   1.658  13.004  0.0192 -0.2930 -0.1901
  404TMC3    C4 6085   2.263   1.712  12.848  0.0464 -0.6279  0.0557
  404TMC3    C5 6086   2.153   1.648  12.799  0.2292 -1.0677 -0.4092
  404TMC3    C6 6087   2.042   1.613  12.874 -0.0524  0.5940  0.0281
  404TMC3     C 6088   2.393   1.803  13.040 -0.4042  0.4905 -0.2235
  404TMC3     O 6089   2.386   1.835  13.156 -0.5595  0.3770  0.8223
  404TMC3     H 6090   2.162   1.749  13.164  1.9369  1.6678 -0.4011
  404TMC3    H1 6091   2.334   1.761  12.782  0.1068  0.4965  0.9483
  404TMC3    H2 6092   1.957   1.556  12.838  2.0479  0.0083 -4.0528
  404TMC3    C7 6093   2.172   1.601  12.664  0.2950  0.2318  0.0711
  404TMC3    C8 6094   1.956   1.581  13.088  0.1167 -0.3381 -0.1571
  404TMC3    O1 6095   2.286   1.602  12.621 -0.0673  0.3053  0.2941
  404TMC3    O2 6096   1.888   1.494  13.031  0.7708 -1.0443 -0.2803
  405MPD2     C 6097   3.187   3.377  14.110 -0.1607  0.1090 -0.0941
  405MPD2    C1 6098   3.183   3.359  14.247  0.0491 -0.2994  0.0069
  405MPD2    C2 6099   3.070   3.408  14.321  1.2988 -0.5475  0.2215
  405MPD2    C3 6100   2.967   3.475  14.255  0.3676 -0.4346  0.1343
  405MPD2    C4 6101   2.972   3.480  14.113  0.1051 -0.0247 -1.0882
  405MPD2    C5 6102   3.087   3.443  14.042  0.4224  0.1025  0.4627
  405MPD2     H 6103   3.053   3.393  14.427 -0.6109 -0.6038 -0.0902
  405MPD2    H1 6104   2.891   3.519  14.052 -0.9088 -0.8611 -0.2645
  405MPD2    H2 6105   3.275   3.357  14.049  0.5808  2.9487  0.0281
  405MPD2    H3 6106   3.089   3.461  13.935  0.5239  1.1154  0.6351
  405MPD2     N 6107   2.852   3.503  14.324  0.1599  0.1721 -0.6480
  405MPD2    H5 6108   2.855   3.490  14.424 -2.3200  0.8860 -0.4881
  405MPD2    N1 6109   3.277   3.272  14.312  0.4601 -0.4489  0.7540
  405MPD2    H7 6110   3.345   3.222  14.254  2.6996  2.2588  1.0426
  406TMC3    C1 6111   2.400   3.516  14.350  0.8920 -0.0988  0.2446
  406TMC3    C2 6112   2.407   3.407  14.434 -0.0311 -0.2319  0.3275
  406TMC3    C3 6113   2.535   3.355  14.469  0.1843  0.2593  0.1451
  406TMC3    C4 6114   2.513   3.581  14.310  0.1914 -0.4617 -0.4769
  406TMC3    C5 6115   2.636   3.530  14.350  0.0557  0.3436  0.0910
  406TMC3    C6 6116   2.648   3.415  14.427 -0.2026 -0.0048  0.6422
  406TMC3     C 6117   2.290   3.506  14.255  0.4023 -0.6881 -0.4209
  406TMC3     O 6118   2.262   3.604  14.189 -0.7686  0.4211  0.5490
  406TMC3     H 6119   2.318   3.359  14.475 -0.8210  1.9742  1.1747
  406TMC3    H1 6120   2.507   3.663  14.239  1.5434  1.0557  1.1474
  406TMC3    H2 6121   2.741   3.381  14.472 -0.2118 -1.0487 -0.1407
  406TMC3    C7 6122   2.747   3.555  14.264  0.0086  0.3459 -0.8984
  406TMC3    C8 6123   2.537   3.223  14.522  0.2193  0.5126  0.1261
  406TMC3    O1 6124   2.728   3.618  14.161 -0.7558 -0.1808  0.5419
  406TMC3    O2 6125   2.432   3.185  14.574  0.3071 -0.0960 -0.0351
  407MPD2     C 6126   0.476   4.594   9.122 -0.1777 -0.5054  0.4780
  407MPD2    C1 6127   0.546   4.510   9.197 -0.1712  0.2046 -0.3996
  407MPD2    C2 6128   0.516   4.494   9.333 -0.0093 -0.0837 -0.6040
  407MPD2    C3 6129   0.401   4.547   9.393  0.8004  0.8146  0.3744
  407MPD2    C4 6130   0.324   4.624   9.312 -0.2641  0.3635  0.5894
  407MPD2    C5 6131   0.363   4.648   9.185  0.0225 -0.8289  1.0232
  407MPD2     H 6132   0.572   4.416   9.384  2.0685  0.7028 -1.6987
  407MPD2    H1 6133   0.229   4.657   9.351  0.1680  2.1417  0.1393
  407MPD2    H2 6134   0.499   4.624   9.020  0.1270  1.6714  1.1780
  407MPD2    H3 6135   0.294   4.712   9.130  0.4319 -0.8380  0.5036
  407MPD2     N 6136   0.350   4.525   9.526 -0.0220  0.7124  0.3199
  407MPD2    H5 6137   0.263   4.573   9.545 -0.1706  0.4036  0.4270
  407MPD2    N1 6138   0.660   4.443   9.155 -0.7884  0.2774 -0.6693
  407MPD2    H7 6139   0.712   4.385   9.220  1.0100  2.9226  0.2306
  408TMC3    C1 6140   0.841   4.392   9.006 -0.5803  0.1920 -0.2665
  408TMC3    C2 6141   0.878   4.355   8.878  0.1332 -0.4707 -0.3483
  408TMC3    C3 6142   1.003   4.310   8.866 -0.0362  0.9044  0.2091
  408TMC3    C4 6143   0.922   4.386   9.116 -0.4400  0.3644  0.7375
  408TMC3    C5 6144   1.049   4.330   9.099  0.1617 -0.2867 -0.4031
  408TMC3    C6 6145   1.075   4.283   8.974  0.7448  0.3185 -0.0232
  408TMC3     C 6146   0.707   4.445   9.022  0.2094  0.0152 -0.5372
  408TMC3     O 6147   0.659   4.491   8.924  0.7174  0.9050 -0.2156
  408TMC3     H 6148   0.823   4.387   8.791 -0.5926 -2.4901 -0.6445
  408TMC3    H1 6149   0.915   4.460   9.195  1.6221  1.4522 -0.0842
  408TMC3    H2 6150   1.175   4.251   8.949  0.1368 -1.2641 -0.4688
  408TMC3    C7 6151   1.166   4.391   9.162  0.3003 -0.4376  0.1469
  408TMC3    C8 6152   1.070   4.384   8.762 -0.4523 -0.5770  0.2294
  408TMC3    O1 6153   1.273   4.393   9.094  0.6528  0.0303 -0.1497
  408TMC3    O2 6154   1.033   4.373   8.648  0.1971  0.1345 -0.0567
  409MPD2     C 6155   0.003   0.000  16.566 -0.6142  0.2753 -0.6082
  409MPD2    C1 6156   0.109   0.011  16.655  1.0090 -0.2373  0.0412
  409MPD2    C2 6157   0.187   0.130  16.659  0.0252 -0.4352  0.4060
  409MPD2    C3 6158   0.158   0.236  16.580  0.3133 -0.9924  0.9963
  409MPD2    C4 6159   0.061   0.215  16.484  0.3360 -0.2749 -0.6702
  409MPD2    C5 6160   4.719   0.102  16.479  0.1437 -0.3515 -0.1945
  409MPD2     H 6161   0.262   0.139  16.737  0.2275 -1.6434  0.3414
  409MPD2    H1 6162   0.041   0.295  16.414 -0.3812 -0.6571 -0.8943
  409MPD2    H2 6163   4.661   4.664  16.585 -1.7901  0.9129 -3.0860
  409MPD2    H3 6164   4.639   0.092  16.407 -0.0592 -0.6270  0.0701
  409MPD2     N 6165   0.228   0.361  16.596 -0.0594 -0.4681  0.3276
  409MPD2    H5 6166   0.205   0.434  16.529 -0.1968 -1.1570 -0.3747
  409MPD2    N1 6167   0.141   4.654  16.753  0.2207  0.8570  0.2132
  409MPD2    H7 6168   0.218   4.686  16.811  0.0532 -1.2364  1.5972
  410TMC3    C1 6169   0.393   0.510  16.678  0.1106  0.2468 -0.4524
  410TMC3    C2 6170   0.460   0.566  16.781  0.3377  0.6395 -0.1442
  410TMC3    C3 6171   0.526   0.679  16.748 -0.5837  0.2817 -0.4990
  410TMC3    C4 6172   0.400   0.557  16.554 -0.0996  0.4133  0.8058
  410TMC3    C5 6173   0.449   0.685  16.531 -0.3425  0.3907  0.8125
  410TMC3    C6 6174   0.524   0.744  16.629 -0.3300  0.0769  0.1727
  410TMC3     C 6175   0.310   0.396  16.705 -0.3611  0.4276 -0.1263
  410TMC3     O 6176   0.318   0.341  16.811 -0.4296  0.4256 -0.5469
  410TMC3     H 6177   0.461   0.523  16.881 -0.5195 -0.1444 -0.4787
  410TMC3    H1 6178   0.364   0.503  16.466  1.5928  0.1168  0.2961
  410TMC3    H2 6179   0.584   0.831  16.606  1.1248 -0.8046  0.6521
  410TMC3    C7 6180   0.470   0.722  16.394 -0.1816  0.3537  0.0479
  410TMC3    C8 6181   0.631   0.716  16.839  0.6278 -0.3701  0.2539
  410TMC3    O1 6182   0.476   0.628  16.312  0.4389  0.3690 -0.3956
  410TMC3    O2 6183   0.678   0.831  16.819 -0.1730  0.1876  0.3505
  411MPD2     C 6184   0.154   0.904  13.627 -0.0231  0.4638 -0.0469
  411MPD2    C1 6185   0.116   0.936  13.757  0.2987  0.4201 -0.1396
  411MPD2    C2 6186   0.053   0.836  13.837 -0.4266  0.0745  0.2874
  411MPD2    C3 6187   0.032   0.712  13.788  0.5926  0.2711  0.4750
  411MPD2    C4 6188   0.073   0.685  13.661 -0.2483 -0.2568 -0.3435
  411MPD2    C5 6189   0.123   0.780  13.581 -0.2198  0.4296  0.9441
  411MPD2     H 6190   0.014   0.870  13.932  1.6189  2.5449  0.2379
  411MPD2    H1 6191   0.048   0.589  13.619  1.3961 -0.6406 -0.4308
  411MPD2    H2 6192   0.210   0.974  13.567  0.7250  0.0618  0.1811
  411MPD2    H3 6193   0.163   0.755  13.483  0.6940 -1.2260  1.7386
  411MPD2     N 6194   4.716   0.610  13.857  0.0322 -0.3736 -0.2813
  411MPD2    H5 6195   4.694   0.522  13.811  0.8750 -3.7036  5.6884
  411MPD2    N1 6196   0.159   1.052  13.817  0.1190 -0.3810 -0.0269
  411MPD2    H7 6197   0.192   1.123  13.752 -1.1235  0.5858  0.4057
  412TMC3    C1 6198   4.605   0.494  14.033  0.2945  0.1919  0.7361
  412TMC3    C2 6199   4.589   0.489  14.170 -0.1276  0.0936  0.3309
  412TMC3    C3 6200   4.506   0.387  14.227 -0.1100  0.6786  0.1601
  412TMC3    C4 6201   4.548   0.408  13.946 -0.0871  0.0063 -0.1560
  412TMC3    C5 6202   4.455   0.324  14.002 -0.3592  0.2879  0.5748
  412TMC3    C6 6203   4.436   0.310  14.136 -0.4023 -0.2522  0.3182
  412TMC3     C 6204   4.673   0.614  13.988  0.3701 -0.5821 -1.1367
  412TMC3     O 6205   4.703   0.694  14.077 -0.0536 -0.0225 -0.1529
  412TMC3     H 6206   4.615   0.575  14.230  0.9942  1.4721 -2.1206
  412TMC3    H1 6207   4.535   0.441  13.844 -0.0100  1.0914  0.1920
  412TMC3    H2 6208   4.376   0.230  14.175 -0.8078  0.5117  1.2581
  412TMC3    C7 6209   4.326   0.343  13.944 -0.4770 -0.2741 -0.0306
  412TMC3    C8 6210   4.420   0.441  14.328  0.5212 -0.5955 -0.3343
  412TMC3    O1 6211   4.237   0.339  14.027 -0.3140  0.4909  0.2533
  412TMC3    O2 6212   4.298   0.419  14.325 -0.2490 -0.0117  0.1466
  413MPD2     C 6213   1.534   3.658  15.807 -1.1873  0.7786  0.0110
  413MPD2    C1 6214   1.538   3.643  15.666  0.7370  0.6424 -0.3830
  413MPD2    C2 6215   1.655   3.617  15.603  0.5101  0.1112  0.1220
  413MPD2    C3 6216   1.771   3.613  15.674 -0.4195  0.6807  0.6785
  413MPD2    C4 6217   1.769   3.648  15.803 -0.0402  0.1685 -0.4997
  413MPD2    C5 6218   1.650   3.666  15.868 -0.8136  0.2898  0.3346
  413MPD2     H 6219   1.659   3.600  15.496  1.1778 -0.1464  0.1924
  413MPD2    H1 6220   1.863   3.657  15.855  1.6769 -0.3586 -3.4893
  413MPD2    H2 6221   1.443   3.669  15.865 -1.3548  0.3099 -0.1701
  413MPD2    H3 6222   1.653   3.684  15.975  1.4132 -1.0639  0.5057
  413MPD2     N 6223   1.894   3.582  15.599 -0.1299  0.1032  0.7229
  413MPD2    H5 6224   1.880   3.552  15.503 -1.7133  0.4908  0.8250
  413MPD2    N1 6225   1.405   3.642  15.611  0.1405  0.1134  0.7141
  413MPD2    H7 6226   1.324   3.668  15.667  0.3436 -3.0597  2.4764
  414TMC3    C1 6227   2.099   3.497  15.562  0.0081 -0.3162  0.4002
  414TMC3    C2 6228   2.198   3.422  15.606  0.0738  0.4118 -0.6667
  414TMC3    C3 6229   2.266   3.345  15.515 -0.1130  1.0197 -0.0268
  414TMC3    C4 6230   2.068   3.506  15.432 -0.0537  0.8089 -0.0459
  414TMC3    C5 6231   2.139   3.431  15.344 -0.3057  0.3441  0.1137
  414TMC3    C6 6232   2.246   3.352  15.385  0.0946 -0.4535 -0.0993
  414TMC3     C 6233   2.016   3.562  15.656 -1.3574 -0.4771  0.2320
  414TMC3     O 6234   2.051   3.579  15.771  0.0329  0.1398 -0.3337
  414TMC3     H 6235   2.230   3.440  15.708  1.9207  0.5103 -1.2629
  414TMC3    H1 6236   2.009   3.590  15.396 -2.4786 -0.7172  0.3295
  414TMC3    H2 6237   2.288   3.275  15.321 -0.9999  0.1934 -1.5683
  414TMC3    C7 6238   2.155   3.486  15.209  0.0958 -0.5693 -0.0692
  414TMC3    C8 6239   2.388   3.276  15.564 -1.0124  0.3451  0.7371
  414TMC3    O1 6240   2.268   3.473  15.167 -0.2349 -0.3721  0.4592
  414TMC3    O2 6241   2.471   3.245  15.477 -0.1452  0.4495 -0.0825
  415TMC3    C1 6242   2.400   2.613   9.484 -0.4066 -0.4599 -0.3185
  415TMC3    C2 6243   2.505   2.657   9.414 -0.1160 -0.2504 -1.2027
  415TMC3    C3 6244   2.490   2.659   9.279  0.0226 -0.1199 -0.1443
  415TMC3    C4 6245   2.297   2.546   9.426  0.7610 -0.2728 -0.0780
  415TMC3    C5 6246   2.287   2.551   9.289  0.4310  0.1532  0.1612
  415TMC3    C6 6247   2.383   2.607   9.210  0.8601 -0.5416 -0.4076
  415TMC3     C 6248   2.388   2.641   9.625 -0.3394  1.0808  0.1782
  415TMC3     O 6249   2.288   2.589   9.679  0.1088 -0.0676  0.2860
  415TMC3     H 6250   2.590   2.707   9.459 -1.0895  0.4311 -0.1320
  415TMC3    H1 6251   2.215   2.510   9.486  0.2119 -0.3709 -0.8786
  415TMC3    H2 6252   2.382   2.602   9.102  2.6917  0.1772 -0.4612
  415TMC3    C7 6253   2.182   2.484   9.219 -0.1561 -1.0876  1.2694
  415TMC3    C8 6254   2.605   2.691   9.200  0.6439 -0.5404  0.2964
  415TMC3    O1 6255   2.164   2.510   9.102 -0.1893  0.1319 -0.0833
  415TMC3    O2 6256   2.600   2.648   9.082  0.1490 -0.5756 -0.4631
  416MPD2     C 6257   4.219   0.927  11.345 -0.1386 -0.4576  0.6674
  416MPD2    C1 6258   4.085   0.895  11.342  0.1925  0.1616  0.1121
  416MPD2    C2 6259   4.038   0.801  11.254  0.0515 -0.2638  0.4441
  416MPD2    C3 6260   4.123   0.755  11.154  0.4618  0.0320 -0.0894
  416MPD2    C4 6261   4.259   0.784  11.156  1.2047 -0.8962 -0.0759
  416MPD2    C5 6262   4.301   0.870  11.251 -0.1944  0.2296 -0.2907
  416MPD2     H 6263   3.932   0.776  11.246  0.3823 -0.9587 -1.7580
  416MPD2    H1 6264   4.338   0.743  11.093  2.2327 -0.0082  0.6339
  416MPD2    H2 6265   4.265   0.989  11.421 -0.1378 -1.2371  1.2995
  416MPD2    H3 6266   4.401   0.911  11.253  0.5285 -1.4675 -1.6727
  416MPD2     N 6267   4.076   0.659  11.057  0.2003 -0.2380 -0.1512
  416MPD2    H5 6268   3.984   0.618  11.066  0.5120 -1.0683 -0.7927
  416MPD2    N1 6269   4.005   0.966  11.435  0.4164 -0.0279  0.0179
  416MPD2    H7 6270   4.048   1.039  11.490 -0.4637 -1.9948  3.3405
  417TMC3    C1 6271   3.818   1.036  11.549 -0.2809 -0.2481 -0.6992
  417TMC3    C2 6272   3.888   1.047  11.667  0.1125  0.3319  1.1112
  417TMC3    C3 6273   3.818   1.083  11.777 -0.5086 -0.3540 -0.4486
  417TMC3    C4 6274   3.685   1.065  11.546 -0.6185 -0.7371 -0.1703
  417TMC3    C5 6275   3.627   1.109  11.662 -0.0702  0.4397 -0.8413
  417TMC3    C6 6276   3.692   1.126  11.775 -0.0945 -0.3271  0.4541
  417TMC3     C 6277   3.869   0.962  11.438 -0.0675 -0.4903 -0.0022
  417TMC3     O 6278   3.789   0.920  11.353 -0.6896 -0.3923  0.3779
  417TMC3     H 6279   3.993   1.024  11.677  1.0217  2.5418 -2.8098
  417TMC3    H1 6280   3.628   1.043  11.457  2.6633 -0.5960 -2.3043
  417TMC3    H2 6281   3.650   1.184  11.856  0.8683 -0.7963  1.2831
  417TMC3    C7 6282   3.491   1.141  11.663 -0.6751  0.6671  0.6342
  417TMC3    C8 6283   3.881   1.094  11.912 -0.0739  0.0849 -0.1909
  417TMC3    O1 6284   3.428   1.119  11.765 -0.6672  1.0865  0.0182
  417TMC3    O2 6285   3.823   1.155  12.002 -0.5090  0.0640 -0.3811
  418TMC3    C1 6286   3.045   3.147   0.565  0.6711  0.2887  0.2010
  418TMC3    C2 6287   2.937   3.109   0.486 -0.7060  0.6890 -0.1879
  418TMC3    C3 6288   2.895   2.983   0.496 -0.5827 -0.1448  0.6746
  418TMC3    C4 6289   3.100   3.050   0.647  0.1492  0.0541  0.1584
  418TMC3    C5 6290   3.039   2.931   0.665  0.1115 -0.1377  0.0822
  418TMC3    C6 6291   2.934   2.887   0.589  0.0120  0.2286  0.2010
  418TMC3     C 6292   3.145   3.216   0.487 -0.5995  0.5351  0.0390
  418TMC3     O 6293   3.100   3.312   0.425  0.1052 -0.0734  0.7685
  418TMC3     H 6294   2.907   3.167   0.399  1.8004  1.2841 -0.6521
  418TMC3    H1 6295   3.179   3.084   0.714 -0.3583 -0.0576  0.8158
  418TMC3    H2 6296   2.887   2.790   0.581 -0.5818  0.3843  1.7276
  418TMC3    C7 6297   3.112   2.824   0.732 -0.2668  0.4160  0.5321
  418TMC3    C8 6298   2.820   2.943   0.379 -0.8035  0.2408 -0.3780
  418TMC3    O1 6299   3.051   2.722   0.724 -0.7864  0.3235  0.0133
  418TMC3    O2 6300   2.749   3.035   0.330 -0.1117 -0.1625  0.1698
  419MPD2     C 6301   1.483   0.674  12.079  0.0969 -0.1893  0.3268
  419MPD2    C1 6302   1.344   0.691  12.091  0.1534  0.0677 -0.1171
  419MPD2    C2 6303   1.281   0.671  12.210 -0.4210 -0.4951  0.1413
  419MPD2    C3 6304   1.356   0.614  12.319  0.0678  0.2271 -0.8718
  419MPD2    C4 6305   1.491   0.598  12.310 -0.6428  0.3452  0.2706
  419MPD2    C5 6306   1.551   0.624  12.190 -0.0450  0.5856 -0.8756
  419MPD2     H 6307   1.174   0.693  12.208  0.1617  2.3646  0.4205
  419MPD2    H1 6308   1.553   0.555  12.388 -0.1190 -0.2045 -0.4546
  419MPD2    H2 6309   1.541   0.693  11.989  1.4160  2.5016  1.7414
  419MPD2    H3 6310   1.658   0.605  12.186 -0.3135 -1.4519  1.7572
  419MPD2     N 6311   1.284   0.574  12.434  0.2775 -0.7324  0.1519
  419MPD2    H5 6312   1.185   0.598  12.436  1.0150  2.4231 -1.2719
  419MPD2    N1 6313   1.259   0.734  11.985 -0.3131 -0.3312 -0.9775
  419MPD2    H7 6314   1.166   0.766  12.011 -0.4117 -1.5313  0.1670
  420TMC3    C1 6315   1.242   0.507  12.659 -0.1809 -0.6484 -0.2721
  420TMC3    C2 6316   1.108   0.490  12.638 -0.3500 -0.2589  0.1044
  420TMC3    C3 6317   1.024   0.463  12.745 -0.7241  0.1738  0.2166
  420TMC3    C4 6318   1.288   0.503  12.783 -0.2092 -0.0869  0.2316
  420TMC3    C5 6319   1.203   0.470  12.887  0.4513 -0.2274  0.0375
  420TMC3    C6 6320   1.074   0.452  12.870 -0.1374  0.5529 -0.4697
  420TMC3     C 6321   1.335   0.522  12.549  0.1027  0.5798  0.0528
  420TMC3     O 6322   1.449   0.496  12.579 -0.0911  0.3566 -0.5207
  420TMC3     H 6323   1.069   0.485  12.537  0.6502  0.0592 -0.2924
  420TMC3    H1 6324   1.394   0.518  12.799 -0.4765  2.5690 -0.3676
  420TMC3    H2 6325   1.003   0.451  12.952 -0.6627 -0.0718 -0.9312
  420TMC3    C7 6326   1.251   0.488  13.022 -0.1785 -0.0006 -0.1300
  420TMC3    C8 6327   0.884   0.466  12.719  0.6992 -0.5210  0.0474
  420TMC3    O1 6328   1.182   0.464  13.117  0.7622  0.0103 -0.3559
  420TMC3    O2 6329   0.848   0.517  12.614  0.3205  0.5241  0.0639
  421TMC3    C1 6330   3.006   1.914  13.450 -0.7156  0.4966  0.3962
  421TMC3    C2 6331   2.975   2.048  13.435 -0.3456 -0.3224  0.3736
  421TMC3    C3 6332   3.037   2.138  13.517 -0.3175 -0.1268  0.1421
  421TMC3    C4 6333   3.106   1.870  13.533 -0.5093  0.2000 -0.1126
  421TMC3    C5 6334   3.174   1.967  13.603  0.0964  0.0659  0.4711
  421TMC3    C6 6335   3.136   2.095  13.603 -0.3756  0.0094  0.2297
  421TMC3     C 6336   2.975   1.830  13.336  0.1322 -0.3664 -0.4640
  421TMC3     O 6337   3.044   1.728  13.318 -0.4342  0.1252 -0.0398
  421TMC3     H 6338   2.909   2.078  13.355  0.6316  0.4768 -0.1245
  421TMC3    H1 6339   3.144   1.769  13.525  0.5943  0.6798 -0.8671
  421TMC3    H2 6340   3.180   2.171  13.666  1.2500 -0.8616  0.1541
  421TMC3    C7 6341   3.294   1.933  13.681  0.5683  0.0260  0.4748
  421TMC3    C8 6342   2.971   2.263  13.540  0.1023  0.0292 -0.3536
  421TMC3    O1 6343   3.378   2.025  13.694  0.5673 -0.4100  0.2535
  421TMC3    O2 6344   3.041   2.331  13.608 -0.1827 -0.6023  0.2815
  422TMC3    C1 6345   0.344   4.003  12.584 -0.4078 -0.6454  0.0435
  422TMC3    C2 6346   0.387   4.093  12.677  0.0002 -0.6091 -0.3877
  422TMC3    C3 6347   0.318   4.208  12.692  0.4422  0.1765 -0.6915
  422TMC3    C4 6348   0.223   4.015  12.522  0.0071 -0.5931  0.0616
  422TMC3    C5 6349   0.159   4.138  12.544  1.0559  0.2387  0.1992
  422TMC3    C6 6350   0.202   4.239  12.622  0.6026  0.5267  0.0520
  422TMC3     C 6351   0.442   3.907  12.538 -0.0531  0.2620  0.8301
  422TMC3     O 6352   0.420   3.871  12.422 -0.3332  0.0412 -0.4068
  422TMC3     H 6353   0.469   4.065  12.742  1.1359  3.2865 -0.1111
  422TMC3    H1 6354   0.204   3.937  12.448  0.4791 -0.5908 -0.0588
  422TMC3    H2 6355   0.134   4.322  12.638 -0.4268 -0.3786  0.4166
  422TMC3    C7 6356   0.020   4.146  12.495  0.4552 -0.4929 -0.6634
  422TMC3    C8 6357   0.361   4.303  12.792  0.0307  0.9701  0.0152
  422TMC3    O1 6358   4.713   4.259  12.468 -0.3621  0.5459 -0.6019
  422TMC3    O2 6359   0.445   4.267  12.874  0.1265  0.5245  0.0639
  423MPD2     C 6360   1.946   3.851   0.533  0.8311 -0.0041 -0.1992
  423MPD2    C1 6361   2.020   3.920   0.439  0.0869  0.1704  0.6271
  423MPD2    C2 6362   2.025   3.882   0.312  0.1190  0.8620  0.4569
  423MPD2    C3 6363   1.940   3.783   0.265 -0.0133  0.0040  0.3810
  423MPD2    C4 6364   1.862   3.708   0.356 -0.5682 -0.7991 -0.2029
  423MPD2    C5 6365   1.874   3.745   0.491  0.1100 -0.3153  0.2299
  423MPD2     H 6366   2.088   3.931   0.238  1.4051 -0.6914  0.5082
  423MPD2    H1 6367   1.795   3.631   0.318 -0.5833 -1.3476  0.9598
  423MPD2    H2 6368   1.940   3.878   0.637  1.1347 -1.3664  0.1731
  423MPD2    H3 6369   1.822   3.680   0.560 -1.2020  0.4813 -0.0084
  423MPD2     N 6370   1.911   3.764   0.124 -0.3407 -0.1338  0.2445
  423MPD2    H5 6371   1.844   3.691   0.102  0.0581 -0.3095 -0.3778
  423MPD2    N1 6372   2.091   4.042   0.468  0.2012  0.0723  0.3485
  423MPD2    H7 6373   2.156   4.075   0.398 -0.1872 -0.7775 -0.4258
  424TMC3    C1 6374   2.189   4.203   0.606 -0.4409 -0.5452 -0.3840
  424TMC3    C2 6375   2.313   4.145   0.621  0.1329 -0.4194  0.1511
  424TMC3    C3 6376   2.399   4.207   0.710  0.1383 -0.8020  0.3189
  424TMC3    C4 6377   2.144   4.305   0.675 -1.4834  0.0152 -0.2814
  424TMC3    C5 6378   2.236   4.367   0.759 -0.2136  0.7052  0.1524
  424TMC3    C6 6379   2.361   4.313   0.786  0.1920 -0.0975  0.0021
  424TMC3     C 6380   2.081   4.111   0.585  0.0762  0.1370  0.3665
  424TMC3     O 6381   1.999   4.117   0.671 -0.1980 -0.2556 -0.7103
  424TMC3     H 6382   2.345   4.060   0.562 -1.7099 -0.4096 -0.8808
  424TMC3    H1 6383   2.051   4.345   0.635 -1.9549 -0.0009  0.7836
  424TMC3    H2 6384   2.423   4.352   0.866  0.2922 -0.6411  0.1899
  424TMC3    C7 6385   2.188   4.480   0.837 -0.2934 -0.2560  0.2403
  424TMC3    C8 6386   2.525   4.138   0.726  0.2610  0.2059  0.6415
  424TMC3    O1 6387   2.263   4.572   0.865  0.2387 -0.1079 -0.0236
  424TMC3    O2 6388   2.547   4.036   0.662 -0.2944 -0.3464  0.4794
  425MPD2     C 6389   0.813   3.493  16.956  0.3496 -0.3193 -0.3469
  425MPD2    C1 6390   0.727   3.389  16.975  1.0722 -0.0774 -0.0093
  425MPD2    C2 6391   0.611   3.417  17.051 -0.0112  0.3437  0.2912
  425MPD2    C3 6392   0.582   3.547  17.096  0.5561  0.0246  0.1037
  425MPD2    C4 6393   0.669   3.651  17.065 -0.3955  0.0644  0.0774
  425MPD2    C5 6394   0.782   3.618  16.999  0.7141 -0.2836 -0.5950
  425MPD2     H 6395   0.534   3.344  17.072  2.4776 -1.8915  1.5934
  425MPD2    H1 6396   0.649   3.754  17.092  0.1760  0.3049 -0.4143
  425MPD2    H2 6397   0.910   3.483  16.909  0.9746  0.2470  0.8324
  425MPD2    H3 6398   0.865   3.685  16.981  1.0028 -0.0092  1.7367
  425MPD2     N 6399   0.463   3.562  17.166 -0.6991  0.1717 -0.4237
  425MPD2    H5 6400   0.416   3.475  17.187 -1.0953  0.4078 -0.3413
  425MPD2    N1 6401   0.762   3.258  16.953 -0.3859 -0.3287 -0.0596
  425MPD2    H7 6402   0.845   3.238  16.899 -0.4069 -0.5179 -0.0196
  426TMC3    C1 6403   0.778   3.027  16.985  0.0428 -0.0268 -0.8337
  426TMC3    C2 6404   0.854   3.024  16.872 -0.5475 -0.3506 -0.5382
  426TMC3    C3 6405   0.926   2.909  16.856 -1.0237  0.0115 -0.1667
  426TMC3    C4 6406   0.784   2.940  17.094  0.0261  0.6366  0.1290
  426TMC3    C5 6407   0.874   2.833  17.076  0.3689 -0.5362  0.1497
  426TMC3    C6 6408   0.933   2.817  16.955  0.4154  0.3132  0.1515
  426TMC3     C 6409   0.707   3.150  17.021 -0.6244 -0.7855 -0.4729
  426TMC3     O 6410   0.641   3.142  17.125 -0.1589 -0.1966 -0.0952
  426TMC3     H 6411   0.856   3.096  16.791  1.4278 -1.4565 -1.4809
  426TMC3    H1 6412   0.730   2.959  17.186  2.1558  3.2759  0.8472
  426TMC3    H2 6413   1.007   2.739  16.942  0.0199 -0.2327  1.2146
  426TMC3    C7 6414   0.897   2.736  17.183 -0.4249  0.1715 -0.6119
  426TMC3    C8 6415   1.008   2.883  16.745  0.2729 -1.1610 -0.3445
  426TMC3    O1 6416   0.962   2.634  17.157 -0.4140 -0.1098 -0.1455
  426TMC3    O2 6417   1.055   2.772  16.723  0.1048 -0.0031  0.5712
  427MPD2     C 6418   3.973   1.244  14.969 -0.0190 -0.4357  0.0613
  427MPD2    C1 6419   3.892   1.131  14.948 -0.8057  0.6462 -0.1030
  427MPD2    C2 6420   3.753   1.152  14.968 -0.2662 -0.1711  0.4501
  427MPD2    C3 6421   3.704   1.279  15.000 -0.3762  0.1721  0.1021
  427MPD2    C4 6422   3.787   1.390  15.013  0.6204 -0.1871 -0.5466
  427MPD2    C5 6423   3.920   1.373  14.998  0.2092 -0.4953 -0.4218
  427MPD2     H 6424   3.681   1.073  14.947 -0.0496  0.0355 -1.0418
  427MPD2    H1 6425   3.744   1.488  15.034 -0.4814 -0.6270 -0.7574
  427MPD2    H2 6426   4.081   1.235  14.967  0.0085 -0.2924  1.1040
  427MPD2    H3 6427   3.987   1.455  15.022 -1.1262  0.3917  0.2566
  427MPD2     N 6428   3.564   1.304  15.014  0.0862 -0.7759  0.5113
  427MPD2    H5 6429   3.532   1.399  15.034 -1.7365 -0.4967 -3.8023
  427MPD2    N1 6430   3.949   1.012  14.921 -0.1325 -0.1158  0.2938
  427MPD2    H7 6431   4.050   1.019  14.909 -0.1913 -0.3016 -0.3312
  428TMC3    C1 6432   3.977   0.775  14.881  0.1283  0.9744 -0.4276
  428TMC3    C2 6433   3.928   0.705  14.774 -0.2757  0.9183  0.6547
  428TMC3    C3 6434   4.018   0.609  14.721 -0.2330  0.3729 -0.0290
  428TMC3    C4 6435   4.100   0.766  14.933  0.3492  0.0270 -0.3688
  428TMC3    C5 6436   4.183   0.669  14.884 -0.2461  0.2774  0.0390
  428TMC3    C6 6437   4.140   0.597  14.772  0.3970  0.0399  0.2632
  428TMC3     C 6438   3.887   0.889  14.916 -0.5862 -0.3694 -0.1779
  428TMC3     O 6439   3.770   0.860  14.911 -0.5035 -0.0230  0.0919
  428TMC3     H 6440   3.837   0.730  14.720 -0.6284 -0.3550  0.6722
  428TMC3    H1 6441   4.123   0.842  15.007  0.8145  0.7393 -1.2295
  428TMC3    H2 6442   4.203   0.528  14.717 -0.3817  0.6507 -1.4202
  428TMC3    C7 6443   4.323   0.705  14.895  0.1481  0.2601  0.2065
  428TMC3    C8 6444   3.968   0.510  14.634 -0.2144  0.7783 -0.3449
  428TMC3    O1 6445   4.345   0.816  14.943  0.2275 -0.1215  0.3820
  428TMC3    O2 6446   4.044   0.438  14.564  0.4193 -0.0051 -0.3653
  429MPD2     C 6447   0.392   0.846  17.207 -0.3599  0.4796  0.3977
  429MPD2    C1 6448   0.498   0.857  17.294 -0.7937  0.6692 -0.0642
  429MPD2    C2 6449   0.574   0.976  17.286  0.2919  0.1516  0.1927
  429MPD2    C3 6450   0.534   1.079  17.203  0.0921 -1.1170 -0.3331
  429MPD2    C4 6451   0.416   1.066  17.133 -0.1314 -0.1976  0.4171
  429MPD2    C5 6452   0.356   0.951  17.129  0.7516  0.2026 -0.2244
  429MPD2     H 6453   0.669   0.973  17.338  0.5424 -0.7075 -0.2975
  429MPD2    H1 6454   0.374   1.142  17.067 -1.8639 -0.2021  1.5049
  429MPD2    H2 6455   0.327   0.760  17.205 -0.8742  0.9165 -2.4304
  429MPD2    H3 6456   0.270   0.945  17.063  1.7768 -0.5930 -1.4979
  429MPD2     N 6457   0.609   1.196  17.199  0.0260 -0.5544  0.0744
  429MPD2    H5 6458   0.703   1.195  17.238 -0.2431  0.2623  0.7545
  429MPD2    N1 6459   0.543   0.753  17.378  0.4726 -0.0455 -0.4371
  429MPD2    H7 6460   0.631   0.767  17.427 -0.5006  2.0473  0.7277
  430TMC3    C1 6461   0.690   1.398  17.121 -0.0876  0.1595 -0.0276
  430TMC3    C2 6462   0.650   1.514  17.056 -0.1383  0.0522 -0.4095
  430TMC3    C3 6463   0.743   1.564  16.961 -0.1729  0.2954 -0.3028
  430TMC3    C4 6464   0.805   1.333  17.088  0.2276 -0.3314  0.7464
  430TMC3    C5 6465   0.890   1.385  16.998 -0.1810 -0.3412 -0.0765
  430TMC3    C6 6466   0.860   1.498  16.935  0.3843 -0.3692  0.4045
  430TMC3     C 6467   0.573   1.318  17.145 -0.7025  0.3725 -0.0524
  430TMC3     O 6468   0.465   1.363  17.118 -0.3297  0.3653 -0.6070
  430TMC3     H 6469   0.562   1.572  17.080  0.0826  0.0776  0.3290
  430TMC3    H1 6470   0.824   1.230  17.115 -2.4150 -1.4886 -1.8211
  430TMC3    H2 6471   0.927   1.533  16.857 -0.7532  1.5288  0.2965
  430TMC3    C7 6472   0.924   1.279  16.903  0.1611 -0.7801  0.8327
  430TMC3    C8 6473   0.694   1.633  16.844 -0.2008 -0.6597 -0.4772
  430TMC3    O1 6474   0.957   1.176  16.955  0.2189 -0.2929  0.2932
  430TMC3    O2 6475   0.744   1.592  16.741 -0.2730  0.4610 -0.7608
  431MPD2     C 6476   0.995   1.023  12.267  0.8623 -0.0868  0.9236
  431MPD2    C1 6477   1.075   1.061  12.162 -0.3597 -0.3830  0.7024
  431MPD2    C2 6478   1.016   1.068  12.034 -0.3159 -0.3206 -0.3691
  431MPD2    C3 6479   0.887   1.021  12.003 -0.3445  0.2734  0.5958
  431MPD2    C4 6480   0.807   0.992  12.112  0.3633 -0.5444 -0.1992
  431MPD2    C5 6481   0.857   0.991  12.239  0.3975 -0.3808  0.5684
  431MPD2     H 6482   1.086   1.105  11.960 -1.0923  1.6105 -0.1325
  431MPD2    H1 6483   0.704   0.966  12.093  0.0877 -0.3769  1.0467
  431MPD2    H2 6484   1.033   1.023  12.368 -1.3380  1.0280  1.7541
  431MPD2    H3 6485   0.802   0.954  12.325 -0.2250 -0.8590 -0.0300
  431MPD2     N 6486   0.838   1.002  11.873  0.0485 -0.5706  0.2095
  431MPD2    H5 6487   0.739   0.981  11.862 -0.0131 -0.7330  1.0556
  431MPD2    N1 6488   1.215   1.084  12.169  0.1096  0.0629  0.3647
  431MPD2    H7 6489   1.266   1.112  12.086 -1.3962  0.2756 -0.4910
  432TMC3    C1 6490   1.043   0.973  11.730  0.9312 -0.2620  0.3752
  432TMC3    C2 6491   1.085   0.986  11.600 -0.6446 -0.5314 -0.7408
  432TMC3    C3 6492   1.191   0.908  11.553 -0.2118 -0.2036 -0.1130
  432TMC3    C4 6493   1.097   0.879  11.812  0.0946  0.3224  0.0369
  432TMC3    C5 6494   1.196   0.801  11.762 -0.0118 -0.3398  0.0102
  432TMC3    C6 6495   1.246   0.806  11.628  0.0706  0.0746 -0.1141
  432TMC3     C 6496   0.902   1.007  11.750 -0.1477 -0.1971 -0.3286
  432TMC3     O 6497   0.841   1.000  11.647 -0.3500 -0.0193 -0.2294
  432TMC3     H 6498   1.044   1.065  11.538 -2.1331  0.5905  1.6729
  432TMC3    H1 6499   1.061   0.859  11.912 -0.0266 -0.8845 -0.2417
  432TMC3    H2 6500   1.323   0.740  11.591  1.6300  1.0297  1.4473
  432TMC3    C7 6501   1.297   0.752  11.853  0.3662 -0.3471 -0.1463
  432TMC3    C8 6502   1.261   0.945  11.433  0.1359 -0.4998  0.5730
  432TMC3    O1 6503   1.391   0.699  11.801  0.8689 -0.3530  0.3962
  432TMC3    O2 6504   1.203   1.008  11.343 -0.2061  0.6384  0.1761
  433MPD2     C 6505   4.661   4.595  10.706 -0.9179  0.7418 -0.4636
  433MPD2    C1 6506   4.724   4.488  10.763 -0.0354  1.0305 -0.1068
  433MPD2    C2 6507   0.032   4.504  10.892  0.0210 -1.1222 -0.9455
  433MPD2    C3 6508   0.020   4.623  10.962 -0.4841  0.4279  0.6439
  433MPD2    C4 6509   4.674   4.722  10.910 -0.7549 -0.2419  0.2382
  433MPD2    C5 6510   4.625   4.703  10.786  0.4301  0.2281  0.1161
  433MPD2     H 6511   0.088   4.426  10.943  0.2446  0.4256  1.1786
  433MPD2    H1 6512   4.642   0.068  10.972 -3.1665 -0.0468 -1.2424
  433MPD2    H2 6513   4.616   4.595  10.608 -0.8042  1.1783 -0.5137
  433MPD2    H3 6514   4.563   0.042  10.741  0.7564  0.7770  0.5837
  433MPD2     N 6515   0.074   4.644  11.088  0.3160 -0.2077  0.2092
  433MPD2    H5 6516   0.039   4.722  11.143 -1.6222  0.3092 -1.7989
  433MPD2    N1 6517   0.009   4.372  10.682  0.4633 -0.0356 -0.4250
  433MPD2    H7 6518   4.733   4.380  10.582  1.1268  1.7630 -0.3729
  434TMC3    C1 6519   0.074   4.144  10.650  0.0780 -0.4679 -0.2405
  434TMC3    C2 6520   0.133   4.046  10.721  0.0172 -0.5198  0.5508
  434TMC3    C3 6521   0.241   3.987  10.666 -0.4468  0.2070 -0.6018
  434TMC3    C4 6522   0.105   4.169  10.519 -0.0029 -0.1840 -0.5217
  434TMC3    C5 6523   0.205   4.093  10.461 -0.0204  0.2010  1.3466
  434TMC3    C6 6524   0.279   4.010  10.541  0.4822 -0.4367  0.6324
  434TMC3     C 6525   0.030   4.253  10.740 -0.0500 -0.3705 -0.4675
  434TMC3     O 6526   0.028   4.221  10.859  0.1871  0.3897 -0.1992
  434TMC3     H 6527   0.109   4.017  10.823  0.8228 -0.4295  0.7668
  434TMC3    H1 6528   0.034   4.224  10.458 -0.0510 -0.7005 -0.9319
  434TMC3    H2 6529   0.366   3.958  10.504  0.0525 -1.1285  0.5898
  434TMC3    C7 6530   0.201   4.077  10.320 -0.7740  0.0677  0.0580
  434TMC3    C8 6531   0.328   3.909  10.754 -0.3776  0.3073  0.4455
  434TMC3    O1 6532   0.126   4.149  10.259  0.2296 -0.5875 -0.1030
  434TMC3    O2 6533   0.331   3.943  10.871  0.3037 -0.3294 -0.4880
  435MPD2     C 6534   2.693   4.455  15.466 -0.2716 -0.3541 -0.0493
  435MPD2    C1 6535   2.625   4.433  15.581  0.5333  0.0359  0.6908
  435MPD2    C2 6536   2.686   4.363  15.679 -0.0328  0.2195 -0.4318
  435MPD2    C3 6537   2.817   4.332  15.674  0.5596  0.5364 -0.8975
  435MPD2    C4 6538   2.889   4.369  15.557  0.0456  0.5749  0.1531
  435MPD2    C5 6539   2.820   4.428  15.454 -0.1105 -0.6317  0.7733
  435MPD2     H 6540   2.630   4.326  15.764  0.2022  1.0368  0.0850
  435MPD2    H1 6541   2.992   4.341  15.538 -0.4717 -1.6443  0.5212
  435MPD2    H2 6542   2.639   4.501  15.384  2.8579  0.3815 -1.7038
  435MPD2    H3 6543   2.865   4.432  15.356 -0.3020  0.7952  0.7409
  435MPD2     N 6544   2.877   4.259  15.781  0.4285 -0.4581 -0.0210
  435MPD2    H5 6545   2.816   4.253  15.862  0.1319  3.8444  0.0465
  435MPD2    N1 6546   2.489   4.468  15.601 -0.4094  0.1888 -0.1674
  435MPD2    H7 6547   2.445   4.415  15.676  0.5691 -1.6288 -0.8719
  436TMC3    C1 6548   2.124   4.681  15.710  0.1726 -0.4611 -0.2714
  436TMC3    C2 6549   2.243   4.685  15.636  0.7598 -0.2162  0.5523
  436TMC3    C3 6550   2.281   4.565  15.586 -0.4320 -0.1866 -0.6804
  436TMC3    C4 6551   2.057   4.561  15.734  0.2296 -0.0220 -0.2746
  436TMC3    C5 6552   2.109   4.443  15.682 -0.1421 -0.3320 -0.8115
  436TMC3    C6 6553   2.226   4.443  15.606  0.2762 -0.3257  0.2253
  436TMC3     C 6554   2.077   0.069  15.768 -0.5497 -0.3192 -0.9383
  436TMC3     O 6555   2.139   0.169  15.740  0.2171 -0.0791 -0.0273
  436TMC3     H 6556   2.289   0.041  15.603  1.0247 -0.3956  0.4247
  436TMC3    H1 6557   1.980   4.560  15.810  0.1096 -1.3311 -0.4182
  436TMC3    H2 6558   2.257   4.357  15.549  0.1453  0.3165 -0.8090
  436TMC3    C7 6559   2.036   4.319  15.699 -0.3864 -0.0800 -0.1540
  436TMC3    C8 6560   2.422   4.564  15.533  0.9168 -0.0539 -0.3408
  436TMC3    O1 6561   2.099   4.225  15.670  0.1839 -0.0593 -0.3396
  436TMC3    O2 6562   2.461   4.659  15.464 -0.1232 -0.3371 -0.1968
  437TMC3    C1 6563   1.509   1.638  11.398 -0.5203  0.1382  1.0133
  437TMC3    C2 6564   1.427   1.635  11.292  0.6946  0.0508 -0.0583
  437TMC3    C3 6565   1.293   1.589  11.306  0.2197 -0.2379 -0.2714
  437TMC3    C4 6566   1.459   1.609  11.520 -0.5465  0.5573 -0.6745
  437TMC3    C5 6567   1.330   1.581  11.537  0.3054  0.5318  1.0147
  437TMC3    C6 6568   1.245   1.570  11.430 -0.9017  0.3783  0.4960
  437TMC3     C 6569   1.648   1.668  11.377 -0.6315 -0.0002  0.6232
  437TMC3     O 6570   1.721   1.646  11.469  0.1921  0.4092 -0.3490
  437TMC3     H 6571   1.469   1.656  11.195 -0.7104 -2.8693 -1.3048
  437TMC3    H1 6572   1.530   1.604  11.602 -1.5958 -0.8807  0.1438
  437TMC3    H2 6573   1.142   1.537  11.445 -1.1043  1.0622  0.6368
  437TMC3    C7 6574   1.271   1.556  11.667  0.2233  0.4845 -0.1789
  437TMC3    C8 6575   1.202   1.650  11.209  0.1504 -0.0740  0.2744
  437TMC3    O1 6576   1.155   1.516  11.663  0.0786  0.0681 -0.3876
  437TMC3    O2 6577   1.257   1.736  11.137 -0.2052  0.0704  0.3196
  438MPD2     C 6578   3.106   2.537  16.663  0.8128  0.3350  0.2636
  438MPD2    C1 6579   3.217   2.497  16.737 -0.7766  0.3225 -0.8188
  438MPD2    C2 6580   3.229   2.536  16.871 -0.4496 -0.0528  0.0409
  438MPD2    C3 6581   3.128   2.618  16.929  0.2355 -0.7839  0.1408
  438MPD2    C4 6582   3.012   2.638  16.866  0.2017  0.5157  0.1698
  438MPD2    C5 6583   3.000   2.603  16.733 -0.7841  0.2522 -0.2563
  438MPD2     H 6584   3.314   2.498  16.926 -2.4791  0.0086  3.1875
  438MPD2    H1 6585   2.929   2.695  16.907  0.6910  0.5091  1.1555
  438MPD2    H2 6586   3.101   2.525  16.555 -1.2966  0.6565  0.3198
  438MPD2    H3 6587   2.903   2.611  16.685 -0.1856 -0.6762 -1.6217
  438MPD2     N 6588   3.149   2.685  17.053 -0.0760 -0.2136 -0.6502
  438MPD2    H5 6589   3.085   2.755  17.089  0.0803 -0.2176 -0.3658
  438MPD2    N1 6590   3.316   2.413  16.687  0.1008  0.1963 -0.4724
  438MPD2    H7 6591   3.384   2.371  16.749 -0.1424 -0.2725 -0.5271
  439TMC3    C1 6592   3.449   2.308  16.518 -0.2586 -0.2977 -0.5300
  439TMC3    C2 6593   3.501   2.337  16.393  0.1062  0.0649 -0.1899
  439TMC3    C3 6594   3.642   2.345  16.385 -0.5133 -0.8258 -0.2448
  439TMC3    C4 6595   3.527   2.261  16.618  0.0775 -0.4477  0.3721
  439TMC3    C5 6596   3.662   2.265  16.595  0.2205 -0.2439 -0.3007
  439TMC3    C6 6597   3.726   2.318  16.487  0.4558 -0.5144  0.0156
  439TMC3     C 6598   3.325   2.380  16.552  0.7167 -0.6576  0.8004
  439TMC3     O 6599   3.261   2.426  16.464 -0.4569  0.0389 -0.2265
  439TMC3     H 6600   3.440   2.357  16.306 -0.0842 -0.1905 -0.1147
  439TMC3    H1 6601   3.483   2.222  16.709 -1.5222  0.1891 -0.1321
  439TMC3    H2 6602   3.833   2.303  16.477  0.5005 -0.1029 -0.1169
  439TMC3    C7 6603   3.741   2.180  16.681  0.5467 -0.5251  0.2174
  439TMC3    C8 6604   3.703   2.321  16.258  0.3947 -0.3044 -0.9766
  439TMC3    O1 6605   3.854   2.226  16.697 -0.5823  0.0145 -0.6308
  439TMC3    O2 6606   3.824   2.342  16.256  0.2314 -0.1872  0.7080
  440MPD2     C 6607   2.887   3.194  14.823 -0.4202  0.3761  0.9942
  440MPD2    C1 6608   2.797   3.192  14.929 -0.2192  0.4206  0.0442
  440MPD2    C2 6609   2.818   3.115  15.041  0.2692 -0.8944  0.2209
  440MPD2    C3 6610   2.943   3.048  15.044 -0.2141 -0.1389 -0.4445
  440MPD2    C4 6611   3.023   3.040  14.933 -0.9745  0.1461 -0.0917
  440MPD2    C5 6612   2.994   3.111  14.819 -0.0404  0.0181  0.3166
  440MPD2     H 6613   2.756   3.121  15.130 -1.4853  3.1237 -1.2795
  440MPD2    H1 6614   3.111   2.979  14.918 -1.7637 -0.2447 -2.9699
  440MPD2    H2 6615   2.876   3.268  14.744  0.6975  1.4903  1.8736
  440MPD2    H3 6616   3.066   3.115  14.738  1.4716 -0.6435  1.6287
  440MPD2     N 6617   2.984   2.978  15.164  0.0209 -0.0670  0.9073
  440MPD2    H5 6618   3.071   2.926  15.154 -0.6387 -1.0209  0.0567
  440MPD2    N1 6619   2.686   3.280  14.930  0.6906 -0.7293 -0.0223
  440MPD2    H7 6620   2.609   3.267  14.995  0.6030  1.9687  0.4034
  441TMC3    C1 6621   3.010   2.943  15.395 -0.1334 -0.1256  0.4065
  441TMC3    C2 6622   3.009   3.010  15.512 -0.4502 -0.1875 -0.4220
  441TMC3    C3 6623   3.036   2.948  15.633  0.2437 -0.1054  0.4216
  441TMC3    C4 6624   3.041   2.807  15.392  0.6728  0.3373 -0.3616
  441TMC3    C5 6625   3.077   2.756  15.509 -0.4290 -0.6332  0.0894
  441TMC3    C6 6626   3.084   2.822  15.626 -0.6198 -0.2937  0.4241
  441TMC3     C 6627   2.943   3.009  15.290  0.0233  0.6595  0.5219
  441TMC3     O 6628   2.846   3.079  15.331 -0.0313  0.3419  0.7992
  441TMC3     H 6629   2.981   3.115  15.502 -0.5384 -0.3169 -1.6014
  441TMC3    H1 6630   3.022   2.747  15.304 -0.4056 -0.4470  0.4128
  441TMC3    H2 6631   3.099   2.770  15.719 -0.5455 -0.2307  0.4469
  441TMC3    C7 6632   3.063   2.617  15.525 -0.6426  0.0014 -0.7741
  441TMC3    C8 6633   2.941   2.975  15.743  0.0027 -0.5075  0.6170
  441TMC3    O1 6634   2.993   2.559  15.446  0.2234  0.0544  0.0749
  441TMC3    O2 6635   2.962   2.937  15.855 -0.0784  0.2731 -0.3368
  442MPD2     C 6636   0.791   3.076  16.421  0.0531 -0.5193  0.1908
  442MPD2    C1 6637   0.658   3.024  16.449 -1.0156  0.0982 -0.5655
  442MPD2    C2 6638   0.602   2.922  16.367  0.4483 -0.3980 -0.5994
  442MPD2    C3 6639   0.681   2.867  16.268  0.4491  0.0238  0.4220
  442MPD2    C4 6640   0.807   2.914  16.242  0.0500 -0.1654  0.4824
  442MPD2    C5 6641   0.858   3.015  16.316  0.2904 -0.0518 -0.4276
  442MPD2     H 6642   0.504   2.880  16.387  0.0068  2.2189  2.8939
  442MPD2    H1 6643   0.864   2.868  16.161 -1.1000 -3.8094  1.7466
  442MPD2    H2 6644   0.835   3.162  16.471 -0.2163 -0.3936  0.2171
  442MPD2    H3 6645   0.953   3.056  16.285  0.9229 -0.5011  0.9075
  442MPD2     N 6646   0.637   2.749  16.192  0.1721 -0.6109  0.1733
  442MPD2    H5 6647   0.708   2.723  16.123  1.6721  0.1923  1.4229
  442MPD2    N1 6648   0.572   3.089  16.541  0.0864 -0.4762 -0.1797
  442MPD2    H7 6649   0.478   3.051  16.544 -0.5800  1.3334  2.0526
  443TMC3    C1 6650   0.496   3.219  16.717  0.8336  0.1346  0.5562
  443TMC3    C2 6651   0.452   3.344  16.748  0.4061  0.8711  0.1182
  443TMC3    C3 6652   0.365   3.358  16.854 -0.5364 -0.8110  0.9221
  443TMC3    C4 6653   0.445   3.110  16.784  0.0355 -0.2328 -0.3838
  443TMC3    C5 6654   0.361   3.122  16.893 -0.2475 -1.0982 -0.8327
  443TMC3    C6 6655   0.321   3.252  16.928  0.2160  0.4782  0.2576
  443TMC3     C 6656   0.598   3.202  16.619 -0.0931  0.3695 -0.0949
  443TMC3     O 6657   0.682   3.291  16.604 -0.3406  0.1296  0.4049
  443TMC3     H 6658   0.490   3.424  16.686  0.9205  0.4833 -0.0595
  443TMC3    H1 6659   0.487   3.013  16.758 -0.0970 -0.2465 -0.5468
  443TMC3    H2 6660   0.241   3.265  17.000  1.1769 -0.3156  1.4581
  443TMC3    C7 6661   0.281   3.011  16.930  1.2321  0.0597 -0.1066
  443TMC3    C8 6662   0.252   3.443  16.826  0.1405  0.7407  0.3992
  443TMC3    O1 6663   0.304   2.912  16.862 -0.3088 -0.1945  0.2439
  443TMC3    O2 6664   0.171   3.469  16.917  0.1764  0.5720  0.1479
  444MPD2     C 6665   0.846   2.619  16.524 -0.2186 -0.4836 -0.4541
  444MPD2    C1 6666   0.799   2.512  16.596 -0.2092 -0.6240  0.6864
  444MPD2    C2 6667   0.862   2.390  16.576  0.0330 -0.1222  0.1863
  444MPD2    C3 6668   0.967   2.372  16.486 -0.7026 -0.5967 -0.1978
  444MPD2    C4 6669   1.012   2.484  16.415  0.2392  0.6225 -0.4302
  444MPD2    C5 6670   0.944   2.605  16.432  0.1939  0.7271  0.2204
  444MPD2     H 6671   0.833   2.300  16.629  1.9740 -0.4368  0.7182
  444MPD2    H1 6672   1.089   2.482  16.340  0.1396  1.9877 -0.5810
  444MPD2    H2 6673   0.800   2.717  16.532  3.1104  0.9883  0.2680
  444MPD2    H3 6674   0.960   2.692  16.369  0.9834  1.2537  1.1410
  444MPD2     N 6675   1.028   2.246  16.473 -0.4680  0.2549 -0.0367
  444MPD2    H5 6676   0.976   2.180  16.529 -2.2356  2.4984  0.9658
  444MPD2    N1 6677   0.692   2.533  16.691 -0.2839 -0.0181 -0.6720
  444MPD2    H7 6678   0.646   2.454  16.736  1.0915 -0.1946  0.4322
  445TMC3    C1 6679   1.147   2.076  16.373 -0.2612  0.9103  0.1111
  445TMC3    C2 6680   1.034   1.998  16.345 -0.1932  0.3254  0.0106
  445TMC3    C3 6681   1.059   1.868  16.305 -0.4598  0.5165  0.1786
  445TMC3    C4 6682   1.269   2.013  16.377  0.1624  0.9508  0.4569
  445TMC3    C5 6683   1.288   1.879  16.362  0.1268 -0.4846 -0.1784
  445TMC3    C6 6684   1.182   1.799  16.326 -0.4311  0.5178 -0.0182
  445TMC3     C 6685   1.131   2.219  16.389 -0.1016 -0.0911  0.0672
  445TMC3     O 6686   1.221   2.291  16.349  0.1432  0.4044 -0.0653
  445TMC3     H 6687   0.936   2.044  16.340 -0.8039 -0.9361  0.5271
  445TMC3    H1 6688   1.353   2.074  16.408  0.9362  0.0383  0.1481
  445TMC3    H2 6689   1.175   1.691  16.320  0.3555  0.5539 -1.6554
  445TMC3    C7 6690   1.426   1.835  16.329  0.0476  0.9641  0.4736
  445TMC3    C8 6691   0.953   1.803  16.221 -0.4140  0.8909  0.0726
  445TMC3    O1 6692   1.511   1.924  16.337 -0.5415  0.0883 -0.1711
  445TMC3    O2 6693   0.951   1.683  16.216  0.0484  0.2553 -0.1337
  446MPD2     C 6694   4.594   3.884  11.272  0.1487 -0.1171  0.1166
  446MPD2    C1 6695   4.629   3.868  11.137  0.1284 -0.0597  0.3556
  446MPD2    C2 6696   4.728   3.951  11.082 -0.1381 -0.4063 -0.7985
  446MPD2    C3 6697   0.057   4.040  11.161 -0.7277 -0.2178 -0.2027
  446MPD2    C4 6698   0.033   4.045  11.296 -0.0634 -0.0466 -0.5861
  446MPD2    C5 6699   4.660   3.977  11.349 -0.4485 -0.0528 -0.5720
  446MPD2     H 6700   0.020   3.943  10.978 -0.6361 -1.1246 -0.8798
  446MPD2    H1 6701   0.079   4.109  11.371 -0.7920 -0.5293  0.2783
  446MPD2    H2 6702   4.512   3.827  11.315  0.5611  0.2799  1.4139
  446MPD2    H3 6703   4.635   3.987  11.454  0.1897  0.7547 -0.4949
  446MPD2     N 6704   0.157   4.114  11.094  0.2040  0.4894  0.3296
  446MPD2    H5 6705   0.172   4.115  10.994  0.6776  1.2165  0.4048
  446MPD2    N1 6706   4.582   3.766  11.050 -0.3724 -0.2811 -0.3602
  446MPD2    H7 6707   4.615   3.771  10.954  1.7262  0.8187  0.4226
  447TMC3    C1 6708   0.370   4.209  11.069 -0.6752  0.1593 -0.1278
  447TMC3    C2 6709   0.354   4.248  10.939 -0.0535 -0.4880  1.0537
  447TMC3    C3 6710   0.458   4.294  10.874 -0.1183  0.5563 -0.0341
  447TMC3    C4 6711   0.495   4.215  11.130 -0.2605 -0.0060 -0.1661
  447TMC3    C5 6712   0.594   4.270  11.055 -0.3755  0.5935  0.2342
  447TMC3    C6 6713   0.587   4.294  10.924 -0.3276 -0.0353 -0.3041
  447TMC3     C 6714   0.258   4.183  11.157 -0.3081 -0.3433  0.7614
  447TMC3     O 6715   0.273   4.200  11.277  0.5124 -0.7933 -0.6916
  447TMC3     H 6716   0.256   4.247  10.891 -0.2349  1.8148  1.3800
  447TMC3    H1 6717   0.503   4.181  11.233 -1.2499  0.6074  0.1155
  447TMC3    H2 6718   0.675   4.323  10.868 -0.7366 -0.9324 -1.3983
  447TMC3    C7 6719   0.729   4.282  11.110 -0.1624 -0.0087 -0.0221
  447TMC3    C8 6720   0.443   4.318  10.728  0.0743  0.2348 -0.3463
  447TMC3    O1 6721   0.819   4.264  11.024 -0.4092  0.8396  0.1527
  447TMC3    O2 6722   0.359   4.395  10.683 -0.0970  0.1772 -0.3669
  448TMC3    C1 6723   3.257   3.439  17.224 -0.5927 -0.4358  0.3304
  448TMC3    C2 6724   3.209   3.340  17.141 -0.8304  0.0542  0.0797
  448TMC3    C3 6725   3.260   3.218  17.156  0.6839  0.3431 -0.6030
  448TMC3    C4 6726   3.367   3.423  17.311 -0.9322 -0.2504 -0.3050
  448TMC3    C5 6727   3.410   3.294  17.320  0.8401 -0.2820 -0.5759
  448TMC3    C6 6728   3.350   3.192  17.252 -0.0407 -0.2038 -0.4409
  448TMC3     C 6729   3.203   3.570  17.229 -1.1096 -1.0589  0.5806
  448TMC3     O 6730   3.221   3.641  17.331 -0.2964 -0.1597 -0.0793
  448TMC3     H 6731   3.121   3.365  17.082 -0.2508  1.1793 -0.3164
  448TMC3    H1 6732   3.410   3.498  17.376 -0.0870 -0.0840 -1.0692
  448TMC3    H2 6733   3.383   3.092  17.278 -0.3247  1.0613  4.6394
  448TMC3    C7 6734   3.560   3.277  17.347 -0.2512  0.4810  0.5996
  448TMC3    C8 6735   3.253   3.124  17.045  0.5453  0.3347 -0.8691
  448TMC3    O1 6736   3.611   3.177  17.301 -0.2892  0.5000 -0.3698
  448TMC3    O2 6737   3.340   3.039  17.046 -0.1662  0.3009 -0.6946
  449MPD2     C 6738   4.350   2.850  13.551 -0.2453  0.3604 -0.1629
  449MPD2    C1 6739   4.363   2.718  13.583  0.0201  0.7630 -0.3779
  449MPD2    C2 6740   4.443   2.688  13.690  0.3078  0.4287 -0.2224
  449MPD2    C3 6741   4.513   2.785  13.761  0.6069 -0.5177  1.0573
  449MPD2    C4 6742   4.493   2.922  13.727  0.3571  0.4443 -0.2562
  449MPD2    C5 6743   4.415   2.948  13.621  0.6980 -0.1239 -0.0337
  449MPD2     H 6744   4.449   2.585  13.725 -0.6127  0.5323  0.2380
  449MPD2    H1 6745   4.548   3.005  13.768 -2.7289  2.9537 -1.2231
  449MPD2    H2 6746   4.293   2.891  13.469 -1.6682  0.1283  0.6943
  449MPD2    H3 6747   4.410   3.049  13.581  2.0374 -0.7583 -1.8229
  449MPD2     N 6748   4.599   2.750  13.864 -0.2456  0.0977  0.3705
  449MPD2    H5 6749   4.597   2.650  13.885 -2.5206  0.2924  1.0721
  449MPD2    N1 6750   4.294   2.611  13.516  0.2730 -0.3701 -0.6583
  449MPD2    H7 6751   4.322   2.518  13.544 -0.4844 -0.1580  0.7980
  450TMC3    C1 6752   4.174   2.471  13.364  0.0481  0.1943  0.6663
  450TMC3    C2 6753   4.238   2.456  13.241 -0.6583  0.7354 -0.0896
  450TMC3    C3 6754   4.318   2.345  13.229  0.5620  0.1038 -0.1778
  450TMC3    C4 6755   4.169   2.369  13.457  0.2506  0.2237  0.0533
  450TMC3    C5 6756   4.254   2.262  13.436 -0.3377  0.6359 -0.0048
  450TMC3    C6 6757   4.330   2.251  13.323  0.0670 -0.2827 -0.2024
  450TMC3     C 6758   4.196   2.613  13.422  0.1159 -0.1077 -0.1561
  450TMC3     O 6759   4.168   2.716  13.358  0.7415  0.5173  0.1612
  450TMC3     H 6760   4.244   2.530  13.161  0.1450  1.1718  0.3793
  450TMC3    H1 6761   4.125   2.382  13.555 -0.0641 -0.6758  0.0265
  450TMC3    H2 6762   4.394   2.163  13.313  0.1036  0.0615 -2.9971
  450TMC3    C7 6763   4.341   2.252  13.552  1.2012 -0.2714  0.2822
  450TMC3    C8 6764   4.428   2.349  13.134 -0.1526 -0.0416 -0.1336
  450TMC3    O1 6765   4.349   2.357  13.615  0.2613 -0.1166 -0.0750
  450TMC3    O2 6766   4.516   2.265  13.153 -0.4656  0.5298  0.0321
  451MPD2     C 6767   1.240   0.145   0.541 -0.2646 -0.2809 -0.1895
  451MPD2    C1 6768   1.269   0.244   0.455  0.1651 -0.4212  0.1847
  451MPD2    C2 6769   1.407   0.259   0.426  0.2542  0.5865  0.4540
  451MPD2    C3 6770   1.505   0.168   0.468  0.5392  0.0204 -0.3712
  451MPD2    C4 6771   1.463   0.058   0.545  0.0549 -0.2475 -0.0835
  451MPD2    C5 6772   1.333   0.057   0.587  0.1962 -0.2966 -0.2350
  451MPD2     H 6773   1.439   0.354   0.383 -0.8535  0.7122 -0.0814
  451MPD2    H1 6774   1.533   4.723   0.586 -0.0336  0.0555  0.5895
  451MPD2    H2 6775   1.139   0.125   0.575  0.1661  0.2691  1.4341
  451MPD2    H3 6776   1.303   4.721   0.661 -0.0639  0.1667  0.1142
  451MPD2     N 6777   1.638   0.171   0.437  0.4052  0.1524 -0.6938
  451MPD2    H5 6778   1.690   0.093   0.476  0.7728  1.3365  1.1625
  451MPD2    N1 6779   1.170   0.332   0.409 -0.3248  0.4852  0.1489
  451MPD2    H7 6780   1.076   0.315   0.444 -0.0091 -0.7270  0.4237
  452TMC3    C1 6781   1.837   0.237   0.352 -0.6670 -0.1861  0.6573
  452TMC3    C2 6782   1.859   0.110   0.299 -0.7321 -0.1842  0.3154
  452TMC3    C3 6783   1.975   0.084   0.231  0.3502  1.3229 -0.2871
  452TMC3    C4 6784   1.916   0.342   0.315  0.7496  0.4204  0.4410
  452TMC3    C5 6785   2.026   0.314   0.236 -1.0473 -0.2232 -0.0713
  452TMC3    C6 6786   2.050   0.187   0.192  0.7492  0.3467 -0.4186
  452TMC3     C 6787   1.700   0.281   0.383 -0.3586  0.5922 -1.2198
  452TMC3     O 6788   1.668   0.396   0.378  0.3889 -0.2177 -0.0449
  452TMC3     H 6789   1.790   0.027   0.306 -0.2192 -0.5325  1.2969
  452TMC3    H1 6790   1.899   0.441   0.356 -0.4273 -0.2405  1.5370
  452TMC3    H2 6791   2.138   0.167   0.132  0.0397  0.8845 -1.6354
  452TMC3    C7 6792   2.114   0.422   0.194  0.5728  0.0796 -0.0735
  452TMC3    C8 6793   1.971   4.699   0.154  0.1115 -0.1431 -0.0462
  452TMC3    O1 6794   2.064   0.535   0.224  0.1028 -0.2475  0.4101
  452TMC3    O2 6795   1.909   4.611   0.204 -0.0552  0.0211 -0.4037
  453TMC3    C1 6796   2.118   3.271  11.761 -0.1515 -0.2570  0.8572
  453TMC3    C2 6797   2.059   3.150  11.804 -0.4055 -0.4752 -0.6512
  453TMC3    C3 6798   2.026   3.068  11.703 -0.2009  0.0596  0.2936
  453TMC3    C4 6799   2.152   3.294  11.632  0.4585 -0.0357 -0.1137
  453TMC3    C5 6800   2.112   3.203  11.537  0.2076 -0.8756 -0.1965
  453TMC3    C6 6801   2.047   3.093  11.572 -0.6264  0.9920  0.6022
  453TMC3     C 6802   2.168   3.369  11.863  0.8460 -0.4754 -0.2126
  453TMC3     O 6803   2.204   3.476  11.821  0.0945 -0.4091 -0.1141
  453TMC3     H 6804   2.034   3.130  11.907  0.2739  1.5477 -0.0917
  453TMC3    H1 6805   2.209   3.381  11.605 -1.1362  1.1383  0.3113
  453TMC3    H2 6806   2.013   3.033  11.488  1.1726 -0.2338  0.7460
  453TMC3    C7 6807   2.173   3.196  11.407 -0.6123  0.4118  0.2881
  453TMC3    C8 6808   2.030   2.928  11.729 -0.0391  0.2313 -0.7471
  453TMC3    O1 6809   2.170   3.087  11.353  0.0061  0.4297 -0.1830
  453TMC3    O2 6810   2.060   2.860  11.628 -0.0676 -0.7038  0.0365
  454MPD2     C 6811   1.675   2.070  15.927  0.4275 -0.5522 -0.1288
  454MPD2    C1 6812   1.605   2.141  15.834 -0.2822  0.3062  0.1418
  454MPD2    C2 6813   1.597   2.279  15.829 -1.0363 -1.0618 -1.0486
  454MPD2    C3 6814   1.653   2.353  15.938  0.5364  0.5930 -0.7058
  454MPD2    C4 6815   1.709   2.282  16.042  0.1253 -0.7724 -0.3804
  454MPD2    C5 6816   1.735   2.142  16.024  1.3987  0.9600 -0.0347
  454MPD2     H 6817   1.549   2.319  15.741  1.0463  1.9542 -0.8413
  454MPD2    H1 6818   1.739   2.329  16.135 -0.6446  1.4176 -1.2359
  454MPD2    H2 6819   1.675   1.961  15.923 -0.8653 -0.6128  1.6103
  454MPD2    H3 6820   1.791   2.081  16.094 -0.0107 -0.2524  0.0442
  454MPD2     N 6821   1.638   2.492  15.951 -0.1196  0.3848 -0.3958
  454MPD2    H5 6822   1.635   2.526  16.047  0.4713  1.7807 -0.8854
  454MPD2    N1 6823   1.544   2.072  15.719 -0.1237  0.6901  0.2554
  454MPD2    H7 6824   1.496   2.126  15.647 -0.0954  1.2859  0.6773
  455TMC3    C1 6825   1.459   2.619  15.896 -0.1116  0.7381 -0.2567
  455TMC3    C2 6826   1.458   2.717  15.998 -0.3701  0.4173  0.1989
  455TMC3    C3 6827   1.360   2.719  16.089 -0.5788  0.0324 -0.8867
  455TMC3    C4 6828   1.361   2.522  15.908  0.0346  0.2928  0.3961
  455TMC3    C5 6829   1.262   2.528  16.004 -0.4501  0.4774  0.4337
  455TMC3    C6 6830   1.262   2.622  16.100 -0.3069 -0.0351  0.0818
  455TMC3     C 6831   1.589   2.572  15.851 -0.4733 -1.0342 -0.6807
  455TMC3     O 6832   1.608   2.551  15.731 -0.0756  0.0496 -0.2953
  455TMC3     H 6833   1.536   2.792  15.999 -0.1965  0.2612 -0.7929
  455TMC3    H1 6834   1.372   2.437  15.841 -1.9995  0.4356 -0.1125
  455TMC3    H2 6835   1.190   2.631  16.180  0.8655  0.7363  1.0514
  455TMC3    C7 6836   1.200   2.402  16.039  0.8757  0.2107  0.1128
  455TMC3    C8 6837   1.336   2.844  16.157 -0.6929 -0.8203 -0.3901
  455TMC3    O1 6838   1.083   2.388  16.060  0.4110  0.0456 -0.2627
  455TMC3    O2 6839   1.358   2.949  16.101 -0.3260 -0.1514 -0.1852
  456MPD2     C 6840   3.728   2.550  15.779  1.0920 -0.2792  0.3899
  456MPD2    C1 6841   3.813   2.632  15.851  0.3751  0.5122 -0.3094
  456MPD2    C2 6842   3.776   2.654  15.986  0.5584  0.0448 -0.2088
  456MPD2    C3 6843   3.659   2.608  16.039  0.0142 -0.1615  0.0360
  456MPD2    C4 6844   3.576   2.532  15.958  0.9255 -0.1094  0.3481
  456MPD2    C5 6845   3.612   2.509  15.828 -0.9350 -0.0337  0.6216
  456MPD2     H 6846   3.831   2.721  16.051  0.1714  0.3781 -0.2216
  456MPD2    H1 6847   3.497   2.472  16.000  0.0449  1.4069  0.8631
  456MPD2    H2 6848   3.752   2.525  15.676 -0.3134  1.4314 -0.3729
  456MPD2    H3 6849   3.561   2.445  15.758  2.7755 -2.2616 -0.0680
  456MPD2     N 6850   3.643   2.630  16.180 -0.0488 -0.9066  0.5193
  456MPD2    H5 6851   3.726   2.661  16.229 -1.4501  1.3382  1.4891
  456MPD2    N1 6852   3.937   2.671  15.799  0.0853  0.6215 -0.7287
  456MPD2    H7 6853   3.963   2.617  15.717  0.5919 -0.5688  0.2035
  457TMC3    C1 6854   3.551   2.663  16.389  0.2685 -0.0746  0.1074
  457TMC3    C2 6855   3.445   2.691  16.461  0.1965 -0.5103 -0.1187
  457TMC3    C3 6856   3.462   2.696  16.600  0.3203 -0.2156 -0.0858
  457TMC3    C4 6857   3.678   2.648  16.446 -0.8452 -0.5132  0.9051
  457TMC3    C5 6858   3.688   2.650  16.583 -0.7093  0.2625 -0.0955
  457TMC3    C6 6859   3.582   2.674  16.661 -0.0626  1.0378 -0.5413
  457TMC3     C 6860   3.529   2.631  16.251  0.3817 -0.3122 -0.3410
  457TMC3     O 6861   3.417   2.603  16.211  0.3676  0.0955 -0.0223
  457TMC3     H 6862   3.346   2.713  16.423 -0.4096 -1.1518  1.0622
  457TMC3    H1 6863   3.762   2.605  16.394 -1.6184 -0.2119 -0.5912
  457TMC3    H2 6864   3.602   2.683  16.767 -1.4378 -1.9971 -0.0449
  457TMC3    C7 6865   3.813   2.647  16.659 -0.4774  0.2579 -0.8106
  457TMC3    C8 6866   3.369   2.778  16.680  0.2315 -0.3864  0.0525
  457TMC3    O1 6867   3.803   2.632  16.781  0.0080  0.3729  0.1225
  457TMC3    O2 6868   3.400   2.794  16.800  0.5752  0.1658 -0.0101
  458MPD2     C 6869   1.293   1.503  12.169 -0.2942  0.5458 -0.0622
  458MPD2    C1 6870   1.407   1.564  12.123  0.8419  0.3355  0.4220
  458MPD2    C2 6871   1.431   1.567  11.983  0.1144  0.4132  0.4722
  458MPD2    C3 6872   1.344   1.518  11.897 -0.1974 -0.5421  0.9202
  458MPD2    C4 6873   1.235   1.444  11.939 -0.6151 -0.0911  0.3187
  458MPD2    C5 6874   1.225   1.434  12.074 -0.1557  0.0975  0.1263
  458MPD2     H 6875   1.512   1.627  11.942 -0.1179  0.9078  0.7362
  458MPD2    H1 6876   1.159   1.402  11.876 -0.1512 -0.5215  0.0480
  458MPD2    H2 6877   1.257   1.502  12.271 -1.7500 -0.4144 -0.5797
  458MPD2    H3 6878   1.134   1.383  12.106 -2.2440  2.7748 -1.5754
  458MPD2     N 6879   1.367   1.556  11.765 -0.6077  0.1084  0.8598
  458MPD2    H5 6880   1.454   1.604  11.744  1.4137 -2.4056  3.4495
  458MPD2    N1 6881   1.486   1.628  12.217  0.2719  0.1851  0.0392
  458MPD2    H7 6882   1.452   1.634  12.312 -0.4544 -1.0910 -0.1510
  459TMC3    C1 6883   1.666   1.762  12.295 -0.0900  0.1228 -0.1786
  459TMC3    C2 6884   1.781   1.830  12.260  0.4413  0.4901 -0.6384
  459TMC3    C3 6885   1.856   1.885  12.360  0.7926 -0.1196  0.0445
  459TMC3    C4 6886   1.625   1.745  12.424  0.4249 -0.4321 -0.6637
  459TMC3    C5 6887   1.704   1.796  12.528 -0.4862 -0.4259 -0.6776
  459TMC3    C6 6888   1.826   1.860  12.498 -0.3482 -0.4172 -0.2378
  459TMC3     C 6889   1.607   1.682  12.187 -0.4075  0.2894  0.5066
  459TMC3     O 6890   1.679   1.674  12.088 -0.1950  0.1209 -0.3365
  459TMC3     H 6891   1.791   1.861  12.156  0.0743  2.5619 -0.0486
  459TMC3    H1 6892   1.539   1.683  12.446  0.1578 -0.4355 -1.6660
  459TMC3    H2 6893   1.893   1.879  12.581  0.3932 -0.4841 -0.8166
  459TMC3    C7 6894   1.695   1.725  12.647 -0.2361 -0.7738 -0.4145
  459TMC3    C8 6895   1.986   1.934  12.334  0.3776 -0.4048  0.3315
  459TMC3    O1 6896   1.803   1.680  12.678  0.5351 -0.1816  0.2280
  459TMC3    O2 6897   2.035   2.001  12.425 -0.1812 -0.0743  0.1023
  460MPD2     C 6898   0.679   4.169  10.497 -0.1809 -0.4295  0.1514
  460MPD2    C1 6899   0.564   4.230  10.535  0.3826 -0.2968 -0.2395
  460MPD2    C2 6900   0.485   4.277  10.429  0.4299  0.7443 -0.5912
  460MPD2    C3 6901   0.523   4.261  10.297  0.3691  0.6929  0.3271
  460MPD2    C4 6902   0.644   4.210  10.267 -1.2812  0.0682 -0.1414
  460MPD2    C5 6903   0.727   4.170  10.368  0.0745 -0.5313  0.0286
  460MPD2     H 6904   0.385   4.318  10.435  0.3081  0.4494 -0.6146
  460MPD2    H1 6905   0.685   4.208  10.167 -0.9266  1.6542 -0.0341
  460MPD2    H2 6906   0.746   4.118  10.566 -0.5012 -1.3728 -0.2308
  460MPD2    H3 6907   0.831   4.147  10.348 -0.3044 -0.3430 -2.2361
  460MPD2     N 6908   0.443   4.313  10.192  0.4015 -0.1438 -0.2999
  460MPD2    H5 6909   0.358   4.362  10.219  0.3016 -0.1379 -0.6291
  460MPD2    N1 6910   0.543   4.237  10.672 -0.8389 -0.3443 -0.6007
  460MPD2    H7 6911   0.617   4.198  10.730 -1.3549 -0.4616 -0.0225
  461TMC3    C1 6912   0.380   4.381   9.975 -0.4162  0.2220 -1.2367
  461TMC3    C2 6913   0.399   4.360   9.847 -0.3056 -1.2953  0.0089
  461TMC3    C3 6914   0.344   4.432   9.751 -0.1325 -0.0087  0.1565
  461TMC3    C4 6915   0.297   4.473  10.018 -0.4279 -0.3429 -0.1480
  461TMC3    C5 6916   0.225   4.549   9.927 -0.6895 -0.1416 -0.3181
  461TMC3    C6 6917   0.257   4.528   9.792  0.3598 -0.0247  0.7311
  461TMC3     C 6918   0.457   4.288  10.061 -0.5061  0.5241  1.1958
  461TMC3     O 6919   0.524   4.202  10.000  0.3404  0.0706  0.0812
  461TMC3     H 6920   0.464   4.277   9.822  0.7629 -0.5815  0.3923
  461TMC3    H1 6921   0.299   4.508  10.121  0.6529  0.1225 -0.3244
  461TMC3    H2 6922   0.212   4.593   9.717  0.3522  0.7662  1.4219
  461TMC3    C7 6923   0.135   4.655   9.970  0.5207  0.4335 -0.3638
  461TMC3    C8 6924   0.400   4.429   9.616 -0.8311 -0.8329 -0.3637
  461TMC3    O1 6925   0.113   4.729   9.877  0.0522 -0.4398  0.3057
  461TMC3    O2 6926   0.483   4.341   9.597 -0.7932  0.0352  0.2119
  462TMC3    C1 6927   0.199   0.938  17.550 -0.4730 -0.4753 -0.1999
  462TMC3    C2 6928   0.321   0.999  17.571 -0.1249 -0.2015 -0.5810
  462TMC3    C3 6929   0.409   0.936  17.652 -0.4039 -0.5739 -0.9374
  462TMC3    C4 6930   0.167   0.817  17.599  0.1036 -0.0740 -0.0078
  462TMC3    C5 6931   0.263   0.759  17.681 -0.4958 -0.1664  0.3391
  462TMC3    C6 6932   0.391   0.809  17.696  0.1865  0.1875  0.6329
  462TMC3     C 6933   0.132   0.969  17.420  0.2272 -0.4073 -0.5770
  462TMC3     O 6934   0.050   0.887  17.389  0.1628 -0.6702  0.8950
  462TMC3     H 6935   0.354   1.089  17.521 -3.5511  1.3013 -0.1049
  462TMC3    H1 6936   0.076   0.764  17.571  0.4402  0.0390 -1.3039
  462TMC3    H2 6937   0.442   0.785   0.043 -0.1454  1.4545  1.1387
  462TMC3    C7 6938   0.244   0.631   0.002  0.6385  0.3652  0.6221
  462TMC3    C8 6939   0.536   1.006  17.673  0.1589 -0.2721 -0.3867
  462TMC3    O1 6940   0.346   0.583   0.052 -0.1090 -0.2081  0.2760
  462TMC3    O2 6941   0.535   1.121  17.635  0.4244 -0.2529 -0.0378
  463MPD2     C 6942   2.888   3.387   1.345 -0.3353 -0.0787 -0.6632
  463MPD2    C1 6943   2.898   3.477   1.247 -0.2452  0.2517  0.8062
  463MPD2    C2 6944   3.021   3.544   1.242  0.3485 -0.1324 -0.0323
  463MPD2    C3 6945   3.133   3.509   1.318  0.3191  0.5248 -0.9292
  463MPD2    C4 6946   3.120   3.394   1.400  0.1500 -0.0024  0.0064
  463MPD2    C5 6947   2.995   3.336   1.416  0.9056 -0.6670  0.1926
  463MPD2     H 6948   3.034   3.622   1.168  0.8811 -1.4158 -1.2799
  463MPD2    H1 6949   3.204   3.351   1.453  0.8930  1.7732  0.2512
  463MPD2    H2 6950   2.792   3.340   1.362  0.0686  0.2270  2.5350
  463MPD2    H3 6951   2.984   3.247   1.476 -0.2542 -1.4366 -1.1732
  463MPD2     N 6952   3.258   3.575   1.300  0.1329 -0.2918 -0.1184
  463MPD2    H5 6953   3.258   3.655   1.236  0.0079 -1.3578 -1.4481
  463MPD2    N1 6954   2.785   3.508   1.176 -0.6048 -0.5276  0.2163
  463MPD2    H7 6955   2.704   3.453   1.204 -1.2600  0.8798  1.0557
  464TMC3    C1 6956   2.652   3.618   1.011  0.0140  0.4091 -0.1282
  464TMC3    C2 6957   2.589   3.736   0.982  0.1612 -0.1622  0.2470
  464TMC3    C3 6958   2.457   3.740   0.954 -0.2334 -0.2776  0.1996
  464TMC3    C4 6959   2.583   3.503   1.031 -0.9695 -0.2521  0.0410
  464TMC3    C5 6960   2.454   3.504   0.984  0.5802 -0.0048  0.2710
  464TMC3    C6 6961   2.390   3.625   0.946  0.4641  0.4687 -0.4451
  464TMC3     C 6962   2.775   3.618   1.085  0.1183  0.7534  0.0202
  464TMC3     O 6963   2.844   3.717   1.073 -0.5373 -0.2960 -0.8162
  464TMC3     H 6964   2.655   3.822   0.977  0.8120 -0.7120 -0.6104
  464TMC3    H1 6965   2.626   3.406   1.054 -1.3436 -0.1136  1.3277
  464TMC3    H2 6966   2.286   3.634   0.917  1.2699  2.1798 -2.7836
  464TMC3    C7 6967   2.398   3.377   0.944 -0.2973 -0.0998  0.0347
  464TMC3    C8 6968   2.396   3.864   0.966 -0.2946  0.7757 -0.4614
  464TMC3    O1 6969   2.473   3.282   0.936 -0.2089  0.3927  0.0848
  464TMC3    O2 6970   2.278   3.877   0.927  0.1521 -0.2276 -0.1128
  465MPD2     C 6971   3.046   2.186  16.609 -0.2750 -0.4445  0.3601
  465MPD2    C1 6972   2.995   2.234  16.724  0.2239  0.4070  0.1705
  465MPD2    C2 6973   2.869   2.294  16.720  0.3319 -0.2071  0.0787
  465MPD2    C3 6974   2.809   2.325  16.601 -0.4013  0.7869 -0.2424
  465MPD2    C4 6975   2.869   2.285  16.482  0.1052  0.0180 -0.2988
  465MPD2    C5 6976   2.982   2.210  16.487  0.4442 -0.1422 -0.3644
  465MPD2     H 6977   2.816   2.331  16.807 -0.7847  1.7034 -1.4097
  465MPD2    H1 6978   2.826   2.305  16.385 -1.7567 -1.4437  0.2380
  465MPD2    H2 6979   3.140   2.132  16.608 -0.3796 -0.6625  2.0942
  465MPD2    H3 6980   3.034   2.174  16.399  1.3031 -0.3482  0.2376
  465MPD2     N 6981   2.693   2.407  16.605 -0.1891 -0.3045  0.2468
  465MPD2    H5 6982   2.649   2.427  16.694  2.2133 -2.3687  1.8959
  465MPD2    N1 6983   3.055   2.225  16.853  0.2317  0.1578 -0.3776
  465MPD2    H7 6984   2.997   2.261  16.929  2.7974 -3.0838  3.1016
  466TMC3    C1 6985   2.335   2.575  16.676  0.2750  0.3470  0.5583
  466TMC3    C2 6986   2.287   2.670  16.589  0.2358  0.0890 -0.4373
  466TMC3    C3 6987   2.353   2.681  16.467 -0.2851 -0.5229 -0.4389
  466TMC3    C4 6988   2.448   2.510  16.641 -0.7101 -0.1615 -0.5672
  466TMC3    C5 6989   2.508   2.519  16.519  0.8575  0.6049  0.7336
  466TMC3    C6 6990   2.455   2.600  16.425  0.6082 -0.2082 -0.4503
  466TMC3     C 6991   2.308   2.608  16.818 -0.1135 -0.8026  0.0154
  466TMC3     O 6992   2.397   2.589  16.901 -0.1428  0.2818  0.0865
  466TMC3     H 6993   2.212   2.740  16.622  1.0118  0.9186 -0.4232
  466TMC3    H1 6994   2.468   2.422  16.700 -0.8515 -0.5756 -1.1413
  466TMC3    H2 6995   2.501   2.608  16.327  0.5020  0.6337 -0.4332
  466TMC3    C7 6996   2.633   2.454  16.496 -0.1327 -1.0578 -0.1581
  466TMC3    C8 6997   2.358   2.809  16.396  0.0585 -0.0956 -0.1055
  466TMC3    O1 6998   2.682   2.470  16.384  0.2445 -0.2403  0.1643
  466TMC3    O2 6999   2.415   2.808  16.284 -1.4157 -0.0667  0.5268
  467TMC3    C1 7000   3.660   1.620  13.693 -0.7774  0.0234  0.5014
  467TMC3    C2 7001   3.621   1.643  13.565  0.4104  0.2067 -0.0222
  467TMC3    C3 7002   3.520   1.568  13.507  0.2520  0.3756  0.0182
  467TMC3    C4 7003   3.592   1.524  13.770 -0.4523 -0.2658 -0.1444
  467TMC3    C5 7004   3.490   1.453  13.715 -0.4890  0.6634  0.5872
  467TMC3    C6 7005   3.457   1.468  13.580 -1.0409  0.7176  0.1234
  467TMC3     C 7006   3.764   1.685  13.764  0.0648 -0.0752 -1.3159
  467TMC3     O 7007   3.795   1.647  13.874 -0.0063 -0.4554 -0.1651
  467TMC3     H 7008   3.670   1.721  13.508  0.1123  0.4842  0.0985
  467TMC3    H1 7009   3.606   1.519  13.877  0.1464 -0.2822 -0.2260
  467TMC3    H2 7010   3.369   1.415  13.545 -0.7386  1.4383 -1.7441
  467TMC3    C7 7011   3.447   1.338  13.783 -0.0836  0.0408 -0.0241
  467TMC3    C8 7012   3.483   1.603  13.367 -0.0025  0.0857 -0.7728
  467TMC3    O1 7013   3.533   1.283  13.852 -0.2215 -0.1439  0.3332
  467TMC3    O2 7014   3.533   1.705  13.328  0.0006  0.1851  0.0814
  468MPD2     C 7015   2.499   4.107   9.932  0.3460 -0.6304 -0.5751
  468MPD2    C1 7016   2.507   4.180  10.047 -0.4765 -0.1168 -0.0661
  468MPD2    C2 7017   2.482   4.128  10.171  1.0286 -0.4812  0.1649
  468MPD2    C3 7018   2.462   3.991  10.180 -0.5544  0.4610 -0.1483
  468MPD2    C4 7019   2.453   3.920  10.072  0.2772 -0.2124  0.2742
  468MPD2    C5 7020   2.472   3.979   9.951 -0.7850 -1.0150  1.2038
  468MPD2     H 7021   2.496   4.191  10.258 -1.3452  0.5792 -0.2331
  468MPD2    H1 7022   2.424   3.815  10.074 -0.4553 -0.0081  0.3861
  468MPD2    H2 7023   2.515   4.135   9.828  0.4019  0.4434 -0.2776
  468MPD2    H3 7024   2.463   3.924   9.858  0.4719 -0.3185  0.6721
  468MPD2     N 7025   2.462   3.918  10.301 -0.0954  0.3167  0.3899
  468MPD2    H5 7026   2.465   3.818  10.287 -1.3504  0.2280  0.7327
  468MPD2    N1 7027   2.550   4.318  10.050 -0.2896  0.0848 -0.4124
  468MPD2    H7 7028   2.569   4.359  10.141  0.1606 -3.7193  1.2105
  469TMC3    C1 7029   2.608   4.535   9.953  0.4927 -1.2771 -0.3279
  469TMC3    C2 7030   2.741   4.538   9.970 -0.1361  0.7135 -0.1117
  469TMC3    C3 7031   2.781   4.609  10.078 -0.8668  0.0281 -0.8387
  469TMC3    C4 7032   2.514   4.604  10.026 -0.3548  0.7535  0.2153
  469TMC3    C5 7033   2.555   4.670  10.135 -0.9163 -0.6150 -0.0624
  469TMC3    C6 7034   2.693   4.669  10.162  0.6883 -0.1708  0.0915
  469TMC3     C 7035   2.561   4.396   9.931 -0.2729  0.8001  0.1669
  469TMC3     O 7036   2.510   4.378   9.824 -0.2253 -0.1442 -0.0632
  469TMC3     H 7037   2.808   4.467   9.923  1.4463  1.3334  1.1910
  469TMC3    H1 7038   2.411   4.570  10.020 -0.0603 -0.5007  2.3031
  469TMC3    H2 7039   2.728   4.723  10.250  1.1983  0.6031 -0.5904
  469TMC3    C7 7040   2.455   4.730  10.226  0.2889  0.3586  0.3175
  469TMC3    C8 7041   2.916   4.594  10.115 -0.1752 -0.4166  0.4817
  469TMC3    O1 7042   2.348   0.024  10.172 -0.2793  0.0188  0.3608
  469TMC3    O2 7043   2.994   4.561  10.027  0.1917  0.4221  0.5443
  470TMC3    C1 7044   4.040   0.789  17.651  0.6824  0.7371 -0.7549
  470TMC3    C2 7045   4.134   0.884  17.667 -1.0739 -0.6684 -0.2491
  470TMC3    C3 7046   4.249   0.852  17.739 -0.5663  0.4609  0.5079
  470TMC3    C4 7047   4.047   0.663  17.711 -0.2521  0.3098  0.0017
  470TMC3    C5 7048   4.170   0.634   0.023 -0.0693  0.0266 -0.1854
  470TMC3    C6 7049   4.268   0.728   0.047 -0.0304 -0.2678 -0.4029
  470TMC3     C 7050   3.921   0.844  17.600 -0.5946 -1.3668 -0.1874
  470TMC3     O 7051   3.914   0.966  17.583 -0.3502  0.7817  0.2433
  470TMC3     H 7052   4.133   0.973  17.606  0.5851 -0.6226 -0.2121
  470TMC3    H1 7053   3.967   0.590  17.702 -0.1070  0.4646 -2.6330
  470TMC3    H2 7054   4.360   0.710   0.103 -1.1328  1.4125  1.9700
  470TMC3    C7 7055   4.180   0.496   0.058 -0.4806 -0.2564 -0.3740
  470TMC3    C8 7056   4.356   0.954   0.025  0.1736 -0.2307 -0.4829
  470TMC3    O1 7057   4.112   0.408  17.745  0.2330  0.0402  0.1923
  470TMC3    O2 7058   4.458   0.923   0.082  0.4592 -0.1636  0.4290
  471MPD2     C 7059   0.363   1.912  16.594  0.3192  0.2196 -0.5020
  471MPD2    C1 7060   0.448   1.808  16.555  0.3882  0.2891 -0.7753
  471MPD2    C2 7061   0.525   1.744  16.646 -0.4994 -0.8796  0.9944
  471MPD2    C3 7062   0.531   1.794  16.777 -0.6621  0.5292 -0.4662
  471MPD2    C4 7063   0.458   1.906  16.812 -0.7397 -0.0770  0.0477
  471MPD2    C5 7064   0.371   1.962  16.718 -0.9041 -0.0384  0.2666
  471MPD2     H 7065   0.574   1.651  16.619 -0.4118 -0.1187 -1.4295
  471MPD2    H1 7066   0.456   1.956  16.908 -0.2515  0.9262 -0.4609
  471MPD2    H2 7067   0.296   1.952  16.519 -2.1533 -1.5433  0.7410
  471MPD2    H3 7068   0.320   2.053  16.748  0.5846  2.5423 -5.0012
  471MPD2     N 7069   0.598   1.721  16.876  0.2684 -0.3615 -0.3003
  471MPD2    H5 7070   0.591   1.756  16.971 -1.6377 -1.6134  0.0099
  471MPD2    N1 7071   0.439   1.750  16.424  0.4527  0.9331  0.1697
  471MPD2    H7 7072   0.509   1.684  16.393 -0.8018 -0.2269 -0.1949
  472TMC3    C1 7073   0.362   1.690  16.221  0.2214 -0.1885 -0.7311
  472TMC3    C2 7074   0.248   1.675  16.155  0.4585  0.0249 -0.1274
  472TMC3    C3 7075   0.195   1.556  16.111  0.6784  0.6278  0.0258
  472TMC3    C4 7076   0.441   1.584  16.241 -0.3414  0.3465 -0.5702
  472TMC3    C5 7077   0.402   1.465  16.177  0.8605  0.4107 -0.5986
  472TMC3    C6 7078   0.276   1.448  16.115 -0.0281 -0.0948 -0.1847
  472TMC3     C 7079   0.359   1.789  16.324 -0.3829  0.0368 -0.8852
  472TMC3     O 7080   0.266   1.865  16.317  0.1849 -0.2357  0.4022
  472TMC3     H 7081   0.190   1.766  16.144 -0.9422 -0.7111  1.2021
  472TMC3    H1 7082   0.540   1.581  16.287 -0.1500  1.8145 -0.9031
  472TMC3    H2 7083   0.232   1.350  16.100  3.0317 -1.6228  0.7818
  472TMC3    C7 7084   0.475   1.345  16.206 -0.0116  0.3272 -0.0327
  472TMC3    C8 7085   0.051   1.552  16.127  0.6035  0.5401  0.6660
  472TMC3    O1 7086   0.532   1.333  16.311 -0.2899  0.2196  0.2329
  472TMC3    O2 7087   4.721   1.654  16.108  0.2984 -0.3848 -0.0307
  473MPD2     C 7088   0.366   3.600  13.542  0.5351 -0.7336 -0.0180
  473MPD2    C1 7089   0.307   3.717  13.500  0.0762  0.4472  0.1238
  473MPD2    C2 7090   0.326   3.833  13.573 -0.9979  0.3599  0.2323
  473MPD2    C3 7091   0.411   3.830  13.686 -0.0469 -0.5964  0.0785
  473MPD2    C4 7092   0.473   3.713  13.720 -0.4904  0.0329 -0.3492
  473MPD2    C5 7093   0.446   3.598  13.655  0.2442 -0.0370  0.2740
  473MPD2     H 7094   0.274   3.926  13.555  2.8262  2.4812 -0.0381
  473MPD2    H1 7095   0.542   3.712  13.803 -0.4762 -1.4517 -0.3768
  473MPD2    H2 7096   0.357   3.503  13.495 -0.5575 -1.1589  1.0724
  473MPD2    H3 7097   0.492   3.505  13.688 -0.8847 -1.4334 -2.0720
  473MPD2     N 7098   0.446   3.941  13.766  0.1267  1.0511  0.1606
  473MPD2    H5 7099   0.519   3.927  13.836 -1.1641  0.3927  1.3751
  473MPD2    N1 7100   0.218   3.732  13.387  0.3063  0.2466 -0.4143
  473MPD2    H7 7101   0.165   3.817  13.370 -1.1659 -0.0766  2.4831
  474TMC3    C1 7102   0.402   4.158  13.878 -0.4671 -0.0487  0.4950
  474TMC3    C2 7103   0.336   4.281  13.872 -0.2461  0.0344  0.3889
  474TMC3    C3 7104   0.380   4.389  13.945  0.2854  0.5584  0.0556
  474TMC3    C4 7105   0.507   4.147  13.969 -0.0320  0.1366 -0.4992
  474TMC3    C5 7106   0.541   4.255  14.048  0.0234  0.2408  0.0318
  474TMC3    C6 7107   0.476   4.378  14.042 -0.0887 -0.0897 -0.2011
  474TMC3     C 7108   0.372   4.059  13.776  0.9255 -0.3389  0.5239
  474TMC3     O 7109   0.292   4.096  13.690  0.1859  0.1657 -0.1637
  474TMC3     H 7110   0.253   4.295  13.803  0.5985 -1.2128 -0.8936
  474TMC3    H1 7111   0.555   4.052  13.993 -1.3114 -0.0864  1.1677
  474TMC3    H2 7112   0.501   4.459  14.109  1.1382 -1.6118  1.1709
  474TMC3    C7 7113   0.648   4.235  14.147 -0.1636 -0.0684 -0.1516
  474TMC3    C8 7114   0.287   4.494  13.958  0.3604 -0.4008  0.1138
  474TMC3    O1 7115   0.734   4.158  14.104 -0.2252  0.3074 -0.0289
  474TMC3    O2 7116   0.167   4.477  13.937  0.0505 -0.4245 -0.2544
  475MPD2     C 7117   3.071   1.690  10.550  0.0100  0.3869 -0.7639
  475MPD2    C1 7118   3.179   1.766  10.524 -1.0721 -0.5788 -0.8634
  475MPD2    C2 7119   3.166   1.904  10.520 -0.3411 -0.1344 -0.1058
  475MPD2    C3 7120   3.047   1.965  10.545  0.2090 -0.4381 -0.4210
  475MPD2    C4 7121   2.931   1.899  10.565 -0.0835 -0.8013  0.2332
  475MPD2    C5 7122   2.949   1.754  10.572  0.3181 -0.3087  0.1130
  475MPD2     H 7123   3.256   1.965  10.524  0.3644 -1.2932  1.5784
  475MPD2    H1 7124   2.835   1.937  10.597  0.0632 -1.1213  1.0411
  475MPD2    H2 7125   3.084   1.583  10.545 -1.2279  0.0802  2.9856
  475MPD2    H3 7126   2.857   1.704  10.599  0.1722 -1.1750 -1.9769
  475MPD2     N 7127   3.048   2.109  10.558  0.0108 -0.3235  1.0506
  475MPD2    H5 7128   3.132   2.166  10.549 -0.5770  0.5745  1.2582
  475MPD2    N1 7129   3.313   1.707  10.519 -0.8517 -0.2903 -0.2089
  475MPD2    H7 7130   3.319   1.609  10.545  1.9808 -0.2502 -0.6715
  476TMC3    C1 7131   3.548   1.700  10.515  0.5537 -0.7935 -0.3315
  476TMC3    C2 7132   3.653   1.742  10.444  0.3897 -0.0617 -0.1127
  476TMC3    C3 7133   3.774   1.774  10.506 -0.2258 -0.4325 -0.2118
  476TMC3    C4 7134   3.554   1.697  10.655  0.1082 -0.2545  0.2496
  476TMC3    C5 7135   3.664   1.745  10.716  0.5098 -0.5112 -0.5320
  476TMC3    C6 7136   3.777   1.781  10.642  0.1519  0.3656 -0.4477
  476TMC3     C 7137   3.428   1.772  10.482  0.2593 -0.3258 -0.7929
  476TMC3     O 7138   3.451   1.887  10.438 -0.0498 -0.1990 -0.5500
  476TMC3     H 7139   3.635   1.738  10.337 -1.4149  1.6971  0.1198
  476TMC3    H1 7140   3.469   1.661  10.712 -2.0427  2.9275 -0.9526
  476TMC3    H2 7141   3.859   1.826  10.697 -0.8314 -1.6010  2.6861
  476TMC3    C7 7142   3.620   1.855  10.801  0.2711  0.2566  0.3523
  476TMC3    C8 7143   3.867   1.856  10.433  0.0016 -0.8583  0.3387
  476TMC3    O1 7144   3.507   1.853  10.845 -0.1563 -0.5159  0.2962
  476TMC3    O2 7145   3.972   1.886  10.494 -0.3938  0.3120 -0.2407
  477MPD2     C 7146   1.320   3.704  11.658  0.4074  0.5835  0.6507
  477MPD2    C1 7147   1.227   3.612  11.625 -0.4452  1.0719  0.0333
  477MPD2    C2 7148   1.237   3.489  11.687  0.0537 -0.0316 -0.0921
  477MPD2    C3 7149   1.336   3.455  11.779  0.1560 -0.3402  0.6576
  477MPD2    C4 7150   1.430   3.553  11.805 -0.3811 -0.0311  0.9232
  477MPD2    C5 7151   1.415   3.675  11.755  0.3186 -0.4406  0.2512
  477MPD2     H 7152   1.164   3.410  11.668 -0.6651  0.1436  1.9305
  477MPD2    H1 7153   1.514   3.528  11.869  2.1125 -0.4127 -2.4859
  477MPD2    H2 7154   1.308   3.799  11.608 -1.5064 -0.8052 -1.5480
  477MPD2    H3 7155   1.481   3.756  11.787 -0.1986  0.7185 -1.6428
  477MPD2     N 7156   1.331   3.327  11.840  0.6014 -0.4604 -0.6485
  477MPD2    H5 7157   1.263   3.260  11.805  0.2031 -0.4879  0.1882
  477MPD2    N1 7158   1.110   3.645  11.544 -0.8136 -0.0528  0.1921
  477MPD2    H7 7159   1.090   3.744  11.532 -0.5099  0.1078  1.0084
  478TMC3    C1 7160   0.907   3.610  11.438  0.2817  0.1157 -0.1542
  478TMC3    C2 7161   0.843   3.713  11.508 -0.0116 -0.7250 -0.4789
  478TMC3    C3 7162   0.721   3.752  11.456  0.4910  1.0907 -0.5523
  478TMC3    C4 7163   0.837   3.541  11.340 -0.7288  0.5322 -0.2789
  478TMC3    C5 7164   0.719   3.591  11.290  0.2767  0.1386 -0.1418
  478TMC3    C6 7165   0.662   3.696  11.351  0.5271  0.4704 -0.0194
  478TMC3     C 7166   1.032   3.555  11.476 -1.2001 -0.0605 -0.6220
  478TMC3     O 7167   1.065   3.444  11.442  0.1350  0.1163 -0.1104
  478TMC3     H 7168   0.900   3.775  11.576 -2.1525  2.3355 -1.4599
  478TMC3    H1 7169   0.872   3.442  11.310  1.6630  0.7286  1.9192
  478TMC3    H2 7170   0.561   3.723  11.324 -0.4094 -1.9057  1.1567
  478TMC3    C7 7171   0.668   3.532  11.163  0.1231 -0.2984  0.1423
  478TMC3    C8 7172   0.672   3.888  11.488  0.2828  0.2473  0.3489
  478TMC3    O1 7173   0.706   3.418  11.132  0.0973  0.3001  0.2298
  478TMC3    O2 7174   0.602   3.939  11.402 -0.2017  0.4445  0.7069
  479MPD2     C 7175   4.616   0.503  14.794  0.6390 -0.0800  0.0659
  479MPD2    C1 7176   4.548   0.613  14.851  0.2964  0.5824 -0.0497
  479MPD2    C2 7177   4.627   0.711  14.900  0.3747 -0.8433  0.5112
  479MPD2    C3 7178   0.028   0.723  14.877 -0.3507 -0.2845 -0.2572
  479MPD2    C4 7179   0.088   0.614  14.810  0.2443  1.1187 -0.1190
  479MPD2    C5 7180   0.016   0.502  14.779  0.2322 -0.2714 -0.8294
  479MPD2     H 7181   4.581   0.794  14.954  2.7717  0.1518  1.0093
  479MPD2    H1 7182   0.196   0.605  14.813  0.0641 -0.3382  2.0130
  479MPD2    H2 7183   4.562   0.423  14.747  4.3990 -2.4275 -0.2340
  479MPD2    H3 7184   0.073   0.423  14.732  2.5275  1.3642 -0.8171
  479MPD2     N 7185   0.090   0.837  14.936 -0.0017 -0.8317  0.1826
  479MPD2    H5 7186   0.038   0.885  15.008  0.7956 -0.5582  0.5809
  479MPD2    N1 7187   4.409   0.600  14.860 -0.3281 -0.5723  0.2115
  479MPD2    H7 7188   4.363   0.520  14.819 -0.9047  0.9686 -2.1533
  480TMC3    C1 7189   0.223   1.075  15.205 -0.5436 -0.0404  0.3953
  480TMC3    C2 7190   0.238   1.200  15.157 -0.0561 -0.4931  0.5140
  480TMC3    C3 7191   0.268   1.206  15.021  0.3725  0.1395  0.3643
  480TMC3    C4 7192   0.236   0.968  15.120  0.1998 -0.1101 -1.0505
  480TMC3    C5 7193   0.269   0.980  14.992  0.6847  0.0266  0.0993
  480TMC3    C6 7194   0.288   1.100  14.936 -0.8700  1.0105  0.5994
  480TMC3     C 7195   0.198   1.038  15.340  0.2678 -0.4181  0.2041
  480TMC3     O 7196   0.205   0.920  15.378  0.9410  0.0311  0.1043
  480TMC3     H 7197   0.228   1.291  15.215 -0.1788 -0.6708  0.7688
  480TMC3    H1 7198   0.238   0.866  15.157 -3.5969  0.2377  0.0794
  480TMC3    H2 7199   0.343   1.094  14.843 -0.4766  2.2386  0.7575
  480TMC3    C7 7200   0.219   0.873  14.908  0.4241  0.9905  0.2906
  480TMC3    C8 7201   0.274   1.332  14.952  0.0626  0.0106 -0.2364
  480TMC3    O1 7202   0.283   0.837  14.812 -0.0002 -0.2222 -0.5158
  480TMC3    O2 7203   0.283   1.434  15.025  0.2522 -0.2892 -0.1501
  481MPD2     C 7204   1.786   0.468  14.180  0.8059  0.1692 -0.4693
  481MPD2    C1 7205   1.654   0.434  14.201 -0.4795  0.3541  0.7283
  481MPD2    C2 7206   1.608   0.392  14.327  0.3874  0.3363  0.0512
  481MPD2    C3 7207   1.698   0.388  14.428  0.1018  0.1620 -0.5708
  481MPD2    C4 7208   1.828   0.429  14.410 -0.3495  0.1069 -0.0440
  481MPD2    C5 7209   1.876   0.458  14.287  0.4893 -0.3892  0.4592
  481MPD2     H 7210   1.510   0.349  14.342 -0.7676  1.4315 -4.3963
  481MPD2    H1 7211   1.901   0.425  14.491  2.6176  0.3228 -2.7036
  481MPD2    H2 7212   1.830   0.489  14.083  0.0223 -1.2308 -1.1282
  481MPD2    H3 7213   1.979   0.490  14.277  1.1948 -2.2542  1.8798
  481MPD2     N 7214   1.666   0.347  14.557  0.0126  0.9236  0.1037
  481MPD2    H5 7215   1.738   0.339  14.627 -1.7555 -2.5827  1.5679
  481MPD2    N1 7216   1.565   0.436  14.086 -0.4444  0.2566  0.2973
  481MPD2    H7 7217   1.600   0.475  13.999  0.9525 -0.0796  0.7013
  482TMC3    C1 7218   1.390   0.374  13.947 -0.4513  0.1317  0.7150
  482TMC3    C2 7219   1.323   0.262  13.919  0.1929  0.3632  0.7636
  482TMC3    C3 7220   1.282   0.244  13.784 -0.3534  0.4832 -0.3567
  482TMC3    C4 7221   1.426   0.463  13.848  0.6663 -0.3668  0.0713
  482TMC3    C5 7222   1.416   0.421  13.716 -0.6004 -0.2823 -0.5715
  482TMC3    C6 7223   1.329   0.321  13.683 -0.7158 -0.6982 -0.2387
  482TMC3     C 7224   1.448   0.368  14.079 -0.3253 -0.0040 -0.0971
  482TMC3     O 7225   1.379   0.311  14.166 -0.0705 -0.9211  0.2085
  482TMC3     H 7226   1.301   0.187  13.994  0.5118 -0.3446  0.1521
  482TMC3    H1 7227   1.484   0.551  13.874  0.7798  0.4278 -2.8843
  482TMC3    H2 7228   1.326   0.274  13.585  0.6917  1.9830 -1.5634
  482TMC3    C7 7229   1.485   0.498  13.618  0.1753 -0.5273  0.2334
  482TMC3    C8 7230   1.207   0.131  13.751 -0.2221  0.1201 -0.2633
  482TMC3    O1 7231   1.579   0.571  13.654 -0.1279  0.2653 -0.5749
  482TMC3    O2 7232   1.200   0.037  13.830  0.5442  0.2545 -0.4715
  483TMC3    C1 7233   0.443   4.264   1.198  0.2822 -0.6608  0.5396
  483TMC3    C2 7234   0.442   4.320   1.072  0.3594 -0.7002 -0.0108
  483TMC3    C3 7235   0.563   4.342   1.015 -0.5768  0.2736  0.0619
  483TMC3    C4 7236   0.557   4.222   1.259  0.4675  0.0100  0.2693
  483TMC3    C5 7237   0.681   4.251   1.199  0.0740  1.3142  0.6765
  483TMC3    C6 7238   0.682   4.310   1.075  0.1143  0.4714 -0.0144
  483TMC3     C 7239   0.315   4.257   1.273  0.2473 -0.0662 -0.7104
  483TMC3     O 7240   0.228   4.339   1.248 -0.6228 -0.4926  0.5798
  483TMC3     H 7241   0.347   4.356   1.033  0.0205 -0.9940  0.5466
  483TMC3    H1 7242   0.555   4.172   1.355  0.2936  0.8963  0.7245
  483TMC3    H2 7243   0.764   4.297   1.005 -1.5530 -2.4800 -1.4379
  483TMC3    C7 7244   0.785   4.154   1.233 -0.0436 -0.5382  0.4944
  483TMC3    C8 7245   0.551   4.430   0.910 -0.2683  0.5070  0.2902
  483TMC3    O1 7246   0.753   4.054   1.290 -0.2634 -0.4807  0.0560
  483TMC3    O2 7247   0.453   4.433   0.838 -0.4974 -0.0820 -0.4184
  484MPD2     C 7248   2.220   1.884  12.056 -0.0801  0.0635  0.4080
  484MPD2    C1 7249   2.166   1.937  12.174 -0.1076  0.4347 -0.0625
  484MPD2    C2 7250   2.246   2.030  12.239 -0.3515  0.1971  0.6232
  484MPD2    C3 7251   2.374   2.064  12.196 -0.1001 -0.4771 -0.7882
  484MPD2    C4 7252   2.420   2.017  12.073  0.0780  0.1051 -0.4204
  484MPD2    C5 7253   2.344   1.928  12.005  0.3013  0.0688 -0.0355
  484MPD2     H 7254   2.217   2.061  12.339  0.8410 -0.2643  1.1081
  484MPD2    H1 7255   2.519   2.046  12.041  0.7718 -2.2530 -0.3611
  484MPD2    H2 7256   2.163   1.812  11.998 -1.4502  2.0913 -0.7347
  484MPD2    H3 7257   2.375   1.891  11.908  1.7900 -2.3583  1.3540
  484MPD2     N 7258   2.465   2.134  12.279  0.2918  0.6326  0.3201
  484MPD2    H5 7259   2.563   2.123  12.256  0.1526  2.7593 -1.2588
  484MPD2    N1 7260   2.042   1.893  12.211  0.0587  0.3612  0.1317
  484MPD2    H7 7261   1.987   1.837  12.148  0.6381  1.2189 -1.1373
  485TMC3    C1 7262   2.528   2.312  12.422  0.1795  0.9206 -0.5182
  485TMC3    C2 7263   2.658   2.277  12.423  0.1046 -0.3407  0.2196
  485TMC3    C3 7264   2.757   2.371  12.425 -0.3266  0.3885  0.4238
  485TMC3    C4 7265   2.500   2.449  12.422  0.1870 -0.0170 -0.5383
  485TMC3    C5 7266   2.597   2.544  12.410  0.1352 -0.2942  0.0065
  485TMC3    C6 7267   2.725   2.500  12.413 -0.4678  0.3088 -0.3070
  485TMC3     C 7268   2.420   2.229  12.366 -0.3039 -0.6008 -0.3274
  485TMC3     O 7269   2.307   2.271  12.373  0.7677  0.6621  0.4463
  485TMC3     H 7270   2.685   2.174  12.408  0.5260 -0.1701 -0.1985
  485TMC3    H1 7271   2.399   2.486  12.414  0.4083  0.8272  0.5592
  485TMC3    H2 7272   2.792   2.583  12.393  0.6907 -0.2150  1.4026
  485TMC3    C7 7273   2.566   2.598  12.277  0.5954 -0.8565  0.0641
  485TMC3    C8 7274   2.867   2.338  12.331 -0.2751 -0.0250 -0.2047
  485TMC3    O1 7275   2.463   2.666  12.265  0.2891  0.1516 -0.4011
  485TMC3    O2 7276   2.883   2.411  12.232 -0.6495  0.8655  0.0841
  486MPD2     C 7277   3.932   1.340  12.836 -0.3136  0.2225 -0.2244
  486MPD2    C1 7278   4.043   1.416  12.867 -1.0349  0.6823 -0.8534
  486MPD2    C2 7279   4.055   1.545  12.827  0.2321  0.4254  0.0023
  486MPD2    C3 7280   3.947   1.602  12.760  0.0981 -0.2642 -0.3509
  486MPD2    C4 7281   3.834   1.523  12.729 -0.6549 -0.7993 -0.0436
  486MPD2    C5 7282   3.828   1.392  12.768 -0.6412  0.9215 -0.0657
  486MPD2     H 7283   4.145   1.599  12.853 -0.0246  2.1207 -2.6042
  486MPD2    H1 7284   3.745   1.555  12.678 -0.7251  0.7575  1.0454
  486MPD2    H2 7285   3.926   1.241  12.878  1.7704 -0.0579 -0.5673
  486MPD2    H3 7286   3.735   1.338  12.757 -0.5772  0.4680  1.6151
  486MPD2     N 7287   3.962   1.737  12.711  0.1476 -0.3054  0.1863
  486MPD2    H5 7288   4.057   1.772  12.706 -0.5669  1.2778 -2.3934
  486MPD2    N1 7289   4.141   1.355  12.947 -0.4905  0.4014  0.4321
  486MPD2    H7 7290   4.119   1.258  12.970  0.5712 -0.1074 -0.6692
  487TMC3    C1 7291   4.290   1.344  13.125  0.3238  0.7689 -0.7659
  487TMC3    C2 7292   4.320   1.211  13.090 -0.3649  0.4356 -0.0355
  487TMC3    C3 7293   4.412   1.146  13.167  0.2046 -0.0773  0.7138
  487TMC3    C4 7294   4.328   1.402  13.239 -0.0630  0.6124 -0.1368
  487TMC3    C5 7295   4.401   1.319  13.324  0.3093  0.3496  0.3356
  487TMC3    C6 7296   4.455   1.194  13.287 -0.0380 -0.1249 -0.3199
  487TMC3     C 7297   4.226   1.424  13.028 -0.0591  0.4282  0.2169
  487TMC3     O 7298   4.260   1.545  13.036  0.1725 -0.4637  0.3741
  487TMC3     H 7299   4.298   1.165  12.994 -1.6455  1.5867 -0.2925
  487TMC3    H1 7300   4.296   1.500  13.273 -0.4963  0.7345 -0.9068
  487TMC3    H2 7301   4.476   1.119  13.362 -2.4842 -0.1920  0.3041
  487TMC3    C7 7302   4.350   1.297  13.459  0.0976 -0.2195 -0.6954
  487TMC3    C8 7303   4.396   1.004  13.163  0.0265  0.7404  0.4322
  487TMC3    O1 7304   4.229   1.323  13.478 -0.0378  0.7041 -0.6972
  487TMC3    O2 7305   4.489   0.932  13.178 -0.1435  0.0664 -0.3497
  488MPD2     C 7306   4.482   2.587  16.126  0.5169 -0.7952  0.0373
  488MPD2    C1 7307   4.533   2.687  16.213 -0.2496 -0.4075  0.2205
  488MPD2    C2 7308   4.524   2.653  16.346  0.3564  0.1721  0.0843
  488MPD2    C3 7309   4.463   2.532  16.389  0.1801 -0.3579  0.3730
  488MPD2    C4 7310   4.402   2.443  16.300 -0.0326 -0.3699 -0.3987
  488MPD2    C5 7311   4.429   2.468  16.170  0.1752 -0.3120  0.4345
  488MPD2     H 7312   4.576   2.720  16.413  0.7164  2.1974 -2.2216
  488MPD2    H1 7313   4.354   2.353  16.338 -1.6752  0.8574  0.4829
  488MPD2    H2 7314   4.494   2.597  16.019  2.3643  1.6077  0.4709
  488MPD2    H3 7315   4.394   2.400  16.094  0.8922  0.3980 -0.5434
  488MPD2     N 7316   4.472   2.513  16.533 -0.8041 -0.0805  0.8630
  488MPD2    H5 7317   4.523   2.580  16.591  1.0720 -1.1010  0.3870
  488MPD2    N1 7318   4.589   2.812  16.173 -0.2059 -0.1897 -0.7331
  488MPD2    H7 7319   4.628   2.871  16.246 -0.7383 -3.2898  2.0596
  489TMC3    C1 7320   4.467   2.385  16.728  0.4834 -0.0627  0.8714
  489TMC3    C2 7321   4.584   2.443  16.767 -0.3113 -0.0779 -0.4504
  489TMC3    C3 7322   4.609   2.458  16.900  0.4340 -0.5212  0.2675
  489TMC3    C4 7323   4.379   2.328  16.813 -0.0296  0.5957  0.4458
  489TMC3    C5 7324   4.402   2.354  16.942 -0.4020 -0.1110  0.0981
  489TMC3    C6 7325   4.512   2.430  16.991  0.6259 -0.0588 -0.5405
  489TMC3     C 7326   4.416   2.409  16.596 -0.8346 -0.1455 -1.0547
  489TMC3     O 7327   4.313   2.348  16.562  0.1748 -0.2802 -0.4534
  489TMC3     H 7328   4.662   2.474  16.699  0.1159 -0.1594  0.0025
  489TMC3    H1 7329   4.287   2.281  16.780 -0.5070  1.7813  0.0789
  489TMC3    H2 7330   4.535   2.426  17.097 -0.7740 -0.6610 -0.2704
  489TMC3    C7 7331   4.352   2.259  17.043 -0.5848 -0.2974  0.2355
  489TMC3    C8 7332   4.712   2.549  16.934  0.2497  0.1332  0.2689
  489TMC3    O1 7333   4.412   2.246  17.148 -0.4747  0.3963 -0.4898
  489TMC3    O2 7334   0.061   2.577  16.851 -0.2939  0.5262 -0.3526
  490MPD2     C 7335   1.016   1.930  17.446  0.1064  0.1401  0.4368
  490MPD2    C1 7336   0.947   2.003  17.544  0.8104 -1.0161  0.7728
  490MPD2    C2 7337   0.996   2.125  17.587  0.0510  0.0592 -0.4601
  490MPD2    C3 7338   1.104   2.188  17.526  0.4805 -0.8948  0.2464
  490MPD2    C4 7339   1.165   2.121  17.424  0.8637 -0.8888 -0.6642
  490MPD2    C5 7340   1.126   1.995  17.389 -0.2734  0.4093 -0.5065
  490MPD2     H 7341   0.945   2.173  17.670  3.2330 -0.9517  2.1265
  490MPD2    H1 7342   1.255   2.159  17.377  0.6803 -0.3487 -0.5769
  490MPD2    H2 7343   1.001   1.827  17.418 -1.6563  0.9007 -1.3935
  490MPD2    H3 7344   1.192   1.951  17.316 -0.9759  0.6489 -1.2825
  490MPD2     N 7345   1.163   2.311  17.569  0.3582 -0.4096 -0.1866
  490MPD2    H5 7346   1.248   2.330  17.517  1.1187 -0.4961  1.0381
  490MPD2    N1 7347   0.841   1.942  17.611 -0.6398 -0.2951  0.5067
  490MPD2    H7 7348   0.781   2.007  17.660  1.7108  0.2978  2.5980
  491TMC3    C1 7349   0.677   1.777  17.670 -0.2292  0.1838  0.1746
  491TMC3    C2 7350   0.686   1.805   0.060 -1.1730  0.1980  0.0336
  491TMC3    C3 7351   0.604   1.736   0.139  0.1258  0.1447 -0.1889
  491TMC3    C4 7352   0.602   1.672  17.624 -0.5031 -0.2059 -0.4034
  491TMC3    C5 7353   0.521   1.610  17.708  0.1562 -0.2196  0.1058
  491TMC3    C6 7354   0.517   1.634   0.096  0.1075 -0.5780  0.0532
  491TMC3     C 7355   0.786   1.819  17.585 -0.6105 -0.9532 -0.4248
  491TMC3     O 7356   0.813   1.734  17.504  0.5381  0.3579  0.9047
  491TMC3     H 7357   0.759   1.876   0.097 -1.4212 -0.2224  1.3212
  491TMC3    H1 7358   0.608   1.631  17.524  0.8101 -0.8711 -0.0638
  491TMC3    H2 7359   0.437   1.608   0.164 -0.1327 -0.7439 -0.2913
  491TMC3    C7 7360   0.400   1.543  17.655 -0.1319  0.8149 -0.0064
  491TMC3    C8 7361   0.526   1.822   0.230  0.8010 -0.3563 -0.3196
  491TMC3    O1 7362   0.387   1.553  17.534  0.1751 -0.6374 -0.0634
  491TMC3    O2 7363   0.416   1.848   0.190 -0.2640 -0.4898  0.7336
  492MPD2     C 7364   0.819   2.027  11.579 -0.4737 -0.9602  0.0004
  492MPD2    C1 7365   0.714   1.946  11.553 -0.1977  0.0133  0.3168
  492MPD2    C2 7366   0.637   1.905  11.663  0.3763  0.2486 -0.3010
  492MPD2    C3 7367   0.671   1.932  11.795 -0.2313  0.2664 -0.6163
  492MPD2    C4 7368   0.786   2.004  11.820 -0.4769  0.4983  0.9005
  492MPD2    C5 7369   0.856   2.049  11.713  0.5973  0.5169 -0.1611
  492MPD2     H 7370   0.545   1.850  11.648 -0.4532  1.4905  0.2413
  492MPD2    H1 7371   0.829   2.009  11.919  0.0150  0.9278  0.6674
  492MPD2    H2 7372   0.873   2.086  11.505 -3.3621  0.4217 -1.0061
  492MPD2    H3 7373   0.942   2.112  11.732  0.8559  0.1338 -0.0623
  492MPD2     N 7374   0.603   1.877  11.909  0.1075  0.1019  0.6488
  492MPD2    H5 7375   0.647   1.887  12.000 -0.8050 -1.5379  1.2636
  492MPD2    N1 7376   0.670   1.937  11.423  0.3512  0.0033 -0.6493
  492MPD2    H7 7377   0.741   1.964  11.355 -0.1892  1.6559 -0.5465
  493TMC3    C1 7378   0.549   1.892  11.222  0.1079 -0.1955 -0.2813
  493TMC3    C2 7379   0.581   2.022  11.169 -0.7040  0.0319 -0.0464
  493TMC3    C3 7380   0.536   2.045  11.048  0.3693 -0.0010 -0.0113
  493TMC3    C4 7381   0.464   1.806  11.159  0.6383  0.2726 -0.3605
  493TMC3    C5 7382   0.415   1.844  11.039  0.0558  0.5351 -0.6591
  493TMC3    C6 7383   0.452   1.962  10.978  0.6457 -0.5049 -0.1177
  493TMC3     C 7384   0.556   1.880  11.370  0.3475  0.2375 -0.6989
  493TMC3     O 7385   0.462   1.835  11.431 -0.2246 -0.0774 -0.5442
  493TMC3     H 7386   0.633   2.096  11.229 -0.4343 -1.4704  1.5689
  493TMC3    H1 7387   0.422   1.720  11.210  1.4967 -0.4118 -0.7968
  493TMC3    H2 7388   0.416   1.985  10.878 -0.1154 -2.4782 -0.2934
  493TMC3    C7 7389   0.333   1.762  10.961 -0.2135 -0.3367 -0.4794
  493TMC3    C8 7390   0.558   2.177  10.994 -0.2694  0.0274 -0.1198
  493TMC3    O1 7391   0.309   1.798  10.845 -0.2871 -0.2580  0.3156
  493TMC3    O2 7392   0.659   2.238  11.035 -0.3647 -0.0841  0.0946
  494TMC3    C1 7393   1.419   4.062   0.415 -0.0548  0.1932 -0.3061
  494TMC3    C2 7394   1.339   3.951   0.443 -0.4143  0.8619 -0.3568
  494TMC3    C3 7395   1.314   3.850   0.353  0.0752  0.7100  0.2906
  494TMC3    C4 7396   1.472   4.071   0.288  0.4286  0.5200  0.0501
  494TMC3    C5 7397   1.429   3.980   0.194  0.0796  0.2988 -0.1513
  494TMC3    C6 7398   1.351   3.871   0.221  0.5945  0.8891  1.0094
  494TMC3     C 7399   1.510   4.080   0.522 -0.0843  0.3227 -0.4210
  494TMC3     O 7400   1.558   4.192   0.531 -0.6509 -0.0998 -0.0274
  494TMC3     H 7401   1.291   3.942   0.540 -0.0646 -1.1517 -0.3864
  494TMC3    H1 7402   1.535   4.157   0.267  0.5526  0.1615 -1.0519
  494TMC3    H2 7403   1.327   3.794   0.148 -2.0672  1.8740  0.8389
  494TMC3    C7 7404   1.453   4.005   0.048 -0.6979 -0.2505  0.2001
  494TMC3    C8 7405   1.372   3.729   0.401 -0.0952 -0.1737  0.5561
  494TMC3    O1 7406   1.370   3.950  17.719 -0.5554 -0.0950  0.4519
  494TMC3    O2 7407   1.479   3.740   0.455 -0.4155  0.4218 -0.3832
  495TMC3    C1 7408   0.201   1.214  13.976  0.6128  0.1355 -0.0364
  495TMC3    C2 7409   0.146   1.320  13.910 -0.8744 -0.3224 -0.3947
  495TMC3    C3 7410   0.129   1.440  13.972 -0.3550  0.1994  0.1915
  495TMC3    C4 7411   0.238   1.232  14.104 -0.2166  0.1321  0.1149
  495TMC3    C5 7412   0.218   1.351  14.167  1.0733  0.4663  0.1959
  495TMC3    C6 7413   0.167   1.461  14.100 -0.8415  0.8131  0.8273
  495TMC3     C 7414   0.156   1.082  13.953  0.0034 -0.4106 -0.4311
  495TMC3     O 7415   0.135   1.010  14.052  0.4930  0.0066  0.0840
  495TMC3     H 7416   0.101   1.302  13.813 -0.8704 -1.1992 -0.2383
  495TMC3    H1 7417   0.293   1.156  14.158 -1.5069 -1.6914 -1.1228
  495TMC3    H2 7418   0.130   1.547  14.155  1.2072  1.4482  1.2334
  495TMC3    C7 7419   0.262   1.358  14.307 -0.3907  0.0907 -0.2494
  495TMC3    C8 7420   0.020   1.512  13.922 -0.5914  0.6593  0.7461
  495TMC3    O1 7421   0.277   1.247  14.359  0.5863  0.4550 -0.2970
  495TMC3    O2 7422   4.666   1.530  14.000 -0.2881 -0.2824  0.1303
  496MPD2     C 7423   2.572   1.468  15.587  0.3835  0.2956  0.0270
  496MPD2    C1 7424   2.493   1.444  15.467  0.3447 -0.4517  0.2254
  496MPD2    C2 7425   2.356   1.435  15.479 -0.3669  0.1856 -0.5058
  496MPD2    C3 7426   2.300   1.466  15.605 -0.7697  0.0854 -0.5238
  496MPD2    C4 7427   2.375   1.515  15.708 -0.3925  0.0167 -0.6500
  496MPD2    C5 7428   2.508   1.508  15.705 -0.3080  0.9749 -0.0788
  496MPD2     H 7429   2.301   1.400  15.392 -2.4325  1.2904  0.3566
  496MPD2    H1 7430   2.331   1.537  15.804 -0.5453  0.3774 -0.8004
  496MPD2    H2 7431   2.679   1.453  15.595  0.3471  0.2054  0.3733
  496MPD2    H3 7432   2.564   1.535  15.793 -1.6138 -0.3566  1.1596
  496MPD2     N 7433   2.169   1.428  15.645 -0.2806 -0.1803  0.4530
  496MPD2    H5 7434   2.146   1.440  15.743 -1.9324  0.1387  0.0246
  496MPD2    N1 7435   2.563   1.410  15.352  0.0279  0.3102 -0.4073
  496MPD2    H7 7436   2.662   1.390  15.356 -0.0945 -0.1145  0.5856
  497TMC3    C1 7437   1.963   1.311  15.634  0.3752 -0.3010  0.1044
  497TMC3    C2 7438   1.889   1.224  15.559 -0.3378  0.1378 -0.3452
  497TMC3    C3 7439   1.825   1.119  15.619 -0.2671 -0.2100 -0.2918
  497TMC3    C4 7440   1.958   1.300  15.774 -0.1884 -0.1905 -0.0149
  497TMC3    C5 7441   1.894   1.195  15.829 -0.3878 -0.5326 -0.5392
  497TMC3    C6 7442   1.824   1.108  15.757 -0.8673  0.2489 -0.2637
  497TMC3     C 7443   2.075   1.364  15.563  0.6158 -0.0195 -0.0208
  497TMC3     O 7444   2.083   1.346  15.446 -0.2904 -0.6918 -0.7993
  497TMC3     H 7445   1.886   1.245  15.452  0.0441 -0.4120 -0.4642
  497TMC3    H1 7446   2.020   1.365  15.834  0.5598 -0.3199 -0.6501
  497TMC3    H2 7447   1.786   1.020  15.808 -1.1725  0.1371 -0.6805
  497TMC3    C7 7448   1.883   1.184  15.973 -0.3695 -0.3682  0.6071
  497TMC3    C8 7449   1.724   1.050  15.552  0.3004 -0.1529  0.1092
  497TMC3    O1 7450   1.804   1.099  16.011  0.1441 -0.2403  0.3989
  497TMC3    O2 7451   1.643   0.989  15.621 -0.6843 -0.0609  0.0292
  498MPD2     C 7452   3.108   2.770   9.173 -0.3070  0.6550  0.7041
  498MPD2    C1 7453   3.056   2.849   9.272  0.5114  0.2061 -0.6739
  498MPD2    C2 7454   2.923   2.870   9.281 -0.8501  0.0440  0.4441
  498MPD2    C3 7455   2.832   2.792   9.212  0.4264  0.9501 -0.0585
  498MPD2    C4 7456   2.879   2.721   9.105  0.2792 -0.0273 -0.0405
  498MPD2    C5 7457   3.019   2.724   9.083 -0.0769 -0.2015  0.1803
  498MPD2     H 7458   2.880   2.921   9.366  2.2120 -1.0189  2.6078
  498MPD2    H1 7459   2.817   2.664   9.037  0.0987  0.9029 -0.6667
  498MPD2    H2 7460   3.212   2.741   9.161 -0.3732  0.4217  0.6837
  498MPD2    H3 7461   3.069   2.668   9.005  0.9542  1.9976 -0.7303
  498MPD2     N 7462   2.698   2.780   9.256 -0.5192  0.1904 -0.2815
  498MPD2    H5 7463   2.675   2.817   9.347 -2.1150 -2.8202  0.5562
  498MPD2    N1 7464   3.138   2.901   9.375 -0.1180  0.6398 -0.5850
  498MPD2    H7 7465   3.095   2.963   9.443  0.8565 -0.5649  1.1150
  499TMC3    C1 7466   3.341   2.936   9.479  0.4194 -0.6229  0.5981
  499TMC3    C2 7467   3.444   2.874   9.536 -0.0918 -0.7347 -0.0571
  499TMC3    C3 7468   3.567   2.937   9.522 -0.1214 -0.5510  0.2136
  499TMC3    C4 7469   3.351   3.059   9.424 -0.0824 -0.3796 -0.6712
  499TMC3    C5 7470   3.477   3.123   9.429  0.3975  0.8481 -0.0830
  499TMC3    C6 7471   3.588   3.067   9.484 -0.0690 -0.0798  0.1115
  499TMC3     C 7472   3.265   2.853   9.398 -0.4452  0.3384 -0.1228
  499TMC3     O 7473   3.317   2.747   9.372 -0.2269  0.5244 -0.4827
  499TMC3     H 7474   3.434   2.767   9.553  1.7384 -0.8697  0.1511
  499TMC3    H1 7475   3.271   3.096   9.360 -2.6456  1.2836  3.5043
  499TMC3    H2 7476   3.684   3.118   9.487  0.3976 -0.9884  0.3304
  499TMC3    C7 7477   3.492   3.259   9.397  0.1090 -0.0096 -0.3250
  499TMC3    C8 7478   3.675   2.848   9.565  0.7119 -0.6412  0.1894
  499TMC3    O1 7479   3.602   3.304   9.379 -0.3108 -0.2782 -0.2540
  499TMC3    O2 7480   3.648   2.736   9.601  0.2844 -0.3485 -0.2876
  500MPD2     C 7481   4.658   3.082  10.336  0.1929  0.2051 -0.1769
  500MPD2    C1 7482   4.687   3.136  10.214  0.1549 -0.1322 -0.1237
  500MPD2    C2 7483   4.580   3.208  10.154  0.5418  0.1572  0.3480
  500MPD2    C3 7484   4.455   3.224  10.202 -0.0566  0.8045 -0.3165
  500MPD2    C4 7485   4.429   3.151  10.315  0.1397  0.2438 -0.0798
  500MPD2    C5 7486   4.530   3.087  10.381  0.0150 -0.1210  0.1494
  500MPD2     H 7487   4.607   3.256  10.061  2.2383 -1.4653  0.0153
  500MPD2    H1 7488   4.332   3.151  10.361  0.2833 -0.9481  0.2207
  500MPD2    H2 7489   4.733   3.031  10.396  0.7324  0.6722 -0.4610
  500MPD2    H3 7490   4.501   3.041  10.475 -3.1892  1.2660 -0.1362
  500MPD2     N 7491   4.362   3.304  10.137 -0.1146 -0.2201 -0.0764
  500MPD2    H5 7492   4.270   3.307  10.178 -0.4820  1.3383 -0.9936
  500MPD2    N1 7493   0.080   3.140  10.155 -0.2886 -0.4211  0.2083
  500MPD2    H7 7494   0.092   3.187  10.066  1.3494 -1.1654  0.0204
  501TMC3    C1 7495   0.313   3.141  10.167  0.8325 -0.6738 -0.6595
  501TMC3    C2 7496   0.315   3.270  10.116 -0.3018 -0.1938  0.1577
  501TMC3    C3 7497   0.428   3.346  10.118  0.2906 -0.1242 -0.3136
  501TMC3    C4 7498   0.427   3.096  10.231 -0.2217  0.8765  0.2262
  501TMC3    C5 7499   0.535   3.181  10.242 -0.3348  0.1864  0.3440
  501TMC3    C6 7500   0.537   3.303  10.183 -0.6382 -0.0209 -0.0740
  501TMC3     C 7501   0.191   3.078  10.213  0.2240 -0.1706 -0.5148
  501TMC3     O 7502   0.199   3.005  10.309  0.0140  0.0284  0.0805
  501TMC3     H 7503   0.226   3.311  10.070 -0.4523 -0.1036  0.5297
  501TMC3    H1 7504   0.431   2.995  10.271  0.6953  2.0361  3.0786
  501TMC3    H2 7505   0.621   3.371  10.193  1.3270 -2.9145  3.1727
  501TMC3    C7 7506   0.607   3.157  10.366  0.3827  0.8512  0.4208
  501TMC3    C8 7507   0.412   3.488  10.142  0.1043  0.5662 -0.0768
  501TMC3    O1 7508   0.593   3.051  10.422  0.1687 -0.4930 -0.2236
  501TMC3    O2 7509   0.478   3.532  10.237  0.0993  0.9194 -0.5607
  502TMC3    C1 7510   4.599   1.988  15.271 -0.2139 -0.1067  0.2729
  502TMC3    C2 7511   4.638   2.071  15.164 -0.9468  0.1935 -0.3553
  502TMC3    C3 7512   4.541   2.084  15.067 -0.1927  0.1414  0.1362
  502TMC3    C4 7513   4.491   1.906  15.273 -0.0253 -0.1168  0.2375
  502TMC3    C5 7514   4.403   1.917  15.169  0.4181  0.5696  0.3001
  502TMC3    C6 7515   4.427   2.012  15.072 -0.0328  0.5689 -0.5590
  502TMC3     C 7516   4.693   1.980  15.383  0.3330  0.1614 -0.4019
  502TMC3     O 7517   0.069   2.024  15.357 -0.2108  0.2578  0.4289
  502TMC3     H 7518   4.720   2.143  15.169  1.5863 -2.6224 -1.2043
  502TMC3    H1 7519   4.478   1.828  15.348  0.3875  0.9276  1.3877
  502TMC3    H2 7520   4.355   2.022  14.991 -1.1599 -1.8092  0.1697
  502TMC3    C7 7521   4.270   1.855  15.183 -0.0497  0.4281 -0.1680
  502TMC3    C8 7522   4.544   2.201  14.973 -0.4261  0.0949 -0.4658
  502TMC3    O1 7523   4.267   1.753  15.244 -0.1405  0.4000 -0.1242
  502TMC3    O2 7524   4.584   2.308  15.026  0.2732  0.3468  0.4521
  503MPD2     C 7525   1.610   2.674  16.564  0.3117 -0.4705  0.0960
  503MPD2    C1 7526   1.620   2.742  16.683 -0.7288  0.0993 -0.1538
  503MPD2    C2 7527   1.679   2.687  16.791  0.1404  0.2076  0.1975
  503MPD2    C3 7528   1.722   2.556  16.783  0.0960 -0.8033 -0.7145
  503MPD2    C4 7529   1.721   2.488  16.663  0.0052 -0.0072  0.6923
  503MPD2    C5 7530   1.668   2.549  16.554 -0.5197  0.3900 -0.5702
  503MPD2     H 7531   1.671   2.742  16.884  0.4672  0.0724  0.3070
  503MPD2    H1 7532   1.755   2.385  16.658  0.9297  0.3363 -0.0193
  503MPD2    H2 7533   1.571   2.725  16.478  0.6699  2.0330  1.4262
  503MPD2    H3 7534   1.662   2.488  16.465  0.4794 -0.5817  0.0297
  503MPD2     N 7535   1.799   2.509  16.891 -0.4712 -0.2394  0.9424
  503MPD2    H5 7536   1.817   2.563  16.976  0.5883 -1.3124  1.4048
  503MPD2    N1 7537   1.573   2.873  16.708 -0.6689 -0.1295  0.6084
  503MPD2    H7 7538   1.575   2.903  16.805  0.5996 -0.3208  0.6501
  504TMC3    C1 7539   1.972   2.393  17.008 -0.0790  0.3788  0.3402
  504TMC3    C2 7540   1.913   2.443  17.124  0.0056 -0.2610 -0.6197
  504TMC3    C3 7541   1.985   2.436  17.243 -0.3105  0.2770  0.4908
  504TMC3    C4 7542   2.103   2.352  16.996  1.3245 -0.2091 -0.1450
  504TMC3    C5 7543   2.171   2.366  17.113 -0.3927  0.0435  0.0096
  504TMC3    C6 7544   2.114   2.399  17.236 -0.1147  0.3763 -0.0676
  504TMC3     C 7545   1.895   2.409  16.886  0.5261 -0.5390  0.6894
  504TMC3     O 7546   1.950   2.347  16.793  0.1825 -0.4819 -0.0178
  504TMC3     H 7547   1.809   2.470  17.132 -0.8075 -3.7183  0.2543
  504TMC3    H1 7548   2.144   2.307  16.907 -0.8826 -2.2585 -0.1275
  504TMC3    H2 7549   2.176   2.401  17.325 -0.3342  0.3698  0.0881
  504TMC3    C7 7550   2.304   2.306  17.108  0.1607  0.2787 -0.1715
  504TMC3    C8 7551   1.937   2.501  17.363  0.3785  0.3943  0.4946
  504TMC3    O1 7552   2.336   2.254  17.003 -0.0627  0.8010  0.0327
  504TMC3    O2 7553   1.842   2.575  17.346 -0.3328  0.3660  0.8225
  505MPD2     C 7554   1.700   1.821  10.279  0.4246 -0.0999  0.1367
  505MPD2    C1 7555   1.751   1.895  10.175  0.2433  0.0859  0.0836
  505MPD2    C2 7556   1.805   2.019  10.208 -0.0000 -0.6975  0.1119
  505MPD2    C3 7557   1.828   2.062  10.340  0.5267  0.1297 -0.5548
  505MPD2    C4 7558   1.775   1.977  10.440 -0.2223 -0.2633  0.4079
  505MPD2    C5 7559   1.719   1.857  10.413  0.0144  0.0644  0.3183
  505MPD2     H 7560   1.844   2.087  10.133  1.1536 -1.9329 -0.4032
  505MPD2    H1 7561   1.802   1.997  10.543  2.3461 -0.9465 -0.1346
  505MPD2    H2 7562   1.642   1.731  10.263 -1.2275  1.4829 -2.7508
  505MPD2    H3 7563   1.691   1.794  10.497  3.7169 -0.2752  1.3193
  505MPD2     N 7564   1.899   2.174  10.386  0.2529 -0.0738 -0.1064
  505MPD2    H5 7565   1.905   2.189  10.486  0.6369  0.4412 -0.2078
  505MPD2    N1 7566   1.739   1.850  10.040 -0.3275  0.3320 -0.1167
  505MPD2    H7 7567   1.707   1.755  10.028  1.6991 -0.4724  0.7507
  506TMC3    C1 7568   1.799   1.822   9.827  0.1946 -0.0698 -0.0643
  506TMC3    C2 7569   1.781   1.871   9.701 -0.1604 -0.2962 -0.3481
  506TMC3    C3 7570   1.873   1.847   9.610  1.0699  0.9953  0.2310
  506TMC3    C4 7571   1.908   1.745   9.856  0.5175 -0.9267 -0.2051
  506TMC3    C5 7572   2.004   1.730   9.755 -0.2355 -0.9601  0.2948
  506TMC3    C6 7573   1.987   1.769   9.629 -0.7722 -0.0567 -0.3167
  506TMC3     C 7574   1.770   1.921   9.925  0.1045 -0.0748 -0.2077
  506TMC3     O 7575   1.784   2.044   9.910  0.2033 -0.2684 -0.0693
  506TMC3     H 7576   1.698   1.939   9.686 -0.3882 -0.6509 -0.7142
  506TMC3    H1 7577   1.920   1.687   9.947 -0.0495 -2.2113 -0.9405
  506TMC3    H2 7578   2.057   1.750   9.548 -0.9698 -0.0471 -0.4900
  506TMC3    C7 7579   2.143   1.719   9.788 -0.4140 -0.1410 -0.0006
  506TMC3    C8 7580   1.850   1.904   9.483 -0.5437  0.2525 -0.4970
  506TMC3    O1 7581   2.219   1.675   9.705  0.3375  0.1923 -0.4053
  506TMC3    O2 7582   1.736   1.909   9.444  0.7540  0.1430  0.4844
  507TMC3    C1 7583   3.319   2.998  14.679  0.4093  0.2121  0.9524
  507TMC3    C2 7584   3.247   2.898  14.619  0.0090  0.3509 -0.2574
  507TMC3    C3 7585   3.221   2.919  14.488  0.3261  0.4756 -0.6382
  507TMC3    C4 7586   3.360   3.112  14.612 -0.4594 -0.2403  0.4244
  507TMC3    C5 7587   3.335   3.132  14.480  0.3209 -0.2666 -0.0825
  507TMC3    C6 7588   3.269   3.028  14.418 -0.0480 -1.1369  0.5621
  507TMC3     C 7589   3.377   2.976  14.809  1.1442 -0.0581 -0.0420
  507TMC3     O 7590   3.443   3.068  14.856 -0.1154  0.0150 -0.0629
  507TMC3     H 7591   3.233   2.805  14.672  1.1019  0.8817  0.9609
  507TMC3    H1 7592   3.412   3.188  14.669 -0.4812 -0.9900  1.4427
  507TMC3    H2 7593   3.244   3.033  14.312 -0.8734  0.9934  0.8621
  507TMC3    C7 7594   3.291   3.264  14.446 -0.7646  0.1175 -0.8551
  507TMC3    C8 7595   3.083   2.901  14.449 -0.4098  0.4301 -0.3368
  507TMC3    O1 7596   3.245   3.329  14.538 -0.4963 -0.3108 -0.0285
  507TMC3    O2 7597   3.040   2.964  14.354  0.4087  0.8589 -0.2113
  508MPD2     C 7598   3.485   0.099  16.115  0.1233  0.2851 -0.0690
  508MPD2    C1 7599   3.595   0.172  16.076 -0.4268  0.9553  0.5486
  508MPD2    C2 7600   3.617   0.183  15.941 -0.5372  1.4487  0.7859
  508MPD2    C3 7601   3.542   0.121  15.846  0.1515  0.8218 -0.7431
  508MPD2    C4 7602   3.441   0.038  15.887 -0.1730  0.5765 -0.1301
  508MPD2    C5 7603   3.412   0.036  16.023 -0.1360  0.0697 -0.0634
  508MPD2     H 7604   3.694   0.248  15.902  0.8496 -1.4449 -1.2773
  508MPD2    H1 7605   3.379   4.709  15.827  0.8568  1.5066 -2.2116
  508MPD2    H2 7606   3.456   0.090  16.219  1.9124  3.6658  0.7262
  508MPD2    H3 7607   3.341   4.699  16.057  2.7011 -2.5550  0.2103
  508MPD2     N 7608   3.560   0.154  15.710  0.3379  0.1812 -0.3634
  508MPD2    H5 7609   3.622   0.231  15.688 -0.0418  0.4059 -0.6417
  508MPD2    N1 7610   3.668   0.245  16.175  0.1705 -0.8162 -0.4124
  508MPD2    H7 7611   3.635   0.228  16.270 -2.9712  1.9052 -1.0052
  509TMC3    C1 7612   3.439   0.339  15.350 -0.4728 -0.0166 -0.7671
  509TMC3    C2 7613   3.557   0.406  15.335 -0.3211  0.0342 -0.8902
  509TMC3    C3 7614   3.668   0.357  15.406 -0.1521  0.2280 -0.6297
  509TMC3    C4 7615   3.419   0.229  15.427  0.6803  0.0001  0.2189
  509TMC3    C5 7616   3.533   0.182  15.492 -0.3959 -0.5502 -0.5081
  509TMC3    C6 7617   3.657   0.241  15.474  0.1707  0.6276 -0.6990
  509TMC3     C 7618   3.314   0.391  15.309 -0.2662 -0.1414 -0.4423
  509TMC3     O 7619   3.222   0.307  15.306  0.3453  0.0618  1.1154
  509TMC3     H 7620   3.576   0.495  15.277 -1.7143  1.0886  0.3002
  509TMC3    H1 7621   3.329   0.170  15.441  0.8763 -0.7030 -1.4983
  509TMC3    H2 7622   3.743   0.205  15.531  0.5929 -0.4794 -2.0478
  509TMC3    C7 7623   3.505   0.098  15.604  0.2943  0.0688  0.0770
  509TMC3    C8 7624   3.803   0.414  15.387 -0.5211 -0.1385  0.3861
  509TMC3    O1 7625   3.409   0.022  15.596  0.8418 -0.1171 -0.2249
  509TMC3    O2 7626   3.894   0.337  15.398 -0.1893 -0.0475 -0.5949
  510MPD2     C 7627   1.345   1.725  14.625  0.6201  0.1676 -0.4939
  510MPD2    C1 7628   1.422   1.615  14.614 -0.0129 -0.0120 -0.9202
  510MPD2    C2 7629   1.527   1.603  14.521 -0.6744 -0.5491 -0.0164
  510MPD2    C3 7630   1.542   1.703  14.427  0.4649 -0.0058 -0.4623
  510MPD2    C4 7631   1.452   1.810  14.426  0.3261  0.6190  0.6285
  510MPD2    C5 7632   1.354   1.817  14.524 -0.6356 -0.0751 -0.0423
  510MPD2     H 7633   1.595   1.519  14.516  0.4940  0.3918  0.1838
  510MPD2    H1 7634   1.460   1.891  14.354 -1.3753  0.7985  0.6515
  510MPD2    H2 7635   1.259   1.736  14.690  0.7490 -0.4600 -0.2195
  510MPD2    H3 7636   1.281   1.898  14.528 -0.6151  0.0705 -2.3637
  510MPD2     N 7637   1.642   1.696  14.332 -0.5299 -0.1531 -0.1236
  510MPD2    H5 7638   1.706   1.617  14.340 -0.7263 -0.0691  2.2333
  510MPD2    N1 7639   1.382   1.518  14.701  0.2465 -0.4144 -0.0086
  510MPD2    H7 7640   1.304   1.552  14.755 -0.2811  0.8634 -1.5965
  511TMC3    C1 7641   1.361   1.291  14.788  0.3151 -0.1193  0.6539
  511TMC3    C2 7642   1.320   1.336  14.903  0.0217 -0.4893 -0.0146
  511TMC3    C3 7643   1.239   1.250  14.980  0.8130 -0.4804 -0.2806
  511TMC3    C4 7644   1.350   1.158  14.750  0.1186  0.4579 -0.5194
  511TMC3    C5 7645   1.279   1.072  14.832  0.4516  0.1936  1.0136
  511TMC3    C6 7646   1.212   1.120  14.943  0.2179  0.0688 -0.3456
  511TMC3     C 7647   1.413   1.383  14.698 -0.2970 -0.0942 -0.3050
  511TMC3     O 7648   1.468   1.325  14.603 -0.0680 -1.2876  0.1874
  511TMC3     H 7649   1.309   1.443  14.922 -1.2682 -1.0162  2.2688
  511TMC3    H1 7650   1.382   1.130  14.650 -0.3324 -1.8113 -0.0244
  511TMC3    H2 7651   1.157   1.052  15.006  0.5120  0.3212  0.1812
  511TMC3    C7 7652   1.263   0.937  14.786 -0.4666  0.2856 -0.4617
  511TMC3    C8 7653   1.146   1.320  15.068 -0.1400  0.5294 -0.1340
  511TMC3    O1 7654   1.327   0.903  14.689  0.0161  0.0189 -0.4805
  511TMC3    O2 7655   1.166   1.436  15.102  0.4717  0.0044 -0.3313
  512TMC3    C1 7656   0.888   0.861  13.485  0.1777 -0.6575  0.3634
  512TMC3    C2 7657   0.936   0.926  13.596  0.3322  0.4599 -0.1355
  512TMC3    C3 7658   0.946   0.860  13.711 -0.0069  0.5385  0.5299
  512TMC3    C4 7659   0.833   0.737  13.487  0.7137  0.1745 -0.2583
  512TMC3    C5 7660   0.858   0.674  13.608  0.6342 -0.0548  0.3691
  512TMC3    C6 7661   0.907   0.730  13.723 -0.0035 -0.0766 -0.0646
  512TMC3     C 7662   0.893   0.947  13.369 -0.1097 -1.0048  1.2090
  512TMC3     O 7663   0.996   1.007  13.346  0.4166 -0.4659 -0.1663
  512TMC3     H 7664   1.001   1.011  13.579  1.5792 -0.6989 -1.1983
  512TMC3    H1 7665   0.780   0.684  13.408  1.0407 -1.1028  0.3709
  512TMC3    H2 7666   0.900   0.694  13.825  1.5619 -0.6634 -0.1607
  512TMC3    C7 7667   0.803   0.540  13.621  0.5234  0.3318  0.1153
  512TMC3    C8 7668   0.987   0.935  13.827  0.8344 -0.4870 -0.4082
  512TMC3    O1 7669   0.696   0.517  13.565  0.1521 -0.2763 -0.0268
  512TMC3    O2 7670   1.015   0.872  13.929  0.0058 -0.3305  0.2488
  513MPD2     C 7671   2.210   0.911  12.542  0.6065 -0.2759 -0.4808
  513MPD2    C1 7672   2.264   0.778  12.554 -0.6892 -0.1245  0.0766
  513MPD2    C2 7673   2.329   0.750  12.676  0.7105 -0.1341 -0.6132
  513MPD2    C3 7674   2.359   0.853  12.764 -0.0320  0.1078 -0.5844
  513MPD2    C4 7675   2.312   0.983  12.749 -0.1028 -0.7025  0.2893
  513MPD2    C5 7676   2.234   1.009  12.645 -0.2253  0.7796  0.0187
  513MPD2     H 7677   2.355   0.647  12.697  0.2338 -0.6033 -2.2876
  513MPD2    H1 7678   2.331   1.052  12.830 -1.3552 -1.2071  1.0220
  513MPD2    H2 7679   2.167   0.942  12.448 -1.6132 -1.8205  0.0138
  513MPD2    H3 7680   2.192   1.107  12.624  0.8369  0.6462 -2.7274
  513MPD2     N 7681   2.447   0.812  12.867  0.7589  0.3048  0.3908
  513MPD2    H5 7682   2.466   0.712  12.872 -0.2430  0.2654  3.3670
  513MPD2    N1 7683   2.235   0.685  12.453 -0.0216 -0.1109  0.1306
  513MPD2    H7 7684   2.187   0.723  12.372  0.1481 -0.9757 -0.3764
  514TMC3    C1 7685   2.230   0.472  12.352  0.3033  0.0287 -0.9117
  514TMC3    C2 7686   2.284   0.522  12.235  0.0110  0.0861  0.1399
  514TMC3    C3 7687   2.339   0.433  12.148  0.4885 -0.9109 -0.3565
  514TMC3    C4 7688   2.265   0.343  12.387 -0.4919  0.1202 -0.0333
  514TMC3    C5 7689   2.336   0.263  12.302 -0.1038 -0.3683  0.6115
  514TMC3    C6 7690   2.365   0.301  12.175  0.5288  0.2811  0.1871
  514TMC3     C 7691   2.253   0.550  12.471 -0.7631  0.1115 -0.0106
  514TMC3     O 7692   2.325   0.488  12.547 -0.6193  0.5930  0.1838
  514TMC3     H 7693   2.263   0.624  12.206  0.3119  0.8038  2.4025
  514TMC3    H1 7694   2.231   0.300  12.481  0.7081  0.7078  0.6605
  514TMC3    H2 7695   2.434   0.242  12.116 -0.9703 -0.0759 -1.1787
  514TMC3    C7 7696   2.447   0.197  12.366  0.0331 -0.4235  0.2985
  514TMC3    C8 7697   2.318   0.480  12.008  0.2550 -0.7889 -0.0455
  514TMC3    O1 7698   2.508   0.107  12.314 -0.1471 -0.5798  0.1870
  514TMC3    O2 7699   2.344   0.604  11.994  0.2334 -0.2077 -0.2089
  515MPD2     C 7700   0.724   3.010  14.695 -0.2905 -0.2620 -0.3850
  515MPD2    C1 7701   0.680   2.900  14.765  0.4946 -0.0034  0.9683
  515MPD2    C2 7702   0.760   2.831  14.853  0.3763  0.1106  0.6231
  515MPD2    C3 7703   0.893   2.868  14.870  0.4829  0.0531 -0.5482
  515MPD2    C4 7704   0.924   2.991  14.818  0.0024 -0.3932  0.5071
  515MPD2    C5 7705   0.844   3.058  14.731  0.6941 -0.6961  0.9390
  515MPD2     H 7706   0.733   2.732  14.888 -1.8484  0.5792  0.2330
  515MPD2    H1 7707   1.020   3.036  14.842 -0.2373 -0.0237  0.7843
  515MPD2    H2 7708   0.675   3.064  14.615  2.1998  2.0878 -0.3236
  515MPD2    H3 7709   0.874   3.151  14.685 -2.3781  0.3343  1.0376
  515MPD2     N 7710   1.002   2.804  14.941  0.0848 -0.6457  0.2727
  515MPD2    H5 7711   1.088   2.857  14.934 -0.6776  0.5578 -0.0455
  515MPD2    N1 7712   0.549   2.841  14.748  0.5458 -0.3788 -0.3685
  515MPD2    H7 7713   0.530   2.761  14.806  1.4107 -0.7272 -0.5709
  516TMC3    C1 7714   0.338   2.816  14.664  1.0299 -0.2474  0.2225
  516TMC3    C2 7715   0.224   2.882  14.620  0.3560  0.3584  0.3064
  516TMC3    C3 7716   0.111   2.807  14.609 -0.8449  1.0333  0.3911
  516TMC3    C4 7717   0.347   2.679  14.655 -0.0409  0.0702 -0.0202
  516TMC3    C5 7718   0.235   2.610  14.618 -1.0156  0.1138  0.5253
  516TMC3    C6 7719   0.116   2.666  14.595  0.5061 -0.8481  0.2853
  516TMC3     C 7720   0.455   2.892  14.662 -0.0385 -0.7403 -0.1624
  516TMC3     O 7721   0.444   3.007  14.613 -0.5543 -0.2644  0.5149
  516TMC3     H 7722   0.214   2.990  14.624  0.9894  0.4307  0.0091
  516TMC3    H1 7723   0.438   2.629  14.686  1.0415  2.3023  0.4031
  516TMC3    H2 7724   0.024   2.609  14.595 -0.7551  1.1979  0.2294
  516TMC3    C7 7725   0.227   2.477  14.663 -0.8486 -0.0991  0.0550
  516TMC3    C8 7726   0.003   2.858  14.543 -0.2995  0.1265  0.7710
  516TMC3    O1 7727   0.308   2.444  14.754 -0.2152  0.4961  0.3327
  516TMC3    O2 7728   4.705   2.792  14.448 -0.3628  0.1720  0.2802
  517MPD2     C 7729   0.308   3.741   0.195  0.5349 -0.0599  0.3839
  517MPD2    C1 7730   0.310   3.814   0.076 -0.8936  0.5424 -0.5849
  517MPD2    C2 7731   0.303   3.947   0.075  0.4469  0.3001 -0.0135
  517MPD2    C3 7732   0.298   4.019   0.197 -0.2375  0.0546  0.0107
  517MPD2    C4 7733   0.313   3.954   0.315 -0.5277  0.8972  0.6345
  517MPD2    C5 7734   0.307   3.814   0.311  0.3711 -0.0831  0.4382
  517MPD2     H 7735   0.309   3.993  17.723  0.3924 -0.3681 -0.3304
  517MPD2    H1 7736   0.322   4.004   0.411 -4.8111 -0.8422  1.9289
  517MPD2    H2 7737   0.317   3.633   0.195  0.7124 -0.0468  0.9422
  517MPD2    H3 7738   0.296   3.758   0.403 -0.4064 -1.0403 -0.2434
  517MPD2     N 7739   0.291   4.160   0.198  0.1118 -0.5100 -0.4895
  517MPD2    H5 7740   0.315   4.201   0.288  0.5407 -0.9057 -0.4235
  517MPD2    N1 7741   0.315   3.750  17.696 -0.0763 -0.2037  0.0369
  517MPD2    H7 7742   0.274   3.806  17.622 -0.9162 -0.4513  0.3248
  518TMC3    C1 7743   0.331   3.569  17.537 -0.2740 -0.4740 -0.5401
  518TMC3    C2 7744   0.282   3.442  17.518 -0.6839  0.5995  0.7125
  518TMC3    C3 7745   0.250   3.412  17.391  0.4165 -0.2796  1.1131
  518TMC3    C4 7746   0.340   3.668  17.443 -0.0161 -0.0859  0.0958
  518TMC3    C5 7747   0.308   3.632  17.316  0.4218 -0.3127 -0.0400
  518TMC3    C6 7748   0.268   3.503  17.289  0.0760 -0.6735 -0.3435
  518TMC3     C 7749   0.330   3.612  17.675  0.4101 -0.5620  0.8325
  518TMC3     O 7750   0.316   3.520   0.008 -0.1361 -0.1194  0.1780
  518TMC3     H 7751   0.245   3.383  17.602  0.8303  0.9118  1.5930
  518TMC3    H1 7752   0.396   3.759  17.458 -0.9650  0.5608 -0.3285
  518TMC3    H2 7753   0.245   3.476  17.187 -3.6111  1.0901  0.0179
  518TMC3    C7 7754   0.416   3.669  17.230 -0.1466  0.8667 -0.7717
  518TMC3    C8 7755   0.286   3.276  17.346 -0.3276 -0.0731  0.4278
  518TMC3    O1 7756   0.460   3.785  17.229 -1.2058  0.0408 -0.5643
  518TMC3    O2 7757   0.291   3.248  17.226  0.1334  0.5739  0.3557
  519MPD2     C 7758   2.134   2.840  13.792  0.0949 -0.3836 -0.4402
  519MPD2    C1 7759   2.018   2.777  13.756 -0.6857  0.1960 -0.3296
  519MPD2    C2 7760   2.015   2.640  13.734 -0.4454 -0.6387 -0.2222
  519MPD2    C3 7761   2.133   2.563  13.757 -0.6482  0.9072  0.8060
  519MPD2    C4 7762   2.245   2.627  13.799  0.0661 -0.2520 -0.0478
  519MPD2    C5 7763   2.248   2.761  13.818 -0.3788 -0.1178  0.7028
  519MPD2     H 7764   1.924   2.594  13.698 -2.1511  0.3207  2.9592
  519MPD2    H1 7765   2.343   2.582  13.813 -0.2034 -0.3950  1.4093
  519MPD2    H2 7766   2.126   2.947  13.804 -2.4169 -0.6529  0.1889
  519MPD2    H3 7767   2.338   2.814  13.848  0.2521 -0.1793 -1.1121
  519MPD2     N 7768   2.158   2.424  13.715  0.2250  0.2480 -0.0852
  519MPD2    H5 7769   2.247   2.376  13.720 -1.6291 -3.0178  1.1643
  519MPD2    N1 7770   1.905   2.860  13.730  0.3794 -0.3303  0.3073
  519MPD2    H7 7771   1.923   2.960  13.734  0.1903 -0.2943  0.2762
  520TMC3    C1 7772   2.113   2.230  13.593 -0.2853  0.7631  0.5277
  520TMC3    C2 7773   2.017   2.156  13.533 -0.4770 -0.4859  0.8937
  520TMC3    C3 7774   2.058   2.050  13.449 -0.2082  0.1961  1.0013
  520TMC3    C4 7775   2.247   2.206  13.576  0.4906  0.2084  0.1623
  520TMC3    C5 7776   2.278   2.101  13.491 -0.4580  0.6247  0.3520
  520TMC3    C6 7777   2.188   2.029  13.424 -0.5402 -0.0322 -0.7858
  520TMC3     C 7778   2.058   2.351  13.648 -0.0442 -0.1601 -0.3101
  520TMC3     O 7779   1.938   2.376  13.634 -0.3685 -0.4553  0.7430
  520TMC3     H 7780   1.912   2.183  13.534 -0.2680  0.3495 -1.1589
  520TMC3    H1 7781   2.327   2.266  13.618  0.0290  0.2298  1.0310
  520TMC3    H2 7782   2.213   1.937  13.371 -1.0262  0.6421 -2.1939
  520TMC3    C7 7783   2.413   2.053  13.509 -0.2911  0.3534  0.1982
  520TMC3    C8 7784   1.966   1.967  13.366  0.2112  0.1563 -0.1470
  520TMC3    O1 7785   2.484   2.115  13.583 -0.1102 -0.9814  0.3034
  520TMC3    O2 7786   2.013   1.874  13.300 -0.1339 -0.1547  0.1454
  521MPD2     C 7787   2.291   0.595  17.203 -0.6725  0.4090 -0.0726
  521MPD2    C1 7788   2.293   0.472  17.145  0.2761  0.0098 -0.3019
  521MPD2    C2 7789   2.420   0.421  17.114 -0.1830  0.0229 -0.8923
  521MPD2    C3 7790   2.540   0.493  17.150  0.0955 -0.1780  0.4635
  521MPD2    C4 7791   2.527   0.614  17.216  0.1296  0.5671  0.1002
  521MPD2    C5 7792   2.401   0.663  17.238  0.5994 -0.1257 -0.1131
  521MPD2     H 7793   2.440   0.326  17.066 -0.9387 -1.1662  1.1814
  521MPD2    H1 7794   2.614   0.659  17.263  1.2207  1.6635 -2.9709
  521MPD2    H2 7795   2.196   0.644  17.218  0.1073  1.6949  0.6845
  521MPD2    H3 7796   2.391   0.751  17.301 -0.0120 -0.9304  0.9277
  521MPD2     N 7797   2.670   0.442  17.111 -0.0051  0.2498 -0.2605
  521MPD2    H5 7798   2.668   0.362  17.049 -1.3380  0.3418 -0.3411
  521MPD2    N1 7799   2.172   0.412  17.116  0.1879  0.7379  0.0300
  521MPD2    H7 7800   2.084   0.450  17.152 -0.1852 -0.2351  0.1458
  522TMC3    C1 7801   2.902   0.450  17.060 -0.3057  0.3918  0.2639
  522TMC3    C2 7802   3.024   0.459  17.110 -0.1611 -0.3075  0.0307
  522TMC3    C3 7803   3.129   0.424  17.030  0.7755 -0.4733 -0.0652
  522TMC3    C4 7804   2.876   0.414  16.932  0.3260  0.1193  0.0946
  522TMC3    C5 7805   2.980   0.404  16.847 -0.0568  0.1723  0.3553
  522TMC3    C6 7806   3.106   0.398  16.895 -0.7851  0.5335  0.0793
  522TMC3     C 7807   2.789   0.493  17.150  0.5597  0.0281  0.5494
  522TMC3     O 7808   2.816   0.571  17.240  1.0068  0.0860  0.9261
  522TMC3     H 7809   3.041   0.475  17.216  0.7901 -0.2631 -0.1298
  522TMC3    H1 7810   2.777   0.402  16.888  0.9901  1.8029 -1.8769
  522TMC3    H2 7811   3.192   0.375  16.833 -2.1287 -0.5861 -1.3773
  522TMC3    C7 7812   2.946   0.383  16.708 -0.1982  0.5104 -0.9540
  522TMC3    C8 7813   3.264   0.467  17.076  0.2072  0.7284 -0.5303
  522TMC3    O1 7814   3.014   0.298  16.652  0.3902 -0.0981  0.1145
  522TMC3    O2 7815   3.284   0.471  17.195 -0.1156 -0.0939  0.4818
  523MPD2     C 7816   4.658   4.704  10.265 -0.0662  0.4470  0.4432
  523MPD2    C1 7817   4.722   0.004  10.148 -0.6674 -0.3548  0.1289
  523MPD2    C2 7818   4.680   0.114  10.081 -0.2429 -0.9105 -0.3095
  523MPD2    C3 7819   4.579   0.192  10.130 -0.4547 -0.1103 -0.1950
  523MPD2    C4 7820   4.523   0.158  10.249 -0.2499 -0.3745 -0.1382
  523MPD2    C5 7821   4.556   0.048  10.317  0.4849 -0.4986 -0.6387
  523MPD2     H 7822   4.734   0.150   9.994 -1.9358  0.5686 -0.7586
  523MPD2    H1 7823   4.441   0.215  10.289  1.0915  1.2105  0.3483
  523MPD2    H2 7824   4.691   4.613  10.314  2.1628  0.0861 -1.7248
  523MPD2    H3 7825   4.512   0.025  10.413 -0.6580 -0.2309 -1.0913
  523MPD2     N 7826   4.540   0.309  10.057 -0.4334 -0.0397 -0.1387
  523MPD2    H5 7827   4.487   0.387  10.094 -1.0219  0.4680 -2.0476
  523MPD2    N1 7828   0.089   4.653  10.099  0.4935  0.5662 -0.9942
  523MPD2    H7 7829   0.135   4.582  10.155  0.4193  1.4474  0.1851
  524TMC3    C1 7830   4.538   0.459   9.884 -0.2877 -0.4422 -0.3879
  524TMC3    C2 7831   4.541   0.484   9.745 -0.0567  0.2803  0.4091
  524TMC3    C3 7832   4.589   0.609   9.707 -0.1672  0.2655  0.0345
  524TMC3    C4 7833   4.587   0.552   9.972  1.1272 -0.2268  0.6005
  524TMC3    C5 7834   4.619   0.676   9.927  0.3789  0.8927  0.9134
  524TMC3    C6 7835   4.634   0.709   9.794 -0.2144 -0.2109  0.0464
  524TMC3     C 7836   4.556   0.318   9.923 -0.0234  0.1788  0.0818
  524TMC3     O 7837   4.586   0.246   9.829 -0.1192 -0.3607 -0.4045
  524TMC3     H 7838   4.476   0.428   9.679 -0.0081 -0.2432  0.8056
  524TMC3    H1 7839   4.599   0.540  10.079 -0.2233  0.8188  0.8725
  524TMC3    H2 7840   4.674   0.803   9.757  3.0358 -1.5689  0.1202
  524TMC3    C7 7841   4.699   0.754  10.022 -0.2131 -0.0553 -0.1364
  524TMC3    C8 7842   4.580   0.642   9.563  0.1434  0.0501  0.0321
  524TMC3    O1 7843   0.017   0.701  10.118  0.1174 -0.3934  0.7376
  524TMC3    O2 7844   4.584   0.764   9.531  0.1356  0.1719  0.2358
  525MPD2     C 7845   3.226   1.941  14.149 -0.5712  0.3477 -0.1418
  525MPD2    C1 7846   3.341   1.985  14.218  0.2120  0.9738 -0.0232
  525MPD2    C2 7847   3.404   2.102  14.177 -0.3870 -0.0209 -0.3059
  525MPD2    C3 7848   3.350   2.161  14.062  0.1106 -0.1443  1.0263
  525MPD2    C4 7849   3.242   2.112  13.988 -0.2249  0.1199 -0.2806
  525MPD2    C5 7850   3.185   1.993  14.033 -1.1953 -0.5782  0.0275
  525MPD2     H 7851   3.476   2.149  14.244 -0.8331  0.1509  0.0525
  525MPD2    H1 7852   3.204   2.163  13.899 -1.8078  0.9805  0.8713
  525MPD2    H2 7853   3.187   1.848  14.187 -1.6734 -0.4465 -3.2429
  525MPD2    H3 7854   3.103   1.942  13.982 -2.3522  0.9674  0.3617
  525MPD2     N 7855   3.406   2.283  14.009  0.4031  0.1837  0.3262
  525MPD2    H5 7856   3.348   2.331  13.941  1.4311 -1.6300 -1.8178
  525MPD2    N1 7857   3.384   1.922  14.341 -0.2331  0.0134  0.1907
  525MPD2    H7 7858   3.476   1.944  14.378  0.2994 -1.5739 -0.2221
  526TMC3    C1 7859   3.355   1.762  14.529  0.6411  0.1978  0.1946
  526TMC3    C2 7860   3.274   1.748  14.643  0.4062 -0.7874 -0.2927
  526TMC3    C3 7861   3.334   1.705  14.752 -0.4940 -0.1136  0.1057
  526TMC3    C4 7862   3.492   1.736  14.533  0.1270  0.2233 -0.0179
  526TMC3    C5 7863   3.546   1.695  14.658  1.1298  0.7726  0.3384
  526TMC3    C6 7864   3.462   1.677  14.766  0.8705 -0.5618  0.2640
  526TMC3     C 7865   3.299   1.837  14.416 -0.0079  0.0372 -0.1171
  526TMC3     O 7866   3.182   1.810  14.399 -0.8657 -0.2157 -0.0514
  526TMC3     H 7867   3.166   1.759  14.639  0.2862 -0.4706  3.8999
  526TMC3    H1 7868   3.554   1.754  14.446  2.8673 -0.6125  1.7904
  526TMC3    H2 7869   3.501   1.645  14.862  0.6302  0.6247  0.7602
  526TMC3    C7 7870   3.660   1.609  14.656  0.1295 -1.0233  0.5187
  526TMC3    C8 7871   3.274   1.737  14.884  0.3031  0.1258  1.2007
  526TMC3    O1 7872   3.716   1.586  14.760  0.2965 -0.2768 -0.2333
  526TMC3    O2 7873   3.323   1.685  14.985  0.2009  0.9535 -0.7443
  527MPD2     C 7874   1.767   0.016   1.000 -0.7049 -0.2344 -0.6267
  527MPD2    C1 7875   1.728   4.627   0.959  0.5332 -0.0128  0.2283
  527MPD2    C2 7876   1.826   4.546   0.908  0.0931  0.2103 -0.3194
  527MPD2    C3 7877   1.958   4.578   0.899 -0.3111 -0.1508  0.5039
  527MPD2    C4 7878   1.998   4.704   0.941  0.3194  0.0772  0.0864
  527MPD2    C5 7879   1.898   0.053   0.991  0.9847 -0.1890 -0.2233
  527MPD2     H 7880   1.800   4.447   0.872  0.5258  0.2294 -0.6893
  527MPD2    H1 7881   2.099   0.005   0.954  0.2272  0.3873 -0.1016
  527MPD2    H2 7882   1.700   0.082   1.053 -2.8228 -0.9827 -2.3681
  527MPD2    H3 7883   1.926   0.145   1.039 -0.0423  0.3169 -0.5940
  527MPD2     N 7884   2.050   4.478   0.852  0.1896  0.3851  0.2897
  527MPD2    H5 7885   2.006   4.390   0.825 -0.2492  0.1563  1.7478
  527MPD2    N1 7886   1.592   4.582   0.947  0.5259  0.1121 -0.4970
  527MPD2    H7 7887   1.578   4.492   0.904 -2.6135  0.3959 -0.0922
  528TMC3    C1 7888   1.361   4.593   0.932 -0.0801 -0.8203  0.0133
  528TMC3    C2 7889   1.360   4.512   0.821  0.3605  0.0843  0.1044
  528TMC3    C3 7890   1.242   4.453   0.785 -0.2057 -0.0053 -0.2240
  528TMC3    C4 7891   1.249   4.613   1.008 -0.7832 -0.2440 -0.0791
  528TMC3    C5 7892   1.134   4.552   0.968 -0.1901  0.3674  0.1883
  528TMC3    C6 7893   1.121   4.485   0.845 -0.1286 -0.8707  0.3545
  528TMC3     C 7894   1.481   4.659   0.980  0.4872 -0.1185 -0.5927
  528TMC3     O 7895   1.477   0.015   1.059 -0.5776 -0.4706  0.0461
  528TMC3     H 7896   1.441   4.482   0.757  1.3148  0.3722  1.1830
  528TMC3    H1 7897   1.248   4.685   1.089  1.0665 -0.9213  0.5393
  528TMC3    H2 7898   1.030   4.437   0.811  0.2677 -0.0369 -1.8999
  528TMC3    C7 7899   1.012   4.546   1.051 -0.2402 -0.2847 -0.1455
  528TMC3    C8 7900   1.238   4.405   0.654 -0.1620 -0.0427  0.0604
  528TMC3    O1 7901   0.924   4.480   1.006  0.0889 -0.3434 -0.4998
  528TMC3    O2 7902   1.318   4.451   0.573  0.1122  0.0821 -0.2661
  529MPD2     C 7903   3.599   3.129   1.180 -0.9741 -0.0044 -0.5585
  529MPD2    C1 7904   3.692   3.079   1.094  0.1392 -0.6333 -0.0823
  529MPD2    C2 7905   3.699   3.133   0.972 -0.3662 -0.5129 -0.4902
  529MPD2    C3 7906   3.617   3.232   0.930 -0.0401 -0.1531  0.4569
  529MPD2    C4 7907   3.515   3.275   1.011  0.3751 -0.3361  0.0014
  529MPD2    C5 7908   3.519   3.233   1.142  0.3685  0.6280 -0.2592
  529MPD2     H 7909   3.764   3.077   0.906  1.1242  0.7865 -0.1373
  529MPD2    H1 7910   3.459   3.363   0.984  0.8495 -0.2927 -0.8458
  529MPD2    H2 7911   3.596   3.100   1.285  1.2638  2.0257  0.0572
  529MPD2    H3 7912   3.449   3.281   1.210 -2.1346 -1.7369 -1.1494
  529MPD2     N 7913   3.615   3.291   0.800  0.3243  0.6637  0.0158
  529MPD2    H5 7914   3.555   3.372   0.790 -0.2238  0.0314 -1.7961
  529MPD2    N1 7915   3.785   2.981   1.126 -0.0410 -0.2421  0.1398
  529MPD2    H7 7916   3.851   2.943   1.057 -0.0500 -0.5505  0.3001
  530TMC3    C1 7917   3.897   2.818   1.255  0.1318  0.9553 -0.2379
  530TMC3    C2 7918   3.982   2.821   1.363 -0.0201  0.1580 -0.4657
  530TMC3    C3 7919   4.072   2.714   1.383 -0.0566  0.6545  0.2359
  530TMC3    C4 7920   3.888   2.717   1.170  0.1142  0.1210  0.5482
  530TMC3    C5 7921   3.964   2.606   1.194  0.0739  0.4950 -0.1783
  530TMC3    C6 7922   4.053   2.600   1.307 -0.2752  0.0779 -0.7017
  530TMC3     C 7923   3.792   2.918   1.247 -0.6103 -0.5791 -0.0581
  530TMC3     O 7924   3.751   2.957   1.355  0.5316 -0.1763 -0.1669
  530TMC3     H 7925   3.983   2.901   1.436  3.9052 -1.9127  1.7266
  530TMC3    H1 7926   3.816   2.723   1.089 -0.9627 -1.5887  1.3794
  530TMC3    H2 7927   4.097   2.503   1.327  2.3818  1.3617 -0.2562
  530TMC3    C7 7928   3.937   2.498   1.107 -0.3377 -0.7022  0.3625
  530TMC3    C8 7929   4.138   2.714   1.509  0.3408 -0.2887 -0.2949
  530TMC3    O1 7930   3.870   2.525   1.009 -0.7320  0.0654 -0.0327
  530TMC3    O2 7931   4.081   2.771   1.601  0.6293 -0.2400  0.5404
  531MPD2     C 7932   2.778   0.203  12.748  0.0061 -0.3147 -0.2345
  531MPD2    C1 7933   2.679   0.290  12.779  0.0221  0.0654  0.0823
  531MPD2    C2 7934   2.586   0.309  12.686 -0.0287 -0.0896  0.9194
  531MPD2    C3 7935   2.580   0.232  12.571  0.2070 -0.2119 -0.2487
  531MPD2    C4 7936   2.685   0.149  12.539 -0.2151  0.0163  0.4418
  531MPD2    C5 7937   2.782   0.138  12.630  0.0447  0.4698  0.2223
  531MPD2     H 7938   2.511   0.387  12.684 -1.8235 -1.8593 -0.6978
  531MPD2    H1 7939   2.679   0.080  12.456 -1.0783 -0.0169  0.5229
  531MPD2    H2 7940   2.866   0.194  12.811 -0.4893 -1.1132  0.3397
  531MPD2    H3 7941   2.862   0.068  12.604 -0.0755 -0.1114  1.4558
  531MPD2     N 7942   2.469   0.247  12.492  0.0968 -0.4205  0.5751
  531MPD2    H5 7943   2.412   0.327  12.516 -0.3572 -0.3547 -0.7113
  531MPD2    N1 7944   2.694   0.381  12.890  0.0697 -0.5087 -0.4642
  531MPD2    H7 7945   2.761   0.361  12.964 -2.9510  0.8184  2.6571
  532TMC3    C1 7946   2.656   0.570  13.024  0.0024  0.1620 -0.3280
  532TMC3    C2 7947   2.558   0.665  13.039  0.4696 -0.0075  0.0636
  532TMC3    C3 7948   2.594   0.802  13.048 -0.4358  0.1015  0.0468
  532TMC3    C4 7949   2.789   0.596  13.031 -0.1741 -0.7731 -0.4139
  532TMC3    C5 7950   2.819   0.732  13.044 -0.1211 -0.1714 -0.9792
  532TMC3    C6 7951   2.727   0.830  13.050 -0.2778  0.6707  0.3488
  532TMC3     C 7952   2.622   0.494  12.905  0.1790  0.2076  0.7100
  532TMC3     O 7953   2.556   0.561  12.834  0.1140 -0.2485  0.7058
  532TMC3     H 7954   2.455   0.633  13.042  0.1283  0.9039 -1.5971
  532TMC3    H1 7955   2.859   0.517  13.007  1.7697  1.0091 -0.6436
  532TMC3    H2 7956   2.752   0.935  13.050  1.7491  0.1739  1.5272
  532TMC3    C7 7957   2.946   0.766  13.105  0.3654 -0.9208  0.1162
  532TMC3    C8 7958   2.514   0.890  12.960  0.2879  0.1158  0.1918
  532TMC3    O1 7959   2.952   0.861  13.182  0.2505  0.6476  0.4390
  532TMC3    O2 7960   2.532   1.011  12.973  0.4263 -0.0321  0.1501
  533TMC3    C1 7961   3.510   2.486  14.027 -0.5324 -0.3799  0.5676
  533TMC3    C2 7962   3.634   2.539  14.009  0.0654 -0.2787 -0.5086
  533TMC3    C3 7963   3.642   2.678  14.003  0.0799 -0.1656 -1.1012
  533TMC3    C4 7964   3.391   2.550  14.048  0.2412  0.5459  0.1910
  533TMC3    C5 7965   3.412   2.686  14.070 -0.7983  0.6564  0.0378
  533TMC3    C6 7966   3.526   2.754  14.034  0.6263  0.8422 -0.1919
  533TMC3     C 7967   3.511   2.349  14.062 -0.1854 -0.3202 -0.5628
  533TMC3     O 7968   3.600   2.311  14.131 -0.1751  0.4799 -0.4448
  533TMC3     H 7969   3.714   2.467  14.018  0.4672  0.4080  1.3975
  533TMC3    H1 7970   3.304   2.496  14.083  0.5205  0.0854  0.1825
  533TMC3    H2 7971   3.530   2.862  14.038 -0.2015  0.8999 -0.9865
  533TMC3    C7 7972   3.379   2.708  14.214  0.0579  0.2492 -0.1840
  533TMC3    C8 7973   3.758   2.737  14.058 -0.4068  0.6183  0.1189
  533TMC3    O1 7974   3.295   2.635  14.263  0.4454 -0.3148  0.6753
  533TMC3    O2 7975   3.823   2.661  14.127  0.1923 -0.0790 -0.1125
  534MPD2     C 7976   2.217   3.152   0.940 -0.4839 -0.6112 -0.0316
  534MPD2    C1 7977   2.170   3.282   0.949 -0.0393  0.3910  0.4450
  534MPD2    C2 7978   2.039   3.315   0.942  0.0343 -0.1819  0.1840
  534MPD2    C3 7979   1.946   3.212   0.948 -0.5443 -0.4719 -0.5093
  534MPD2    C4 7980   1.991   3.082   0.933 -0.1511 -0.0879 -0.3829
  534MPD2    C5 7981   2.124   3.049   0.936 -0.1441 -0.0222  0.2570
  534MPD2     H 7982   2.015   3.420   0.951  1.1336  0.0689  0.2247
  534MPD2    H1 7983   1.930   2.993   0.945  0.2560  0.0371  2.7779
  534MPD2    H2 7984   2.322   3.128   0.937 -0.3109  0.1596 -0.1125
  534MPD2    H3 7985   2.153   2.945   0.930  1.0704  0.2878  0.7467
  534MPD2     N 7986   1.809   3.230   0.956  0.0155 -0.0260 -0.2047
  534MPD2    H5 7987   1.760   3.143   0.972 -1.9695  1.1965  0.3222
  534MPD2    N1 7988   2.261   3.386   0.957 -0.0261 -0.0390  0.2550
  534MPD2    H7 7989   2.227   3.481   0.969 -2.3655 -0.6093 -1.8770
  535TMC3    C1 7990   1.600   3.313   0.961  0.0855  0.8481  0.3014
  535TMC3    C2 7991   1.567   3.217   1.054  0.2247 -0.1513 -0.1290
  535TMC3    C3 7992   1.437   3.183   1.059 -0.3662  0.0821  0.4481
  535TMC3    C4 7993   1.515   3.359   0.863 -0.5004  0.4070 -0.3450
  535TMC3    C5 7994   1.383   3.326   0.874 -0.9390 -0.2253  0.8684
  535TMC3    C6 7995   1.343   3.235   0.971 -0.8327 -0.4191 -0.0347
  535TMC3     C 7996   1.739   3.345   0.936 -0.2687 -0.4288 -0.1331
  535TMC3     O 7997   1.771   3.458   0.905 -0.2464 -0.1497 -0.5713
  535TMC3     H 7998   1.628   3.200   1.142 -1.3559 -1.0558  0.7890
  535TMC3    H1 7999   1.544   3.440   0.797  0.8986  1.2131  1.2376
  535TMC3    H2 8000   1.237   3.210   0.971 -1.2326  1.2920  2.2653
  535TMC3    C7 8001   1.279   3.396   0.803 -0.4814  0.8617  0.4516
  535TMC3    C8 8002   1.381   3.130   1.179 -0.1848  0.7566 -0.1145
  535TMC3    O1 8003   1.186   3.327   0.765  0.6317  0.4895 -0.1426
  535TMC3    O2 8004   1.260   3.151   1.192 -0.3057 -0.8126 -0.3636
  536MPD2     C 8005   0.048   1.672  16.815 -0.4210  0.6363 -0.1990
  536MPD2    C1 8006   4.650   1.629  16.822  0.2830 -0.2014 -0.2596
  536MPD2    C2 8007   4.568   1.655  16.715 -0.0815  0.4404  0.4664
  536MPD2    C3 8008   4.620   1.714  16.599  0.5927  0.1176  0.1866
  536MPD2    C4 8009   0.014   1.760  16.601 -0.1224  0.0318  0.1417
  536MPD2    C5 8010   0.094   1.737  16.708  0.0178 -0.4409  0.4539
  536MPD2     H 8011   4.466   1.620  16.709  0.2312 -0.5738  0.9591
  536MPD2    H1 8012   0.059   1.815  16.520  0.3556 -1.2977 -0.4885
  536MPD2    H2 8013   0.113   1.656  16.900 -0.9642 -0.4334  0.0225
  536MPD2    H3 8014   0.201   1.756  16.712 -0.6082  2.9738  0.7904
  536MPD2     N 8015   4.543   1.744  16.480  0.4671 -0.3170  0.2395
  536MPD2    H5 8016   4.596   1.782  16.402 -0.4071 -0.9585 -0.6594
  536MPD2    N1 8017   4.612   1.576  16.945 -0.6055  0.0149  0.1949
  536MPD2    H7 8018   4.679   1.576  17.021 -0.5781 -0.1053  0.1721
  537TMC3    C1 8019   4.479   1.440  17.098 -0.4848  0.1661  0.5806
  537TMC3    C2 8020   4.573   1.467  17.198  0.1332  0.5379  0.3915
  537TMC3    C3 8021   4.558   1.393  17.312  0.4480  0.6282  0.4825
  537TMC3    C4 8022   4.382   1.346  17.112 -0.1245 -0.1311  0.0986
  537TMC3    C5 8023   4.375   1.281  17.229  0.4223  0.3289  0.4836
  537TMC3    C6 8024   4.456   1.302  17.331  0.0566  0.5480  0.8838
  537TMC3     C 8025   4.498   1.507  16.966  0.3373 -0.0255 -0.0911
  537TMC3     O 8026   4.411   1.487  16.884 -0.1303  0.4182  0.7111
  537TMC3     H 8027   4.655   1.534  17.174 -1.6118  1.3364 -3.2457
  537TMC3    H1 8028   4.317   1.334  17.026  2.3904 -1.4958 -1.6079
  537TMC3    H2 8029   4.434   1.244  17.421  1.8114 -1.9844 -0.3324
  537TMC3    C7 8030   4.273   1.178  17.226  0.1398 -0.1210  0.3285
  537TMC3    C8 8031   4.660   1.420  17.412 -0.5549 -0.1852 -0.2537
  537TMC3    O1 8032   4.176   1.195  17.149  0.1226  0.2770 -0.6493
  537TMC3    O2 8033   4.730   1.520  17.389  0.0380  0.2252 -0.1478
  538TMC3    C1 8034   0.570   0.087  10.675  0.6024 -0.3653  0.0609
  538TMC3    C2 8035   0.647   4.715  10.698 -0.7778  0.4516 -0.0928
  538TMC3    C3 8036   0.665   4.618  10.599 -0.0259 -0.3102  0.8161
  538TMC3    C4 8037   0.517   0.101  10.555 -0.3073  0.3340  0.2739
  538TMC3    C5 8038   0.529   0.003  10.456  0.0174  0.4262  1.0292
  538TMC3    C6 8039   0.605   4.628  10.475  1.0172  0.1177  0.4559
  538TMC3     C 8040   0.512   0.158  10.792  0.0863 -0.7043  0.0602
  538TMC3     O 8041   0.411   0.229  10.771 -0.2443 -0.1701 -0.1645
  538TMC3     H 8042   0.687   4.686  10.795  1.4226  0.5066 -0.9974
  538TMC3    H1 8043   0.466   0.197  10.550  0.1299  0.5754  0.4404
  538TMC3    H2 8044   0.604   4.550  10.400  0.6269 -0.2889  0.8850
  538TMC3    C7 8045   0.443   0.016  10.339  0.2127  0.4349 -0.6510
  538TMC3    C8 8046   0.770   4.519  10.619 -0.1551  0.2532 -0.9164
  538TMC3    O1 8047   0.463   4.681  10.237  0.0838 -0.3664  0.0371
  538TMC3    O2 8048   0.781   4.484  10.735 -0.4278  0.0991  0.5317
  539MPD2     C 8049   0.671   4.060  11.820 -0.0220 -0.0496  0.6677
  539MPD2    C1 8050   0.647   4.043  11.682 -0.4627 -0.4289  0.1643
  539MPD2    C2 8051   0.574   4.139  11.615 -0.2677 -0.5848  0.9057
  539MPD2    C3 8052   0.518   4.250  11.678 -0.4912 -0.5832  0.3222
  539MPD2    C4 8053   0.540   4.265  11.812  1.0809  0.2154  0.3127
  539MPD2    C5 8054   0.617   4.173  11.881  0.6730 -0.3286 -0.0033
  539MPD2     H 8055   0.542   4.121  11.513  0.4200 -0.7610  0.7159
  539MPD2    H1 8056   0.500   4.352  11.862  0.0116 -1.1400  1.8024
  539MPD2    H2 8057   0.724   3.985  11.876  1.6845 -0.4733 -1.4923
  539MPD2    H3 8058   0.636   4.194  11.986  0.1455  0.1544 -0.0007
  539MPD2     N 8059   0.417   4.334  11.617  0.0018 -0.2616 -0.3127
  539MPD2    H5 8060   0.351   4.379  11.680  0.7562  2.8874 -1.8368
  539MPD2    N1 8061   0.699   3.925  11.614 -0.3490 -0.9047 -0.5024
  539MPD2    H7 8062   0.755   3.859  11.668  0.0397 -0.0956  0.0728
  540TMC3    C1 8063   0.309   4.448  11.447 -0.5527  0.1456 -0.9284
  540TMC3    C2 8064   0.314   4.510  11.324  0.0055 -0.5897  0.2737
  540TMC3    C3 8065   0.211   4.586  11.284  0.3857 -0.4386 -0.3529
  540TMC3    C4 8066   0.207   4.472  11.535  0.4333  0.1150  0.6035
  540TMC3    C5 8067   0.109   4.558  11.491  0.7452 -0.1575  0.5493
  540TMC3    C6 8068   0.105   4.611  11.369 -0.0166  0.0302  0.9295
  540TMC3     C 8069   0.420   4.360  11.485  0.0531 -0.3745 -0.5229
  540TMC3     O 8070   0.501   4.335  11.396 -0.5242  0.1093 -0.3888
  540TMC3     H 8071   0.408   4.493  11.272  0.4324 -1.1847  1.2231
  540TMC3    H1 8072   0.190   4.401  11.615 -0.6699 -0.9858 -0.6161
  540TMC3    H2 8073   0.022   4.674  11.339 -0.6773  0.5272  3.7300
  540TMC3    C7 8074   4.721   4.555  11.561  0.9280 -0.3625  0.0430
  540TMC3    C8 8075   0.180   4.571  11.139  0.1663  0.1506 -0.6397
  540TMC3    O1 8076   4.625   4.557  11.488  0.1941 -0.3577 -0.5666
  540TMC3    O2 8077   0.252   4.490  11.082 -0.2767 -0.8046 -0.0491
  541MPD2     C 8078   3.269   1.000  13.003 -0.1438 -0.4179 -0.4386
  541MPD2    C1 8079   3.390   0.938  12.981 -0.2336 -0.5522  0.0300
  541MPD2    C2 8080   3.469   0.974  12.876  0.1087 -0.3345 -0.8470
  541MPD2    C3 8081   3.428   1.056  12.779  0.4091  0.4384  0.1586
  541MPD2    C4 8082   3.303   1.113  12.794  0.2810 -0.7567 -0.7765
  541MPD2    C5 8083   3.226   1.090  12.905 -0.6051 -0.3141 -0.0771
  541MPD2     H 8084   3.570   0.936  12.867  1.5229  3.2371 -0.0695
  541MPD2    H1 8085   3.266   1.186  12.723 -0.8179  0.7337  1.2949
  541MPD2    H2 8086   3.192   0.974  13.075  1.4772  1.7570  2.0848
  541MPD2    H3 8087   3.121   1.119  12.906 -0.3541  0.5492  0.7654
  541MPD2     N 8088   3.509   1.116  12.672 -0.4122 -0.3776 -0.3810
  541MPD2    H5 8089   3.449   1.184  12.628 -1.9168 -2.2949 -1.2912
  541MPD2    N1 8090   3.456   0.843  13.065 -0.6399 -0.4939 -0.5094
  541MPD2    H7 8091   3.538   0.799  13.025  0.6083  3.4016 -2.2285
  542TMC3    C1 8092   3.717   1.167  12.552 -0.9343  0.3185 -0.5724
  542TMC3    C2 8093   3.855   1.140  12.536 -0.0868 -0.2473 -0.6084
  542TMC3    C3 8094   3.936   1.234  12.471 -0.2045  0.1285 -0.3353
  542TMC3    C4 8095   3.665   1.284  12.505 -0.0570 -0.8627  0.2965
  542TMC3    C5 8096   3.746   1.377  12.443 -0.6467 -0.3972  0.3024
  542TMC3    C6 8097   3.881   1.347  12.414 -0.6171 -0.2298 -0.1842
  542TMC3     C 8098   3.647   1.088  12.662 -0.8938 -0.8816  0.0932
  542TMC3     O 8099   3.710   0.999  12.717  0.4522 -0.4118 -0.4575
  542TMC3     H 8100   3.889   1.045  12.578 -2.8268 -1.2686 -0.7205
  542TMC3    H1 8101   3.560   1.309  12.506 -0.5269 -2.8096  0.4415
  542TMC3    H2 8102   3.939   1.418  12.356  0.3536  0.1390  1.2397
  542TMC3    C7 8103   3.684   1.497  12.391  0.5867  0.0850 -0.5902
  542TMC3    C8 8104   4.044   1.191  12.379  0.2414 -0.3052 -0.0727
  542TMC3    O1 8105   3.563   1.505  12.396 -0.1879  0.2553 -0.2295
  542TMC3    O2 8106   4.097   1.273  12.301 -0.0900  0.1011  0.4960
  543TMC3    C1 8107   3.246   2.737  17.261  0.2070  0.3779 -0.0176
  543TMC3    C2 8108   3.307   2.678  17.368 -0.5340 -0.4737 -0.5003
  543TMC3    C3 8109   3.284   2.718  17.494 -0.6385 -0.0640  0.0196
  543TMC3    C4 8110   3.161   2.841  17.286 -0.0305 -0.1208 -0.1093
  543TMC3    C5 8111   3.149   2.895  17.417  0.2865 -0.2822 -0.5960
  543TMC3    C6 8112   3.218   2.835  17.525 -0.7174  0.0094  0.2787
  543TMC3     C 8113   3.253   2.665  17.137 -0.2074  0.8047  0.7700
  543TMC3     O 8114   3.346   2.588  17.119  0.6970  0.2988  0.0346
  543TMC3     H 8115   3.366   2.588  17.352 -0.3695 -0.5814  0.7335
  543TMC3    H1 8116   3.123   2.904  17.206  0.1756 -1.7387 -1.4692
  543TMC3    H2 8117   3.215   2.858  17.631 -2.4563  1.9452 -0.1906
  543TMC3    C7 8118   3.079   3.018  17.433  0.3616 -0.1795  0.6069
  543TMC3    C8 8119   3.358   2.659  17.606 -0.1549 -0.0557  0.3925
  543TMC3    O1 8120   3.055   3.079  17.332  0.8118 -0.8212  0.2118
  543TMC3    O2 8121   3.416   2.731  17.683  0.6253  0.4357  0.2316
  544MPD2     C 8122   3.532   2.259   0.126  0.1024  0.5635  0.0059
  544MPD2    C1 8123   3.475   2.212   0.009  0.0949 -0.5645  0.2492
  544MPD2    C2 8124   3.412   2.302  17.668  1.3182  0.8595  0.2294
  544MPD2    C3 8125   3.419   2.438  17.694 -0.2886  0.4112 -0.2300
  544MPD2    C4 8126   3.475   2.486   0.063  0.3098 -0.0051  0.2618
  544MPD2    C5 8127   3.538   2.401   0.148  0.7670  0.1702 -0.2654
  544MPD2     H 8128   3.369   2.272  17.573  0.7958  0.9318  0.4439
  544MPD2    H1 8129   3.483   2.587   0.102  0.8314 -0.5446  1.5461
  544MPD2    H2 8130   3.577   2.186   0.193  1.4151 -0.2248 -1.7503
  544MPD2    H3 8131   3.586   2.437   0.238  0.5715  1.8799 -0.8311
  544MPD2     N 8132   3.358   2.525  17.602  0.0966 -0.0219  0.1589
  544MPD2    H5 8133   3.302   2.480  17.530 -0.4644 -2.8418  2.3320
  544MPD2    N1 8134   3.477   2.072  17.739 -0.0302 -0.6808 -0.5046
  544MPD2    H7 8135   3.531   2.019   0.060 -0.3636 -1.5060 -0.8788
  545TMC3    C1 8136   3.388   1.864  17.682  0.3348  0.6422 -0.0511
  545TMC3    C2 8137   3.491   1.806   0.007  0.4865 -1.0446  0.0253
  545TMC3    C3 8138   3.482   1.673   0.031  0.3165  0.3482  1.7164
  545TMC3    C4 8139   3.282   1.798  17.647  0.6037 -0.0006 -0.3772
  545TMC3    C5 8140   3.264   1.662  17.674  0.3222 -0.3504 -0.1557
  545TMC3    C6 8141   3.371   1.600   0.002  0.0998 -1.1917  0.2791
  545TMC3     C 8142   3.389   2.004  17.650  0.4274 -0.3544 -0.9082
  545TMC3     O 8143   3.306   2.049  17.583  0.0078  0.8314  0.1336
  545TMC3     H 8144   3.589   1.853   0.011 -1.2858  2.7163 -0.6103
  545TMC3    H1 8145   3.194   1.845  17.605  0.9367 -0.4570 -1.5856
  545TMC3    H2 8146   3.378   1.491   0.003  1.6741 -1.0872  0.5430
  545TMC3    C7 8147   3.144   1.600  17.625 -0.0834  0.3382  0.2536
  545TMC3    C8 8148   3.598   1.586   0.082  0.0942  0.2991  0.0641
  545TMC3    O1 8149   3.055   1.670  17.577  0.0522  0.3657  0.1495
  545TMC3    O2 8150   3.587   1.467   0.072 -0.4860 -0.0503  0.0858
  546MPD2     C 8151   4.697   2.094  16.577 -0.1268 -0.3686 -0.0509
  546MPD2    C1 8152   4.700   2.092  16.711 -0.6291  0.3195 -0.2678
  546MPD2    C2 8153   0.063   2.169  16.775 -0.8150 -0.2408  0.4209
  546MPD2    C3 8154   0.154   2.242  16.700 -0.0502 -0.3727 -0.1418
  546MPD2    C4 8155   0.143   2.246  16.560  0.6068  0.4121  0.8854
  546MPD2    C5 8156   0.043   2.174  16.499  0.6790  0.2524 -0.8457
  546MPD2     H 8157   0.077   2.169  16.883 -0.6990  0.6611  0.4021
  546MPD2    H1 8158   0.217   2.281  16.490 -1.1432  0.9414 -0.6875
  546MPD2    H2 8159   4.623   2.037  16.523 -1.7825 -0.4714  2.3334
  546MPD2    H3 8160   0.034   2.164  16.392 -0.2221  2.1738 -0.9438
  546MPD2     N 8161   0.270   2.309  16.755  0.0093 -0.4864  0.2496
  546MPD2    H5 8162   0.322   2.362  16.688  2.2566 -3.8504 -0.6690
  546MPD2    N1 8163   4.599   2.024  16.784  0.8665  0.3249  0.7810
  546MPD2    H7 8164   4.520   1.996  16.727  0.5243  0.4131  1.2099
  547TMC3    C1 8165   4.481   1.908  16.943  0.3420 -0.0510  0.0772
  547TMC3    C2 8166   4.391   1.876  16.853 -0.8386  0.7332  0.0945
  547TMC3    C3 8167   4.278   1.808  16.887 -0.4405  1.5490 -0.7778
  547TMC3    C4 8168   4.466   1.875  17.075  0.1638  0.2130  0.1814
  547TMC3    C5 8169   4.359   1.791  17.108  0.4331  0.0937  0.6838
  547TMC3    C6 8170   4.259   1.760  17.015  0.3123  1.2049  0.7159
  547TMC3     C 8171   4.595   1.991  16.912 -0.1061 -0.1758  0.3698
  547TMC3     O 8172   4.672   2.013  17.002  0.6799  0.6935 -0.0545
  547TMC3     H 8173   4.394   1.895  16.746 -0.4449 -1.3742 -0.2624
  547TMC3    H1 8174   4.543   1.907  17.144  0.7880  1.1459 -0.9516
  547TMC3    H2 8175   4.167   1.709  17.042 -0.1143  1.9342  0.6440
  547TMC3    C7 8176   4.359   1.731  17.237 -0.4577 -0.2666  0.0618
  547TMC3    C8 8177   4.162   1.844  16.806  0.1702 -0.0006 -0.4790
  547TMC3    O1 8178   4.451   1.759  17.309 -0.4831  0.0274 -0.2026
  547TMC3    O2 8179   4.162   1.961  16.762  0.3884 -0.3748 -0.4078
  548MPD2     C 8180   4.036   3.302  12.505  0.0614  0.5339 -0.0844
  548MPD2    C1 8181   3.979   3.181  12.518 -0.2526 -0.0878  0.4319
  548MPD2    C2 8182   4.066   3.073  12.513 -0.6597 -1.2518  0.2859
  548MPD2    C3 8183   4.200   3.085  12.498 -1.3575 -0.2677 -0.5300
  548MPD2    C4 8184   4.252   3.208  12.475 -0.0294 -0.2360 -0.5518
  548MPD2    C5 8185   4.170   3.315  12.485 -0.1974  0.1346 -0.0042
  548MPD2     H 8186   4.032   2.970  12.515 -0.0705 -1.4686 -1.2886
  548MPD2    H1 8187   4.353   3.232  12.446 -0.3122 -0.5115 -1.7536
  548MPD2    H2 8188   3.976   3.392  12.502 -2.0696 -0.9098 -0.7486
  548MPD2    H3 8189   4.204   3.414  12.458  1.6561 -0.8829 -1.3859
  548MPD2     N 8190   4.282   2.969  12.488  0.7029 -0.3214  0.8585
  548MPD2    H5 8191   4.230   2.886  12.516 -0.4722  0.6222  1.4625
  548MPD2    N1 8192   3.844   3.174  12.540  0.3638  0.5936  0.1837
  548MPD2    H7 8193   3.799   3.262  12.561  2.4653  2.1977 -2.0629
  549TMC3    C1 8194   3.632   3.054  12.542  0.1740 -0.5672 -1.6388
  549TMC3    C2 8195   3.567   3.175  12.515 -0.6784 -0.1942 -0.1405
  549TMC3    C3 8196   3.425   3.159  12.513  1.5699 -0.2766 -0.1336
  549TMC3    C4 8197   3.575   2.931  12.558  0.0364 -0.7286 -0.2195
  549TMC3    C5 8198   3.437   2.929  12.559  0.2893  0.2808 -0.0226
  549TMC3    C6 8199   3.365   3.037  12.543 -0.7853  0.0052 -0.2470
  549TMC3     C 8200   3.775   3.052  12.539  0.6853 -1.0785 -0.1905
  549TMC3     O 8201   3.823   2.943  12.503  0.2415  0.0144  0.0246
  549TMC3     H 8202   3.613   3.271  12.494  0.0815 -0.3263  0.9363
  549TMC3    H1 8203   3.640   2.844  12.561  2.2662  1.0504  3.0305
  549TMC3    H2 8204   3.261   3.021  12.519 -0.5057  0.7361 -1.9948
  549TMC3    C7 8205   3.362   2.806  12.550  0.4346 -0.0649 -0.3611
  549TMC3    C8 8206   3.335   3.263  12.462 -0.5747 -0.1879 -1.0238
  549TMC3    O1 8207   3.255   2.802  12.495  0.1311  0.1288  0.3093
  549TMC3    O2 8208   3.225   3.236  12.420 -0.2249  0.1184  0.4880
  550TMC3    C1 8209   3.163   0.840  11.991  0.5153  0.0008  0.5875
  550TMC3    C2 8210   3.163   0.762  12.100 -0.4170  0.3274 -0.6026
  550TMC3    C3 8211   3.034   0.730  12.154  0.4100  0.7185 -0.5314
  550TMC3    C4 8212   3.045   0.890  11.939  0.3221 -0.4368  0.3264
  550TMC3    C5 8213   2.926   0.865  12.000  0.5443 -0.0387  0.2782
  550TMC3    C6 8214   2.913   0.777  12.103  0.8645 -0.5015 -0.3149
  550TMC3     C 8215   3.268   0.816  11.886 -0.1905  0.1243  0.7951
  550TMC3     O 8216   3.374   0.767  11.920 -0.0287 -0.0392 -0.6257
  550TMC3     H 8217   3.251   0.709  12.136 -1.8295 -0.3806  1.7632
  550TMC3    H1 8218   3.044   0.955  11.853 -0.0652  0.1813  0.7977
  550TMC3    H2 8219   2.815   0.747  12.136  0.2614  0.4583 -1.2384
  550TMC3    C7 8220   2.808   0.913  11.936 -0.2194  0.0685  0.4862
  550TMC3    C8 8221   3.040   0.668  12.281  0.2072  0.3688 -0.3235
  550TMC3    O1 8222   2.717   0.829  11.920 -0.7835  0.1346 -0.3124
  550TMC3    O2 8223   3.149   0.633  12.321 -0.1818  0.1311 -0.6134
  551TMC3    C1 8224   0.686   3.476  13.225  0.0158  0.1861 -0.0661
  551TMC3    C2 8225   0.775   3.372  13.198 -0.1908  1.4253  0.0741
  551TMC3    C3 8226   0.876   3.360  13.284  0.8476  0.8183  0.1721
  551TMC3    C4 8227   0.692   3.554  13.339 -0.1908 -0.3941 -0.2699
  551TMC3    C5 8228   0.802   3.531  13.423 -0.2460  0.4311  0.2535
  551TMC3    C6 8229   0.894   3.435  13.394  0.2387  0.4110 -0.3577
  551TMC3     C 8230   0.582   3.499  13.130 -0.3083 -0.8471  0.0071
  551TMC3     O 8231   0.574   3.415  13.039  0.1166  0.0481 -0.3286
  551TMC3     H 8232   0.763   3.306  13.113 -0.6019  1.5040  0.0700
  551TMC3    H1 8233   0.618   3.623  13.377  0.9214  0.2783  0.6492
  551TMC3    H2 8234   0.990   3.436  13.446  0.1527 -1.2252 -0.1776
  551TMC3    C7 8235   0.827   3.602  13.550  0.0891 -0.1174  0.0495
  551TMC3    C8 8236   1.003   3.352  13.216  0.3151  0.3509  0.1598
  551TMC3    O1 8237   0.902   3.538  13.621 -0.0936 -0.1014 -0.2450
  551TMC3    O2 8238   1.029   3.243  13.171  0.0173  0.3049  0.7172
  552MPD2     C 8239   2.564   1.010  13.329 -1.0164  0.5272  0.6567
  552MPD2    C1 8240   2.547   0.924  13.440  0.2753 -0.1928  0.5226
  552MPD2    C2 8241   2.652   0.898  13.525 -0.0470  0.1015 -0.2278
  552MPD2    C3 8242   2.781   0.944  13.488  0.0357 -0.4693  0.6179
  552MPD2    C4 8243   2.795   1.026  13.379  0.3965  1.0526  0.2016
  552MPD2    C5 8244   2.688   1.061  13.301 -0.4119 -0.9248  0.6653
  552MPD2     H 8245   2.631   0.835  13.611 -0.1440  1.4371  0.7273
  552MPD2    H1 8246   2.889   1.068  13.346  0.4278  0.4021 -0.5403
  552MPD2    H2 8247   2.487   1.039  13.258 -0.4065 -0.7115 -0.4979
  552MPD2    H3 8248   2.705   1.124  13.214 -1.2054 -3.1700 -1.1358
  552MPD2     N 8249   2.900   0.921  13.559 -0.2519 -0.4714  0.5660
  552MPD2    H5 8250   2.988   0.951  13.518 -1.5899  1.1420 -1.1228
  552MPD2    N1 8251   2.425   0.871  13.486  1.5218 -0.0466 -0.4784
  552MPD2    H7 8252   2.429   0.806  13.564  0.1706  0.3797 -0.0585
  553TMC3    C1 8253   2.192   0.810  13.475 -0.1762 -0.6414 -0.7958
  553TMC3    C2 8254   2.130   0.725  13.387  0.4039  0.0310 -0.0453
  553TMC3    C3 8255   2.108   0.599  13.425 -0.2362  0.6046  0.8297
  553TMC3    C4 8256   2.240   0.764  13.597 -0.1001  0.0565 -0.3430
  553TMC3    C5 8257   2.205   0.642  13.643  0.5098 -0.0489  0.6506
  553TMC3    C6 8258   2.137   0.565  13.556 -0.1960 -0.2800 -0.0158
  553TMC3     C 8259   2.300   0.890  13.422  0.2717  1.0170  0.4099
  553TMC3     O 8260   2.278   0.951  13.316  0.2272  0.0851 -0.2078
  553TMC3     H 8261   2.124   0.748  13.282 -0.1287  0.1101  0.0018
  553TMC3    H1 8262   2.288   0.833  13.666 -1.1236  0.5310 -0.1116
  553TMC3    H2 8263   2.123   0.463  13.589 -0.2422 -0.1513  0.3651
  553TMC3    C7 8264   2.335   0.591  13.679  0.6085 -0.1130  0.2206
  553TMC3    C8 8265   2.170   0.497  13.337 -0.5518  0.6069  0.0335
  553TMC3    O1 8266   2.408   0.665  13.748 -0.8979  0.1670 -0.0722
  553TMC3    O2 8267   2.226   0.405  13.392  0.4997  0.3175 -0.0839
  554TMC3    C1 8268   4.083   4.399  10.804 -0.1072  0.6085 -0.1616
  554TMC3    C2 8269   4.106   4.357  10.680  0.0895 -0.4779 -0.2429
  554TMC3    C3 8270   4.217   4.391  10.603 -0.0268 -0.4271  0.1978
  554TMC3    C4 8271   4.173   4.488  10.866  0.6341  0.2304  0.6032
  554TMC3    C5 8272   4.278   4.530  10.787 -0.4421 -0.5351 -0.5686
  554TMC3    C6 8273   4.302   4.479  10.663 -0.1036 -0.0813 -0.4687
  554TMC3     C 8274   4.014   4.303  10.895  0.6964 -0.2225 -0.6379
  554TMC3     O 8275   3.914   4.248  10.847  0.5999 -0.0416 -0.3804
  554TMC3     H 8276   4.034   4.286  10.640 -1.8610  1.0574  0.5011
  554TMC3    H1 8277   4.142   4.541  10.955  2.6951  0.8880  0.9431
  554TMC3    H2 8278   4.385   4.516  10.603  2.5957 -1.3963  2.4672
  554TMC3    C7 8279   4.307   4.667  10.803 -0.6046  0.0426 -0.0842
  554TMC3    C8 8280   4.201   4.406  10.465 -0.2875  0.4238 -0.0272
  554TMC3    O1 8281   4.325   4.729  10.698 -0.1919 -0.7112  0.8537
  554TMC3    O2 8282   4.246   4.509  10.417 -0.1162 -0.0949 -0.0144
  555TMC3    C1 8283   3.528   4.126  14.526  0.1692 -0.0650  0.6188
  555TMC3    C2 8284   3.607   4.212  14.587  0.3495 -0.0452  0.1857
  555TMC3    C3 8285   3.677   4.167  14.696  0.0855 -0.4138  0.1156
  555TMC3    C4 8286   3.523   3.994  14.554 -1.1513  0.0235  0.1296
  555TMC3    C5 8287   3.597   3.956  14.665  0.6264  0.1851 -0.0883
  555TMC3    C6 8288   3.671   4.040  14.738 -0.7374  0.2345  0.8421
  555TMC3     C 8289   3.495   4.166  14.394 -0.5454 -0.2528  0.1386
  555TMC3     O 8290   3.579   4.223  14.330  0.1386  0.3360  0.0167
  555TMC3     H 8291   3.636   4.309  14.548 -0.0082 -0.5290 -1.2522
  555TMC3    H1 8292   3.471   3.925  14.488  1.3123  0.2400 -2.0280
  555TMC3    H2 8293   3.718   4.001  14.828 -2.3998  1.2496  2.1337
  555TMC3    C7 8294   3.620   3.819  14.689  0.7113  0.4949 -0.2757
  555TMC3    C8 8295   3.699   4.268  14.796 -1.0963  0.9668  0.1109
  555TMC3    O1 8296   3.671   3.794  14.800  0.3062 -0.5920 -0.3864
  555TMC3    O2 8297   3.634   4.370  14.791  0.7330  0.1549  0.1061
  556MPD2     C 8298   1.671   0.503  10.100 -0.4032 -0.4061 -0.3276
  556MPD2    C1 8299   1.655   0.432  10.213 -0.2598  0.7382  0.0629
  556MPD2    C2 8300   1.637   0.295  10.205 -0.1080  0.2078  0.2471
  556MPD2    C3 8301   1.622   0.232  10.081 -0.0840  0.2760  0.0455
  556MPD2    C4 8302   1.631   0.308   9.969 -0.3235 -0.8059 -0.0042
  556MPD2    C5 8303   1.657   0.441   9.976  0.3906 -0.2472 -0.4211
  556MPD2     H 8304   1.626   0.238  10.297  0.3676  1.4714  1.0797
  556MPD2    H1 8305   1.617   0.269   9.869 -1.9714 -2.3825  0.8354
  556MPD2    H2 8306   1.695   0.609  10.100 -0.2499 -0.4368 -1.1717
  556MPD2    H3 8307   1.683   0.500   9.889  2.1263  0.5025  0.5987
  556MPD2     N 8308   1.599   0.093  10.079 -0.6173  0.3312  0.1520
  556MPD2    H5 8309   1.590   0.052  10.172 -1.4419  0.6697  0.2183
  556MPD2    N1 8310   1.674   0.479  10.346 -0.0296  0.3712 -0.7925
  556MPD2    H7 8311   1.670   0.412  10.421 -2.4984  0.3691 -0.9310
  557TMC3    C1 8312   1.540   4.620  10.001  0.5143 -0.1951  0.5696
  557TMC3    C2 8313   1.563   4.524   9.909 -0.4222  0.6236  0.4079
  557TMC3    C3 8314   1.494   4.409   9.919 -0.7667 -0.1049  0.0213
  557TMC3    C4 8315   1.447   4.614  10.101  0.2924 -0.2428  0.0912
  557TMC3    C5 8316   1.386   4.489  10.126 -0.1152 -0.6645  0.5243
  557TMC3    C6 8317   1.407   4.390  10.028 -0.3450  0.1754  0.2479
  557TMC3     C 8318   1.584   0.015   9.972 -0.4201 -0.2243  0.4193
  557TMC3     O 8319   1.597   0.042   9.856 -0.0452 -0.9167 -0.4820
  557TMC3     H 8320   1.625   4.543   9.822 -0.4924  1.6820  0.5860
  557TMC3    H1 8321   1.425   4.686  10.179  0.5611  0.3297 -0.3648
  557TMC3    H2 8322   1.363   4.293  10.049  0.0844 -0.1226 -0.2129
  557TMC3    C7 8323   1.256   4.484  10.191 -0.2111  0.0876 -0.4041
  557TMC3    C8 8324   1.482   4.308   9.809  0.0931 -0.4364 -0.0560
  557TMC3    O1 8325   1.180   4.578  10.179 -0.3084 -0.1769 -0.1301
  557TMC3    O2 8326   1.421   4.208   9.835  0.3285  0.3515  0.8930
  558TMC3    C1 8327   4.265   3.460  10.017 -0.2396  0.9119 -0.3494
  558TMC3    C2 8328   4.146   3.392   9.999 -0.1803  0.3241 -0.1118
  558TMC3    C3 8329   4.033   3.471   9.969  0.2261  0.5813  0.0543
  558TMC3    C4 8330   4.273   3.595   9.997 -0.4041  0.7158  0.1748
  558TMC3    C5 8331   4.160   3.668   9.954  0.6932 -0.0568 -0.3753
  558TMC3    C6 8332   4.040   3.608   9.952 -0.8016  0.4497 -0.1472
  558TMC3     C 8333   4.387   3.395  10.044  0.4537  0.4185 -0.0709
  558TMC3     O 8334   4.494   3.439  10.007 -0.0110  0.6774 -0.4271
  558TMC3     H 8335   4.147   3.288   9.971  2.5236 -0.1172  1.5440
  558TMC3    H1 8336   4.370   3.639   9.977 -1.6686  2.8512 -1.2271
  558TMC3    H2 8337   3.946   3.663   9.953 -1.6278 -0.9244 -1.2272
  558TMC3    C7 8338   4.163   3.802   9.906  0.1808 -1.5069 -0.8925
  558TMC3    C8 8339   3.904   3.404   9.983  0.1377 -0.3157  0.0213
  558TMC3    O1 8340   4.256   3.865   9.948 -0.2008  0.0758  0.1626
  558TMC3    O2 8341   3.797   3.455   9.951  0.4674 -0.3146  0.6948
  559MPD2     C 8342   4.030   3.869  10.196  0.6089 -0.4064 -0.1234
  559MPD2    C1 8343   3.959   3.770  10.263  0.4333  0.7267  0.6591
  559MPD2    C2 8344   4.013   3.708  10.378  0.1706  0.3355 -0.3167
  559MPD2    C3 8345   4.139   3.743  10.430  0.7187  0.1639 -0.3317
  559MPD2    C4 8346   4.204   3.845  10.362  0.0277  0.5164  0.0610
  559MPD2    C5 8347   4.151   3.902  10.253 -0.4525 -0.0314  0.3476
  559MPD2     H 8348   3.958   3.638  10.439  0.8239 -0.2121 -0.3624
  559MPD2    H1 8349   4.304   3.884  10.377  1.0687 -2.6615  1.3609
  559MPD2    H2 8350   3.999   3.917  10.104 -1.1079 -1.9474 -0.3412
  559MPD2    H3 8351   4.214   3.969  10.196 -0.8920 -0.6434 -0.8607
  559MPD2     N 8352   4.188   3.686  10.548  0.2655 -0.3334 -0.4598
  559MPD2    H5 8353   4.130   3.618  10.597 -0.9482  1.2045  0.2359
  559MPD2    N1 8354   3.831   3.745  10.204  0.2017  0.0110 -0.0386
  559MPD2    H7 8355   3.810   3.790  10.116 -1.5650 -0.4549  0.1476
  560TMC3    C1 8356   4.343   3.644  10.726 -0.0495  0.3909 -0.6640
  560TMC3    C2 8357   4.300   3.511  10.733 -0.0399  0.4537 -0.1485
  560TMC3    C3 8358   4.310   3.444  10.853 -0.4736 -0.3788  0.1620
  560TMC3    C4 8359   4.391   3.709  10.837 -0.5617 -0.1721  0.7370
  560TMC3    C5 8360   4.414   3.630  10.949  1.1334 -1.2500  0.3956
  560TMC3    C6 8361   4.360   3.504  10.959  0.3697  0.0433 -0.1011
  560TMC3     C 8362   4.294   3.732  10.616  0.4027 -0.1210  0.2848
  560TMC3     O 8363   4.346   3.844  10.611  0.1194 -0.0757 -0.9518
  560TMC3     H 8364   4.252   3.463  10.649 -0.9317  2.8624 -1.0231
  560TMC3    H1 8365   4.423   3.812  10.830 -1.4812  0.0508 -0.2777
  560TMC3    H2 8366   4.401   3.445  11.040  0.0474 -1.4301 -1.0254
  560TMC3    C7 8367   4.475   3.686  11.069 -0.5956  0.2846  0.0206
  560TMC3    C8 8368   4.270   3.307  10.853 -0.7705  0.0817  0.2546
  560TMC3    O1 8369   4.427   3.648  11.174  0.1383  0.4497  0.3102
  560TMC3    O2 8370   4.263   3.260  10.739 -0.1520 -0.4044 -0.5061
  561TMC3    C1 8371   1.977   2.906  10.958  0.2215  1.3698  0.3344
  561TMC3    C2 8372   1.951   2.829  11.065  0.2173 -0.1233  0.3033
  561TMC3    C3 8373   1.910   2.878  11.182  0.2882  0.1324 -0.2756
  561TMC3    C4 8374   1.967   3.041  10.968  0.3118 -0.0945  0.4149
  561TMC3    C5 8375   1.919   3.092  11.084  0.3571 -0.0123  0.0190
  561TMC3    C6 8376   1.892   3.013  11.194  0.1378  0.2470 -0.4593
  561TMC3     C 8377   2.051   2.839  10.855 -0.1832 -0.1716 -0.2794
  561TMC3     O 8378   2.050   2.718  10.840 -0.3986  0.0893 -0.0589
  561TMC3     H 8379   1.980   2.724  11.061 -0.2051 -0.1483 -2.0812
  561TMC3    H1 8380   1.972   3.110  10.884 -0.9653 -0.3763  0.1088
  561TMC3    H2 8381   1.861   3.060  11.286 -2.1934 -0.3536 -0.9225
  561TMC3    C7 8382   1.909   3.238  11.110 -0.1592 -0.1369 -0.0688
  561TMC3    C8 8383   1.884   2.785  11.288  0.3710  0.3714 -0.0599
  561TMC3    O1 8384   1.831   3.270  11.201 -0.1979  0.1266 -0.3044
  561TMC3    O2 8385   1.934   2.673  11.281  0.0504 -0.0427 -1.2801
  562TMC3    C1 8386   3.182   4.544  15.707  0.0010  0.0016 -0.4421
  562TMC3    C2 8387   3.112   4.653  15.651  0.1475 -0.0307 -0.4674
  562TMC3    C3 8388   3.112   4.669  15.515 -0.1835 -0.5464 -0.4104
  562TMC3    C4 8389   3.252   4.459  15.628 -0.4301  0.2195  0.0022
  562TMC3    C5 8390   3.223   4.471  15.495 -0.3287 -0.1905 -0.1348
  562TMC3    C6 8391   3.154   4.570  15.435 -0.2842 -0.6725 -0.3871
  562TMC3     C 8392   3.180   4.513  15.844  0.5121 -0.3919  0.3839
  562TMC3     O 8393   3.266   4.436  15.889 -0.1610 -0.3919  0.3795
  562TMC3     H 8394   3.063   4.722  15.719  1.6603  0.4584  0.1422
  562TMC3    H1 8395   3.295   4.370  15.672 -0.0894  1.3837  2.0597
  562TMC3    H2 8396   3.134   4.571  15.329 -1.0907  0.4802 -0.2252
  562TMC3    C7 8397   3.228   4.345  15.416 -0.0217  0.3736 -0.7329
  562TMC3    C8 8398   2.997   0.003  15.470  0.4692  0.4562  0.5644
  562TMC3    O1 8399   3.238   4.359  15.294 -0.6084 -0.1898  0.4927
  562TMC3    O2 8400   2.908   0.022  15.543  0.6086 -0.3979  0.0114
  563MPD2     C 8401   1.076   0.693  15.374 -0.7185 -0.3146 -0.0273
  563MPD2    C1 8402   1.147   0.716  15.490  0.2300  0.3769 -0.1819
  563MPD2    C2 8403   1.286   0.685  15.491  0.4959  0.5101 -0.2401
  563MPD2    C3 8404   1.339   0.612  15.384  0.4051  0.3354 -0.3287
  563MPD2    C4 8405   1.264   0.589  15.267  0.5765 -0.4192  0.1197
  563MPD2    C5 8406   1.130   0.622  15.267  0.4827 -0.5063  0.3216
  563MPD2     H 8407   1.346   0.703  15.580 -2.3565  0.3109  1.7471
  563MPD2    H1 8408   1.298   0.523  15.188 -0.8833 -0.8009 -0.1951
  563MPD2    H2 8409   0.968   0.706  15.376 -0.4935  1.3124  1.5302
  563MPD2    H3 8410   1.069   0.590  15.183 -0.7065 -0.1263  1.0345
  563MPD2     N 8411   1.467   0.561  15.398 -0.1399  0.1605  0.1294
  563MPD2    H5 8412   1.518   0.600  15.477 -1.2701  0.2460  0.8021
  563MPD2    N1 8413   1.084   0.784  15.597 -0.7313  0.4733 -0.0050
  563MPD2    H7 8414   0.984   0.797  15.585 -0.7290  0.3504 -0.1559
  564TMC3    C1 8415   1.055   0.836  15.823  0.7279 -0.0653  0.0729
  564TMC3    C2 8416   0.921   0.851  15.800  0.9156 -0.3830  0.4915
  564TMC3    C3 8417   0.834   0.830  15.906 -0.3166 -0.5259  0.5563
  564TMC3    C4 8418   1.109   0.815  15.945  0.5121  0.3344  0.8942
  564TMC3    C5 8419   1.016   0.803  16.050  0.1601  0.6327  0.0464
  564TMC3    C6 8420   0.883   0.808  16.032  0.5115 -0.3483 -0.1275
  564TMC3     C 8421   1.149   0.828  15.711 -0.1873 -0.0849  0.2123
  564TMC3     O 8422   1.268   0.841  15.733 -0.1086  0.2576  0.2266
  564TMC3     H 8423   0.875   0.874  15.704  1.0210 -1.7088  0.1335
  564TMC3    H1 8424   1.211   0.789  15.970  1.2603  2.4707 -0.0178
  564TMC3    H2 8425   0.815   0.821  16.116 -2.0426 -0.7291 -2.1429
  564TMC3    C7 8426   1.057   0.711  16.152 -0.6049 -0.0907 -0.6516
  564TMC3    C8 8427   0.726   0.741  15.883  0.1493  0.5030 -0.1099
  564TMC3    O1 8428   1.177   0.686  16.177 -0.3343  0.2123  0.0406
  564TMC3    O2 8429   0.718   0.657  15.968 -0.0262  0.2313 -0.4014
  565TMC3    C1 8430   1.402   2.610   9.697 -0.3034 -0.7444  0.4279
  565TMC3    C2 8431   1.350   2.558   9.812 -0.2611 -0.6367 -1.0996
  565TMC3    C3 8432   1.272   2.444   9.808  0.3230  0.1594 -0.3490
  565TMC3    C4 8433   1.387   2.550   9.579 -0.1482  0.2737 -0.4416
  565TMC3    C5 8434   1.308   2.438   9.576  0.2820  0.0681 -0.4355
  565TMC3    C6 8435   1.242   2.392   9.685  0.6291  0.2216  0.0069
  565TMC3     C 8436   1.489   2.725   9.700 -0.2216  0.1831 -0.6074
  565TMC3     O 8437   1.502   2.784   9.594  0.4056 -0.5676  0.2953
  565TMC3     H 8438   1.373   2.592   9.912 -0.7522  0.2170 -1.2799
  565TMC3    H1 8439   1.410   2.600   9.486 -1.0793  0.3664 -0.6315
  565TMC3    H2 8440   1.190   2.298   9.693 -1.3118  1.2953 -0.1440
  565TMC3    C7 8441   1.288   2.376   9.453 -1.0779  0.0875  0.4004
  565TMC3    C8 8442   1.244   2.381   9.936  0.3371  0.5913 -0.1817
  565TMC3    O1 8443   1.186   2.306   9.446 -0.1231  0.1025  0.7075
  565TMC3    O2 8444   1.317   2.411  10.030  0.2283  0.3756 -0.2034
  566MPD2     C 8445   2.531   3.639  13.926 -0.2529  0.0966  0.0363
  566MPD2    C1 8446   2.631   3.660  13.836 -0.7115  0.3691 -0.4493
  566MPD2    C2 8447   2.607   3.630  13.699  0.7451  0.2871  0.6896
  566MPD2    C3 8448   2.479   3.589  13.653  0.1500  0.2633 -0.7880
  566MPD2    C4 8449   2.382   3.579  13.752 -0.2556 -0.1098  0.1832
  566MPD2    C5 8450   2.405   3.598  13.879  0.5110  0.9057 -0.0503
  566MPD2     H 8451   2.698   3.625  13.640  1.8417 -1.0231  2.5188
  566MPD2    H1 8452   2.281   3.554  13.724  0.2363 -2.2434  0.2965
  566MPD2    H2 8453   2.554   3.661  14.030  0.3166 -1.2005  0.1913
  566MPD2    H3 8454   2.327   3.572  13.950  0.4439 -1.5681 -1.0174
  566MPD2     N 8455   2.441   3.576  13.512 -0.7119 -0.0710  0.8300
  566MPD2    H5 8456   2.341   3.563  13.496 -0.6554  0.3167  0.1849
  566MPD2    N1 8457   2.758   3.708  13.886 -0.0552  0.1446  0.2597
  566MPD2    H7 8458   2.773   3.710  13.986  0.8746  0.4821  0.1174
  567TMC3    C1 8459   2.966   3.824  13.881 -0.4735  0.4046  0.5548
  567TMC3    C2 8460   3.047   3.884  13.796 -0.9079  0.3432 -0.3247
  567TMC3    C3 8461   3.159   3.943  13.841  0.1320 -0.1970 -0.6249
  567TMC3    C4 8462   2.992   3.811  14.018  0.0713 -0.2833  0.3438
  567TMC3    C5 8463   3.111   3.864  14.058  0.4231  0.2493 -0.6379
  567TMC3    C6 8464   3.193   3.928  13.970  0.3719  0.4871 -0.0193
  567TMC3     C 8465   2.860   3.753  13.810 -0.3586 -0.5729  0.2871
  567TMC3     O 8466   2.854   3.772  13.688 -0.1843  0.5727  0.4368
  567TMC3     H 8467   3.034   3.891  13.689 -1.1040 -1.2778 -0.3990
  567TMC3    H1 8468   2.933   3.739  14.075 -2.6813 -0.3730 -2.5861
  567TMC3    H2 8469   3.288   3.964  14.008  0.1539 -0.3684  1.3138
  567TMC3    C7 8470   3.170   3.826  14.179  0.5877 -0.4000 -0.6280
  567TMC3    C8 8471   3.234   4.017  13.745 -0.5292 -0.1059  0.4065
  567TMC3    O1 8472   3.291   3.832  14.192 -0.1023  0.1374  0.1111
  567TMC3    O2 8473   3.175   4.058  13.646  0.0949  0.4236 -0.5237
  568MPD2     C 8474   0.728   4.066  15.697  0.2547 -0.5326  0.0647
  568MPD2    C1 8475   0.712   4.122  15.824  0.6291  0.3116  0.3267
  568MPD2    C2 8476   0.642   4.240  15.826  0.6270 -0.1570  0.8911
  568MPD2    C3 8477   0.582   4.291  15.711  0.4221  0.9065  0.0278
  568MPD2    C4 8478   0.600   4.234  15.587 -0.0635 -0.6675 -0.1210
  568MPD2    C5 8479   0.680   4.121  15.581  0.7542 -0.7366 -0.3207
  568MPD2     H 8480   0.612   4.285  15.921  0.9681 -1.5857  1.6742
  568MPD2    H1 8481   0.561   4.280  15.496  1.2426 -1.2679 -0.9850
  568MPD2    H2 8482   0.788   3.978  15.681 -2.6171 -2.1679 -1.8915
  568MPD2    H3 8483   0.695   4.088  15.479  0.8811 -0.4271 -0.4009
  568MPD2     N 8484   0.509   4.412  15.728  0.3084 -0.0762  0.3621
  568MPD2    H5 8485   0.508   4.442  15.825 -1.2393 -1.8160  0.9005
  568MPD2    N1 8486   0.761   4.052  15.940  0.4373  0.0224  0.6383
  568MPD2    H7 8487   0.827   3.976  15.924  0.0310  0.1022 -1.3961
  569TMC3    C1 8488   0.389   4.599  15.717  0.7033 -0.2990 -0.4960
  569TMC3    C2 8489   0.369   4.587  15.848 -0.1661 -0.0264  0.0141
  569TMC3    C3 8490   0.358   4.701  15.918 -0.2055  0.0918 -0.4767
  569TMC3    C4 8491   0.399   4.721  15.652 -0.4149  0.8410 -0.1796
  569TMC3    C5 8492   0.393   0.098  15.731 -0.4264 -0.0401  0.0903
  569TMC3    C6 8493   0.367   0.090  15.860 -0.0577 -0.1907  0.2951
  569TMC3     C 8494   0.426   4.483  15.643  0.1136  0.1461 -0.0627
  569TMC3     O 8495   0.406   4.461  15.525  0.2856 -0.0111 -0.1045
  569TMC3     H 8496   0.356   4.490  15.895  1.8670 -0.3905 -0.1554
  569TMC3    H1 8497   0.427   4.726  15.547  0.2352  1.8777  0.0316
  569TMC3    H2 8498   0.347   0.178  15.920  0.3066  0.0858  0.0111
  569TMC3    C7 8499   0.399   0.226  15.661 -0.5530  0.3949 -0.4079
  569TMC3    C8 8500   0.366   4.698  16.065  0.8878  0.3969 -0.4044
  569TMC3    O1 8501   0.361   0.220  15.546 -0.3930  0.1719 -0.5358
  569TMC3    O2 8502   0.322   4.601  16.126 -0.4361 -0.8418  0.4837
  570TMC3    C1 8503   4.687   2.982  16.027 -1.0934  0.5564  0.4726
  570TMC3    C2 8504   0.025   2.988  15.916  0.4615  0.3153  0.3084
  570TMC3    C3 8505   0.121   3.089  15.899 -0.6843 -0.6237 -0.0655
  570TMC3    C4 8506   4.714   3.064  16.137  0.7396  0.4455  0.5987
  570TMC3    C5 8507   0.073   3.166  16.116  1.1148 -0.6459 -0.3010
  570TMC3    C6 8508   0.143   3.186  16.002  0.1208 -0.4714 -0.2438
  570TMC3     C 8509   4.612   2.854  16.045 -0.5423  0.2210  0.5548
  570TMC3     O 8510   4.587   2.797  15.937  0.4660  0.2764 -0.8092
  570TMC3     H 8511   4.726   2.932  15.830  1.7479  2.3243 -1.5323
  570TMC3    H1 8512   4.666   3.051  16.233  1.4341  0.0445  0.8930
  570TMC3    H2 8513   0.214   3.267  15.991  0.7846 -1.1989 -1.4339
  570TMC3    C7 8514   0.109   3.255  16.228 -0.5993  0.0702  0.4358
  570TMC3    C8 8515   0.164   3.134  15.768 -0.3162 -0.3285  0.9524
  570TMC3    O1 8516   0.217   3.314  16.221 -0.2990  0.2987 -0.1236
  570TMC3    O2 8517   0.271   3.191  15.763  0.6902  0.3029  0.1556
  571MPD2     C 8518   2.311   0.193   0.441  0.6744  0.4409 -0.4053
  571MPD2    C1 8519   2.441   0.163   0.420 -0.3945 -0.0773 -1.2012
  571MPD2    C2 8520   2.535   0.263   0.436 -0.1826 -0.3042  0.0129
  571MPD2    C3 8521   2.492   0.391   0.468  0.2433 -0.0583  0.0264
  571MPD2    C4 8522   2.360   0.421   0.488  0.3649 -0.1622 -0.7614
  571MPD2    C5 8523   2.271   0.316   0.481 -0.4077  0.9036 -0.6611
  571MPD2     H 8524   2.639   0.249   0.409 -0.8254 -2.2472 -1.4608
  571MPD2    H1 8525   2.318   0.518   0.515 -2.1486 -1.8511  1.3774
  571MPD2    H2 8526   2.232   0.118   0.438  1.7552 -0.7676  1.4695
  571MPD2    H3 8527   2.166   0.324   0.507 -0.3102 -0.6591  0.1969
  571MPD2     N 8528   2.577   0.506   0.471  0.2642 -0.5539 -0.0906
  571MPD2    H5 8529   2.539   0.598   0.494 -1.1772 -1.3513  0.7067
  571MPD2    N1 8530   2.479   0.036   0.382  1.2273  0.6200 -0.3616
  571MPD2    H7 8531   2.579   0.020   0.372  0.8785 -0.5437 -1.9220
  572TMC3    C1 8532   2.784   0.636   0.493  0.3305  0.1569  0.0430
  572TMC3    C2 8533   2.919   0.633   0.521 -0.0327  0.0164 -0.4263
  572TMC3    C3 8534   2.992   0.747   0.525 -0.1539  0.0388 -0.3775
  572TMC3    C4 8535   2.730   0.744   0.441  0.4798  0.3357 -0.5364
  572TMC3    C5 8536   2.803   0.859   0.432 -0.6162 -0.0967  0.4640
  572TMC3    C6 8537   2.938   0.859   0.466  0.6178  0.3000  0.3630
  572TMC3     C 8538   2.711   0.508   0.484 -0.1220 -0.2489 -0.2689
  572TMC3     O 8539   2.789   0.413   0.497  0.3787 -0.6084 -0.5429
  572TMC3     H 8540   2.955   0.545   0.573 -0.0322  0.9957  1.2357
  572TMC3    H1 8541   2.643   0.726   0.378  1.2223  1.8780 -2.0180
  572TMC3    H2 8542   2.998   0.949   0.456 -0.8759  1.2411 -0.1072
  572TMC3    C7 8543   2.764   0.959   0.332  0.0383  0.6389 -0.9856
  572TMC3    C8 8544   3.116   0.766   0.602  0.0111  0.4019  0.6815
  572TMC3    O1 8545   2.708   0.921   0.231 -0.3848 -0.1841  0.1334
  572TMC3    O2 8546   3.144   0.885   0.612 -0.0679 -0.3479  0.1971
  573MPD2     C 8547   3.477   0.467   0.506  0.1749  0.6170  0.4526
  573MPD2    C1 8548   3.474   0.586   0.440 -0.5996  0.0338 -0.1724
  573MPD2    C2 8549   3.365   0.626   0.358 -0.4688 -0.3334  1.1771
  573MPD2    C3 8550   3.268   0.532   0.329 -0.3870  0.3437 -0.1025
  573MPD2    C4 8551   3.273   0.407   0.388 -0.5600  0.3838  0.4762
  573MPD2    C5 8552   3.374   0.378   0.477  0.2669  0.4282  0.3122
  573MPD2     H 8553   3.365   0.730   0.327  1.4937  0.5513  4.1671
  573MPD2    H1 8554   3.202   0.329   0.363 -2.3935  1.5321  2.0585
  573MPD2    H2 8555   3.560   0.433   0.567 -0.9424 -0.1494  1.5511
  573MPD2    H3 8556   3.379   0.280   0.523 -0.1615 -0.3939 -1.3959
  573MPD2     N 8557   3.164   0.546   0.241  0.1606  0.4352  0.4160
  573MPD2    H5 8558   3.101   0.467   0.234  0.5464  0.3208 -1.7669
  573MPD2    N1 8559   3.584   0.669   0.480  0.5249 -0.2887 -0.3316
  573MPD2    H7 8560   3.640   0.621   0.550 -0.2285  0.3051  0.6768
  574TMC3    C1 8561   3.015   0.665   0.098  0.4312 -0.2163  0.3560
  574TMC3    C2 8562   2.981   0.788   0.040 -0.3129 -0.4975  0.0669
  574TMC3    C3 8563   2.893   0.797  17.679  0.3843  0.2883 -0.3508
  574TMC3    C4 8564   2.988   0.546   0.031  0.7698  0.6293  0.1828
  574TMC3    C5 8565   2.896   0.565  17.670  0.1042 -0.0599 -0.0994
  574TMC3    C6 8566   2.843   0.685  17.631  0.1016  0.2590  0.1843
  574TMC3     C 8567   3.118   0.670   0.196  0.7174  0.6073 -0.3041
  574TMC3     O 8568   3.156   0.783   0.233  0.4523 -0.0086 -0.7176
  574TMC3     H 8569   3.020   0.882   0.079  0.6890 -1.5521  1.6413
  574TMC3    H1 8570   3.025   0.450   0.065 -2.8407 -1.8305 -2.7742
  574TMC3    H2 8571   2.767   0.693  17.554  3.6022 -1.8042 -3.4786
  574TMC3    C7 8572   2.856   0.440  17.608  0.4456  1.0068 -0.1326
  574TMC3    C8 8573   2.864   0.926  17.628  0.4720  0.7150 -0.2989
  574TMC3    O1 8574   2.925   0.341  17.630 -0.1719 -0.1743  0.2814
  574TMC3    O2 8575   2.751   0.938  17.579  1.0990 -0.3423  0.3994
  575TMC3    C1 8576   1.564   2.054  10.685  0.9776 -1.0133 -0.2398
  575TMC3    C2 8577   1.542   1.928  10.741  0.7373 -0.0619 -0.2395
  575TMC3    C3 8578   1.462   1.846  10.669  0.6484  0.3243 -0.0307
  575TMC3    C4 8579   1.516   2.089  10.561 -0.2524 -0.6353  0.2955
  575TMC3    C5 8580   1.435   2.002  10.502  0.1312 -0.3315  0.1617
  575TMC3    C6 8581   1.390   1.884  10.559  0.0867  0.1481 -0.6229
  575TMC3     C 8582   1.613   2.161  10.767  0.1042 -0.6237 -0.0308
  575TMC3     O 8583   1.680   2.244  10.710  0.0922  0.0140 -0.6714
  575TMC3     H 8584   1.578   1.908  10.842 -0.2963  0.6224  0.2590
  575TMC3    H1 8585   1.545   2.180  10.510  0.5855 -0.2335  1.4978
  575TMC3    H2 8586   1.337   1.816  10.492 -1.8753  0.6169  0.4367
  575TMC3    C7 8587   1.375   2.064  10.386 -0.1883  0.3822  0.7391
  575TMC3    C8 8588   1.412   1.729  10.728  0.2042 -0.2150 -0.4403
  575TMC3    O1 8589   1.444   2.140  10.319  0.6249  0.2339  0.1179
  575TMC3    O2 8590   1.300   1.690  10.686  0.1582  0.5087 -0.0340
  576MPD2     C 8591   1.217   3.027  12.614 -0.2996 -0.2855  0.3376
  576MPD2    C1 8592   1.236   3.140  12.528  0.0636 -0.8663 -0.3196
  576MPD2    C2 8593   1.206   3.269  12.567  0.0208 -0.0116  0.0234
  576MPD2    C3 8594   1.129   3.292  12.684 -0.7816  0.1513 -0.0129
  576MPD2    C4 8595   1.107   3.179  12.771 -0.2829 -0.1951  0.1659
  576MPD2    C5 8596   1.152   3.055  12.734  0.3553 -0.6216  0.2647
  576MPD2     H 8597   1.215   3.355  12.502 -1.3664  0.2394  0.1671
  576MPD2    H1 8598   1.049   3.188  12.862  0.8113  3.1824  0.5212
  576MPD2    H2 8599   1.243   2.924  12.592 -1.6570 -0.3035 -1.1474
  576MPD2    H3 8600   1.132   2.980  12.810  2.2553 -1.4330 -0.0473
  576MPD2     N 8601   1.080   3.419  12.707  0.0337 -0.4852 -0.4806
  576MPD2    H5 8602   1.120   3.500  12.662 -0.5802  0.5252  0.7901
  576MPD2    N1 8603   1.291   3.125  12.400  0.3111  0.3381 -0.4189
  576MPD2    H7 8604   1.320   3.209  12.350 -0.8554  0.8377 -0.2527
  577TMC3    C1 8605   1.371   3.042  12.192  0.7937 -0.6432  0.3925
  577TMC3    C2 8606   1.420   2.933  12.126  0.6516 -0.5394 -0.2687
  577TMC3    C3 8607   1.443   2.952  11.991 -0.2254  0.8472  0.6732
  577TMC3    C4 8608   1.321   3.155  12.138 -0.2895 -0.5586  0.0977
  577TMC3    C5 8609   1.359   3.171  12.006  0.3105  0.3200 -0.0180
  577TMC3    C6 8610   1.422   3.075  11.935 -0.2212  0.0158 -0.0623
  577TMC3     C 8611   1.331   3.009  12.331  0.6390 -0.2505  0.2133
  577TMC3     O 8612   1.330   2.892  12.362 -0.0480  0.0339 -0.3517
  577TMC3     H 8613   1.447   2.842  12.178 -2.0602 -1.2575 -0.1031
  577TMC3    H1 8614   1.260   3.229  12.190  0.4268  1.5552 -2.0939
  577TMC3    H2 8615   1.462   3.113  11.842 -1.0456 -0.6369 -0.6810
  577TMC3    C7 8616   1.385   3.303  11.963  0.2660 -0.2922  0.1773
  577TMC3    C8 8617   1.513   2.848  11.921 -0.1972 -0.4096 -0.1434
  577TMC3    O1 8618   1.412   3.390  12.043  0.6212 -0.1799 -0.3910
  577TMC3    O2 8619   1.501   2.737  11.972 -0.4998  0.1159 -0.0041
  578MPD2     C 8620   0.441   3.436   1.832 -0.5353 -0.5953  0.2733
  578MPD2    C1 8621   0.369   3.348   1.755  0.1651  0.6589  0.5005
  578MPD2    C2 8622   0.434   3.238   1.698  0.0911 -0.1651  0.4360
  578MPD2    C3 8623   0.564   3.216   1.731 -0.3385  0.2375  0.0693
  578MPD2    C4 8624   0.635   3.301   1.812  0.2129 -0.8472 -0.1185
  578MPD2    C5 8625   0.570   3.412   1.863  0.2430 -0.0556 -1.3325
  578MPD2     H 8626   0.383   3.169   1.632 -0.3383 -1.5244  2.1994
  578MPD2    H1 8627   0.738   3.287   1.840  0.2637  1.6220  0.8571
  578MPD2    H2 8628   0.382   3.518   1.870 -2.3816 -0.7474 -2.2326
  578MPD2    H3 8629   0.636   3.480   1.915 -1.4465  1.2088 -0.8743
  578MPD2     N 8630   0.616   3.096   1.678  0.5744  0.5484 -0.3547
  578MPD2    H5 8631   0.560   3.055   1.604  0.3003 -0.3756  0.3688
  578MPD2    N1 8632   0.234   3.380   1.734  0.2923 -0.4600 -0.4224
  578MPD2    H7 8633   0.198   3.469   1.767 -1.6620 -1.3231 -0.2399
  579TMC3    C1 8634   0.770   2.925   1.642 -0.2863  0.3591  0.1495
  579TMC3    C2 8635   0.900   2.886   1.663  0.5404  0.4000 -0.6215
  579TMC3    C3 8636   0.929   2.757   1.624 -0.0409  0.3921  0.8379
  579TMC3    C4 8637   0.684   2.843   1.578  0.1047  0.2985 -0.2985
  579TMC3    C5 8638   0.713   2.713   1.561  0.0074  0.5526 -0.2373
  579TMC3    C6 8639   0.840   2.665   1.566 -0.6759  0.4943 -0.3648
  579TMC3     C 8640   0.733   3.046   1.717 -0.2849 -0.2072 -0.1791
  579TMC3     O 8641   0.824   3.083   1.792  0.3254  0.2188 -0.8521
  579TMC3     H 8642   0.976   2.946   1.713 -1.2895  1.3348  1.0203
  579TMC3    H1 8643   0.581   2.877   1.576 -0.9023 -2.4442  2.9952
  579TMC3    H2 8644   0.874   2.563   1.549 -3.0555  0.1090 -2.7749
  579TMC3    C7 8645   0.625   2.625   1.484 -0.2964  0.1968 -0.8557
  579TMC3    C8 8646   1.066   2.740   1.588 -0.1404 -0.3064  0.1641
  579TMC3    O1 8647   0.677   2.531   1.423  0.5136  0.5316  0.0884
  579TMC3    O2 8648   1.111   2.626   1.610 -0.0178  0.7041 -0.1314
  580TMC3    C1 8649   4.062   3.100  12.151 -0.4789 -0.9557 -0.2182
  580TMC3    C2 8650   4.173   3.166  12.117 -0.4495  0.0768 -0.3832
  580TMC3    C3 8651   4.278   3.094  12.079 -0.4162  0.0498 -0.8830
  580TMC3    C4 8652   4.061   2.970  12.183 -0.7590  0.6762  0.6143
  580TMC3    C5 8653   4.176   2.907  12.150 -0.3205  0.2306  0.0193
  580TMC3    C6 8654   4.290   2.959  12.093  0.3749  0.9072 -0.5740
  580TMC3     C 8655   3.934   3.171  12.135  0.2427  0.3298 -1.3808
  580TMC3     O 8656   3.938   3.290  12.099 -0.1559 -0.3175  0.3507
  580TMC3     H 8657   4.175   3.271  12.090 -0.7592  1.4323  4.7996
  580TMC3    H1 8658   3.981   2.909  12.222 -0.4533 -1.1393 -1.5812
  580TMC3    H2 8659   4.383   2.911  12.064 -0.6934 -1.5439  0.0167
  580TMC3    C7 8660   4.183   2.778  12.206  0.1234 -0.4506 -0.3962
  580TMC3    C8 8661   4.389   3.163  12.017 -0.4794 -0.7713 -0.0190
  580TMC3    O1 8662   4.129   2.758  12.313  0.4852  0.4166 -0.1736
  580TMC3    O2 8663   4.433   3.257  12.077  0.6933  0.3231  0.0366
  581MPD2     C 8664   1.637   2.402  15.052  0.0999  0.5090 -0.1143
  581MPD2    C1 8665   1.625   2.301  14.959  0.3687  0.1373  0.2213
  581MPD2    C2 8666   1.530   2.318  14.861  0.1141 -0.6052 -0.6565
  581MPD2    C3 8667   1.459   2.436  14.851  0.1576 -0.0583 -0.6310
  581MPD2    C4 8668   1.474   2.536  14.952  0.3244  0.1712 -0.3009
  581MPD2    C5 8669   1.559   2.516  15.056  0.2381 -0.6221 -0.3305
  581MPD2     H 8670   1.504   2.239  14.791 -0.1267  0.7268 -2.0798
  581MPD2    H1 8671   1.430   2.635  14.954  1.1123  0.5553 -1.7330
  581MPD2    H2 8672   1.701   2.384  15.138  0.2364  0.5563 -0.2059
  581MPD2    H3 8673   1.574   2.590  15.134 -4.6725  0.6669 -0.5945
  581MPD2     N 8674   1.367   2.446  14.744  0.8461  0.4877  0.1973
  581MPD2    H5 8675   1.359   2.368  14.680 -0.2877 -1.4238  2.6281
  581MPD2    N1 8676   1.705   2.189  14.975 -0.2104  0.3732  0.2431
  581MPD2    H7 8677   1.749   2.193  15.066  1.1465  0.6785 -0.4294
  582TMC3    C1 8678   1.796   1.973  14.949 -0.2369 -0.8537  0.1789
  582TMC3    C2 8679   1.897   2.014  15.036 -0.0119  0.3870 -0.2083
  582TMC3    C3 8680   2.001   1.926  15.059 -0.5722  0.6607 -0.7385
  582TMC3    C4 8681   1.794   1.850  14.889  0.1872 -0.3731 -0.9317
  582TMC3    C5 8682   1.890   1.761  14.927  0.0756  0.5569 -0.6595
  582TMC3    C6 8683   1.996   1.797  15.011 -0.5333 -0.1685  0.1322
  582TMC3     C 8684   1.703   2.076  14.895  0.1358  0.2712  1.0977
  582TMC3     O 8685   1.627   2.045  14.802 -0.0409 -0.5152 -0.0356
  582TMC3     H 8686   1.912   2.116  15.070  1.3384 -0.2142  1.0205
  582TMC3    H1 8687   1.721   1.815  14.818 -1.6900 -1.3031  1.4459
  582TMC3    H2 8688   2.074   1.726  15.037 -1.0596 -1.1300 -0.9697
  582TMC3    C7 8689   1.830   1.624  14.934  0.2033 -0.0665 -0.0163
  582TMC3    C8 8690   2.079   1.945  15.171 -0.2381 -0.0470  0.5655
  582TMC3    O1 8691   1.746   1.586  14.852 -0.4317 -0.4284 -0.1284
  582TMC3    O2 8692   2.021   2.012  15.258 -0.0965  0.7722 -0.5267
  583MPD2     C 8693   1.849   3.404  16.688 -0.0197 -0.2451  0.3250
  583MPD2    C1 8694   1.834   3.510  16.605  0.0303  0.3362  0.4739
  583MPD2    C2 8695   1.733   3.604  16.641  0.3082 -0.7347  0.3737
  583MPD2    C3 8696   1.662   3.591  16.754 -0.1105  0.2232 -0.3086
  583MPD2    C4 8697   1.676   3.481  16.836 -0.3858  0.3781 -0.7068
  583MPD2    C5 8698   1.767   3.383  16.802 -0.0572 -0.7930 -1.0296
  583MPD2     H 8699   1.721   3.686  16.571  2.2115 -0.6432  0.1545
  583MPD2    H1 8700   1.622   3.465  16.929  0.6599 -0.6913 -0.2913
  583MPD2    H2 8701   1.923   3.327  16.668 -0.5084 -0.3556 -1.0731
  583MPD2    H3 8702   1.781   3.290  16.855 -2.3317 -0.6070 -0.1217
  583MPD2     N 8703   1.562   3.690  16.775 -0.0866  0.1067 -0.0299
  583MPD2    H5 8704   1.575   3.776  16.722 -0.4721  0.1504 -0.0527
  583MPD2    N1 8705   1.908   3.530  16.482 -0.6984  0.7018  0.2778
  583MPD2    H7 8706   1.881   3.611  16.427 -1.4846  1.3816  1.6722
  584TMC3    C1 8707   1.417   3.805  16.913  0.6218  0.4475 -0.2885
  584TMC3    C2 8708   1.427   3.912  16.830  0.0989 -0.3496  0.0256
  584TMC3    C3 8709   1.422   4.038  16.885 -0.4813 -0.0401  0.3963
  584TMC3    C4 8710   1.399   3.823  17.049  0.4861 -0.5387  0.3638
  584TMC3    C5 8711   1.409   3.947  17.098 -0.7615  0.4304 -0.6048
  584TMC3    C6 8712   1.414   4.055  17.017  0.0063  0.2860  0.9043
  584TMC3     C 8713   1.469   3.673  16.874 -0.4023 -0.2298 -0.3704
  584TMC3     O 8714   1.441   3.577  16.949  0.0662  0.3832  0.8502
  584TMC3     H 8715   1.423   3.900  16.722  1.0964  3.0038 -0.3635
  584TMC3    H1 8716   1.399   3.735  17.112  0.8108 -0.8789 -0.1058
  584TMC3    H2 8717   1.386   4.150  17.060 -0.2886  2.0113 -3.1555
  584TMC3    C7 8718   1.449   3.959  17.234  0.4143 -0.3783  0.3989
  584TMC3    C8 8719   1.420   4.152  16.795 -0.2960 -0.3579  0.6780
  584TMC3    O1 8720   1.417   3.868  17.311  0.2543  0.2773  1.0382
  584TMC3    O2 8721   1.404   4.120  16.676 -0.2917  0.6489  0.7537
  585MPD2     C 8722   1.028   3.036   0.531  0.2740  0.2777 -0.1995
  585MPD2    C1 8723   0.957   3.067   0.415 -0.6113 -0.3144 -0.1595
  585MPD2    C2 8724   0.973   2.985   0.306  0.4826  0.0194 -0.1494
  585MPD2    C3 8725   1.062   2.878   0.308  0.2607 -0.4595  0.2680
  585MPD2    C4 8726   1.125   2.841   0.426 -0.6272  0.3582  0.0962
  585MPD2    C5 8727   1.111   2.923   0.532  0.2048  0.4316  0.4391
  585MPD2     H 8728   0.937   3.024   0.211 -2.6274 -0.8079  0.7026
  585MPD2    H1 8729   1.192   2.757   0.440 -0.1893  0.6367 -0.3293
  585MPD2    H2 8730   1.007   3.092   0.622 -1.2968 -0.4889 -0.0874
  585MPD2    H3 8731   1.159   2.891   0.624 -1.9903  1.4851  1.9490
  585MPD2     N 8732   1.090   2.799   0.197  0.4765 -0.5644 -0.3012
  585MPD2    H5 8733   1.138   2.714   0.225 -0.1294 -1.6448 -2.5517
  585MPD2    N1 8734   0.882   3.191   0.418 -0.3410 -0.6575 -0.3468
  585MPD2    H7 8735   0.898   3.251   0.498 -2.1553 -1.4282  0.5847
  586TMC3    C1 8736   1.112   2.751  17.715 -0.1394 -0.3128 -0.5232
  586TMC3    C2 8737   1.142   2.807  17.594  0.7168  0.4343 -0.0981
  586TMC3    C3 8738   1.193   2.717  17.498  0.0567  0.0040  0.6574
  586TMC3    C4 8739   1.116   2.618  17.744 -0.4581 -0.3185 -0.7015
  586TMC3    C5 8740   1.147   2.532  17.638 -0.4022  0.3595 -0.3913
  586TMC3    C6 8741   1.185   2.578  17.518  0.1717  0.3221  0.0699
  586TMC3     C 8742   1.055   2.838   0.070 -0.0590  1.2820  0.3181
  586TMC3     O 8743   1.023   2.945   0.021 -0.3017 -0.4722 -0.2061
  586TMC3     H 8744   1.154   2.914  17.595 -1.3157  0.6614  0.9480
  586TMC3    H1 8745   1.062   2.586   0.087 -0.0995  0.0954 -0.3333
  586TMC3    H2 8746   1.215   2.515  17.436 -1.3936  0.2385 -0.4511
  586TMC3    C7 8747   1.114   2.393  17.662  0.2996  0.1866 -0.3031
  586TMC3    C8 8748   1.228   2.773  17.372  0.1945 -0.5661  0.0860
  586TMC3    O1 8749   1.038   2.359   0.012  0.4574  0.0020 -0.5232
  586TMC3    O2 8750   1.230   2.896  17.359 -0.8091  0.2262 -0.3690
  587TMC3    C1 8751   3.549   1.272  16.296  0.9792 -0.9046 -0.2005
  587TMC3    C2 8752   3.547   1.298  16.428  0.8253 -0.7910 -0.3796
  587TMC3    C3 8753   3.609   1.219  16.516 -0.1748 -0.2410  0.0593
  587TMC3    C4 8754   3.589   1.145  16.259 -0.0403  0.0438 -0.1493
  587TMC3    C5 8755   3.665   1.064  16.345  0.2856 -0.8313 -0.1345
  587TMC3    C6 8756   3.685   1.113  16.469  0.2426 -0.8029  0.1265
  587TMC3     C 8757   3.447   1.336  16.209  0.1114 -0.9241 -0.2722
  587TMC3     O 8758   3.477   1.355  16.092 -0.0343  1.0978 -0.1705
  587TMC3     H 8759   3.514   1.394  16.468 -0.2117  0.5171 -4.4363
  587TMC3    H1 8760   3.562   1.104  16.163 -2.3025 -0.4482  0.6908
  587TMC3    H2 8761   3.724   1.040  16.538 -0.3816 -2.1542 -0.9537
  587TMC3    C7 8762   3.643   0.913  16.326 -1.1927  0.2724  0.4861
  587TMC3    C8 8763   3.622   1.260  16.648  0.1046 -0.2133  0.6253
  587TMC3    O1 8764   3.603   0.856  16.424 -0.5713 -0.4282 -0.7533
  587TMC3    O2 8765   3.731   1.259  16.704  0.2057 -0.1109 -0.2966
  588TMC3    C1 8766   1.293   3.523   9.729  0.0132  0.4565  0.2228
  588TMC3    C2 8767   1.240   3.395   9.752  0.2886  0.7945  0.0217
  588TMC3    C3 8768   1.191   3.360   9.872  0.1733  0.0397 -0.4762
  588TMC3    C4 8769   1.318   3.608   9.834 -0.4965  0.1105 -0.1523
  588TMC3    C5 8770   1.274   3.567   9.958  0.3319  0.0139 -0.3038
  588TMC3    C6 8771   1.206   3.447   9.975  0.0255 -0.7453  0.5411
  588TMC3     C 8772   1.274   3.580   9.592 -0.0658  0.1435  0.6312
  588TMC3     O 8773   1.239   3.513   9.499 -0.4078  0.5612  0.0091
  588TMC3     H 8774   1.215   3.341   9.661  3.3822  0.3728 -0.5849
  588TMC3    H1 8775   1.372   3.702   9.829  0.4787 -0.3925  0.8968
  588TMC3    H2 8776   1.181   3.423  10.077  1.0141  0.6058  1.1090
  588TMC3    C7 8777   1.248   3.662  10.063  0.1989  0.5226 -0.5757
  588TMC3    C8 8778   1.079   3.255   9.884  0.1831  0.4519 -0.6315
  588TMC3    O1 8779   1.268   3.632  10.182  0.0197 -0.7691 -0.0794
  588TMC3    O2 8780   1.050   3.200   9.780 -0.2164  0.1632  0.0314
  589TMC3    C1 8781   0.049   1.387   0.651  0.3373 -0.2226 -0.1606
  589TMC3    C2 8782   0.132   1.290   0.704 -0.0162 -0.8636 -0.0072
  589TMC3    C3 8783   0.153   1.180   0.633 -0.1450  0.6017 -0.7541
  589TMC3    C4 8784   4.727   1.371   0.530 -0.3271  0.4084  0.5241
  589TMC3    C5 8785   0.015   1.256   0.460 -0.1550  1.1875 -0.1312
  589TMC3    C6 8786   0.091   1.158   0.508  0.5649  0.2019  0.2824
  589TMC3     C 8787   0.005   1.506   0.722 -0.2148  0.0978  0.5178
  589TMC3     O 8788   4.646   1.564   0.675  0.0974  0.1253  0.2208
  589TMC3     H 8789   0.186   1.293   0.797 -1.3081 -1.4714  0.7615
  589TMC3    H1 8790   4.685   1.460   0.485 -2.4728  1.3378  4.3273
  589TMC3    H2 8791   0.113   1.062   0.464  0.0283  0.1541  0.1164
  589TMC3    C7 8792   4.677   1.215   0.346  0.1424  0.6217  0.6575
  589TMC3    C8 8793   0.218   1.065   0.696 -0.2036 -0.3611 -0.0983
  589TMC3    O1 8794   4.645   1.096   0.336  0.2130  0.0621  0.0648
  589TMC3    O2 8795   0.185   1.051   0.812 -1.0575 -0.1803 -0.3440
  590MPD2     C 8796   4.369   0.416  16.581  0.1422  0.0567 -0.0784
  590MPD2    C1 8797   4.324   0.499  16.484 -0.0514 -0.4780 -0.2172
  590MPD2    C2 8798   4.416   0.562  16.406  0.3551 -0.3610 -0.4370
  590MPD2    C3 8799   4.553   0.561  16.433  0.3337  0.5381 -0.5244
  590MPD2    C4 8800   4.588   0.493  16.547 -0.8316 -0.3851  0.1300
  590MPD2    C5 8801   4.501   0.419  16.619  0.3460  0.1151  0.3745
  590MPD2     H 8802   4.379   0.631  16.331  1.1582  1.5496  0.9195
  590MPD2    H1 8803   4.689   0.499  16.585  0.0032 -0.4236 -2.0556
  590MPD2    H2 8804   4.306   0.357  16.646  2.4807  0.8516  2.8701
  590MPD2    H3 8805   4.528   0.365  16.709  2.0266 -0.6817 -0.6184
  590MPD2     N 8806   4.636   0.636  16.350 -0.4780  0.3943 -0.0566
  590MPD2    H5 8807   4.598   0.674  16.263 -0.0484 -0.0216 -0.4247
  590MPD2    N1 8808   4.185   0.510  16.464 -0.0380  0.3478 -0.3014
  590MPD2    H7 8809   4.129   0.465  16.536  0.9966  0.0164  0.2989
  591TMC3    C1 8810   0.097   0.655  16.233  0.6957 -0.5025 -0.2233
  591TMC3    C2 8811   0.156   0.547  16.166 -0.2467 -0.5124  0.7933
  591TMC3    C3 8812   0.196   0.570  16.043  0.3587  1.1198 -0.5333
  591TMC3    C4 8813   0.048   0.767  16.164  0.5097  0.7685  0.0801
  591TMC3    C5 8814   0.104   0.788  16.039  0.4025  0.3409 -0.1925
  591TMC3    C6 8815   0.179   0.691  15.979  0.0356  0.0261  0.3109
  591TMC3     C 8816   0.035   0.624  16.359  0.3768  0.4657  0.5726
  591TMC3     O 8817   0.105   0.576  16.445  0.3387 -0.5555  0.1947
  591TMC3     H 8818   0.159   0.450  16.214  0.2362 -1.2018 -0.6370
  591TMC3    H1 8819   4.717   0.839  16.209  1.8373  1.4352  1.0004
  591TMC3    H2 8820   0.223   0.694  15.880  1.7078 -2.8157  0.9541
  591TMC3    C7 8821   0.100   0.922  15.989 -1.2994 -0.4141  0.1639
  591TMC3    C8 8822   0.214   0.445  15.968 -0.1553 -0.2323 -0.0052
  591TMC3    O1 8823   0.052   1.007  16.060  0.1150 -0.6834  0.6158
  591TMC3    O2 8824   0.255   0.351  16.040 -0.1140  0.5554 -0.5163
  592MPD2     C 8825   0.148   2.072  11.940 -0.1403 -0.4978  0.2266
  592MPD2    C1 8826   0.032   2.147  11.942 -0.7133 -0.0621  0.2928
  592MPD2    C2 8827   4.669   2.109  12.022  0.2231  0.2364 -0.1674
  592MPD2    C3 8828   4.678   2.002  12.115  1.0141  0.2800 -0.3823
  592MPD2    C4 8829   0.064   1.935  12.123  0.6333 -0.6357 -0.3719
  592MPD2    C5 8830   0.168   1.972  12.033  0.3764  0.6951  0.1728
  592MPD2     H 8831   4.584   2.176  12.034 -0.4600 -0.3671 -1.6904
  592MPD2    H1 8832   0.078   1.855  12.194  1.4716  1.7615  2.2012
  592MPD2    H2 8833   0.227   2.097  11.870 -2.1464  1.0496 -1.4922
  592MPD2    H3 8834   0.264   1.924  12.037 -0.3520 -0.7692 -0.0982
  592MPD2     N 8835   4.568   1.967  12.204 -0.0391  1.0299 -0.1387
  592MPD2    H5 8836   4.471   1.974  12.175  0.0314 -0.0486 -0.6484
  592MPD2    N1 8837   0.030   2.271  11.865 -0.3024  0.4089  0.0880
  592MPD2    H7 8838   0.111   2.294  11.808 -1.9072  0.9327 -1.9740
  593TMC3    C1 8839   4.710   2.501  11.829 -0.1768 -0.7095 -0.0910
  593TMC3    C2 8840   4.674   2.616  11.901  0.0731 -0.2156  0.0370
  593TMC3    C3 8841   4.733   2.737  11.883 -0.1861  0.4680 -0.4097
  593TMC3    C4 8842   0.077   2.506  11.744 -0.0645  0.4573 -0.6047
  593TMC3    C5 8843   0.130   2.628  11.720 -0.8069 -0.5032  0.0145
  593TMC3    C6 8844   0.091   2.744  11.793 -0.1957 -0.5401 -0.0900
  593TMC3     C 8845   4.673   2.371  11.878  0.2267 -0.1901 -1.0033
  593TMC3     O 8846   4.571   2.374  11.944  0.1659 -0.2572 -0.1829
  593TMC3     H 8847   4.599   2.609  11.979  1.2471  1.0458  1.2765
  593TMC3    H1 8848   0.111   2.423  11.684  0.2413 -0.4762  0.8650
  593TMC3    H2 8849   0.133   2.837  11.758 -1.6531 -0.0231 -0.4521
  593TMC3    C7 8850   0.220   2.654  11.607 -0.0390  0.2079 -0.4949
  593TMC3    C8 8851   4.729   2.832  11.992 -0.0871  0.1436  0.3361
  593TMC3    O1 8852   0.301   2.745  11.603  0.2590  0.0614 -0.2086
  593TMC3    O2 8853   4.633   2.825  12.067 -0.2916  0.1978 -0.1640
  594MPD2     C 8854   3.485   1.081  13.353 -0.1763 -0.1086 -0.2038
  594MPD2    C1 8855   3.496   1.028  13.479 -0.2574  0.0044 -0.0220
  594MPD2    C2 8856   3.597   1.089  13.558 -0.1013 -0.0065  0.1507
  594MPD2    C3 8857   3.668   1.201  13.517 -0.7026  0.3320  0.1505
  594MPD2    C4 8858   3.646   1.261  13.398  0.0205 -0.3513  0.2184
  594MPD2    C5 8859   3.547   1.199  13.319 -0.4721 -0.6634  0.0087
  594MPD2     H 8860   3.632   1.054  13.654 -1.6847  0.4348  0.8741
  594MPD2    H1 8861   3.693   1.347  13.352  0.9335 -0.2684  1.3024
  594MPD2    H2 8862   3.404   1.052  13.287 -0.4249  0.8300 -0.3207
  594MPD2    H3 8863   3.521   1.260  13.233 -2.0826 -0.3718  0.7176
  594MPD2     N 8864   3.763   1.247  13.612  0.2863  0.1752 -0.9672
  594MPD2    H5 8865   3.787   1.194  13.695 -1.3535 -2.5740 -2.2550
  594MPD2    N1 8866   3.392   0.944  13.530  0.2427  0.5000  0.1362
  594MPD2    H7 8867   3.309   0.931  13.472  0.2782 -0.8210  0.3931
  595TMC3    C1 8868   4.113   1.484  13.811 -0.3247 -0.1822 -0.0059
  595TMC3    C2 8869   4.048   1.442  13.701 -0.5472  0.2081 -0.1699
  595TMC3    C3 8870   3.927   1.375  13.722  0.3449 -0.0664  0.3944
  595TMC3    C4 8871   4.068   1.461  13.936  0.2474 -0.2341 -0.0355
  595TMC3    C5 8872   3.942   1.400  13.950 -0.2241 -0.4262  0.3104
  595TMC3    C6 8873   3.871   1.352  13.846 -0.2702  0.2761  0.2444
  595TMC3     C 8874   4.245   1.543  13.806  0.1046 -0.3203 -0.7092
  595TMC3     O 8875   4.304   1.555  13.914 -0.0394 -0.5385  0.0149
  595TMC3     H 8876   4.078   1.466  13.600  0.4493 -1.0761 -0.1790
  595TMC3    H1 8877   4.127   1.498  14.019 -2.0290  2.9600  0.1938
  595TMC3    H2 8878   3.769   1.321  13.864 -0.5088  0.2002 -1.2597
  595TMC3    C7 8879   3.870   1.399  14.077  0.1256 -0.3324 -0.1429
  595TMC3    C8 8880   3.843   1.356  13.603 -0.2480  0.6299 -0.4313
  595TMC3    O1 8881   3.749   1.398  14.074  0.0082 -0.1956  0.0674
  595TMC3    O2 8882   3.874   1.423  13.501  0.9871  0.8013  0.3720
  596MPD2     C 8883   2.702   3.222  16.665 -0.0973 -0.2109 -0.3190
  596MPD2    C1 8884   2.677   3.344  16.604 -0.5971 -0.5331 -0.0055
  596MPD2    C2 8885   2.676   3.360  16.469 -0.0741 -0.0669  0.0164
  596MPD2    C3 8886   2.691   3.254  16.382  0.5492 -0.2771  0.0384
  596MPD2    C4 8887   2.708   3.130  16.446  0.1171  0.5594  0.0069
  596MPD2    C5 8888   2.711   3.110  16.586 -0.3111 -0.8658  0.1422
  596MPD2     H 8889   2.672   3.460  16.426  1.2867 -0.5748 -1.2788
  596MPD2    H1 8890   2.713   3.041  16.384 -1.7909  0.6292 -0.2431
  596MPD2    H2 8891   2.700   3.208  16.772 -0.9248 -0.2743 -0.3461
  596MPD2    H3 8892   2.732   3.008  16.617  1.7916 -0.6667 -0.5931
  596MPD2     N 8893   2.681   3.262  16.240 -0.0474 -0.0295 -0.2983
  596MPD2    H5 8894   2.692   3.173  16.194  1.2857 -0.7590  1.4352
  596MPD2    N1 8895   2.655   3.462  16.674 -0.5293 -0.6994  0.0161
  596MPD2    H7 8896   2.621   3.541  16.621  0.0380  1.4780  2.8764
  597TMC3    C1 8897   2.685   3.615  16.839 -0.2377 -0.0686  0.5880
  597TMC3    C2 8898   2.719   3.708  16.736  0.6519 -0.0732  0.4922
  597TMC3    C3 8899   2.701   3.837  16.759 -0.1067  0.4606 -0.3956
  597TMC3    C4 8900   2.636   3.660  16.957 -0.1108  0.5123  0.2628
  597TMC3    C5 8901   2.608   3.790  16.972  0.4882  0.1200  0.4611
  597TMC3    C6 8902   2.643   3.882  16.875 -0.1679 -0.1289  0.2449
  597TMC3     C 8903   2.682   3.476  16.812  0.4717  0.6008 -0.2405
  597TMC3     O 8904   2.683   3.398  16.903  0.4707 -0.3159 -0.7163
  597TMC3     H 8905   2.773   3.670  16.650 -1.1833  1.4495 -1.3377
  597TMC3    H1 8906   2.593   3.598  17.035 -1.3021  1.3261  0.2602
  597TMC3    H2 8907   2.629   3.987  16.896  0.7546  0.0438 -0.0240
  597TMC3    C7 8908   2.487   3.821  17.046 -0.0818  0.5946  0.7648
  597TMC3    C8 8909   2.735   3.938  16.664  0.3220 -0.7707 -0.7303
  597TMC3    O1 8910   2.448   3.741  17.132  0.2099  0.7735  0.2739
  597TMC3    O2 8911   2.699   4.049  16.696 -0.3026 -0.7515  0.4081
  598TMC3    C1 8912   0.684   0.374  15.331 -0.3581 -0.1040  0.4869
  598TMC3    C2 8913   0.600   0.268  15.325  0.4409 -0.3218 -0.2349
  598TMC3    C3 8914   0.583   0.215  15.197  0.3335  0.5491 -0.0909
  598TMC3    C4 8915   0.755   0.425  15.223  0.9876 -0.3034  0.1151
  598TMC3    C5 8916   0.746   0.357  15.106 -0.9782  0.4410  0.9886
  598TMC3    C6 8917   0.662   0.250  15.094 -0.5830 -0.0318  0.9439
  598TMC3     C 8918   0.748   0.410  15.458 -0.0568  0.4487  0.0702
  598TMC3     O 8919   0.788   0.524  15.469 -0.1414  0.0102  0.0002
  598TMC3     H 8920   0.546   0.217  15.403 -2.3522  1.7504 -0.8249
  598TMC3    H1 8921   0.823   0.506  15.244  0.8639  0.2169 -1.4603
  598TMC3    H2 8922   0.650   0.191  15.003  2.8270  1.9344 -0.7520
  598TMC3    C7 8923   0.842   0.379  14.998  0.0409 -0.2352  0.8106
  598TMC3    C8 8924   0.483   0.114  15.174  0.2693  0.0345  0.5976
  598TMC3    O1 8925   0.834   0.306  14.901  0.0267  0.6372  0.3288
  598TMC3    O2 8926   0.502   0.048  15.072  0.1007 -0.0515 -0.3854
  599MPD2     C 8927   1.168   2.462  15.639  0.1470 -0.6296 -0.0144
  599MPD2    C1 8928   1.100   2.343  15.652  0.9745 -0.5055  0.3896
  599MPD2    C2 8929   0.978   2.346  15.724  0.4016  0.2091 -0.1127
  599MPD2    C3 8930   0.928   2.467  15.770  0.8812  0.0859 -0.3944
  599MPD2    C4 8931   0.990   2.588  15.737 -0.1796  0.0974 -0.1804
  599MPD2    C5 8932   1.113   2.581  15.674  0.1858  0.0187  0.0899
  599MPD2     H 8933   0.918   2.258  15.742 -0.3260  0.8823  0.7238
  599MPD2    H1 8934   0.957   2.683  15.779 -0.9999  0.2333 -1.1214
  599MPD2    H2 8935   1.262   2.457  15.584  1.6534  0.3599  2.4819
  599MPD2    H3 8936   1.163   2.674  15.654  0.1021 -0.2049 -1.1293
  599MPD2     N 8937   0.816   2.470  15.857 -0.0253 -0.3103  0.1862
  599MPD2    H5 8938   0.786   2.562  15.887  1.7407  0.8127 -1.4526
  599MPD2    N1 8939   1.157   2.228  15.596 -0.2538  0.5549 -0.4798
  599MPD2    H7 8940   1.255   2.238  15.572 -0.1921 -0.2938 -0.5907
  600TMC3    C1 8941   0.641   2.402  15.988  0.0038  0.1051  0.1310
  600TMC3    C2 8942   0.532   2.327  15.967  0.7359 -0.0402 -0.6233
  600TMC3    C3 8943   0.412   2.379  16.012  0.0394 -0.3496  0.4301
  600TMC3    C4 8944   0.648   2.512  16.069  0.0630 -0.8154 -1.0559
  600TMC3    C5 8945   0.527   2.545  16.131  0.3099  0.7358 -0.4717
  600TMC3    C6 8946   0.404   2.492  16.097  0.1766 -0.1877  0.2443
  600TMC3     C 8947   0.758   2.359  15.914 -0.1365 -0.0472 -0.3793
  600TMC3     O 8948   0.767   2.237  15.902 -0.4312 -0.3718 -0.1249
  600TMC3     H 8949   0.535   2.244  15.897 -0.5592 -0.8286  0.2372
  600TMC3    H1 8950   0.748   2.544  16.098 -0.2566 -1.0726  0.3436
  600TMC3    H2 8951   0.317   2.516  16.157  1.5756  0.2948  2.0721
  600TMC3    C7 8952   0.522   2.671  16.205 -0.1513  0.4713 -0.7427
  600TMC3    C8 8953   0.290   2.320  15.967  0.0611  0.0280 -0.0172
  600TMC3    O1 8954   0.433   2.685  16.282 -0.2295 -0.1519 -0.2167
  600TMC3    O2 8955   0.295   2.207  15.915  0.4263  0.1172 -0.5547
  601MPD2     C 8956   2.715   1.462   0.234 -0.0141 -0.6722  0.5906
  601MPD2    C1 8957   2.682   1.352   0.152 -0.1465  0.7751 -0.2900
  601MPD2    C2 8958   2.702   1.222   0.200 -0.1698 -0.0709  0.9024
  601MPD2    C3 8959   2.773   1.208   0.321 -0.4311 -1.1615  0.0964
  601MPD2    C4 8960   2.811   1.317   0.402 -0.4608 -0.3040 -0.2043
  601MPD2    C5 8961   2.777   1.439   0.353 -1.0780 -0.4439  0.3159
  601MPD2     H 8962   2.667   1.134   0.147  0.8976  0.2750 -0.3499
  601MPD2    H1 8963   2.869   1.310   0.494 -3.1476  1.4866  1.6403
  601MPD2    H2 8964   2.689   1.565   0.215  0.0325 -1.0263 -1.4077
  601MPD2    H3 8965   2.797   1.522   0.419  0.0945 -0.2915 -0.2330
  601MPD2     N 8966   2.808   1.086   0.379 -1.5185 -0.4039  0.3470
  601MPD2    H5 8967   2.854   1.092   0.469  1.3061 -1.7555 -0.9882
  601MPD2    N1 8968   2.618   1.368   0.026  0.7044  0.5989 -0.9316
  601MPD2    H7 8969   2.593   1.282  17.724 -0.5296 -0.9559  2.6014
  602TMC3    C1 8970   2.511   1.477  17.582  0.1902 -0.4413 -0.0993
  602TMC3    C2 8971   2.507   1.591  17.510  0.6332 -0.1405  0.1405
  602TMC3    C3 8972   2.419   1.592  17.400 -0.2717 -0.4191  1.0224
  602TMC3    C4 8973   2.425   1.375  17.563 -0.3571  0.1280 -0.0256
  602TMC3    C5 8974   2.345   1.378  17.457  0.0859  0.4063 -0.7638
  602TMC3    C6 8975   2.340   1.487  17.372 -0.8237 -1.1759  0.2154
  602TMC3     C 8976   2.600   1.487  17.702 -0.2892  0.3129 -0.8888
  602TMC3     O 8977   2.657   1.597  17.723 -0.0891 -0.0122 -0.0441
  602TMC3     H 8978   2.573   1.673  17.532 -1.0678  1.1887  0.3071
  602TMC3    H1 8979   2.413   1.296  17.636  1.6256 -0.7607 -0.6421
  602TMC3    H2 8980   2.276   1.489  17.285 -0.2441 -0.8725 -0.1998
  602TMC3    C7 8981   2.230   1.302  17.484  0.5327 -0.4769  0.0132
  602TMC3    C8 8982   2.375   1.727  17.353  0.4765  0.3421 -0.2063
  602TMC3    O1 8983   2.234   1.185  17.515 -0.5080 -0.0333 -0.1675
  602TMC3    O2 8984   2.427   1.821  17.406 -0.5684  0.2856 -0.5954
  603TMC3    C1 8985   1.205   1.450  10.506  0.0053 -0.0321  0.0615
  603TMC3    C2 8986   1.152   1.370  10.600 -0.7231 -0.3440  0.1172
  603TMC3    C3 8987   1.053   1.422  10.684  0.3786 -0.9923 -0.3343
  603TMC3    C4 8988   1.156   1.576  10.482  0.6448 -0.1041  0.3563
  603TMC3    C5 8989   1.052   1.617  10.558 -0.1711 -0.1655  0.0673
  603TMC3    C6 8990   0.997   1.546  10.662 -0.2328  0.0007 -0.6647
  603TMC3     C 8991   1.323   1.396  10.438 -0.5575 -0.3861  1.3583
  603TMC3     O 8992   1.383   1.309  10.495 -0.8264  0.0837 -0.0671
  603TMC3     H 8993   1.178   1.265  10.614  0.5805 -0.4503 -3.3005
  603TMC3    H1 8994   1.199   1.644  10.410 -1.5555 -0.5037 -1.3153
  603TMC3    H2 8995   0.950   1.599  10.744  1.0559 -2.0460  1.4011
  603TMC3    C7 8996   1.013   1.754  10.546  0.2510  0.5952 -0.8818
  603TMC3    C8 8997   0.989   1.337  10.784  0.3791  0.0918  0.0527
  603TMC3    O1 8998   1.098   1.835  10.510  1.0640  0.3475 -0.1452
  603TMC3    O2 8999   1.065   1.245  10.821  0.5222 -0.1570  0.0581
  604MPD2     C 9000   1.865   0.347  16.150  0.2053  0.0331  0.1686
  604MPD2    C1 9001   1.814   0.222  16.157  0.2001 -0.1705  0.2847
  604MPD2    C2 9002   1.846   0.135  16.058 -0.0026  0.1329  0.5859
  604MPD2    C3 9003   1.943   0.167  15.958 -0.1971 -0.5166  0.0266
  604MPD2    C4 9004   2.006   0.290  15.962 -0.0047  0.3053 -0.5912
  604MPD2    C5 9005   1.966   0.383  16.055 -0.1128 -0.5016  0.4014
  604MPD2     H 9006   1.798   0.039  16.046  0.5032 -0.0847  0.3083
  604MPD2    H1 9007   2.089   0.315  15.898  0.0618  1.3457 -0.0949
  604MPD2    H2 9008   1.824   0.427  16.211  0.6085  1.8015 -1.8621
  604MPD2    H3 9009   2.009   0.482  16.050 -0.6456 -0.3222 -0.6112
  604MPD2     N 9010   1.976   0.061  15.863 -0.7415  0.3514  0.5160
  604MPD2    H5 9011   1.928   4.710  15.878 -0.7332 -0.1007 -2.1994
  604MPD2    N1 9012   1.725   0.198  16.264 -0.2852  0.0597 -0.1041
  604MPD2    H7 9013   1.711   0.279  16.323  0.1232  0.1860 -0.1782
  605TMC3    C1 9014   1.568   0.103  16.401 -0.9273 -0.3578 -0.5574
  605TMC3    C2 9015   1.652   0.150  16.491  0.5267  0.4037 -0.5682
  605TMC3    C3 9016   1.598   0.242  16.573 -0.1730 -0.6821  0.8563
  605TMC3    C4 9017   1.442   0.149  16.378 -0.7208  0.5201 -0.7737
  605TMC3    C5 9018   1.390   0.236  16.469 -0.4563  0.3234 -0.2144
  605TMC3    C6 9019   1.465   0.278  16.567 -0.2341  0.4534 -0.6808
  605TMC3     C 9020   1.641   0.088  16.274 -0.2733 -0.6529  0.7394
  605TMC3     O 9021   1.597   0.013  16.190  0.1066  0.2799  0.0972
  605TMC3     H 9022   1.759   0.131  16.489  0.1837 -1.6983  1.8239
  605TMC3    H1 9023   1.383   0.121  16.291  0.2103 -1.5121 -0.7623
  605TMC3    H2 9024   1.432   0.351  16.640  1.8864 -0.9161  1.6554
  605TMC3    C7 9025   1.280   0.327  16.437  0.8037  0.5556  0.0536
  605TMC3    C8 9026   1.683   0.354  16.581 -0.3810 -0.7462  0.5196
  605TMC3    O1 9027   1.278   0.438  16.485  0.4422 -0.6854  0.0999
  605TMC3    O2 9028   1.723   0.397  16.474 -0.1953 -0.7245 -0.4536
  606TMC3    C1 9029   2.808   4.059   0.045  0.4696  0.1783 -0.1841
  606TMC3    C2 9030   2.868   4.011   0.156 -0.5031  0.0422  0.4782
  606TMC3    C3 9031   2.902   3.876   0.155  0.7047 -0.2119 -0.2267
  606TMC3    C4 9032   2.761   3.973  17.689  0.2215 -0.4531 -0.5939
  606TMC3    C5 9033   2.792   3.841  17.694 -0.0502  0.2991  0.8443
  606TMC3    C6 9034   2.869   3.787   0.053  0.0532 -0.2869 -0.8904
  606TMC3     C 9035   2.770   4.204   0.046 -0.0665  0.2803 -1.2308
  606TMC3     O 9036   2.832   4.285   0.113 -0.3827  0.3739 -0.3894
  606TMC3     H 9037   2.908   4.080   0.228 -0.9039 -0.1467  0.8848
  606TMC3    H1 9038   2.726   4.013  17.595  0.6449 -0.6901 -0.8572
  606TMC3    H2 9039   2.904   3.685   0.046  0.8792 -0.1104  0.7084
  606TMC3    C7 9040   2.766   3.763  17.579 -0.3144  0.1255 -0.9631
  606TMC3    C8 9041   3.020   3.827   0.226 -0.6455  0.1932  0.2140
  606TMC3    O1 9042   2.761   3.820  17.474  0.2121 -0.3612 -0.4703
  606TMC3    O2 9043   3.071   3.723   0.186 -0.3359 -0.2887 -0.0351
  607MPD2     C 9044   4.727   1.284  12.124 -0.8498 -0.4696 -0.4775
  607MPD2    C1 9045   0.109   1.292  12.194  0.3519  0.0711  0.2861
  607MPD2    C2 9046   0.154   1.181  12.251 -0.5376 -0.4990  0.2211
  607MPD2    C3 9047   0.092   1.061  12.234  0.5442 -0.3145  0.7790
  607MPD2    C4 9048   4.718   1.049  12.157  0.4221 -0.2552 -0.1807
  607MPD2    C5 9049   4.672   1.163  12.100 -0.1251  0.2709 -0.0042
  607MPD2     H 9050   0.247   1.197  12.303 -1.4135  0.7517  1.3992
  607MPD2    H1 9051   4.667   0.955  12.140 -3.1323  1.9729 -1.8473
  607MPD2    H2 9052   4.669   1.366  12.084  0.2050  0.5421  0.0275
  607MPD2    H3 9053   4.581   1.158  12.041  0.7899 -0.2243 -1.3769
  607MPD2     N 9054   0.150   0.949  12.295  0.0280  0.3600  0.0946
  607MPD2    H5 9055   0.235   0.968  12.347 -0.3078  0.6483  0.5404
  607MPD2    N1 9056   0.190   1.408  12.199 -0.0038 -0.4388 -0.2460
  607MPD2    H7 9057   0.281   1.397  12.242 -0.1754  0.8431  0.4416
  608TMC3    C1 9058   0.292   1.601  12.129 -0.7831  0.2949 -0.3972
  608TMC3    C2 9059   0.379   1.587  12.235 -0.3088 -0.1485  0.1629
  608TMC3    C3 9060   0.506   1.637  12.225 -0.3045  0.1572 -0.3561
  608TMC3    C4 9061   0.327   1.683  12.023  0.0895  0.2510  0.8996
  608TMC3    C5 9062   0.455   1.728  12.018 -0.5871  0.0695  0.6422
  608TMC3    C6 9063   0.548   1.713  12.118  0.1828  0.2090  0.3570
  608TMC3     C 9064   0.177   1.518  12.115  0.8306 -0.1441 -0.5890
  608TMC3     O 9065   0.098   1.545  12.028  0.2469  0.2019 -0.5063
  608TMC3     H 9066   0.352   1.544  12.331 -1.9940 -1.4927 -0.9069
  608TMC3    H1 9067   0.255   1.684  11.942  1.3454 -0.1128 -0.2216
  608TMC3    H2 9068   0.654   1.736  12.113  0.1431  0.2439 -0.2293
  608TMC3    C7 9069   0.486   1.808  11.900  0.4875  0.4964 -0.0262
  608TMC3    C8 9070   0.619   1.582  12.309  0.3149  0.1975 -0.0067
  608TMC3    O1 9071   0.401   1.809  11.811 -0.0308 -0.6994 -0.3408
  608TMC3    O2 9072   0.724   1.641  12.327 -0.5757 -0.4466  0.4825
  609TMC3    C1 9073   3.174   0.914   8.819 -0.1614 -0.1445 -0.2073
  609TMC3    C2 9074   3.154   0.921   8.682 -0.5770 -0.2738  0.0087
  609TMC3    C3 9075   3.244   0.860   8.602  0.2150 -0.0120  0.1773
  609TMC3    C4 9076   3.275   0.839   8.870 -0.1843  0.3436  0.7349
  609TMC3    C5 9077   3.368   0.791   8.783  0.7711 -0.1989 -0.0266
  609TMC3    C6 9078   3.355   0.794   8.646  0.6242 -0.1478  0.2328
  609TMC3     C 9079   3.072   0.974   8.899  0.1485  0.0203  0.6347
  609TMC3     O 9080   2.966   0.997   8.842  0.1110  0.0461 -0.2244
  609TMC3     H 9081   3.072   0.982   8.643 -1.1284 -1.6197 -0.9320
  609TMC3    H1 9082   3.295   0.835   8.977 -0.8279 -0.9238  0.8023
  609TMC3    H2 9083   3.432   0.762   8.576  1.0918  0.5534  0.4245
  609TMC3    C7 9084   3.474   0.721   8.840 -0.0522 -0.5337 -0.0524
  609TMC3    C8 9085   3.234   0.873   8.453  0.1375  0.5829 -0.0553
  609TMC3    O1 9086   3.507   0.759   8.951  1.0542 -0.0055  0.0623
  609TMC3    O2 9087   3.342   0.859   8.392 -0.2552 -0.4496  0.2094
  610TMC3    C1 9088   0.012   0.446  12.419 -0.1911  0.1817 -0.0995
  610TMC3    C2 9089   0.016   0.433  12.281 -0.0071  0.1893  0.1846
  610TMC3    C3 9090   0.135   0.414  12.224 -0.3020 -0.1600 -0.2997
  610TMC3    C4 9091   0.126   0.446  12.500 -0.1607  0.6650 -0.2054
  610TMC3    C5 9092   0.240   0.427  12.436 -0.6222 -0.0292 -0.1077
  610TMC3    C6 9093   0.250   0.406  12.299 -0.0660  0.4546 -0.0433
  610TMC3     C 9094   4.616   0.433  12.476  0.5152 -0.5375 -0.0060
  610TMC3     O 9095   4.548   0.353  12.416 -0.5896  0.1973  0.3140
  610TMC3     H 9096   4.661   0.437  12.222 -1.0225  2.4131  1.9377
  610TMC3    H1 9097   0.117   0.472  12.605 -1.5827 -3.6877  0.7418
  610TMC3    H2 9098   0.342   0.372  12.252 -1.3980 -0.2262 -2.1531
  610TMC3    C7 9099   0.370   0.437  12.511  0.0365  0.0376  0.6839
  610TMC3    C8 9100   0.153   0.373  12.091 -0.0342 -0.3628  0.3153
  610TMC3    O1 9101   0.469   0.468  12.449  0.0051  0.2486 -0.6552
  610TMC3    O2 9102   0.261   0.388  12.041 -0.2656  0.0198 -0.2932
  611MPD2     C 9103   4.608   1.435  10.372  0.3877  0.0361 -0.2892
  611MPD2    C1 9104   4.529   1.539  10.325 -0.1252  0.0719  0.4189
  611MPD2    C2 9105   4.589   1.668  10.336  0.5542 -0.7702  0.1695
  611MPD2    C3 9106   4.719   1.694  10.376  0.0972 -0.4785 -0.3621
  611MPD2    C4 9107   0.059   1.582  10.416  0.3401 -0.4433 -0.7290
  611MPD2    C5 9108   4.735   1.461  10.422  0.5528  0.2678  0.0650
  611MPD2     H 9109   4.527   1.751  10.305 -1.1158 -1.3967  1.8148
  611MPD2    H1 9110   0.161   1.601  10.447 -0.0778 -0.7946  0.8671
  611MPD2    H2 9111   4.569   1.334  10.375  2.3553 -0.7454 -1.3922
  611MPD2    H3 9112   0.060   1.382  10.465  0.5019 -0.5699 -1.4169
  611MPD2     N 9113   0.033   1.817  10.401  0.0630  0.6797 -0.5227
  611MPD2    H5 9114   0.117   1.823  10.457 -0.4033 -1.6515  0.4340
  611MPD2    N1 9115   4.397   1.517  10.277 -0.4357  0.1402 -0.3205
  611MPD2    H7 9116   4.369   1.419  10.281  0.4238 -0.1385 -1.3429
  612TMC3    C1 9117   0.048   2.042  10.416  0.0532  0.2665 -0.2465
  612TMC3    C2 9118   0.184   2.023  10.458 -0.1426  0.3461  0.0836
  612TMC3    C3 9119   0.240   2.124  10.523 -0.3421 -1.2203  0.2173
  612TMC3    C4 9120   4.713   2.152  10.445 -0.2790 -0.8587  0.1466
  612TMC3    C5 9121   0.046   2.250  10.505 -0.4240 -0.4624  0.2302
  612TMC3    C6 9122   0.177   2.242  10.537  0.2541 -0.7512 -0.1796
  612TMC3     C 9123   4.706   1.933  10.360  0.2914  0.3589 -0.3071
  612TMC3     O 9124   4.590   1.952  10.331 -0.6281 -0.0796 -0.1925
  612TMC3     H 9125   0.245   1.940  10.426 -1.2950 -0.1464 -0.8414
  612TMC3    H1 9126   4.608   2.160  10.419 -0.9250 -0.2520  2.9575
  612TMC3    H2 9127   0.220   2.321  10.596 -1.8735  0.6145 -0.4546
  612TMC3    C7 9128   4.717   2.359  10.583 -0.4803 -0.4907  0.0330
  612TMC3    C8 9129   0.387   2.134  10.543  0.4063  0.9098  0.4313
  612TMC3    O1 9130   0.040   2.462  10.594 -0.2191  0.2811  0.0658
  612TMC3    O2 9131   0.427   2.250  10.536 -0.3944  0.3119  0.5528
  613MPD2     C 9132   4.006   4.076  16.049 -0.2687 -0.0431 -0.0391
  613MPD2    C1 9133   4.036   3.992  15.946  0.0439  0.0123 -0.2171
  613MPD2    C2 9134   3.955   3.885  15.932 -0.3748 -0.1010 -0.1869
  613MPD2    C3 9135   3.834   3.871  15.998 -0.4590  0.4538  0.0132
  613MPD2    C4 9136   3.795   3.978  16.082  0.0561 -0.3722  0.1015
  613MPD2    C5 9137   3.886   4.067  16.118  0.0044 -0.1958  0.5110
  613MPD2     H 9138   3.987   3.798  15.876 -2.2825 -1.1317  0.3112
  613MPD2    H1 9139   3.696   3.973  16.126  0.4542 -0.2865  1.0147
  613MPD2    H2 9140   4.066   4.160  16.082  1.1102 -0.6021 -1.1548
  613MPD2    H3 9141   3.856   4.150  16.182  0.9148 -0.4004  1.2069
  613MPD2     N 9142   3.757   3.756  15.966 -0.3381  0.8245 -0.5053
  613MPD2    H5 9143   3.802   3.691  15.903 -1.5116 -0.5655  0.0902
  613MPD2    N1 9144   4.142   4.010  15.850  0.1599  0.5925 -0.2102
  613MPD2    H7 9145   4.162   3.932  15.789 -0.4677  0.9691 -0.8860
  614TMC3    C1 9146   4.271   4.129  15.697  0.2809 -0.8265 -0.3241
  614TMC3    C2 9147   4.297   3.998  15.651 -0.4382  0.9244  0.5153
  614TMC3    C3 9148   4.259   3.956  15.524 -0.7545  0.6381 -0.9428
  614TMC3    C4 9149   4.218   4.215  15.603  0.4337 -0.1583 -0.2015
  614TMC3    C5 9150   4.188   4.174  15.481  0.0405 -0.6792  0.1105
  614TMC3    C6 9151   4.192   4.044  15.439 -0.2568 -1.1201 -0.3187
  614TMC3     C 9152   4.205   4.131  15.823 -0.5252  0.5720 -0.2154
  614TMC3     O 9153   4.183   4.238  15.877 -0.2608 -0.1512  0.2483
  614TMC3     H 9154   4.347   3.926  15.715 -3.3819  1.3635  3.2728
  614TMC3    H1 9155   4.197   4.316  15.636  0.8018 -0.5530  1.2350
  614TMC3    H2 9156   4.171   4.013  15.338  0.2783  1.6455 -1.2653
  614TMC3    C7 9157   4.128   4.280  15.400  0.3476 -0.0461 -0.2280
  614TMC3    C8 9158   4.196   3.829  15.543 -0.3507 -0.1079  0.8008
  614TMC3    O1 9159   4.131   4.395  15.440 -0.1221 -0.4316  0.3655
  614TMC3    O2 9160   4.169   3.795  15.654  0.0477  0.1253  0.1557
  615MPD2     C 9161   3.198   0.269  16.396 -0.4149  1.0481 -0.6484
  615MPD2    C1 9162   3.202   0.389  16.333  0.1130 -0.5036 -0.3863
  615MPD2    C2 9163   3.181   0.400  16.194 -0.2560  0.0332  0.3785
  615MPD2    C3 9164   3.157   0.288  16.122  0.2611 -0.0004 -0.5003
  615MPD2    C4 9165   3.151   0.160  16.182  0.6407  0.1446  0.2568
  615MPD2    C5 9166   3.175   0.153  16.318  0.1416  0.7825  0.4363
  615MPD2     H 9167   3.183   0.499  16.152 -0.2216  0.5726  1.6570
  615MPD2    H1 9168   3.135   0.071  16.121 -2.0131  1.0240 -0.3587
  615MPD2    H2 9169   3.201   0.252  16.503  0.9191 -2.5848 -1.2666
  615MPD2    H3 9170   3.159   0.062  16.374  0.1332 -0.5544 -1.7205
  615MPD2     N 9171   3.174   0.302  15.982  0.8291  0.3992 -0.2374
  615MPD2    H5 9172   3.205   0.393  15.950  2.0861  0.0243 -0.1004
  615MPD2    N1 9173   3.214   0.508  16.404 -0.4027  0.3978  0.5051
  615MPD2    H7 9174   3.203   0.597  16.355 -0.7996 -0.2891 -0.6686
  616TMC3    C1 9175   3.234   0.672  16.575 -0.3595  0.2565 -0.5023
  616TMC3    C2 9176   3.340   0.729  16.629 -0.4522 -0.5288  0.0787
  616TMC3    C3 9177   3.322   0.853  16.679  0.7469  0.7417 -0.3481
  616TMC3    C4 9178   3.119   0.732  16.553 -0.2886 -1.0637  0.1201
  616TMC3    C5 9179   3.097   0.844  16.630  0.4374 -0.0864 -0.2831
  616TMC3    C6 9180   3.201   0.913  16.693 -0.2479 -0.2871  0.4732
  616TMC3     C 9181   3.258   0.535  16.532  0.0563  0.1934  0.6857
  616TMC3     O 9182   3.296   0.467  16.625  0.5494  0.5196  0.4071
  616TMC3     H 9183   3.432   0.675  16.612 -0.6369 -0.0593 -2.4469
  616TMC3    H1 9184   3.032   0.681  16.514 -0.9926 -0.2025  0.5643
  616TMC3    H2 9185   3.191   1.013  16.734 -0.4927 -0.0773 -0.0879
  616TMC3    C7 9186   2.963   0.894  16.626 -0.8966 -0.1265  0.1789
  616TMC3    C8 9187   3.427   0.913  16.758  0.0903 -0.9440  0.1028
  616TMC3    O1 9188   2.889   0.847  16.541  0.0566 -0.3908 -0.4445
  616TMC3    O2 9189   3.393   0.998  16.835 -0.1718 -0.0520 -0.0493
  617MPD2     C 9190   1.906   3.284  13.260 -0.3000  0.1883 -0.6606
  617MPD2    C1 9191   1.898   3.254  13.393 -0.1983  0.1964 -0.2886
  617MPD2    C2 9192   1.777   3.249  13.461  0.0850  0.0748  0.0759
  617MPD2    C3 9193   1.661   3.269  13.393 -1.0538 -0.1203 -0.3895
  617MPD2    C4 9194   1.671   3.293  13.258  0.3247 -0.6577  0.1024
  617MPD2    C5 9195   1.790   3.311  13.194  0.9573 -0.4931 -0.0179
  617MPD2     H 9196   1.776   3.231  13.568 -1.2167  0.0076  0.0484
  617MPD2    H1 9197   1.577   3.300  13.205  0.5621 -0.8815 -0.3475
  617MPD2    H2 9198   2.004   3.281  13.213  0.2995 -0.5917  0.6253
  617MPD2    H3 9199   1.784   3.314  13.086  0.7198 -2.1482 -0.0520
  617MPD2     N 9200   1.535   3.256  13.465 -0.1515  0.1630 -0.1306
  617MPD2    H5 9201   1.537   3.207  13.554 -1.3379  1.0135  0.3577
  617MPD2    N1 9202   2.023   3.236  13.461 -0.0304 -0.4309 -0.1213
  617MPD2    H7 9203   2.111   3.246  13.411 -0.0881  1.2636  0.1263
  618TMC3    C1 9204   2.175   3.164  13.609 -0.3153 -0.2947 -0.1596
  618TMC3    C2 9205   2.230   3.078  13.519 -0.4122  0.2937 -0.0977
  618TMC3    C3 9206   2.351   3.021  13.560  0.1034 -0.5344  0.7538
  618TMC3    C4 9207   2.239   3.206  13.720 -0.0007  0.1768  0.4305
  618TMC3    C5 9208   2.364   3.157  13.739  0.5703  0.5100  0.0708
  618TMC3    C6 9209   2.421   3.058  13.670 -0.0502  0.2493  0.1475
  618TMC3     C 9210   2.037   3.193  13.589  1.0956 -0.5397  0.1222
  618TMC3     O 9211   1.960   3.146  13.673  0.3585 -0.2393  0.8322
  618TMC3     H 9212   2.178   3.044  13.430  0.6413 -0.2130 -0.5137
  618TMC3    H1 9213   2.198   3.294  13.769 -0.0349  0.4779 -0.1367
  618TMC3    H2 9214   2.519   3.026  13.704  0.6566  2.4144  0.1617
  618TMC3    C7 9215   2.431   3.220  13.855  0.0696 -1.0089 -0.4150
  618TMC3    C8 9216   2.411   2.928  13.459  0.5289  0.2098 -0.3958
  618TMC3    O1 9217   2.354   3.227  13.948  0.7206  1.0916  0.1741
  618TMC3    O2 9218   2.340   2.897  13.362 -0.1754  0.2078  0.2321
  619MPD2     C 9219   2.613   4.452  13.706  0.0894 -0.3155  0.2991
  619MPD2    C1 9220   2.534   4.547  13.640  0.2088 -0.1772 -0.4041
  619MPD2    C2 9221   2.412   4.589  13.678 -0.3939  0.3550 -0.8661
  619MPD2    C3 9222   2.357   4.541  13.798 -0.5019  0.3810  0.5003
  619MPD2    C4 9223   2.432   4.446  13.864 -0.2683 -0.7499  0.0385
  619MPD2    C5 9224   2.557   4.407  13.823  0.1142  0.7480  0.1089
  619MPD2     H 9225   2.358   4.656  13.612  1.8989 -0.7446 -3.8293
  619MPD2    H1 9226   2.397   4.392  13.951  0.6604 -0.2657  0.7102
  619MPD2    H2 9227   2.711   4.428  13.667  0.4452  0.4023  0.7670
  619MPD2    H3 9228   2.610   4.331  13.880 -4.1765 -2.2799  0.0885
  619MPD2     N 9229   2.219   4.553  13.832 -0.2147 -0.4998 -0.1821
  619MPD2    H5 9230   2.181   4.492  13.904 -1.1598 -1.4577 -1.5061
  619MPD2    N1 9231   2.586   4.604  13.522 -0.1319 -0.0313 -0.4407
  619MPD2    H7 9232   2.511   4.655  13.476  2.2740  1.1652 -3.0127
  620TMC3    C1 9233   2.718   4.654  13.345  0.2100  0.0762  0.1580
  620TMC3    C2 9234   2.598   4.661  13.279  0.7004 -0.3393 -0.4739
  620TMC3    C3 9235   2.600   0.009  13.170 -0.1114  0.5351 -0.6856
  620TMC3    C4 9236   2.833   4.719  13.301 -1.1418 -0.3660  0.5297
  620TMC3    C5 9237   2.827   0.062  13.190 -0.5572  0.5032  0.2173
  620TMC3    C6 9238   2.709   0.081  13.126  0.6987 -0.0455  0.1997
  620TMC3     C 9239   2.713   4.605  13.480  0.5340  0.0612  0.2827
  620TMC3     O 9240   2.819   4.568  13.529  0.4419  0.0812  0.2773
  620TMC3     H 9241   2.510   4.606  13.308  0.1302  2.2851  2.8058
  620TMC3    H1 9242   2.930   4.691  13.341  0.1093  3.0454 -0.0695
  620TMC3    H2 9243   2.704   0.142  13.037 -2.3084 -0.5326  0.0228
  620TMC3    C7 9244   2.914   0.178  13.182 -0.3719 -0.7293 -0.5575
  620TMC3    C8 9245   2.479   0.089  13.165 -0.1822  0.7328  0.3194
  620TMC3    O1 9246   2.897   0.236  13.074  0.1399 -0.1150 -0.3033
  620TMC3    O2 9247   2.407   0.094  13.261 -0.6434  0.1704 -0.5765
  621MPD2     C 9248   3.265   0.582   9.155  0.6254 -0.5172 -0.2949
  621MPD2    C1 9249   3.226   0.674   9.254 -0.3900  0.4652  0.3338
  621MPD2    C2 9250   3.327   0.715   9.344  0.0692 -0.0714  0.1068
  621MPD2    C3 9251   3.455   0.664   9.342 -0.7986  0.3117  0.1023
  621MPD2    C4 9252   3.487   0.581   9.235 -0.1904  0.8187  0.1128
  621MPD2    C5 9253   3.393   0.535   9.141 -1.2822  1.1333  0.8644
  621MPD2     H 9254   3.291   0.784   9.420 -0.2136 -0.3455  0.2182
  621MPD2    H1 9255   3.589   0.543   9.226  0.0415  1.4571  0.0619
  621MPD2    H2 9256   3.189   0.540   9.089 -0.4049 -0.8572  1.1080
  621MPD2    H3 9257   3.424   0.470   9.060 -1.2850  0.4371  1.4090
  621MPD2     N 9258   3.537   0.722   9.436  0.6715 -0.4315  0.3183
  621MPD2    H5 9259   3.495   0.783   9.505  0.5432  0.3094 -0.4074
  621MPD2    N1 9260   3.095   0.725   9.267 -0.2142  0.3283  0.0607
  621MPD2    H7 9261   3.077   0.778   9.352  0.1280 -0.0705  0.3810
  622TMC3    C1 9262   2.869   0.761   9.242 -0.0809 -0.0667  0.4030
  622TMC3    C2 9263   2.859   0.749   9.374  0.5212 -0.6633  0.0309
  622TMC3    C3 9264   2.766   0.830   9.441  0.1459  0.1168 -0.0332
  622TMC3    C4 9265   2.784   0.833   9.166 -0.2901  0.6365  0.4136
  622TMC3    C5 9266   2.680   0.903   9.229 -0.1205  0.6670  0.0089
  622TMC3    C6 9267   2.676   0.914   9.367  0.0856 -0.3854  0.0093
  622TMC3     C 9268   2.994   0.704   9.182 -0.2889  0.5036 -0.2443
  622TMC3     O 9269   3.002   0.680   9.062  0.1013 -0.1247 -0.0822
  622TMC3     H 9270   2.926   0.689   9.435 -0.0547 -0.8863  0.4465
  622TMC3    H1 9271   2.790   0.837   9.058  1.7681  0.9120  0.5345
  622TMC3    H2 9272   2.598   0.976   9.409  0.8119  0.3112  0.3530
  622TMC3    C7 9273   2.593   0.985   9.144  0.1618 -0.3440 -0.0014
  622TMC3    C8 9274   2.752   0.803   9.585 -0.7153 -0.2969 -0.3535
  622TMC3    O1 9275   2.630   0.999   9.028 -0.5482 -0.2697 -0.0844
  622TMC3    O2 9276   2.803   0.702   9.631  0.5535  0.1749  0.4153
  623MPD2     C 9277   2.046   0.882  15.581 -0.4303 -0.4799 -0.0513
  623MPD2    C1 9278   1.993   0.773  15.644  0.2066  0.4518 -0.3126
  623MPD2    C2 9279   2.006   0.764  15.781  0.8818  0.2214 -0.3078
  623MPD2    C3 9280   2.083   0.858  15.853  0.2732  0.2778 -0.3802
  623MPD2    C4 9281   2.146   0.959  15.777  0.1587 -0.0862  0.1654
  623MPD2    C5 9282   2.119   0.970  15.643 -0.0167  0.1214 -0.7511
  623MPD2     H 9283   1.962   0.681  15.835  1.4100 -0.7603 -1.3839
  623MPD2    H1 9284   2.215   1.032  15.818 -0.5481  1.4872 -1.4332
  623MPD2    H2 9285   2.031   0.897  15.475  0.7357  0.6672 -0.0573
  623MPD2    H3 9286   2.141   1.061  15.589  2.4339  0.2074  0.3840
  623MPD2     N 9287   2.115   0.827  15.984  0.0170 -0.3327  0.0533
  623MPD2    H5 9288   2.060   0.750  16.023 -1.0041 -0.3647 -1.4428
  623MPD2    N1 9289   1.915   0.678  15.573 -0.5094  0.7035  0.6185
  623MPD2    H7 9290   1.922   0.683  15.471  1.2802  0.0489  0.7045
  624TMC3    C1 9291   2.357   0.822  16.382 -0.0823  1.1110 -0.0296
  624TMC3    C2 9292   2.244   0.821  16.458  1.2841  0.1627 -0.2304
  624TMC3    C3 9293   2.119   0.816  16.398 -0.3939  0.5984  0.4837
  624TMC3    C4 9294   2.358   0.835  16.250  0.5952  0.0227  0.4147
  624TMC3    C5 9295   2.234   0.827  16.194  0.2713 -0.1774  0.6210
  624TMC3    C6 9296   2.112   0.816  16.268  0.3197 -0.1984 -0.3729
  624TMC3     C 9297   2.466   0.743  16.435  0.7290  0.0497  0.6041
  624TMC3     O 9298   2.498   0.773  16.549  0.0459  0.2446  0.1315
  624TMC3     H 9299   2.267   0.814  16.564 -4.7140 -1.1879  0.9928
  624TMC3    H1 9300   2.451   0.844  16.195 -0.8247 -2.0487 -2.3291
  624TMC3    H2 9301   2.021   0.817  16.209  0.7359 -1.0478 -1.0161
  624TMC3    C7 9302   2.228   0.873  16.054  0.0118 -0.4567  0.0016
  624TMC3    C8 9303   2.016   0.748  16.467 -0.2445 -0.3213 -0.3272
  624TMC3    O1 9304   2.322   0.941  16.019 -0.7862 -0.3140 -0.3835
  624TMC3    O2 9305   1.952   0.677  16.388 -0.3557  0.0210  0.2191
  625MPD2     C 9306   2.642   1.897   0.546 -0.0822  0.5279 -0.1251
  625MPD2    C1 9307   2.662   2.030   0.578  0.8233 -0.0553  0.3626
  625MPD2    C2 9308   2.789   2.056   0.631 -0.5682  0.9698 -0.1823
  625MPD2    C3 9309   2.883   1.960   0.656  0.1574  0.2077  0.5406
  625MPD2    C4 9310   2.849   1.831   0.634 -0.3177  0.1330 -0.3284
  625MPD2    C5 9311   2.728   1.798   0.575  0.1035 -0.3596  0.0689
  625MPD2     H 9312   2.822   2.158   0.646  0.0407  0.5517  1.3560
  625MPD2    H1 9313   2.914   1.749   0.662  1.8188  1.6768 -0.8146
  625MPD2    H2 9314   2.560   1.862   0.485 -1.1971  2.7283  0.1302
  625MPD2    H3 9315   2.697   1.697   0.550 -0.5383 -0.8142  2.7563
  625MPD2     N 9316   3.002   1.992   0.707 -0.2654  0.1662  0.3958
  625MPD2    H5 9317   3.023   2.091   0.716  0.7721  0.2593 -2.8111
  625MPD2    N1 9318   2.575   2.136   0.556  0.0250  0.2755 -0.2910
  625MPD2    H7 9319   2.608   2.225   0.592 -2.8268  0.2974  2.2609
  626TMC3    C1 9320   2.389   2.256   0.487  0.0737 -0.1516 -0.3640
  626TMC3    C2 9321   2.354   2.310   0.366 -0.4375  0.1286 -0.3896
  626TMC3    C3 9322   2.246   2.395   0.361 -0.6221 -0.0067 -0.2571
  626TMC3    C4 9323   2.304   2.274   0.598 -0.1676 -0.3539  0.5017
  626TMC3    C5 9324   2.201   2.362   0.594 -0.2298  0.0865 -0.3461
  626TMC3    C6 9325   2.167   2.433   0.476  0.0735 -0.3331 -0.0161
  626TMC3     C 9326   2.460   2.126   0.482 -0.2596  0.2568 -0.4598
  626TMC3     O 9327   2.401   2.030   0.427  0.2787  0.1667  0.2495
  626TMC3     H 9328   2.413   2.291   0.277  2.0422  1.1047  1.0688
  626TMC3    H1 9329   2.326   2.213   0.685 -0.2844 -1.9639 -0.5956
  626TMC3    H2 9330   2.082   2.499   0.480  0.9122  0.6946  0.5734
  626TMC3    C7 9331   2.102   2.342   0.697  1.4316 -0.1584  0.7613
  626TMC3    C8 9332   2.195   2.418   0.223 -0.0042 -0.2176 -0.5824
  626TMC3    O1 9333   2.139   2.347   0.815 -0.3453  0.1816 -0.7626
  626TMC3    O2 9334   2.264   2.378   0.133 -0.7316 -0.2281  0.4381
  627MPD2     C 9335   1.210   2.005  14.219  0.2907  0.4402  0.1462
  627MPD2    C1 9336   1.151   2.072  14.326 -0.0891 -0.0834 -0.9268
  627MPD2    C2 9337   1.052   2.003  14.391  0.1645 -0.1124 -0.1371
  627MPD2    C3 9338   1.008   1.877  14.343 -0.2263 -0.0938  0.3232
  627MPD2    C4 9339   1.070   1.822  14.229 -0.6034  0.2232 -0.5099
  627MPD2    C5 9340   1.179   1.883  14.179  0.0904 -0.1849  0.5144
  627MPD2     H 9341   1.028   2.042  14.489 -2.0057 -1.8692  0.0205
  627MPD2    H1 9342   1.040   1.727  14.187 -0.8910  1.4181 -2.9923
  627MPD2    H2 9343   1.281   2.055  14.154  0.5686  2.1784  1.7682
  627MPD2    H3 9344   1.221   1.843  14.087  0.4245  1.5825 -0.0957
  627MPD2     N 9345   0.905   1.797  14.401 -0.1937  0.0940  0.1644
  627MPD2    H5 9346   0.896   1.707  14.356  0.4697 -0.0453  0.3145
  627MPD2    N1 9347   1.179   2.197  14.374 -0.5989 -0.4146 -0.3500
  627MPD2    H7 9348   1.133   2.228  14.460  1.0524 -0.0211  0.3963
  628TMC3    C1 9349   1.254   2.419  14.370  0.1095 -0.1138  0.4965
  628TMC3    C2 9350   1.243   2.431  14.503 -0.4542  0.1015  0.1097
  628TMC3    C3 9351   1.243   2.551  14.563 -0.1678  1.0313 -0.3478
  628TMC3    C4 9352   1.274   2.527  14.287  0.2849  0.3024 -0.7220
  628TMC3    C5 9353   1.261   2.649  14.350 -0.1318  0.7308 -0.2578
  628TMC3    C6 9354   1.232   2.665  14.487  0.5052  0.1226  0.0204
  628TMC3     C 9355   1.234   2.292  14.297 -1.0171  0.1837 -0.8055
  628TMC3     O 9356   1.274   2.284  14.182  0.4867  0.2713  0.5988
  628TMC3     H 9357   1.221   2.346  14.567 -1.9061 -0.5118 -1.2106
  628TMC3    H1 9358   1.290   2.521  14.180 -0.0797 -0.5209 -0.7336
  628TMC3    H2 9359   1.246   2.765  14.527  1.3321 -0.5469  1.4015
  628TMC3    C7 9360   1.245   2.756  14.254 -0.4465  0.2691  0.0769
  628TMC3    C8 9361   1.304   2.561  14.698  0.2449  0.4455 -0.4574
  628TMC3    O1 9362   1.318   2.748  14.154 -0.1211 -0.3916  0.0227
  628TMC3    O2 9363   1.307   2.671  14.742  0.0759 -0.2423  0.3748
  629MPD2     C 9364   3.905   0.954  16.930 -0.8582  0.3440 -0.6397
  629MPD2    C1 9365   3.911   0.902  16.800  0.7378  0.7633 -0.2612
  629MPD2    C2 9366   3.791   0.875  16.736  0.1333  0.2971 -1.0235
  629MPD2    C3 9367   3.671   0.889  16.804 -0.9985 -0.4429  0.0645
  629MPD2    C4 9368   3.665   0.936  16.933 -0.3447 -0.1220  0.0838
  629MPD2    C5 9369   3.783   0.964  16.995 -0.0597 -0.1664 -0.2885
  629MPD2     H 9370   3.793   0.839  16.634  1.5029 -0.2957 -0.8021
  629MPD2    H1 9371   3.572   0.953  16.985 -0.9080  4.1604 -2.3999
  629MPD2    H2 9372   3.993   0.974  16.991  0.1093 -2.9834 -0.9557
  629MPD2    H3 9373   3.781   1.017  17.089 -1.0141 -1.6693  0.5374
  629MPD2     N 9374   3.552   0.864  16.727  0.1400  0.1823 -0.1531
  629MPD2    H5 9375   3.571   0.836  16.631 -0.5977  1.2510 -0.6097
  629MPD2    N1 9376   4.042   0.889  16.741 -0.1600 -0.1412  0.4575
  629MPD2    H7 9377   4.123   0.894  16.802  0.9588  2.2258 -1.1656
  630TMC3    C1 9378   4.217   0.841  16.584  0.0294 -0.1419 -0.4583
  630TMC3    C2 9379   4.271   0.932  16.508 -0.0330  0.9909 -0.0198
  630TMC3    C3 9380   4.405   0.943  16.511 -0.2466 -0.1319 -0.6595
  630TMC3    C4 9381   4.285   0.776  16.682 -0.9595  0.5634 -0.4492
  630TMC3    C5 9382   4.418   0.777  16.672 -0.4526 -0.2531  0.4296
  630TMC3    C6 9383   4.485   0.863  16.587  0.5707  0.4324  0.1085
  630TMC3     C 9384   4.077   0.856  16.607  0.0496 -0.0853 -0.2751
  630TMC3     O 9385   3.999   0.845  16.514 -0.4306 -0.3466 -0.5505
  630TMC3     H 9386   4.213   0.999  16.445 -0.0229 -0.5679 -1.6809
  630TMC3    H1 9387   4.227   0.710  16.746  0.5488 -1.5328 -1.2160
  630TMC3    H2 9388   4.593   0.870  16.582  0.5385  0.8213 -0.0379
  630TMC3    C7 9389   4.486   0.713  16.789  0.3185  0.2078 -0.5113
  630TMC3    C8 9390   4.477   1.035  16.422 -0.2908 -0.0196 -0.2503
  630TMC3    O1 9391   4.411   0.674  16.877 -0.3363  0.5845  0.5636
  630TMC3    O2 9392   4.592   1.005  16.403  0.3690  0.2666 -0.1689
  631MPD2     C 9393   2.537   0.608  15.211  0.1226 -0.0577  0.1446
  631MPD2    C1 9394   2.630   0.701  15.255  0.7683 -0.2103  0.0112
  631MPD2    C2 9395   2.738   0.658  15.326  0.3508  0.4389 -0.3461
  631MPD2    C3 9396   2.743   0.532  15.384 -0.1602  0.2998  0.7418
  631MPD2    C4 9397   2.651   0.436  15.344  0.1135 -0.1808 -0.2826
  631MPD2    C5 9398   2.549   0.480  15.259  0.2595  0.7675  0.3916
  631MPD2     H 9399   2.807   0.736  15.356 -0.1343  0.5411  0.5072
  631MPD2    H1 9400   2.660   0.336  15.385 -3.5357  0.7066  2.6722
  631MPD2    H2 9401   2.458   0.619  15.138 -0.7569  1.3324  1.3167
  631MPD2    H3 9402   2.485   0.406  15.213  2.2393 -1.0282  0.5097
  631MPD2     N 9403   2.848   0.498  15.476  0.0468 -0.1985  0.7589
  631MPD2    H5 9404   2.932   0.556  15.471  0.0049 -0.3329 -1.3488
  631MPD2    N1 9405   2.608   0.832  15.211 -0.6729  0.4336  0.5574
  631MPD2    H7 9406   2.534   0.852  15.144  0.2493  0.4984 -0.4517
  632TMC3    C1 9407   2.642   1.054  15.180 -0.2471 -0.4693 -0.3957
  632TMC3    C2 9408   2.622   1.169  15.242 -0.2555 -0.2096 -0.1875
  632TMC3    C3 9409   2.578   1.274  15.163 -0.2602  0.7396  0.2114
  632TMC3    C4 9410   2.655   1.044  15.045  0.0835 -0.2404  0.5458
  632TMC3    C5 9411   2.615   1.153  14.978  0.5016 -0.3165 -0.1617
  632TMC3    C6 9412   2.562   1.266  15.027 -0.6926 -0.1726 -0.6088
  632TMC3     C 9413   2.668   0.940  15.262  0.2499  0.3553  0.1560
  632TMC3     O 9414   2.707   0.961  15.373 -0.1803  0.1504  0.0469
  632TMC3     H 9415   2.622   1.173  15.350  1.1013 -1.2285 -0.1468
  632TMC3    H1 9416   2.686   0.952  14.997  0.7947  0.1189  0.3211
  632TMC3    H2 9417   2.521   1.347  14.969  0.2157  0.2859 -0.5977
  632TMC3    C7 9418   2.641   1.146  14.841  0.2848 -0.4419 -0.1926
  632TMC3    C8 9419   2.502   1.381  15.233  0.7649 -0.6568 -0.5193
  632TMC3    O1 9420   2.566   1.212  14.767 -0.2999  0.6436  0.2071
  632TMC3    O2 9421   2.407   1.428  15.175 -0.1134 -0.1967 -0.0975
  633MPD2     C 9422   1.896   3.440  17.314 -0.7337  0.0520  0.2252
  633MPD2    C1 9423   2.028   3.425  17.272 -0.2086  0.2247  0.6889
  633MPD2    C2 9424   2.109   3.322  17.322  0.2861 -0.1845 -0.4833
  633MPD2    C3 9425   2.061   3.253  17.426 -0.0083 -0.4356  0.0001
  633MPD2    C4 9426   1.926   3.265  17.463 -0.1177 -0.7078  0.1461
  633MPD2    C5 9427   1.848   3.351  17.402  0.4508 -0.1213  0.6254
  633MPD2     H 9428   2.208   3.307  17.281  0.7456  0.4152  0.4026
  633MPD2    H1 9429   1.878   3.193  17.528 -1.0896 -0.6692 -0.5121
  633MPD2    H2 9430   1.823   3.505  17.266  0.8296 -0.2266 -2.4986
  633MPD2    H3 9431   1.745   3.345  17.435 -0.1313 -0.2959 -1.2169
  633MPD2     N 9432   2.149   3.160  17.483  0.3285  0.2616  0.1106
  633MPD2    H5 9433   2.239   3.143  17.439  1.3970  1.6580  1.7264
  633MPD2    N1 9434   2.084   3.483  17.160 -0.1949 -0.5471 -0.3776
  633MPD2    H7 9435   2.181   3.461  17.140 -0.1356 -3.2044  2.7774
  634TMC3    C1 9436   2.091   3.587  16.960 -0.1653 -0.3945  0.8091
  634TMC3    C2 9437   2.168   3.482  16.922 -0.1929  0.0365  0.3190
  634TMC3    C3 9438   2.218   3.491  16.798 -0.5011  0.3034 -0.1516
  634TMC3    C4 9439   2.054   3.696  16.877  0.9310  0.3428 -0.6254
  634TMC3    C5 9440   2.108   3.698  16.756  0.4616 -1.1422  0.5701
  634TMC3    C6 9441   2.191   3.595  16.713 -0.1421 -0.5741 -0.3514
  634TMC3     C 9442   2.022   3.569  17.082  0.1678 -0.2858  0.6307
  634TMC3     O 9443   1.914   3.629  17.097 -0.1028  0.4483  0.0881
  634TMC3     H 9444   2.197   3.390  16.971  1.8977  0.0289 -0.9028
  634TMC3    H1 9445   1.987   3.769  16.920  0.5650 -0.6282  0.4627
  634TMC3    H2 9446   2.224   3.590  16.609 -0.0731  1.8318 -0.4471
  634TMC3    C7 9447   2.069   3.792  16.650  0.7609 -0.9525 -0.3436
  634TMC3    C8 9448   2.241   3.360  16.738 -0.4703  1.0685  0.1810
  634TMC3    O1 9449   2.141   3.797  16.551  0.0748 -0.6360 -0.4440
  634TMC3    O2 9450   2.177   3.268  16.784  0.3499 -0.2967 -0.8520
  635TMC3    C1 9451   2.478   4.539   0.380 -0.1085 -0.0128  0.2579
  635TMC3    C2 9452   2.420   4.422   0.339 -0.4138 -0.1384 -0.8832
  635TMC3    C3 9453   2.498   4.305   0.345 -0.6966 -0.8337 -0.7867
  635TMC3    C4 9454   2.602   4.543   0.439  0.1932 -0.0184 -0.0195
  635TMC3    C5 9455   2.675   4.425   0.442 -1.2696  0.1619 -0.1406
  635TMC3    C6 9456   2.633   4.305   0.394 -0.3770  0.0393  0.0918
  635TMC3     C 9457   2.399   4.661   0.369  1.0477  0.0447  0.4218
  635TMC3     O 9458   2.278   4.645   0.363  0.1837  0.0018 -0.1202
  635TMC3     H 9459   2.322   4.419   0.292  0.0862  0.1115 -1.9354
  635TMC3    H1 9460   2.650   4.627   0.488 -2.0534  0.3154  1.5986
  635TMC3    H2 9461   2.703   4.224   0.380  0.3729  0.7174 -0.0589
  635TMC3    C7 9462   2.809   4.421   0.509 -0.4715 -0.8294  0.2350
  635TMC3    C8 9463   2.433   4.179   0.316 -0.1632  0.3820 -0.3242
  635TMC3    O1 9464   2.888   4.329   0.478  0.4507 -0.6953  0.1418
  635TMC3    O2 9465   2.319   4.179   0.276 -0.6698  0.1005 -0.0057
  636MPD2     C 9466   3.247   4.060  15.310  0.0358 -0.4039 -0.0183
  636MPD2    C1 9467   3.268   4.098  15.438  0.2266 -0.9774 -0.5872
  636MPD2    C2 9468   3.329   4.017  15.528 -0.2910 -0.1015 -0.1891
  636MPD2    C3 9469   3.366   3.890  15.497  0.8312 -0.5517  0.3134
  636MPD2    C4 9470   3.344   3.851  15.361 -0.6661  0.0577 -0.2609
  636MPD2    C5 9471   3.281   3.933  15.278 -0.1725 -0.2865  0.2195
  636MPD2     H 9472   3.333   4.052  15.631 -2.1971  3.0092 -1.1737
  636MPD2    H1 9473   3.365   3.749  15.332  0.0462  1.0339 -3.1761
  636MPD2    H2 9474   3.193   4.123  15.240  0.0651 -0.0302  0.2959
  636MPD2    H3 9475   3.271   3.903  15.174  0.8971 -2.4381  0.7288
  636MPD2     N 9476   3.411   3.799  15.598 -0.1753 -0.0156  0.7230
  636MPD2    H5 9477   3.397   3.826  15.695 -0.0717  3.4080 -0.1991
  636MPD2    N1 9478   3.234   4.225  15.487 -0.1275 -0.3403  0.2937
  636MPD2    H7 9479   3.216   4.234  15.587  2.7685 -1.7065  0.9574
  637TMC3    C1 9480   3.498   3.600  15.688 -0.7586  0.1118  0.6259
  637TMC3    C2 9481   3.483   3.658  15.809 -0.0587 -1.1368  0.2023
  637TMC3    C3 9482   3.572   3.621  15.905  0.3525 -0.0027  0.0072
  637TMC3    C4 9483   3.593   3.510  15.649  0.3851  0.3976  0.3917
  637TMC3    C5 9484   3.683   3.473  15.745 -0.2432  0.0683 -0.0477
  637TMC3    C6 9485   3.670   3.524  15.869 -0.0914 -0.2150 -0.2872
  637TMC3     C 9486   3.463   3.676  15.568 -0.3779 -0.7421 -0.3315
  637TMC3     O 9487   3.488   3.627  15.462  0.4153 -0.5548 -0.4743
  637TMC3     H 9488   3.399   3.724  15.825 -0.2503 -0.8341 -2.0498
  637TMC3    H1 9489   3.602   3.466  15.550 -0.9543 -1.0558  0.9205
  637TMC3    H2 9490   3.730   3.480  15.948  0.7574 -0.0556 -0.8464
  637TMC3    C7 9491   3.826   3.480  15.701 -0.6784 -0.5409  0.7335
  637TMC3    C8 9492   3.621   3.732  15.979 -0.4814 -0.9463 -0.4705
  637TMC3    O1 9493   3.901   3.547  15.771 -0.2854  0.1553  0.1848
  637TMC3    O2 9494   3.542   3.810  16.018 -0.7711  0.0867 -0.3507
  638MPD2     C 9495   3.608   2.879  14.456  0.4385 -0.4642  0.1298
  638MPD2    C1 9496   3.522   2.780  14.408  0.0221  0.4559  0.8284
  638MPD2    C2 9497   3.498   2.676  14.489 -0.5242  0.3264 -0.4547
  638MPD2    C3 9498   3.526   2.667  14.626 -0.3019  0.1544  0.5406
  638MPD2    C4 9499   3.612   2.758  14.671  0.3755 -0.2008  0.0010
  638MPD2    C5 9500   3.658   2.857  14.584 -1.0113  0.0646  0.3230
  638MPD2     H 9501   3.451   2.590  14.441  2.4494 -0.5885 -1.7476
  638MPD2    H1 9502   3.656   2.754  14.770  0.2850  0.3727  0.0664
  638MPD2    H2 9503   3.636   2.964  14.395  1.7435 -0.7104  0.3825
  638MPD2    H3 9504   3.719   2.935  14.629 -0.7564  0.2533 -0.3487
  638MPD2     N 9505   3.493   2.546  14.693  0.4027 -0.3673 -0.0796
  638MPD2    H5 9506   3.443   2.481  14.634 -0.1076 -1.6309  1.7524
  638MPD2    N1 9507   3.478   2.787  14.270 -0.6193  0.6431  0.5720
  638MPD2    H7 9508   3.518   2.855  14.207  0.9798 -0.9512 -0.1265
  639TMC3    C1 9509   3.474   2.385  14.863  0.1777  0.8852  0.0713
  639TMC3    C2 9510   3.366   2.341  14.794  0.0078  0.2398 -0.4372
  639TMC3    C3 9511   3.332   2.203  14.792  0.8493 -0.2348 -0.6517
  639TMC3    C4 9512   3.548   2.296  14.940 -0.6821  0.4813  0.0817
  639TMC3    C5 9513   3.521   2.164  14.930 -0.2772  0.1377  0.3337
  639TMC3    C6 9514   3.419   2.113  14.851  0.1006 -0.9768  0.8585
  639TMC3     C 9515   3.532   2.511  14.823 -0.2910  0.3870  0.1427
  639TMC3     O 9516   3.622   2.547  14.900 -0.1981  0.9677  0.5190
  639TMC3     H 9517   3.304   2.414  14.743 -0.2282  0.3478  0.0011
  639TMC3    H1 9518   3.635   2.334  14.992 -0.0888 -1.2981  0.3832
  639TMC3    H2 9519   3.398   2.008  14.840 -0.0784 -0.6760 -1.6841
  639TMC3    C7 9520   3.587   2.065  15.020 -0.1880 -0.0849  0.0747
  639TMC3    C8 9521   3.253   2.153  14.680  0.0595  0.2004 -0.1019
  639TMC3    O1 9522   3.514   1.968  15.038 -0.0900 -0.5764  0.3118
  639TMC3    O2 9523   3.300   2.054  14.623  0.5343 -0.8365 -0.0007
  640MPD2     C 9524   2.979   1.805   9.600 -0.7991 -0.6185  0.5739
  640MPD2    C1 9525   3.114   1.778   9.596  0.2598  0.1833 -0.6225
  640MPD2    C2 9526   3.204   1.870   9.647 -0.4632  0.2060  0.0651
  640MPD2    C3 9527   3.166   2.004   9.678  0.1552 -0.5990 -0.0065
  640MPD2    C4 9528   3.027   2.031   9.671  0.0891 -0.5239  0.0613
  640MPD2    C5 9529   2.935   1.928   9.643 -0.5589 -0.1223  0.6122
  640MPD2     H 9530   3.306   1.834   9.660 -0.0221  1.9466  1.4328
  640MPD2    H1 9531   2.995   2.134   9.687 -1.7454 -1.0711 -0.0652
  640MPD2    H2 9532   2.900   1.736   9.576 -2.7527  2.4411 -1.6706
  640MPD2    H3 9533   2.828   1.946   9.649 -1.0216 -2.0194 -1.8972
  640MPD2     N 9534   3.255   2.111   9.704  0.3917  0.4656 -0.0571
  640MPD2    H5 9535   3.216   2.202   9.729 -1.7059 -0.7195  0.9283
  640MPD2    N1 9536   3.159   1.655   9.553 -0.8009  0.2732 -0.2359
  640MPD2    H7 9537   3.260   1.644   9.555 -0.8401  0.0377  0.7374
  641TMC3    C1 9538   3.169   1.484   9.398 -0.2307  0.0684  0.1970
  641TMC3    C2 9539   3.290   1.419   9.432  0.1897  0.1250 -0.3850
  641TMC3    C3 9540   3.348   1.358   9.330  0.2085  0.0688  0.8556
  641TMC3    C4 9541   3.128   1.490   9.268  0.0517  1.1885  0.8130
  641TMC3    C5 9542   3.193   1.425   9.169  0.1983  0.3798  0.0100
  641TMC3    C6 9543   3.309   1.356   9.200 -0.2804 -0.5202  0.0923
  641TMC3     C 9544   3.084   1.563   9.484 -0.1885  0.3980  0.1322
  641TMC3     O 9545   2.962   1.554   9.471 -0.8068 -0.2785 -0.0517
  641TMC3     H 9546   3.302   1.385   9.535 -2.2165 -1.0400 -0.4889
  641TMC3    H1 9547   3.048   1.561   9.250 -1.6535 -0.7706  0.6636
  641TMC3    H2 9548   3.357   1.294   9.126  0.4743 -0.7745  0.8070
  641TMC3    C7 9549   3.122   1.423   9.040 -0.7042 -0.1856  0.3176
  641TMC3    C8 9550   3.471   1.286   9.346 -0.0181  0.6587  0.9104
  641TMC3    O1 9551   3.012   1.476   9.034 -0.3477 -0.0136  0.2657
  641TMC3    O2 9552   3.488   1.192   9.270  0.3356  0.2127 -0.0704
  642TMC3    C1 9553   4.482   2.839  12.455 -0.3943 -0.1177  0.3385
  642TMC3    C2 9554   4.611   2.833  12.425 -0.0515 -0.4752  0.4456
  642TMC3    C3 9555   4.672   2.714  12.415 -0.2308  0.9412  0.4755
  642TMC3    C4 9556   4.404   2.725  12.474  0.4614 -0.3857  0.0904
  642TMC3    C5 9557   4.471   2.604  12.451 -0.8168 -0.2518 -0.4535
  642TMC3    C6 9558   4.609   2.599  12.418 -0.2314 -0.0494  0.4553
  642TMC3     C 9559   4.417   2.973  12.451 -0.9756 -0.6681 -0.8974
  642TMC3     O 9560   4.500   3.060  12.412 -0.0612 -0.5930  0.1903
  642TMC3     H 9561   4.681   2.916  12.420 -1.2693  0.6575  2.5034
  642TMC3    H1 9562   4.301   2.726  12.507 -0.7523  1.4647 -3.6969
  642TMC3    H2 9563   4.663   2.506  12.405 -2.7862 -1.5298  0.3078
  642TMC3    C7 9564   4.429   2.479  12.513 -0.0927  0.1106  0.5611
  642TMC3    C8 9565   0.073   2.712  12.370  0.2820 -0.4718  0.1511
  642TMC3    O1 9566   4.503   2.389  12.485 -0.2812  0.6354  0.2613
  642TMC3    O2 9567   0.152   2.790  12.426 -0.2930 -0.2182 -0.2896
  643TMC3    C1 9568   4.346   2.074   0.207 -0.5030 -0.4864 -0.3217
  643TMC3    C2 9569   4.227   2.138   0.173  0.6399  0.1452 -0.6044
  643TMC3    C3 9570   4.119   2.072   0.126 -0.3706  0.5430 -0.1722
  643TMC3    C4 9571   4.355   1.944   0.168 -0.5718  0.0671 -0.3161
  643TMC3    C5 9572   4.244   1.877   0.122 -0.1871  0.0954  0.4429
  643TMC3    C6 9573   4.127   1.942   0.108 -0.4614  0.6984 -0.2993
  643TMC3     C 9574   4.412   2.127   0.328 -0.7785  0.3621  0.4592
  643TMC3     O 9575   4.380   2.232   0.375 -0.0808 -0.0677 -0.4815
  643TMC3     H 9576   4.214   2.241   0.204 -0.6041 -0.3162  0.4033
  643TMC3    H1 9577   4.436   1.880   0.200 -1.7325 -0.5836  1.3728
  643TMC3    H2 9578   4.049   1.884   0.062 -2.1972  1.9964  1.0264
  643TMC3    C7 9579   4.277   1.805   0.002  0.0931 -0.5624 -0.3938
  643TMC3    C8 9580   4.014   2.148   0.070  1.0469  0.5584  0.4460
  643TMC3    O1 9581   4.388   1.822  17.693  0.4538  0.2267 -0.4068
  643TMC3    O2 9582   3.902   2.091   0.054 -0.7196 -0.2110  0.5533
  644MPD2     C 9583   4.067   1.793  10.029 -0.3786 -0.6487 -0.1797
  644MPD2    C1 9584   4.158   1.751   9.934 -0.0204  0.5634  0.0030
  644MPD2    C2 9585   4.125   1.704   9.810  0.1005  0.4866 -0.6307
  644MPD2    C3 9586   3.989   1.705   9.779  1.0158 -0.3308 -1.1858
  644MPD2    C4 9587   3.894   1.741   9.873  0.1803  0.1908  0.2794
  644MPD2    C5 9588   3.934   1.785   9.994 -0.0804 -0.4745 -0.1061
  644MPD2     H 9589   4.193   1.672   9.733 -0.8345 -1.0391 -0.8239
  644MPD2    H1 9590   3.787   1.729   9.858  0.8654 -1.5559 -3.3175
  644MPD2    H2 9591   4.099   1.817  10.129  1.5940 -0.6304 -0.8007
  644MPD2    H3 9592   3.865   1.816  10.071  1.9400  0.7091  1.2478
  644MPD2     N 9593   3.942   1.663   9.649 -0.2251  0.1355 -0.2959
  644MPD2    H5 9594   4.019   1.626   9.595 -0.1872  0.7507 -0.6668
  644MPD2    N1 9595   4.292   1.769   9.968  0.1557 -0.4421 -0.1331
  644MPD2    H7 9596   4.320   1.828  10.046 -0.8900 -0.8075  0.5127
  645TMC3    C1 9597   3.824   1.645   9.451  0.5026 -0.5983 -0.2518
  645TMC3    C2 9598   3.921   1.565   9.399  0.2332 -0.3444 -0.0375
  645TMC3    C3 9599   3.907   1.508   9.274 -0.7005  0.3750 -0.8532
  645TMC3    C4 9600   3.706   1.673   9.380  0.0414  0.4195 -1.0152
  645TMC3    C5 9601   3.690   1.616   9.254  0.3141 -0.5712  0.2003
  645TMC3    C6 9602   3.787   1.526   9.207 -0.0063  0.5847 -0.0001
  645TMC3     C 9603   3.822   1.674   9.595  0.6295  0.3573 -0.1844
  645TMC3     O 9604   3.712   1.686   9.646  0.0367 -0.3530 -0.1581
  645TMC3     H 9605   4.001   1.522   9.457  0.1430 -0.0686  0.2910
  645TMC3    H1 9606   3.618   1.718   9.423 -0.9747  0.1482 -2.8160
  645TMC3    H2 9607   3.766   1.479   9.112  1.9092 -0.4487  0.0926
  645TMC3    C7 9608   3.570   1.633   9.161  0.8657 -0.4185 -0.0280
  645TMC3    C8 9609   4.009   1.417   9.224 -0.0868 -0.2689  0.1705
  645TMC3    O1 9610   3.575   1.572   9.058 -0.0326  0.1227 -0.4835
  645TMC3    O2 9611   4.107   1.411   9.293  0.3245  0.2599  0.2343
  646MPD2     C 9612   3.292   1.188  14.530 -0.4937  0.1463  0.2450
  646MPD2    C1 9613   3.221   1.286  14.592 -0.1527  0.2355  0.7235
  646MPD2    C2 9614   3.153   1.374  14.518  0.9572 -0.4078 -0.1371
  646MPD2    C3 9615   3.140   1.370  14.380 -0.6983 -0.5719  0.5456
  646MPD2    C4 9616   3.207   1.264  14.318 -0.2087  0.2409 -0.6166
  646MPD2    C5 9617   3.287   1.187  14.393  0.1317 -0.3494 -0.2294
  646MPD2     H 9618   3.106   1.457  14.572  1.3161 -0.7041  0.6344
  646MPD2    H1 9619   3.212   1.264  14.210 -3.1978 -0.1417 -0.7775
  646MPD2    H2 9620   3.353   1.118  14.586 -0.0113  0.4961  0.1521
  646MPD2    H3 9621   3.352   1.123  14.333  0.1644 -3.2526  2.9283
  646MPD2     N 9622   3.066   1.469  14.313  0.4060 -0.4947 -0.3438
  646MPD2    H5 9623   3.034   1.551  14.362  0.7408  0.0355 -1.0169
  646MPD2    N1 9624   3.219   1.283  14.737  0.2404 -0.1368  0.3111
  646MPD2    H7 9625   3.279   1.215  14.782  0.6427 -0.3005 -0.4768
  647TMC3    C1 9626   3.170   1.348  14.949  0.7434 -0.4334  0.3975
  647TMC3    C2 9627   3.078   1.263  15.007  0.5508 -0.1701 -0.7419
  647TMC3    C3 9628   3.126   1.166  15.092 -0.4560 -0.4643 -0.0363
  647TMC3    C4 9629   3.301   1.339  14.965  0.2571 -0.5946  0.1085
  647TMC3    C5 9630   3.341   1.256  15.066 -0.4614  0.2948  0.1388
  647TMC3    C6 9631   3.255   1.169  15.134  0.2904  0.0489  0.4597
  647TMC3     C 9632   3.141   1.365  14.815 -0.7141  0.1852 -0.6859
  647TMC3     O 9633   3.070   1.460  14.783 -0.7137 -0.4669  0.2971
  647TMC3     H 9634   2.976   1.264  14.971  0.1935 -0.3914  0.2746
  647TMC3    H1 9635   3.369   1.376  14.889 -0.4124  0.6796  0.1301
  647TMC3    H2 9636   3.307   1.097  15.195  0.0673 -0.0482  0.5356
  647TMC3    C7 9637   3.476   1.208  15.060 -0.0767  0.0892 -0.6857
  647TMC3    C8 9638   3.058   1.039  15.077 -0.4466 -0.1767 -0.6067
  647TMC3    O1 9639   3.504   1.095  15.096  0.2160 -0.2691 -1.1461
  647TMC3    O2 9640   2.950   1.025  15.018  0.2724 -0.2464 -0.1009
  648TMC3    C1 9641   2.691   3.354  16.033  0.3306  0.4130  0.1708
  648TMC3    C2 9642   2.814   3.300  16.007  0.5239 -0.7506 -0.2962
  648TMC3    C3 9643   2.876   3.330  15.885  0.4307  0.3547 -0.3552
  648TMC3    C4 9644   2.646   3.457  15.951 -0.4988  0.4907 -0.5518
  648TMC3    C5 9645   2.707   3.485  15.838  0.6295  0.0923 -0.6171
  648TMC3    C6 9646   2.821   3.427  15.806  0.1596 -0.3202  0.1310
  648TMC3     C 9647   2.661   3.373  16.168 -0.9930 -0.0939 -0.3109
  648TMC3     O 9648   2.653   3.492  16.195 -0.2541  0.0126  0.2930
  648TMC3     H 9649   2.861   3.237  16.082 -0.2951 -0.8769  0.1103
  648TMC3    H1 9650   2.552   3.503  15.979 -0.1230  0.1568  1.2886
  648TMC3    H2 9651   2.885   3.463  15.725  1.7065 -1.2991  0.9058
  648TMC3    C7 9652   2.656   3.588  15.755  0.3476  0.4603 -0.0778
  648TMC3    C8 9653   3.004   3.289  15.873 -0.0516  0.4681  0.5143
  648TMC3    O1 9654   2.696   3.591  15.637  0.3847  0.2080  0.2900
  648TMC3    O2 9655   3.048   3.226  15.967 -0.0646 -0.0682 -0.0647
  649TMC3    C1 9656   1.560   0.097  12.491 -0.1916 -0.7486  0.0065
  649TMC3    C2 9657   1.587   0.223  12.543 -0.4145 -0.6270  0.7368
  649TMC3    C3 9658   1.635   0.225  12.669  0.3170 -0.3793 -0.6993
  649TMC3    C4 9659   1.547   4.719  12.565  0.3250 -0.4592  0.1213
  649TMC3    C5 9660   1.586   4.732  12.700  1.4341  0.0101 -0.9369
  649TMC3    C6 9661   1.634   0.116  12.752  0.4432  0.0356  0.1634
  649TMC3     C 9662   1.497   0.089  12.362 -1.1372  0.7593  0.0665
  649TMC3     O 9663   1.420   0.001  12.328 -0.2966  0.0491 -0.3476
  649TMC3     H 9664   1.589   0.310  12.479 -0.2290 -0.2003  1.3309
  649TMC3    H1 9665   1.517   4.622  12.528 -0.4833  0.3147 -1.2644
  649TMC3    H2 9666   1.674   0.129  12.851 -0.5420  0.8895  0.4398
  649TMC3    C7 9667   1.553   4.620  12.788 -0.2696 -0.1254  0.3837
  649TMC3    C8 9668   1.714   0.341  12.722 -0.1880  0.1689  0.4451
  649TMC3    O1 9669   1.451   4.560  12.767  0.6063  0.3201  0.0507
  649TMC3    O2 9670   1.801   0.317  12.799 -0.3142  0.0177  0.3507
  650TMC3    C1 9671   3.887   1.954  12.625  0.6984 -0.3620 -0.1474
  650TMC3    C2 9672   3.791   2.050  12.665 -0.6203  0.1280 -0.3689
  650TMC3    C3 9673   3.795   2.172  12.592 -0.1805 -0.2232  0.8683
  650TMC3    C4 9674   3.993   1.991  12.546  0.0385  0.6977 -0.5061
  650TMC3    C5 9675   3.998   2.116  12.495  0.6025  0.1030  0.2362
  650TMC3    C6 9676   3.899   2.209  12.512 -0.3834 -1.1291  0.1141
  650TMC3     C 9677   3.857   1.813  12.669  0.0234  0.2109  0.5054
  650TMC3     O 9678   3.740   1.785  12.685  0.1560  0.0133 -0.4138
  650TMC3     H 9679   3.707   2.020  12.726 -0.7986  0.7128 -0.3229
  650TMC3    H1 9680   4.068   1.921  12.509 -0.7735 -0.9355  0.9300
  650TMC3    H2 9681   3.893   2.302  12.457 -0.7620 -0.4534  1.3155
  650TMC3    C7 9682   4.104   2.148  12.401 -0.0057 -0.8058 -0.1962
  650TMC3    C8 9683   3.705   2.281  12.624  0.1446  0.2552 -0.1225
  650TMC3    O1 9684   4.157   2.050  12.347  0.3584  0.1930 -0.1520
  650TMC3    O2 9685   3.757   2.394  12.643  0.1180 -0.6186  0.2188
  651MPD2     C 9686   2.878   3.350  10.506  0.1623 -0.5238  0.3588
  651MPD2    C1 9687   2.877   3.487  10.477 -0.0815 -0.3026  0.6595
  651MPD2    C2 9688   2.983   3.542  10.406 -0.6235 -0.7725  0.6424
  651MPD2    C3 9689   3.092   3.468  10.356 -0.0769  0.0772 -0.2936
  651MPD2    C4 9690   3.094   3.333  10.394 -0.9167 -0.3654  0.1993
  651MPD2    C5 9691   2.989   3.274  10.470  0.6659  0.7884  0.3509
  651MPD2     H 9692   2.986   3.645  10.375 -1.3140 -1.1835 -0.7689
  651MPD2    H1 9693   3.172   3.267  10.359 -0.9879 -0.9809  1.2084
  651MPD2    H2 9694   2.789   3.296  10.535 -0.3974 -0.1171 -0.5922
  651MPD2    H3 9695   2.988   3.166  10.467  1.2463  0.8844 -2.7196
  651MPD2     N 9696   3.192   3.525  10.280 -0.2137 -0.5165  0.1740
  651MPD2    H5 9697   3.182   3.624  10.261  1.5646 -0.0459  1.7042
  651MPD2    N1 9698   2.768   3.572  10.511 -0.1170  0.1473 -0.0508
  651MPD2    H7 9699   2.772   3.668  10.481 -3.0258  1.0364  2.3698
  652TMC3    C1 9700   3.607   3.663  10.199 -0.5306  0.3713  0.2735
  652TMC3    C2 9701   3.531   3.553  10.211 -0.0475  0.2700  0.3708
  652TMC3    C3 9702   3.394   3.564  10.183 -0.0447  0.1033 -0.4160
  652TMC3    C4 9703   3.564   3.781  10.154  0.6507  0.8457  0.9892
  652TMC3    C5 9704   3.433   3.787  10.125 -0.5658 -0.1245 -0.5093
  652TMC3    C6 9705   3.348   3.684  10.140 -0.5754 -0.2468 -0.2181
  652TMC3     C 9706   3.735   3.666  10.269 -0.2733 -0.4907  0.7504
  652TMC3     O 9707   3.749   3.602  10.372 -0.1395  0.2748 -0.2474
  652TMC3     H 9708   3.578   3.472  10.266  0.3495 -0.3874 -0.9322
  652TMC3    H1 9709   3.626   3.870  10.158  4.2156 -1.6195  0.5654
  652TMC3    H2 9710   3.243   3.693  10.114 -0.5940 -1.6619 -0.6496
  652TMC3    C7 9711   3.381   3.915  10.071  0.1853 -0.3059  0.1984
  652TMC3    C8 9712   3.305   3.472  10.242 -0.3917  0.5128  0.9838
  652TMC3    O1 9713   3.268   3.914  10.024  0.0126  0.1435 -0.2476
  652TMC3    O2 9714   3.347   3.359  10.255 -0.1786  0.5142  0.5675
  653MPD2     C 9715   1.440   3.391  17.468 -0.3975 -0.0719  0.0560
  653MPD2    C1 9716   1.493   3.477  17.376 -0.3156  0.2101 -0.2567
  653MPD2    C2 9717   1.477   3.448  17.244  0.5401  0.0872  0.0339
  653MPD2    C3 9718   1.420   3.329  17.207 -0.6461  0.1341  0.2622
  653MPD2    C4 9719   1.363   3.250  17.300 -0.4733 -0.6091 -0.6489
  653MPD2    C5 9720   1.375   3.275  17.429 -0.2122 -0.0808  0.4560
  653MPD2     H 9721   1.516   3.513  17.167 -1.0282 -0.7165 -1.4352
  653MPD2    H1 9722   1.308   3.160  17.275  1.7439 -1.9846 -0.5701
  653MPD2    H2 9723   1.453   3.407  17.575  3.4680 -0.1272 -0.4209
  653MPD2    H3 9724   1.325   3.222  17.508 -1.3996 -0.6593 -0.6951
  653MPD2     N 9725   1.415   3.311  17.067 -0.7435 -0.0603 -0.0805
  653MPD2    H5 9726   1.431   3.395  17.011  1.4090 -0.0912  0.4962
  653MPD2    N1 9727   1.565   3.595  17.406 -0.4482 -0.2358 -0.5778
  653MPD2    H7 9728   1.595   3.650  17.327  1.6496 -0.3195  0.1568
  654TMC3    C1 9729   1.401   3.193  16.869  0.0978  0.2437 -0.1690
  654TMC3    C2 9730   1.388   3.314  16.804  0.0848  0.0050 -0.1059
  654TMC3    C3 9731   1.419   3.309  16.669 -0.6324 -0.7475 -0.2487
  654TMC3    C4 9732   1.444   3.081  16.810 -0.6398  0.2408  0.5508
  654TMC3    C5 9733   1.478   3.083  16.675 -0.0689  0.4404  0.2054
  654TMC3    C6 9734   1.467   3.200  16.598 -0.0205  0.0509  0.2986
  654TMC3     C 9735   1.393   3.194  17.009  0.3293  0.0561  0.6692
  654TMC3     O 9736   1.396   3.086  17.063 -0.4101 -0.4064 -0.6837
  654TMC3     H 9737   1.338   3.400  16.847 -2.2285 -1.7933  0.8050
  654TMC3    H1 9738   1.453   2.990  16.869 -0.3577 -1.0318 -1.4404
  654TMC3    H2 9739   1.480   3.195  16.491 -1.6357  2.6976 -0.0085
  654TMC3    C7 9740   1.534   2.958  16.612  0.0227  0.1280  0.2124
  654TMC3    C8 9741   1.392   3.433  16.594  0.0669 -0.3659  0.0254
  654TMC3    O1 9742   1.537   2.960  16.491  0.2139  0.2801 -0.2281
  654TMC3    O2 9743   1.307   3.506  16.641 -0.4555 -0.7389 -0.1220
  655MPD2     C 9744   3.148   3.619  15.545 -0.4471  0.3056  0.1002
  655MPD2    C1 9745   3.061   3.728  15.563  0.6021  0.1870 -0.6525
  655MPD2    C2 9746   2.989   3.770  15.461 -0.8191  0.0347 -0.3950
  655MPD2    C3 9747   3.002   3.716  15.333 -0.0735  0.2397 -0.7387
  655MPD2    C4 9748   3.096   3.617  15.312  0.5418  1.0738 -0.5966
  655MPD2    C5 9749   3.159   3.563  15.421  0.3498  0.7251 -0.2172
  655MPD2     H 9750   2.915   3.847  15.481 -0.8127  0.0005 -0.2433
  655MPD2    H1 9751   3.122   3.588  15.211 -1.3086 -3.3038  0.2194
  655MPD2    H2 9752   3.196   3.573  15.630  1.3360 -0.1078 -1.1099
  655MPD2    H3 9753   3.235   3.492  15.390  1.4351  2.2374 -1.0273
  655MPD2     N 9754   2.926   3.764  15.223 -0.2493  0.0449 -0.0331
  655MPD2    H5 9755   2.957   3.733  15.132  3.1172  0.8161  0.8400
  655MPD2    N1 9756   3.052   3.803  15.680  0.0364  0.2429 -0.1285
  655MPD2    H7 9757   2.992   3.884  15.672 -1.8176 -0.9140  1.7769
  656TMC3    C1 9758   3.080   3.876  15.896 -0.3944 -0.1310 -0.5337
  656TMC3    C2 9759   2.971   3.846  15.971  0.0216 -0.5392 -0.4744
  656TMC3    C3 9760   2.897   3.956  16.019  0.1346 -0.2605  0.7724
  656TMC3    C4 9761   3.097   4.000  15.847  0.1368 -1.0107  0.0479
  656TMC3    C5 9762   3.017   4.100  15.893 -0.5963 -0.6907 -0.1898
  656TMC3    C6 9763   2.918   4.082  15.984 -0.4495  0.1474 -0.1538
  656TMC3     C 9764   3.099   3.764  15.807 -0.4223  0.2977  0.5363
  656TMC3     O 9765   3.166   3.672  15.846  0.3765  0.0239 -0.1353
  656TMC3     H 9766   2.940   3.743  15.985 -0.3817 -0.4620 -0.8023
  656TMC3    H1 9767   3.180   4.013  15.779  1.2154 -0.8381  1.3924
  656TMC3    H2 9768   2.853   4.164  16.013 -0.9577 -0.1814 -0.3494
  656TMC3    C7 9769   3.004   4.200  15.788 -0.4318 -0.3918 -0.2358
  656TMC3    C8 9770   2.769   3.917  16.085 -0.8406 -0.2141 -0.0702
  656TMC3    O1 9771   3.094   4.206  15.704 -0.3519  0.4830  0.1478
  656TMC3    O2 9772   2.743   3.800  16.094 -0.2198  0.3096  0.0046
  657TMC3    C1 9773   2.511   3.407  14.834 -0.9325  0.1072 -0.2826
  657TMC3    C2 9774   2.425   3.306  14.866  0.1605 -0.2589 -0.6619
  657TMC3    C3 9775   2.296   3.337  14.845  0.1513 -0.2404  0.6586
  657TMC3    C4 9776   2.474   3.524  14.771 -0.5464  0.1960 -0.2004
  657TMC3    C5 9777   2.341   3.544  14.747 -0.1023 -0.1048 -0.2798
  657TMC3    C6 9778   2.249   3.450  14.786  0.2439 -0.0515 -0.3702
  657TMC3     C 9779   2.657   3.380  14.838  0.3407  0.2303  0.2005
  657TMC3     O 9780   2.731   3.445  14.767 -0.6234 -0.7329  0.4885
  657TMC3     H 9781   2.466   3.212  14.902 -0.1397 -0.1654 -0.0722
  657TMC3    H1 9782   2.546   3.595  14.733 -2.3433  1.1072 -1.9364
  657TMC3    H2 9783   2.144   3.474  14.774  0.4968  1.8431  1.2039
  657TMC3    C7 9784   2.300   3.648  14.649 -0.3738 -0.3582 -0.0530
  657TMC3    C8 9785   2.194   3.245  14.897 -0.9508  0.0135 -0.3119
  657TMC3    O1 9786   2.383   3.734  14.620  0.2812  0.2561 -0.2172
  657TMC3    O2 9787   2.080   3.269  14.869 -0.0346  0.3649 -0.5684
  658MPD2     C 9788   3.182   3.750  14.678  1.1774  0.5636  0.7794
  658MPD2    C1 9789   3.051   3.772  14.652  0.5005 -0.4273 -0.4332
  658MPD2    C2 9790   3.021   3.799  14.511  0.1189 -1.1370 -0.6431
  658MPD2    C3 9791   3.116   3.776  14.409 -0.0342  0.0270  0.1166
  658MPD2    C4 9792   3.240   3.732  14.445  0.3378 -0.5407  0.4260
  658MPD2    C5 9793   3.273   3.718  14.572  0.2537 -0.7941  0.1298
  658MPD2     H 9794   2.919   3.823  14.485  0.0440 -1.0301 -0.2426
  658MPD2    H1 9795   3.314   3.704  14.371  1.2798  0.9074  0.8209
  658MPD2    H2 9796   3.225   3.734  14.776 -1.3418  0.5134  1.8883
  658MPD2    H3 9797   3.374   3.681  14.584  1.4683  2.1452 -0.8585
  658MPD2     N 9798   3.082   3.800  14.274 -0.5997  0.2046 -0.7556
  658MPD2    H5 9799   2.989   3.836  14.254 -0.2692  1.7450  0.4965
  658MPD2    N1 9800   2.967   3.788  14.761  0.2598  0.7727  0.4584
  658MPD2    H7 9801   3.013   3.785  14.851 -1.1651 -2.2669  1.0653
  659TMC3    C1 9802   2.769   3.844  14.879 -0.6986  0.2502  0.2619
  659TMC3    C2 9803   2.845   3.858  14.991 -0.1364 -0.4224  0.6035
  659TMC3    C3 9804   2.779   3.897  15.103 -0.2489 -0.7581 -0.8299
  659TMC3    C4 9805   2.633   3.876  14.874 -0.3960  0.5005  0.0949
  659TMC3    C5 9806   2.577   3.923  14.988  0.0784  0.1461  1.0769
  659TMC3    C6 9807   2.653   3.941  15.099  0.7637 -0.6550  0.0144
  659TMC3     C 9808   2.838   3.824  14.754  0.2667  0.3435  0.2633
  659TMC3     O 9809   2.761   3.806  14.660  0.7337  0.0590  0.1249
  659TMC3     H 9810   2.952   3.850  14.998 -0.2336 -0.6278  1.9962
  659TMC3    H1 9811   2.575   3.859  14.784 -0.8359 -1.1619  0.6837
  659TMC3    H2 9812   2.603   3.984  15.186 -2.4499 -1.2541 -1.5216
  659TMC3    C7 9813   2.460   3.846  15.024  0.3236 -0.7875  0.1951
  659TMC3    C8 9814   2.835   3.867  15.230  0.2210  0.8469 -0.2129
  659TMC3    O1 9815   2.486   3.761  15.110 -0.5204  0.2656 -0.4504
  659TMC3    O2 9816   2.769   3.898  15.327 -0.3693 -0.2486  0.2595
  660MPD2     C 9817   1.069   2.648  12.532 -0.9244  0.5496  0.7668
  660MPD2    C1 9818   0.957   2.722  12.577 -0.4485  0.2711 -0.6402
  660MPD2    C2 9819   0.852   2.660  12.649  0.2679  0.6268 -0.2506
  660MPD2    C3 9820   0.854   2.522  12.671  0.2837 -0.2512  0.2943
  660MPD2    C4 9821   0.965   2.450  12.623  0.1962 -0.1814  0.0116
  660MPD2    C5 9822   1.062   2.516  12.556 -0.0324  0.4268  0.1382
  660MPD2     H 9823   0.767   2.717  12.685 -1.9150 -2.8588  0.0002
  660MPD2    H1 9824   0.987   2.346  12.644 -2.3232 -0.8548 -0.7595
  660MPD2    H2 9825   1.152   2.683  12.471  0.1134 -0.4731  1.5987
  660MPD2    H3 9826   1.147   2.460  12.520 -0.4740 -1.1383  1.5049
  660MPD2     N 9827   0.763   2.463  12.761  0.4931 -0.3277 -0.3126
  660MPD2    H5 9828   0.790   2.380  12.812 -0.1113 -0.6565 -0.5206
  660MPD2    N1 9829   0.950   2.858  12.537 -0.8802  0.3187  0.0503
  660MPD2    H7 9830   1.022   2.891  12.474 -1.2499 -0.9887 -1.0541
  661TMC3    C1 9831   0.832   3.065  12.498 -0.2397 -0.0314  0.1689
  661TMC3    C2 9832   0.918   3.070  12.387  0.3440  0.4978 -0.5261
  661TMC3    C3 9833   0.860   3.132  12.277  0.1747  0.0282 -0.0889
  661TMC3    C4 9834   0.705   3.111  12.498  0.1950 -0.5654 -0.0829
  661TMC3    C5 9835   0.657   3.159  12.378 -0.1115 -0.7276  0.3507
  661TMC3    C6 9836   0.731   3.174  12.264 -0.0087 -0.1321 -0.1555
  661TMC3     C 9837   0.866   2.955  12.591 -0.3691  0.0448 -0.3454
  661TMC3     O 9838   0.798   2.951  12.692  0.4559 -0.9130 -0.3788
  661TMC3     H 9839   1.016   3.024  12.378  0.1108 -0.1710  0.3881
  661TMC3    H1 9840   0.641   3.098  12.584 -2.5263 -0.9656 -2.1576
  661TMC3    H2 9841   0.682   3.202  12.172  0.3302  1.9695  0.3078
  661TMC3    C7 9842   0.516   3.186  12.372 -0.3042  0.5827  0.1058
  661TMC3    C8 9843   0.936   3.119  12.150 -0.1151  0.0548 -0.1200
  661TMC3    O1 9844   0.462   3.225  12.475  0.3076 -0.2092  0.3753
  661TMC3    O2 9845   1.028   3.039  12.155  0.1208 -0.6270  0.2368
  662MPD2     C 9846   1.322   2.657  16.876 -0.2026 -0.2361 -0.0064
  662MPD2    C1 9847   1.348   2.546  16.956 -0.6366  0.2876  0.1520
  662MPD2    C2 9848   1.328   2.561  17.091  0.2332  0.1802  0.4258
  662MPD2    C3 9849   1.296   2.687  17.150 -0.5016  0.2554  0.4565
  662MPD2    C4 9850   1.254   2.789  17.070 -0.4488  0.7787 -0.7111
  662MPD2    C5 9851   1.273   2.773  16.933 -0.3323  0.1149  0.0829
  662MPD2     H 9852   1.351   2.481  17.160  2.1368 -0.3834 -0.8870
  662MPD2    H1 9853   1.220   2.885  17.108 -0.6148  0.3923  0.1122
  662MPD2    H2 9854   1.317   2.652  16.768 -1.2880  1.4232 -0.0351
  662MPD2    H3 9855   1.250   2.861  16.874  1.3816  1.7852  1.8937
  662MPD2     N 9856   1.268   2.673  17.283  0.6296  0.0207 -0.3946
  662MPD2    H5 9857   1.276   2.578  17.317 -1.0323  0.6807  1.8670
  662MPD2    N1 9858   1.376   2.418  16.905 -0.1438 -0.1041  0.1638
  662MPD2    H7 9859   1.398   2.347  16.974  0.5899  0.6700  0.7376
  663TMC3    C1 9860   1.433   2.242  16.771  0.2549 -0.3584 -0.5636
  663TMC3    C2 9861   1.523   2.210  16.874 -0.3906 -0.2373  0.6123
  663TMC3    C3 9862   1.528   2.084  16.918  0.3428  0.1145  0.1137
  663TMC3    C4 9863   1.345   2.154  16.724 -0.2947  0.0139 -1.1346
  663TMC3    C5 9864   1.339   2.029  16.785 -0.2395 -0.0708  0.6757
  663TMC3    C6 9865   1.440   1.985  16.869 -0.1270  0.3296  0.1799
  663TMC3     C 9866   1.381   2.374  16.776  0.4435 -0.7134 -0.6492
  663TMC3     O 9867   1.338   2.423  16.674  0.2321 -0.1826 -0.1499
  663TMC3     H 9868   1.589   2.284  16.918  0.3700 -1.8895  2.2635
  663TMC3    H1 9869   1.275   2.175  16.643  0.9285  1.0603 -1.9224
  663TMC3    H2 9870   1.443   1.891  16.923  2.5311 -0.0300 -0.5830
  663TMC3    C7 9871   1.254   1.927  16.721  0.0541  0.1227 -0.8521
  663TMC3    C8 9872   1.577   2.086  17.056  0.5425 -0.0802  0.6106
  663TMC3    O1 9873   1.154   1.970  16.665  0.5619 -0.2028 -0.6803
  663TMC3    O2 9874   1.672   2.160  17.068 -0.6670 -0.1621  0.2728
  664MPD2     C 9875   3.950   4.711  17.424 -0.0543 -0.1879 -1.1675
  664MPD2    C1 9876   3.979   0.099  17.477  0.3246 -0.4456  0.5340
  664MPD2    C2 9877   3.897   0.147  17.571 -0.0605 -0.9665 -0.2097
  664MPD2    C3 9878   3.801   0.067  17.635  0.3438  0.1069 -0.7069
  664MPD2    C4 9879   3.766   4.680  17.578  0.5868  0.7701 -0.2208
  664MPD2    C5 9880   3.840   4.639  17.463 -0.4515  0.4334 -0.2099
  664MPD2     H 9881   3.907   0.248  17.608 -0.0218 -1.6964  1.7953
  664MPD2    H1 9882   3.692   4.615  17.625  0.9956 -0.2427 -0.9828
  664MPD2    H2 9883   4.020   4.660  17.359  0.5898  0.7642 -1.2233
  664MPD2    H3 9884   3.826   4.540  17.421  0.5240  1.0935 -2.0383
  664MPD2     N 9885   3.734   0.133  17.739 -0.5682  0.3530 -0.0557
  664MPD2    H5 9886   3.771   0.220   0.030 -0.0307  0.8929 -1.8672
  664MPD2    N1 9887   4.094   0.178  17.442  0.4097  0.7358  0.1909
  664MPD2    H7 9888   4.101   0.271  17.481 -0.1009  0.4764  0.9201
  665TMC3    C1 9889   3.618   0.179   0.185 -0.3398 -0.4079 -0.4976
  665TMC3    C2 9890   3.634   0.137   0.312  0.8194 -0.3648 -0.6655
  665TMC3    C3 9891   3.697   0.216   0.403  0.7087 -0.6059  0.1058
  665TMC3    C4 9892   3.658   0.304   0.144  0.3301 -0.9761  0.1594
  665TMC3    C5 9893   3.731   0.378   0.233  0.2939  0.0132 -0.4310
  665TMC3    C6 9894   3.743   0.341   0.369 -0.0126  0.1346 -0.0270
  665TMC3     C 9895   3.631   0.084   0.075  0.0122 -0.4395  0.5867
  665TMC3     O 9896   3.593   4.705   0.091 -0.0163 -0.2015  0.6086
  665TMC3     H 9897   3.602   0.039   0.346 -0.9634  0.2354 -0.6513
  665TMC3    H1 9898   3.632   0.344   0.047 -0.2408 -1.0730  0.2746
  665TMC3    H2 9899   3.812   0.390   0.437 -0.4386  0.1236  0.4075
  665TMC3    C7 9900   3.788   0.495   0.174 -0.4855  0.3536 -0.1854
  665TMC3    C8 9901   3.731   0.169   0.539  0.3071  0.5817  0.5921
  665TMC3    O1 9902   3.759   0.519   0.057  0.0401  0.4863 -0.7130
  665TMC3    O2 9903   3.756   0.249   0.627  0.1008 -0.0609  0.5020
  666TMC3    C1 9904   3.728   0.786   9.548  0.0151 -0.1789 -0.2894
  666TMC3    C2 9905   3.826   0.741   9.628 -0.5871  0.9377  0.2667
  666TMC3    C3 9906   3.848   0.802   9.750  0.4106 -0.2134  0.0629
  666TMC3    C4 9907   3.660   0.901   9.583 -0.0776 -0.3951  0.3052
  666TMC3    C5 9908   3.670   0.950   9.708  0.2943 -0.2685  0.1344
  666TMC3    C6 9909   3.767   0.907   9.793 -0.2908 -0.3083  0.3944
  666TMC3     C 9910   3.673   0.698   9.447  0.0418 -0.1536  0.3629
  666TMC3     O 9911   3.742   0.619   9.386 -0.4044  0.2609 -0.3713
  666TMC3     H 9912   3.854   0.641   9.599 -0.2867  1.1866 -0.3214
  666TMC3    H1 9913   3.588   0.961   9.527  0.1540 -2.2265 -1.9627
  666TMC3    H2 9914   3.763   0.944   9.895 -2.2577 -1.6007  0.8026
  666TMC3    C7 9915   3.564   1.040   9.764 -0.0548  0.4132 -0.0170
  666TMC3    C8 9916   3.881   0.711   9.855 -0.7552 -0.0873  0.2712
  666TMC3    O1 9917   3.457   1.053   9.707 -0.0559  0.5766  0.2841
  666TMC3    O2 9918   3.875   0.591   9.829  0.1399 -0.3500 -0.2504
  667MPD2     C 9919   0.367   0.672  14.294 -0.7722 -0.4545 -0.0408
  667MPD2    C1 9920   0.425   0.574  14.378 -0.1153 -0.7002  0.4169
  667MPD2    C2 9921   0.374   0.443  14.377 -0.2624  0.1722  0.0136
  667MPD2    C3 9922   0.292   0.405  14.275 -0.1302  0.3003  0.2747
  667MPD2    C4 9923   0.235   0.499  14.193 -0.2481  0.2113  0.2076
  667MPD2    C5 9924   0.268   0.632  14.204 -0.4082 -0.2016 -0.3726
  667MPD2     H 9925   0.396   0.372  14.456  1.6365  2.5055  1.5989
  667MPD2    H1 9926   0.158   0.472  14.121 -0.2647 -0.4076  0.4616
  667MPD2    H2 9927   0.393   0.775  14.315  1.4269 -0.7890 -1.0239
  667MPD2    H3 9928   0.212   0.701  14.143 -0.2620 -0.7668 -1.1415
  667MPD2     N 9929   0.245   0.268  14.256  0.2378  0.1644 -0.2361
  667MPD2    H5 9930   0.175   0.254  14.184  0.0469  1.2109 -0.2551
  667MPD2    N1 9931   0.503   0.614  14.489  0.3460 -0.1564 -0.5549
  667MPD2    H7 9932   0.518   0.541  14.559  0.5047  1.0428  0.6676
  668TMC3    C1 9933   0.639   0.734  14.635 -0.6281  0.7638  0.3068
  668TMC3    C2 9934   0.742   0.826  14.648 -0.0226  0.5081  0.5711
  668TMC3    C3 9935   0.780   0.868  14.777 -0.0264  0.0204  0.3548
  668TMC3    C4 9936   0.576   0.681  14.744 -0.1871 -0.3189  0.4855
  668TMC3    C5 9937   0.613   0.722  14.867  0.6886  0.0618  0.8511
  668TMC3    C6 9938   0.715   0.817  14.881  0.3916 -1.0521  0.3224
  668TMC3     C 9939   0.572   0.731  14.507  0.7054 -0.1288 -0.3587
  668TMC3     O 9940   0.583   0.833  14.441 -0.7596 -0.1519  0.3339
  668TMC3     H 9941   0.788   0.865  14.558  0.9799 -0.3547  0.7036
  668TMC3    H1 9942   0.480   0.633  14.730 -1.0941  1.1272  1.7569
  668TMC3    H2 9943   0.758   0.842  14.978  1.3892 -2.3907  0.2217
  668TMC3    C7 9944   0.533   0.691  14.989  0.6493 -0.1006 -0.1949
  668TMC3    C8 9945   0.862   0.989  14.788 -0.3381  0.4829  0.0509
  668TMC3    O1 9946   0.562   0.761  15.089 -0.4910 -0.2508  0.5141
  668TMC3    O2 9947   0.900   1.013  14.902 -0.4737 -0.2558  0.1156
  669TMC3    C1 9948   3.176   0.672  13.852  0.3301  0.9988 -1.1350
  669TMC3    C2 9949   3.049   0.710  13.800 -0.9734  0.3907  0.7513
  669TMC3    C3 9950   3.044   0.807  13.707  0.4708 -0.3647 -0.0555
  669TMC3    C4 9951   3.288   0.728  13.796 -0.6772 -0.0126  0.4418
  669TMC3    C5 9952   3.279   0.821  13.690 -0.7152 -0.1258  0.3630
  669TMC3    C6 9953   3.156   0.860  13.643  0.0535  0.1752 -0.9724
  669TMC3     C 9954   3.174   0.635  13.995  0.3045 -0.4450 -0.4524
  669TMC3     O 9955   3.061   0.606  14.036  0.1166 -0.0842 -0.2593
  669TMC3     H 9956   2.955   0.679  13.843 -0.7703 -2.0147 -0.5761
  669TMC3    H1 9957   3.385   0.695  13.833 -0.3674  0.7019  0.2599
  669TMC3    H2 9958   3.152   0.956  13.594  1.4977 -0.1173 -1.6643
  669TMC3    C7 9959   3.401   0.882  13.646  0.2006 -0.7785  0.5365
  669TMC3    C8 9960   2.911   0.850  13.675 -0.5588 -0.3836 -0.3668
  669TMC3    O1 9961   3.505   0.850  13.702 -0.5483 -0.2725  0.1370
  669TMC3    O2 9962   2.816   0.799  13.734  0.2725 -0.0675  0.2897
  670MPD2     C 9963   2.099   2.970  12.946 -0.8050 -0.3138  0.2026
  670MPD2    C1 9964   2.147   2.942  13.073  0.0845  0.0326 -1.1709
  670MPD2    C2 9965   2.060   2.929  13.177  0.3342  0.0444  0.0678
  670MPD2    C3 9966   1.926   2.925  13.158  0.3281 -0.1064 -0.2439
  670MPD2    C4 9967   1.878   2.947  13.028  0.0366 -0.3843 -1.0972
  670MPD2    C5 9968   1.964   2.970  12.925 -1.3615 -0.2388  0.6254
  670MPD2     H 9969   2.107   2.915  13.274 -0.2481 -2.7021 -0.0638
  670MPD2    H1 9970   1.772   2.944  13.005 -0.2109 -0.1144  0.0430
  670MPD2    H2 9971   2.156   2.986  12.855 -1.0030 -2.1252 -0.2509
  670MPD2    H3 9972   1.928   2.974  12.823 -1.6941  1.4799  0.8242
  670MPD2     N 9973   1.847   2.907  13.271  0.3492  0.4579 -0.3662
  670MPD2    H5 9974   1.901   2.874  13.351 -0.0752  0.4030 -0.1003
  670MPD2    N1 9975   2.288   2.943  13.094  0.1025  0.3926  0.0527
  670MPD2    H7 9976   2.317   2.955  13.191 -0.8528  1.1608  0.2515
  671TMC3    C1 9977   1.656   2.916  13.418 -0.0631 -0.2200  1.0261
  671TMC3    C2 9978   1.735   2.933  13.529 -0.0985  0.2991 -0.2437
  671TMC3    C3 9979   1.684   2.897  13.646 -0.5128 -0.3618 -0.1772
  671TMC3    C4 9980   1.527   2.871  13.424  0.8775  0.6230  0.4430
  671TMC3    C5 9981   1.476   2.845  13.543 -0.5527 -0.1904 -0.3936
  671TMC3    C6 9982   1.551   2.859  13.659 -0.4767  0.0857 -0.0089
  671TMC3     C 9983   1.710   2.920  13.275 -0.0601 -0.0518 -0.1532
  671TMC3     O 9984   1.623   2.921  13.186 -0.6415  0.4077 -1.3822
  671TMC3     H 9985   1.837   2.962  13.507  0.3577 -0.4130  0.9071
  671TMC3    H1 9986   1.469   2.874  13.332 -1.0374  0.0146  1.6388
  671TMC3    H2 9987   1.519   2.819  13.754  0.2262  1.5338  0.8355
  671TMC3    C7 9988   1.371   2.746  13.540  0.3630 -0.2002  0.6438
  671TMC3    C8 9989   1.777   2.810  13.714 -0.8097  0.2733 -0.0008
  671TMC3    O1 9990   1.367   2.663  13.451 -0.2445  0.2281 -0.1383
  671TMC3    O2 9991   1.739   2.707  13.762 -0.3155  0.1379 -0.3735
  672MPD2     C 9992   2.262   3.624   0.611  0.8293  0.7179 -0.3645
  672MPD2    C1 9993   2.310   3.495   0.601  0.6203  0.4074  0.3319
  672MPD2    C2 9994   2.445   3.475   0.584 -0.4381  0.2008  0.7837
  672MPD2    C3 9995   2.531   3.580   0.576  0.0161 -0.4546 -0.2814
  672MPD2    C4 9996   2.480   3.711   0.584 -0.2141  0.4097 -0.4641
  672MPD2    C5 9997   2.349   3.731   0.594  0.0077  0.7371  0.8413
  672MPD2     H 9998   2.488   3.376   0.586  1.3362  0.9563 -0.1884
  672MPD2    H1 9999   2.544   3.798   0.596  0.6615 -0.3821  0.7205
  672MPD2    H210000   2.158   3.658   0.609  0.5059 -0.2583  0.0342
  672MPD2    H310001   2.309   3.830   0.616  0.4704  0.9072  0.9247
  672MPD2     N10002   2.671   3.568   0.570  0.0590  0.0540  0.0962
  672MPD2    H510003   2.721   3.656   0.583 -1.5505  0.8217  1.0826
  672MPD2    N110004   2.223   3.388   0.616 -0.5346 -0.2754 -0.1465
  672MPD2    H710005   2.269   3.297   0.609 -0.0162  0.0292 -0.6405
  673TMC3    C110006   2.036   3.251   0.610 -0.2633 -0.2976  0.1922
  673TMC3    C210007   2.111   3.161   0.540  0.0821  0.3699 -0.2149
  673TMC3    C310008   2.045   3.057   0.483  0.0885 -0.2679  0.0519
  673TMC3    C410009   1.897   3.252   0.606  0.2466  0.5031  0.4140
  673TMC3    C510010   1.842   3.163   0.527 -0.6237  0.8907 -0.2479
  673TMC3    C610011   1.914   3.066   0.462 -0.4132 -0.1876 -0.1904
  673TMC3     C10012   2.088   3.381   0.626 -0.4571  0.1384 -0.2580
  673TMC3     O10013   2.008   3.476   0.634 -0.2354  0.0837  0.6092
  673TMC3     H10014   2.219   3.166   0.528  0.1527 -0.3406  0.1207
  673TMC3    H110015   1.845   3.333   0.657  1.3822  1.9320 -0.6760
  673TMC3    H210016   1.865   2.979   0.420 -0.5428  0.9823 -2.4886
  673TMC3    C710017   1.704   3.166   0.491 -0.0509  0.3257  1.2113
  673TMC3    C810018   2.122   2.959   0.416  0.0020 -0.4842  0.1386
  673TMC3    O110019   1.657   3.061   0.457 -0.1252 -0.2690 -0.1532
  673TMC3    O210020   2.091   2.928   0.299 -0.1402 -0.0076  0.9073
  674MPD2     C10021   1.238   3.662  17.714 -0.7720  0.4233 -1.2116
  674MPD2    C110022   1.216   3.531   0.009  0.1986 -0.1681 -0.3457
  674MPD2    C210023   1.089   3.485   0.026 -0.2915  1.0314  0.2065
  674MPD2    C310024   0.980   3.571   0.016 -0.3953 -0.0715 -0.0864
  674MPD2    C410025   1.002   3.699  17.713  0.0243 -0.3499  0.2381
  674MPD2    C510026   1.128   3.744  17.694 -0.0504 -0.1933 -0.4403
  674MPD2     H10027   1.070   3.383   0.058  0.1042  0.4153 -1.4975
  674MPD2    H110028   0.916   3.763  17.698  0.9225  0.9563  0.6328
  674MPD2    H210029   1.338   3.701  17.702 -0.6750  1.0344  1.6743
  674MPD2    H310030   1.147   3.846  17.663 -2.4564  0.8715  1.5260
  674MPD2     N10031   0.850   3.534   0.061  0.1636 -0.3155 -0.3759
  674MPD2    H510032   0.831   3.436   0.081  0.0742  0.3226  2.7228
  674MPD2    N110033   1.334   3.457   0.041  0.0727 -0.4561 -0.0018
  674MPD2    H710034   1.422   3.503   0.021  0.8140 -1.1663  1.5859
  675TMC3    C110035   1.464   3.282   0.063  0.3111  0.2773 -0.3436
  675TMC3    C210036   1.473   3.152   0.024  0.1715  0.2927  0.5895
  675TMC3    C310037   1.595   3.100  17.740 -0.0146  0.1936  0.3493
  675TMC3    C410038   1.573   3.359   0.083  0.7304 -0.9114  0.5350
  675TMC3    C510039   1.689   3.309   0.045 -0.2561 -0.4265 -0.3237
  675TMC3    C610040   1.705   3.184  17.738  0.2649  0.1286  0.6094
  675TMC3     C10041   1.333   3.330   0.087  0.3695  1.0658 -0.1572
  675TMC3     O10042   1.245   3.251   0.077  0.7629  0.4317 -0.1443
  675TMC3     H10043   1.386   3.087   0.025 -0.3997  1.0546  0.5098
  675TMC3    H110044   1.572   3.463   0.113 -0.1217 -0.3768 -1.3548
  675TMC3    H210045   1.798   3.142  17.700  0.0767  1.2711 -1.0801
  675TMC3    C710046   1.816   3.383   0.073 -0.0389 -0.2330  0.2802
  675TMC3    C810047   1.609   2.974  17.676  0.1266  0.0733  0.3488
  675TMC3    O110048   1.819   3.504   0.085 -0.4739  0.6547  0.0346
  675TMC3    O210049   1.688   2.976  17.580  0.1944  0.2794  0.3072
  676MPD2     C10050   4.388   1.621  11.148  0.2504 -0.9156 -0.1863
  676MPD2    C110051   4.258   1.592  11.179  0.1663  0.9620  0.0680
  676MPD2    C210052   4.212   1.469  11.158  0.0678 -0.6852 -0.9325
  676MPD2    C310053   4.281   1.368  11.091  0.1920 -0.7978 -0.5911
  676MPD2    C410054   4.405   1.395  11.061 -0.0141  0.3440  0.0700
  676MPD2    C510055   4.465   1.517  11.095  0.9373  0.3261  0.3611
  676MPD2     H10056   4.109   1.457  11.189  0.1559 -0.2749 -0.4846
  676MPD2    H110057   4.463   1.314  11.019 -0.1027 -0.4090  1.4027
  676MPD2    H210058   4.436   1.716  11.166  0.4368 -1.2079  0.8267
  676MPD2    H310059   4.567   1.538  11.062  0.8751  0.4543  0.2493
  676MPD2     N10060   4.234   1.238  11.058 -0.1123  0.4306 -0.7744
  676MPD2    H510061   4.295   1.185  10.997  0.1019 -1.3426  0.9398
  676MPD2    N110062   4.176   1.684  11.245  0.4567 -0.1295 -0.1357
  676MPD2    H710063   4.095   1.639  11.286 -0.3749 -0.8580 -2.5271
  677TMC3    C110064   4.095   1.876  11.345 -0.2806 -0.2590  0.0899
  677TMC3    C210065   4.046   1.803  11.452  0.0397  0.0931  0.3287
  677TMC3    C310066   3.982   1.870  11.557  0.4056 -0.3029  0.3882
  677TMC3    C410067   4.083   2.013  11.342 -0.2008 -0.0739 -0.3802
  677TMC3    C510068   4.007   2.069  11.441 -0.2339  0.1648  0.9368
  677TMC3    C610069   3.961   2.002  11.547  0.6045 -0.0133  0.1866
  677TMC3     C10070   4.190   1.818  11.250 -0.4997  0.5368 -0.4782
  677TMC3     O10071   4.260   1.891  11.182  1.0701 -0.2799 -0.7909
  677TMC3     H10072   4.069   1.700  11.476 -2.3473 -0.7692 -0.9622
  677TMC3    H110073   4.133   2.069  11.263  0.6302  0.9522  0.8593
  677TMC3    H210074   3.900   2.045  11.625 -0.3595 -1.6505  0.3249
  677TMC3    C710075   3.988   2.214  11.446 -0.0040 -0.0312 -0.2634
  677TMC3    C810076   3.987   1.826  11.690  0.4715 -0.1606 -0.8723
  677TMC3    O110077   3.895   2.258  11.509 -0.0545  0.1609  0.2635
  677TMC3    O210078   3.982   1.915  11.776  0.0472 -0.1483 -0.3262
  678MPD2     C10079   0.607   0.739   0.725 -0.3567 -0.7684 -0.1872
  678MPD2    C110080   0.612   0.800   0.600 -0.0812  0.0726 -0.1929
  678MPD2    C210081   0.514   0.892   0.580 -0.0639  0.4117  0.3102
  678MPD2    C310082   0.418   0.929   0.670  0.3453 -0.4645  0.4470
  678MPD2    C410083   0.420   0.871   0.793  0.4434  0.4639  0.1125
  678MPD2    C510084   0.521   0.789   0.823  0.5932 -0.9671 -0.3893
  678MPD2     H10085   0.504   0.922   0.476  0.5618  0.2464  0.2012
  678MPD2    H110086   0.347   0.889   0.871  1.0860  2.7462  0.1881
  678MPD2    H210087   0.677   0.661   0.752  2.4942  1.4832 -1.0627
  678MPD2    H310088   0.532   0.766   0.928 -1.3464  0.8455  0.2136
  678MPD2     N10089   0.324   1.023   0.618 -0.0977 -0.5156  0.0655
  678MPD2    H510090   0.329   1.064   0.525 -1.3619 -0.1591  0.1666
  678MPD2    N110091   0.708   0.763   0.494  0.2159  0.0011 -0.7185
  678MPD2    H710092   0.692   0.806   0.404 -1.6995 -1.9929 -1.3178
  679TMC3    C110093   1.099   0.546   0.341 -0.2754  0.1440 -0.0392
  679TMC3    C210094   0.982   0.538   0.405 -0.3806  0.2808 -0.6063
  679TMC3    C310095   0.902   0.652   0.405 -1.2192  0.4263 -0.0627
  679TMC3    C410096   1.141   0.662   0.281  0.2979 -0.9597  0.1344
  679TMC3    C510097   1.064   0.773   0.288 -0.2864 -0.3020  0.2539
  679TMC3    C610098   0.939   0.771   0.342 -0.2739 -0.1707 -0.2826
  679TMC3     C10099   1.190   0.436   0.323 -0.0322  0.4818  0.6642
  679TMC3     O10100   1.291   0.457   0.257 -0.4749 -0.0331  0.0876
  679TMC3     H10101   0.956   0.445   0.453  0.2302 -0.2707 -1.3479
  679TMC3    H110102   1.228   0.658   0.216 -0.0252  0.3763 -0.3922
  679TMC3    H210103   0.875   0.857   0.361 -0.7926 -0.5207 -0.4270
  679TMC3    C710104   1.117   0.901   0.253  0.5930 -0.5596  0.4304
  679TMC3    C810105   0.804   0.661   0.510 -0.4847  0.5910  0.0211
  679TMC3    O110106   1.041   0.994   0.250  0.2692  0.6243 -0.1899
  679TMC3    O210107   0.811   0.569   0.590  0.0427 -0.4319  0.2701
  680MPD2     C10108   0.967   4.657  13.363 -0.0426 -0.1885  0.4961
  680MPD2    C110109   1.034   4.591  13.468 -0.4746 -0.2079 -0.0732
  680MPD2    C210110   1.084   4.669  13.564 -0.4047 -0.2656 -0.1298
  680MPD2    C310111   1.049   0.066  13.568  0.1189 -0.1705  0.2427
  680MPD2    C410112   0.958   0.124  13.475 -0.1109  0.7004  0.0412
  680MPD2    C510113   0.922   0.046  13.368 -0.1713 -0.1510 -0.5949
  680MPD2     H10114   1.148   4.626  13.640  0.1493 -0.0050 -0.4529
  680MPD2    H110115   0.930   0.229  13.470  0.7264  0.9571  0.6411
  680MPD2    H210116   0.936   4.589  13.284 -1.7267  1.3463 -0.1646
  680MPD2    H310117   0.862   0.095  13.292 -0.5851 -0.6678 -0.5954
  680MPD2     N10118   1.122   0.157  13.647 -0.2882  0.7869 -0.1097
  680MPD2    H510119   1.122   0.244  13.595 -1.0078  0.9749  0.1993
  680MPD2    N110120   1.065   4.456  13.456 -0.4564 -0.2270  0.4022
  680MPD2    H710121   1.041   4.407  13.370 -0.8046  1.1359 -0.2811
  681TMC3    C110122   1.172   4.250  13.488 -0.4757 -0.9972 -0.0235
  681TMC3    C210123   1.175   4.147  13.571 -0.1436 -0.2822 -0.3194
  681TMC3    C310124   1.249   4.038  13.530  0.2442  0.2909  0.4079
  681TMC3    C410125   1.227   4.248  13.365 -0.8187 -0.1422  0.2410
  681TMC3    C510126   1.293   4.137  13.320 -0.4531  0.7209  0.2066
  681TMC3    C610127   1.310   4.028  13.409  0.4277  0.0970  0.2477
  681TMC3     C10128   1.128   4.377  13.548  0.4296 -0.4138 -0.4525
  681TMC3     O10129   1.163   4.398  13.664 -0.1100  0.2333  0.6887
  681TMC3     H10130   1.127   4.155  13.667 -0.2461 -1.7286 -0.2461
  681TMC3    H110131   1.219   4.338  13.306  0.6578  0.5479  1.0980
  681TMC3    H210132   1.361   3.939  13.375  0.0153 -0.2976  0.6497
  681TMC3    C710133   1.398   4.149  13.218 -0.0860 -0.2214 -0.7513
  681TMC3    C810134   1.293   3.951  13.636 -0.1330  0.4683 -0.8979
  681TMC3    O110135   1.473   4.058  13.201 -0.3176 -0.3425  0.2256
  681TMC3    O210136   1.351   3.855  13.597  0.3273 -0.1881  0.1905
  682MPD2     C10137   2.713   1.966  10.290  0.0259 -0.0683 -0.6372
  682MPD2    C110138   2.705   1.827  10.283  0.3203 -0.1639  0.1341
  682MPD2    C210139   2.633   1.762  10.375 -0.0945  0.1949  0.3904
  682MPD2    C310140   2.578   1.823  10.485 -0.0642 -0.4043 -0.0695
  682MPD2    C410141   2.587   1.963  10.489 -0.0369 -0.2010 -0.3505
  682MPD2    C510142   2.661   2.036  10.396 -0.5444 -0.2761  0.1685
  682MPD2     H10143   2.637   1.655  10.358  0.8209  0.6200 -2.1311
  682MPD2    H110144   2.559   2.023  10.574  1.1627  0.4286 -0.3924
  682MPD2    H210145   2.757   2.032  10.217  1.2166  0.0158  0.1681
  682MPD2    H310146   2.664   2.144  10.400  0.8795 -0.2516 -1.4130
  682MPD2     N10147   2.519   1.757  10.600 -0.9699 -0.1312  0.0149
  682MPD2    H510148   2.509   1.810  10.687 -0.2889 -1.4173  0.8771
  682MPD2    N110149   2.745   1.754  10.175  0.3372  0.7970 -0.8757
  682MPD2    H710150   2.722   1.656  10.172 -2.4149  1.5106 -2.8936
  683TMC3    C110151   2.547   1.522  10.931  0.3098  0.4866 -0.2225
  683TMC3    C210152   2.464   1.409  10.941  0.3369  0.2667 -0.3117
  683TMC3    C310153   2.373   1.385  10.841 -0.0747  0.2850  0.1615
  683TMC3    C410154   2.523   1.613  10.834  0.3249 -0.6811  0.2895
  683TMC3    C510155   2.430   1.588  10.733 -0.1047  0.0306  0.0741
  683TMC3    C610156   2.362   1.471  10.732 -0.6577  0.6225 -0.7753
  683TMC3     C10157   2.636   1.565  11.037  0.2440  0.9885 -0.7753
  683TMC3     O10158   2.691   1.675  11.023 -0.0403  0.4110  0.0636
  683TMC3     H10159   2.471   1.341  11.025 -1.1888  1.7684  1.0223
  683TMC3    H110160   2.589   1.699  10.831  1.8441 -1.8289  0.2331
  683TMC3    H210161   2.286   1.448  10.658 -1.2359  0.9636 -0.2861
  683TMC3    C710162   2.469   1.629  10.603 -0.3494 -1.0755 -0.4419
  683TMC3    C810163   2.367   1.241  10.803  0.4164 -1.0222  0.2374
  683TMC3    O110164   2.470   1.545  10.509  0.0366  0.4916 -0.2152
  683TMC3    O210165   2.267   1.200  10.739 -0.1258  0.0979  0.0721
  684MPD2     C10166   1.505   0.208  15.938  0.2003  0.1478 -0.8389
  684MPD2    C110167   1.586   0.307  15.898 -0.4432  0.1554 -0.1206
  684MPD2    C210168   1.583   0.434  15.959  0.0465  0.1169 -0.1780
  684MPD2    C310169   1.490   0.467  16.052 -0.3830  0.4053  0.3089
  684MPD2    C410170   1.404   0.370  16.091  0.5430 -0.7094 -0.4287
  684MPD2    C510171   1.413   0.242  16.034 -1.1318  0.6945 -0.2566
  684MPD2     H10172   1.666   0.495  15.923  2.3722 -2.3088  1.0720
  684MPD2    H110173   1.324   0.399  16.159  2.3706  1.8512  0.6392
  684MPD2    H210174   1.502   0.115  15.883  1.7538 -1.0139  1.0553
  684MPD2    H310175   1.345   0.170  16.078  0.2877  0.4847  1.6105
  684MPD2     N10176   1.469   0.606  16.098  0.0349  0.2715 -0.0790
  684MPD2    H510177   1.388   0.620  16.158  1.2066  1.6220  1.1687
  684MPD2    N110178   1.678   0.292  15.787  0.2410  0.6953 -0.6616
  684MPD2    H710179   1.744   0.369  15.782  0.8464  0.0900 -1.8379
  685TMC3    C110180   1.730   0.251  15.565  0.0328 -1.2307  0.0289
  685TMC3    C210181   1.636   0.276  15.473  0.2557 -0.2075 -0.1492
  685TMC3    C310182   1.630   0.406  15.430 -0.8663 -0.4235  0.0268
  685TMC3    C410183   1.833   0.337  15.585 -0.1813 -0.8350 -0.0785
  685TMC3    C510184   1.829   0.464  15.527  0.3286  0.5469  0.8508
  685TMC3    C610185   1.719   0.503  15.460 -0.3646 -0.3875  0.6115
  685TMC3     C10186   1.678   0.193  15.692 -0.4485  0.3489  0.3509
  685TMC3     O10187   1.590   0.110  15.680 -0.1228 -0.1272 -0.2612
  685TMC3     H10188   1.549   0.216  15.451 -1.7677  3.2955 -1.7742
  685TMC3    H110189   1.920   0.311  15.644 -0.1654  1.7150  1.0348
  685TMC3    H210190   1.710   0.597  15.406  2.4839 -1.4060 -1.6337
  685TMC3    C710191   1.869   0.562  15.624 -0.3862 -0.1319 -0.0989
  685TMC3    C810192   1.512   0.437  15.354 -0.0807 -0.1315 -0.0557
  685TMC3    O110193   1.864   0.516  15.736 -0.1349  0.0916  0.4568
  685TMC3    O210194   1.460   0.358  15.276 -0.1623  0.3240 -0.3458
  686MPD2     C10195   3.018   0.928  15.517  0.6484 -0.0793 -0.3963
  686MPD2    C110196   2.992   0.820  15.596  0.2623 -0.2870 -0.0820
  686MPD2    C210197   3.085   0.719  15.614  0.2790 -0.7208 -0.0032
  686MPD2    C310198   3.211   0.730  15.552 -0.1043 -0.2068 -0.4068
  686MPD2    C410199   3.235   0.845  15.479 -0.4455  0.4992  0.3304
  686MPD2    C510200   3.144   0.941  15.460  0.0899 -0.1632  0.3504
  686MPD2     H10201   3.047   0.631  15.663  0.0081 -0.1743  0.7684
  686MPD2    H110202   3.331   0.847  15.430 -0.7050  1.3976 -0.1426
  686MPD2    H210203   2.946   1.009  15.501  0.2471 -0.5784 -1.1289
  686MPD2    H310204   3.168   1.023  15.393 -0.2561 -0.1748  0.2088
  686MPD2     N10205   3.314   0.635  15.554  0.4544 -0.2903  0.2827
  686MPD2    H510206   3.404   0.677  15.530  0.0932  1.0277  1.2176
  686MPD2    N110207   2.861   0.803  15.651  0.4441  0.5142  0.3001
  686MPD2    H710208   2.796   0.873  15.615  0.4323 -0.0556 -0.7823
  687TMC3    C110209   3.209   0.425  15.640 -0.6770  0.0265  0.0610
  687TMC3    C210210   3.099   0.425  15.555 -0.3626  0.0391 -0.2373
  687TMC3    C310211   2.993   0.353  15.595  0.0961  0.1407  1.3239
  687TMC3    C410212   3.225   0.338  15.739  0.0164  0.1696  0.9886
  687TMC3    C510213   3.120   0.253  15.760 -0.3254 -0.4575  0.4180
  687TMC3    C610214   2.994   0.267  15.696 -0.2460 -0.0778 -0.0581
  687TMC3     C10215   3.324   0.505  15.608  0.5401 -0.4287 -0.1494
  687TMC3     O10216   3.433   0.451  15.627  0.5129 -0.2244  0.1174
  687TMC3     H10217   3.097   0.495  15.472 -0.2967  0.4523  0.1073
  687TMC3    H110218   3.321   0.324  15.787  0.9107  1.4526 -0.4362
  687TMC3    H210219   2.908   0.210  15.729  0.2935 -2.0879 -2.1564
  687TMC3    C710220   3.104   0.209  15.902 -0.2745  0.1409 -0.7213
  687TMC3    C810221   2.855   0.383  15.550 -0.5038  0.1986 -0.2700
  687TMC3    O110222   3.027   0.119  15.923  0.4218 -0.5503  0.6481
  687TMC3    O210223   2.773   0.291  15.552 -0.2305  0.1645 -0.0119
  688MPD2     C10224   2.011   4.038  17.054 -0.9780  0.5928 -0.1930
  688MPD2    C110225   2.076   3.951  17.144 -0.3859 -0.2193  0.6552
  688MPD2    C210226   2.209   3.910  17.125 -0.3430 -0.1032 -0.2508
  688MPD2    C310227   2.278   3.955  17.008  0.2597 -0.0601 -0.1662
  688MPD2    C410228   2.214   4.048  16.927 -0.3760 -0.0948 -0.0517
  688MPD2    C510229   2.084   4.092  16.952 -0.0480  0.8926 -0.1072
  688MPD2     H10230   2.255   3.834  17.187 -3.2827 -1.0473  0.7855
  688MPD2    H110231   2.263   4.088  16.838  1.1427 -1.4293  0.1761
  688MPD2    H210232   1.912   4.078  17.071 -1.7846 -0.9270 -1.3210
  688MPD2    H310233   2.036   4.153  16.876 -0.3686 -1.3450 -1.7087
  688MPD2     N10234   2.406   3.910  16.975 -0.4163  0.4781 -0.1657
  688MPD2    H510235   2.446   3.947  16.889  3.0991 -0.5036  1.0592
  688MPD2    N110236   2.020   3.906  17.267  0.2940  0.1710 -0.9103
  688MPD2    H710237   2.082   3.856  17.331  0.6900  2.6811  0.6615
  689TMC3    C110238   1.853   3.838  17.414  0.5486 -0.3273  0.3975
  689TMC3    C210239   1.936   3.840  17.523  0.0807  0.0178 -0.8745
  689TMC3    C310240   1.886   3.803  17.642  0.4285 -0.0034 -0.1133
  689TMC3    C410241   1.724   3.790  17.413  0.2416  0.1879  0.3234
  689TMC3    C510242   1.679   3.750  17.532 -0.5065  0.1553  0.0400
  689TMC3    C610243   1.758   3.752  17.647  0.0405 -0.2399  0.1158
  689TMC3     C10244   1.886   3.897  17.285 -0.8759 -0.0174  0.4901
  689TMC3     O10245   1.799   3.938  17.207  0.5047  0.0873  0.3843
  689TMC3     H10246   2.036   3.883  17.519  0.1809 -0.1292  0.0507
  689TMC3    H110247   1.659   3.810  17.328  0.4608  0.1765  0.1523
  689TMC3    H210248   1.706   3.758  17.742  1.3117 -0.6468  0.8378
  689TMC3    C710249   1.596   3.639  17.537  0.2445  0.3078  0.1344
  689TMC3    C810250   1.954   3.841   0.018  0.3056  0.3642 -0.2601
  689TMC3    O110251   1.570   3.596  17.651 -0.2944 -0.2020  0.1746
  689TMC3    O210252   2.059   3.905   0.007  0.1187  0.5109  0.5178
  690MPD2     C10253   4.493   1.552  15.587 -0.0370  0.2770  0.1634
  690MPD2    C110254   4.464   1.517  15.458 -0.4745 -0.5986 -0.1972
  690MPD2    C210255   4.573   1.525  15.370 -0.2560  0.5504 -0.0855
  690MPD2    C310256   4.701   1.569  15.404 -0.7443 -0.9463  0.5357
  690MPD2    C410257   4.726   1.599  15.533  0.3887 -0.2262 -0.2524
  690MPD2    C510258   4.625   1.585  15.622 -0.5046 -0.2380  0.1818
  690MPD2     H10259   4.556   1.511  15.263  1.7135  1.3891 -0.5157
  690MPD2    H110260   0.084   1.637  15.568  0.2743  0.0441 -0.2374
  690MPD2    H210261   4.423   1.560  15.670  2.1876 -0.2375  2.0755
  690MPD2    H310262   4.645   1.612  15.726 -2.3828  0.1483  0.4501
  690MPD2     N10263   0.051   1.587  15.301 -0.1106  0.0453 -0.0917
  690MPD2    H510264   0.014   1.576  15.207 -0.6556  2.5303 -0.1828
  690MPD2    N110265   4.345   1.461  15.411 -0.4616 -0.1087 -0.8240
  690MPD2    H710266   4.338   1.433  15.314  0.6725 -0.6151 -0.7677
  691TMC3    C110267   4.129   1.392  15.409  0.0197 -0.4392  0.4024
  691TMC3    C210268   4.004   1.427  15.458  0.3811 -0.1065  0.2724
  691TMC3    C310269   3.898   1.354  15.408  0.1894  0.1152 -0.1895
  691TMC3    C410270   4.150   1.288  15.328 -0.2839  0.0787 -0.4486
  691TMC3    C510271   4.043   1.203  15.317 -0.1021  0.3246  0.3223
  691TMC3    C610272   3.909   1.230  15.337  0.0991 -0.2284  0.3632
  691TMC3     C10273   4.234   1.453  15.483 -0.1096  0.0268  0.0988
  691TMC3     O10274   4.203   1.478  15.599  0.8021 -0.2161 -0.2540
  691TMC3     H10275   3.992   1.507  15.530 -1.8957 -0.8478  0.7165
  691TMC3    H110276   4.248   1.257  15.293 -0.9878 -0.0862 -2.3101
  691TMC3    H210277   3.825   1.167  15.309  0.2297 -0.2559  0.0292
  691TMC3    C710278   4.080   1.074  15.270 -0.3366 -0.2238 -0.5153
  691TMC3    C810279   3.760   1.384  15.452 -0.5656  0.2482 -0.6084
  691TMC3    O110280   4.196   1.059  15.241 -0.2935 -0.2790 -0.2600
  691TMC3    O210281   3.686   1.292  15.444  0.3436 -0.1898  0.1613
  692TMC3    C110282   1.183   2.006  15.560 -0.2555 -0.3568 -0.1547
  692TMC3    C210283   1.307   2.031  15.620  0.2692 -0.6567  0.2608
  692TMC3    C310284   1.396   1.921  15.622 -0.0567 -0.5168  0.4196
  692TMC3    C410285   1.136   1.877  15.538 -0.4888  0.8492 -0.3543
  692TMC3    C510286   1.228   1.773  15.565 -0.1665  0.8638 -0.3596
  692TMC3    C610287   1.354   1.790  15.611  0.0842  0.6267 -1.2554
  692TMC3     C10288   1.091   2.109  15.581  0.2850 -0.2555  0.1024
  692TMC3     O10289   0.974   2.083  15.585 -0.5569 -0.3960  0.3332
  692TMC3     H10290   1.298   2.080  15.716 -1.4258 -1.6915  0.6250
  692TMC3    H110291   1.046   1.862  15.480 -0.2001  1.0285 -0.8449
  692TMC3    H210292   1.429   1.714  15.595 -0.7970 -0.8724  1.7223
  692TMC3    C710293   1.201   1.640  15.518 -0.3462  0.9822 -0.0245
  692TMC3    C810294   1.504   1.940  15.720  0.7887  0.4618 -0.5007
  692TMC3    O110295   1.134   1.621  15.419 -0.1876  0.7949  0.1926
  692TMC3    O210296   1.540   1.844  15.787  0.4412  0.1242 -0.2581
  693MPD2     C10297   0.143   0.390  10.128  0.0589 -0.6106  0.6408
  693MPD2    C110298   0.141   0.390  10.268 -0.2530 -0.1666  0.2895
  693MPD2    C210299   0.209   0.295  10.343 -0.9763 -0.4283 -0.4611
  693MPD2    C310300   0.279   0.198  10.281 -0.3698 -0.4527  0.1569
  693MPD2    C410301   0.293   0.203  10.144  0.1618 -0.0961  0.0405
  693MPD2    C510302   0.215   0.286  10.072  0.7818  0.1806  0.7177
  693MPD2     H10303   0.218   0.283  10.450 -1.4564 -1.1034 -0.4940
  693MPD2    H110304   0.380   0.159  10.099  0.4040 -0.3005  0.7027
  693MPD2    H210305   0.109   0.475  10.071  1.1364 -0.1193  0.7241
  693MPD2    H310306   0.230   0.286   9.964  1.1047 -1.9357  0.7581
  693MPD2     N10307   0.345   0.107  10.363  0.5780 -0.0884  0.1185
  693MPD2    H510308   0.321   0.113  10.462 -2.3041 -1.9779 -0.5065
  693MPD2    N110309   0.064   0.485  10.327  0.0579  0.1405  1.0992
  693MPD2    H710310   0.008   0.547  10.269  0.1686 -1.7343 -1.0106
  694TMC3    C110311   4.671   0.583  10.508  0.0339  0.3234 -0.8253
  694TMC3    C210312   4.604   0.640  10.404 -0.2478 -0.0886  0.0810
  694TMC3    C310313   4.463   0.637  10.412  0.4248 -0.3049 -0.6299
  694TMC3    C410314   4.604   0.546  10.623  0.6790 -0.0497  0.9016
  694TMC3    C510315   4.466   0.554  10.624  0.3248 -0.0535  0.4355
  694TMC3    C610316   4.394   0.591  10.516  0.6008 -0.2908  0.1522
  694TMC3     C10317   0.037   0.483  10.463  0.3925 -0.2762  0.1752
  694TMC3     O10318   0.072   0.408  10.554 -0.2647  0.3455  0.6772
  694TMC3     H10319   4.647   0.674  10.311 -1.5318 -1.3440 -0.9702
  694TMC3    H110320   4.659   0.496  10.702 -1.7519 -1.6355  1.5692
  694TMC3    H210321   4.286   0.602  10.525  0.8313  0.7836  1.5136
  694TMC3    C710322   4.398   0.460  10.713  0.6266  0.1745  0.0500
  694TMC3    C810323   4.404   0.592  10.288  0.2596  0.6683  1.1551
  694TMC3    O110324   4.301   0.399  10.663  0.3982  0.1395  1.1370
  694TMC3    O210325   4.423   0.477  10.252  0.1219 -0.0190  0.1992
  695MPD2     C10326   1.745   1.877  13.170 -0.2184 -0.3227 -0.1773
  695MPD2    C110327   1.726   1.949  13.289 -0.1735 -0.3154  0.1367
  695MPD2    C210328   1.598   1.995  13.323  0.0787 -0.5696 -0.0469
  695MPD2    C310329   1.497   1.966  13.232 -0.0856 -0.5000 -0.4442
  695MPD2    C410330   1.515   1.886  13.117 -0.2900 -0.0151 -0.7236
  695MPD2    C510331   1.641   1.844  13.086 -0.3751 -0.2518 -0.4228
  695MPD2     H10332   1.580   2.051  13.414  0.9532  0.5475 -0.5658
  695MPD2    H110333   1.443   1.852  13.043  1.0822 -0.3359 -1.9010
  695MPD2    H210334   1.848   1.857  13.144 -0.1085 -0.6387  0.4890
  695MPD2    H310335   1.658   1.792  12.993 -0.8258 -0.2815 -0.4888
  695MPD2     N10336   1.375   2.032  13.253  0.1211  0.0828  0.0925
  695MPD2    H510337   1.371   2.095  13.332  1.6263 -0.3948  0.5409
  695MPD2    N110338   1.832   1.997  13.376 -0.0014  0.5353  0.6642
  695MPD2    H710339   1.815   2.062  13.453  0.0169  2.0458 -0.6119
  696TMC3    C110340   1.174   2.131  13.220  0.5071  0.1476  0.4706
  696TMC3    C210341   1.154   2.128  13.353 -0.4127  0.2287  0.0368
  696TMC3    C310342   1.065   2.211  13.403  0.2587  0.8758  0.2109
  696TMC3    C410343   1.094   2.197  13.129  0.5585 -0.1008 -0.6358
  696TMC3    C510344   1.002   2.277  13.181 -0.1254 -0.4966  0.2818
  696TMC3    C610345   0.987   2.290  13.318  0.5103  0.8288  0.8964
  696TMC3     C10346   1.279   2.048  13.161 -0.0725  0.7280 -0.9266
  696TMC3     O10347   1.265   1.997  13.048 -0.1606  0.2574 -0.1922
  696TMC3     H10348   1.215   2.072  13.423 -1.4994 -1.8544 -0.6888
  696TMC3    H110349   1.125   2.201  13.025  1.4240 -0.5041 -0.4014
  696TMC3    H210350   0.922   2.371  13.349  0.5944  2.2368 -2.5571
  696TMC3    C710351   0.976   2.396  13.100 -0.0109  0.0380 -0.0775
  696TMC3    C810352   1.119   2.283  13.515 -0.0591  0.0384  0.3266
  696TMC3    O110353   0.930   2.395  12.988  0.3232  0.2742  0.0242
  696TMC3    O210354   1.242   2.277  13.526 -0.2999 -0.5788 -0.6915
  697MPD2     C10355   0.308   3.926  15.501 -0.4746 -0.4782  0.9765
  697MPD2    C110356   0.351   3.917  15.365  0.0119 -0.5924  0.3047
  697MPD2    C210357   0.376   4.034  15.302  0.1865  0.2606  0.3994
  697MPD2    C310358   0.344   4.158  15.357  0.0198  0.5845  0.5645
  697MPD2    C410359   0.304   4.163  15.493 -0.2367  0.1792  0.3050
  697MPD2    C510360   0.279   4.044  15.562  0.2899 -0.0277 -0.0798
  697MPD2     H10361   0.404   4.022  15.198 -0.3387  1.4934  0.1169
  697MPD2    H110362   0.275   4.257  15.538 -1.3101 -0.4888  0.9838
  697MPD2    H210363   0.293   3.837  15.562 -0.7262 -2.0566 -1.3686
  697MPD2    H310364   0.254   4.047  15.667 -1.9099  1.2126 -0.6427
  697MPD2     N10365   0.375   4.281  15.291 -0.3396 -0.1943 -0.1459
  697MPD2    H510366   0.376   4.367  15.345  0.2257 -0.4813  0.2909
  697MPD2    N110367   0.396   3.790  15.320 -0.7527  0.2594 -0.0066
  697MPD2    H710368   0.376   3.709  15.377 -0.6843  0.7632  0.7301
  698TMC3    C110369   0.487   4.398  15.119 -0.0935  0.2830  0.3445
  698TMC3    C210370   0.575   4.460  15.196  0.3951 -0.2327  0.2787
  698TMC3    C310371   0.673   4.536  15.135  0.2045  0.3424  0.1164
  698TMC3    C410372   0.496   4.404  14.986 -0.1393 -0.2887 -0.1188
  698TMC3    C510373   0.593   4.479  14.926 -0.6882 -0.1777 -0.3821
  698TMC3    C610374   0.691   4.537  14.996  0.4646  0.2241  0.3006
  698TMC3     C10375   0.425   4.278  15.159 -0.0346  0.6362  0.1887
  698TMC3     O10376   0.405   4.201  15.066 -0.0325  0.2606 -0.2164
  698TMC3     H10377   0.554   4.456  15.302  0.7644  1.3344  0.4021
  698TMC3    H110378   0.416   4.371  14.920  0.5540 -4.4544  1.1240
  698TMC3    H210379   0.773   4.589  14.948  1.5413 -1.2815  0.4683
  698TMC3    C710380   0.599   4.446  14.782 -1.0870 -0.1926  0.6794
  698TMC3    C810381   0.754   4.621  15.225 -0.4565 -0.0998 -0.3294
  698TMC3    O110382   0.492   4.455  14.722  0.7321  0.4508  0.2257
  698TMC3    O210383   0.734   4.618  15.342 -0.1348  0.3978  0.2201
  699TMC3    C110384   0.556   2.415  12.862 -0.1867  0.2614 -0.3721
  699TMC3    C210385   0.613   2.301  12.913 -0.4619 -0.2011 -0.1035
  699TMC3    C310386   0.537   2.232  13.000 -0.4135  0.5468  0.3608
  699TMC3    C410387   0.432   2.455  12.889  0.6160 -0.9308 -0.6481
  699TMC3    C510388   0.358   2.377  12.974  0.0900  0.4332 -0.0170
  699TMC3    C610389   0.410   2.269  13.034 -0.4592 -0.0370  0.0358
  699TMC3     C10390   0.641   2.517  12.793  0.8517 -0.1241  0.6601
  699TMC3     O10391   0.586   2.605  12.734 -0.6054  0.4140  0.0912
  699TMC3     H10392   0.713   2.262  12.907 -0.5309 -0.7509  2.1460
  699TMC3    H110393   0.393   2.548  12.848 -0.1451 -0.8438  0.2732
  699TMC3    H210394   0.356   2.209  13.105 -0.6403 -0.2841 -0.3114
  699TMC3    C710395   0.210   2.390  12.977 -0.0451  0.3934  0.6142
  699TMC3    C810396   0.603   2.156  13.104 -0.6880 -0.2781  0.4514
  699TMC3    O110397   0.158   2.336  13.081  0.1777  0.2354 -0.3820
  699TMC3    O210398   0.543   2.176  13.212 -0.2055  0.3605 -0.3156
  700TMC3    C110399   0.153   4.458  16.879  0.7252  0.0187 -0.4613
  700TMC3    C210400   0.192   4.326  16.865 -0.2826  0.0203 -0.5722
  700TMC3    C310401   0.226   4.262  16.979  0.1310 -0.7018 -0.1372
  700TMC3    C410402   0.143   4.517  16.999 -0.0468  0.0837 -0.0904
  700TMC3    C510403   0.168   4.436  17.112  0.2614 -0.4737  0.2983
  700TMC3    C610404   0.214   4.306  17.104  0.3058  0.2203 -0.6383
  700TMC3     C10405   0.087   4.525  16.767  0.1631 -0.1114 -0.8654
  700TMC3     O10406   0.017   4.466  16.691 -0.3048 -0.4391 -0.4252
  700TMC3     H10407   0.187   4.277  16.769  1.1111 -1.4742  0.1103
  700TMC3    H110408   0.130   4.624  17.003  0.3158  0.0907  0.8529
  700TMC3    H210409   0.240   4.249  17.193  1.6019  0.3276 -0.9500
  700TMC3    C710410   0.205   4.513  17.227 -0.1558 -0.4891 -0.7027
  700TMC3    C810411   0.252   4.123  16.955 -0.0593 -0.3143  0.2709
  700TMC3    O110412   0.177   4.632  17.222 -0.2647 -0.5070 -0.2552
  700TMC3    O210413   0.239   4.046  17.045 -0.3058  0.4572  0.5879
  701TMC3    C110414   4.267   3.383  15.625 -0.6366  0.2167 -0.5702
  701TMC3    C210415   4.308   3.392  15.500  0.5216 -0.3555 -0.5215
  701TMC3    C310416   4.398   3.491  15.474  0.2963  0.1232 -0.2500
  701TMC3    C410417   4.304   3.471  15.724  0.1471  0.2034 -0.1034
  701TMC3    C510418   4.407   3.563  15.694 -0.4227  0.0973  0.0091
  701TMC3    C610419   4.447   3.580  15.565 -0.1869 -0.1405  0.0394
  701TMC3     C10420   4.158   3.293  15.657 -1.1080 -0.2210 -0.4176
  701TMC3     O10421   4.113   3.310  15.771 -0.5976 -0.3419  0.0448
  701TMC3     H10422   4.264   3.338  15.417 -1.3304  1.4653 -0.7116
  701TMC3    H110423   4.270   3.456  15.825  1.1536 -2.8988 -0.2390
  701TMC3    H210424   4.523   3.654  15.545  1.3216 -2.1634 -1.7066
  701TMC3    C710425   4.438   3.669  15.789 -0.2628 -0.2409 -0.2192
  701TMC3    C810426   4.434   3.515  15.335  0.1562 -0.5739 -0.1477
  701TMC3    O110427   4.524   3.751  15.759 -0.1624 -0.3218 -0.5504
  701TMC3    O210428   4.476   3.628  15.313 -0.1946 -0.1846 -0.3073
  702MPD2     C10429   4.429   0.994  10.494 -0.0579 -0.0819 -0.0121
  702MPD2    C110430   4.293   1.008  10.512 -0.3342  0.1960  0.7688
  702MPD2    C210431   4.221   1.073  10.411 -0.0010  0.6325 -0.3257
  702MPD2    C310432   4.287   1.111  10.292  0.2875  0.2024  0.3322
  702MPD2    C410433   4.420   1.090  10.279  0.1575  0.1621  0.0298
  702MPD2    C510434   4.487   1.039  10.379  0.8786 -0.4166 -0.7099
  702MPD2     H10435   4.116   1.099  10.420 -0.1326  0.8528 -2.5165
  702MPD2    H110436   4.476   1.120  10.191  2.6151 -0.6659  1.3139
  702MPD2    H210437   4.497   0.964  10.573  1.3756  0.1685 -1.1785
  702MPD2    H310438   4.594   1.040  10.366  0.9686  1.8548  0.2782
  702MPD2     N10439   4.224   1.184  10.195 -0.2884  0.3434  0.4113
  702MPD2    H510440   4.282   1.227  10.123 -0.1254  0.8465  0.8456
  702MPD2    N110441   4.242   0.974  10.633 -0.0767  0.0793 -0.7659
  702MPD2    H710442   4.306   0.943  10.705 -2.6280  0.3159  1.6202
  703TMC3    C110443   4.050   1.349  10.189  0.1024  0.6170  0.2298
  703TMC3    C210444   3.938   1.384  10.266  0.4762 -0.4716 -0.6231
  703TMC3    C310445   3.954   1.488  10.345 -0.5298  0.1964  0.4517
  703TMC3    C410446   4.157   1.432  10.175 -0.5473 -0.1381 -0.3651
  703TMC3    C510447   4.164   1.537  10.254  0.0805  0.4117  0.1580
  703TMC3    C610448   4.061   1.574  10.337 -0.2661  0.3455 -0.1762
  703TMC3     C10449   4.084   1.211  10.198 -0.2793 -0.1098  0.1728
  703TMC3     O10450   3.988   1.141  10.229  0.2323  0.3318  0.5814
  703TMC3     H10451   3.856   1.317  10.287 -1.0406  2.0125  1.3887
  703TMC3    H110452   4.244   1.416  10.113 -1.8820 -2.4965 -1.6188
  703TMC3    H210453   4.073   1.658  10.404 -0.1673  1.3892 -1.5085
  703TMC3    C710454   4.294   1.606  10.276 -0.1650  0.0432 -0.3895
  703TMC3    C810455   3.912   1.476  10.484  0.2200 -0.1937 -0.6924
  703TMC3    O110456   4.292   1.725  10.301 -0.1895  0.2648 -0.8175
  703TMC3    O210457   3.994   1.517  10.561  0.3287 -0.2884 -0.1920
  704TMC3    C110458   1.973   4.400  11.711  0.2658  0.2252  0.6334
  704TMC3    C210459   2.023   4.358  11.588  0.3722 -0.1812  0.9849
  704TMC3    C310460   2.160   4.326  11.586 -0.4996 -0.1989  0.2234
  704TMC3    C410461   2.041   4.397  11.828  0.0496  0.6011 -0.0312
  704TMC3    C510462   2.167   4.339  11.819 -0.5752  0.6034  0.2204
  704TMC3    C610463   2.230   4.309  11.702 -0.6677  0.1916  0.2833
  704TMC3     C10464   1.835   4.439  11.727  0.2564  0.0140 -0.6988
  704TMC3     O10465   1.790   4.451  11.841  0.6057 -0.3275 -0.1282
  704TMC3     H10466   1.983   4.369  11.487 -0.6505  2.0907  1.6394
  704TMC3    H110467   1.994   4.410  11.924  1.9366  0.5516  0.8971
  704TMC3    H210468   2.331   4.271  11.709  0.5258  3.2707 -0.2945
  704TMC3    C710469   2.204   4.272  11.943 -0.5587 -0.6865  0.3987
  704TMC3    C810470   2.208   4.236  11.484 -0.6611 -0.0903  0.4457
  704TMC3    O110471   2.115   4.232  12.007 -0.7812 -0.3545  0.0144
  704TMC3    O210472   2.329   4.225  11.464  0.1941  0.3502 -0.3673
  705MPD2     C10473   1.738   1.515  16.066 -0.0021 -0.5236  0.2697
  705MPD2    C110474   1.765   1.645  16.119 -1.3416 -0.1932 -0.2819
  705MPD2    C210475   1.659   1.711  16.185  0.5876  0.3959  0.2410
  705MPD2    C310476   1.539   1.648  16.207  0.5090 -0.3996  0.2160
  705MPD2    C410477   1.512   1.523  16.155 -0.5896  0.5727 -0.0769
  705MPD2    C510478   1.614   1.458  16.098 -0.1776  0.2839  0.5378
  705MPD2     H10479   1.673   1.810  16.227 -1.1350  2.1036 -3.1895
  705MPD2    H110480   1.415   1.476  16.159  0.1897 -1.0185  0.2331
  705MPD2    H210481   1.797   1.463  15.991 -0.5618  1.0933 -1.2689
  705MPD2    H310482   1.592   1.369  16.040  2.4206  1.1650 -1.7981
  705MPD2     N10483   1.429   1.706  16.281 -0.2574 -0.2047  0.4379
  705MPD2    H510484   1.344   1.651  16.292 -0.1811 -0.2722  0.6853
  705MPD2    N110485   1.874   1.731  16.077 -0.3723 -0.1282 -0.2024
  705MPD2    H710486   1.863   1.830  16.096 -0.4890  0.0780 -1.3443
  706TMC3    C110487   2.284   1.838  15.883  0.2954  0.9936 -0.2764
  706TMC3    C210488   2.309   1.933  15.972 -0.7059 -0.4868  0.0687
  706TMC3    C310489   2.209   1.970  16.068 -0.8043  0.5022 -0.1561
  706TMC3    C410490   2.172   1.761  15.885 -0.4231  0.0104  0.0114
  706TMC3    C510491   2.079   1.788  15.982  0.5965 -0.0199 -0.0684
  706TMC3    C610492   2.090   1.895  16.070 -0.1143 -0.0418 -0.1198
  706TMC3     C10493   2.358   1.852  15.755 -0.0201  0.3160 -0.0836
  706TMC3     O10494   2.474   1.885  15.765 -0.1005  0.0692 -1.1710
  706TMC3     H10495   2.394   1.999  15.959  0.2752 -1.6622  0.5837
  706TMC3    H110496   2.154   1.681  15.814  0.4256  2.1918 -2.6963
  706TMC3    H210497   2.006   1.926  16.131 -0.0225  0.2661 -0.1508
  706TMC3    C710498   1.982   1.679  16.005  0.2485  0.5851 -0.2794
  706TMC3    C810499   2.209   2.106  16.110 -0.3988  0.3125  0.8589
  706TMC3    O110500   2.005   1.566  15.971 -0.5245 -0.3956  0.0979
  706TMC3    O210501   2.271   2.192  16.050  0.0189 -0.5654 -0.6235
  707TMC3    C110502   3.307   0.994   1.200 -0.0269 -0.2097  0.3502
  707TMC3    C210503   3.383   0.976   1.313 -0.1859 -0.7523  0.0997
  707TMC3    C310504   3.380   0.856   1.368 -0.1456 -0.4459  0.7446
  707TMC3    C410505   3.222   0.898   1.153 -0.2453 -0.1274 -0.1579
  707TMC3    C510506   3.219   0.784   1.229 -0.0816  0.8805  0.6648
  707TMC3    C610507   3.306   0.754   1.327  0.4334 -0.0336 -0.4136
  707TMC3     C10508   3.369   1.079   1.098  0.4062 -0.2443  0.8868
  707TMC3     O10509   3.479   1.128   1.124 -0.0965  0.8291 -0.5340
  707TMC3     H10510   3.455   1.049   1.348 -0.3806 -0.8920  0.7810
  707TMC3    H110511   3.159   0.902   1.065  0.4992 -2.4108 -0.7736
  707TMC3    H210512   3.302   0.658   1.377 -1.3667 -1.0621 -2.5294
  707TMC3    C710513   3.135   0.675   1.181  0.0145  0.2633  0.1532
  707TMC3    C810514   3.482   0.827   1.457 -0.0098 -0.5480  0.1424
  707TMC3    O110515   3.173   0.560   1.206  0.2149  0.4516 -0.8123
  707TMC3    O210516   3.491   0.900   1.556  0.0048  0.4961  0.1415
  708MPD2     C10517   4.032   0.603  13.642 -0.3595  0.2050  0.5064
  708MPD2    C110518   4.049   0.605  13.775  0.0579 -0.2686  0.5209
  708MPD2    C210519   4.138   0.520  13.836 -0.3473  0.4392 -0.2052
  708MPD2    C310520   4.221   0.445  13.759  0.5811 -0.2920  0.2962
  708MPD2    C410521   4.217   0.451  13.620 -0.4673  0.1758  0.2388
  708MPD2    C510522   4.117   0.524  13.564 -0.0889 -0.6934 -0.1597
  708MPD2     H10523   4.132   0.511  13.944  0.4678  1.6805 -0.0546
  708MPD2    H110524   4.290   0.399  13.558 -1.0510 -0.1251 -0.1874
  708MPD2    H210525   3.969   0.677  13.594 -2.3163 -1.3600  0.6940
  708MPD2    H310526   4.108   0.535  13.456 -0.1766 -2.5287 -0.3437
  708MPD2     N10527   4.317   0.363  13.807  0.4281 -0.2682 -0.3984
  708MPD2    H510528   4.392   0.331  13.746 -1.6842  0.6801 -3.4511
  708MPD2    N110529   3.962   0.688  13.852  0.0661 -0.4157 -0.2070
  708MPD2    H710530   3.913   0.761  13.802  1.0824  1.0415  0.9131
  709TMC3    C110531   3.921   0.816  14.044 -1.0643  0.7430  0.5903
  709TMC3    C210532   4.003   0.919  14.000  0.0612 -0.4586  0.4348
  709TMC3    C310533   4.064   1.010  14.091  0.8632 -0.9436 -0.3571
  709TMC3    C410534   3.890   0.808  14.172  0.0988 -0.2957 -0.8839
  709TMC3    C510535   3.958   0.886  14.261  0.1081 -0.2807 -0.4750
  709TMC3    C610536   4.035   0.991  14.223 -0.0458 -0.5999  0.7939
  709TMC3     C10537   3.941   0.680  13.987 -0.3200 -0.4507  0.4461
  709TMC3     O10538   3.970   0.591  14.062  0.1696 -0.2933 -0.4445
  709TMC3     H10539   4.022   0.944  13.896  1.7614  1.4971  1.1948
  709TMC3    H110540   3.830   0.725  14.208 -2.5045  1.6730 -0.6718
  709TMC3    H210541   4.075   1.059  14.298  1.3459 -1.0589  0.4752
  709TMC3    C710542   4.041   0.795  14.338  0.4718 -0.3481 -0.4266
  709TMC3    C810543   4.153   1.115  14.058  0.4255  0.2957 -0.3192
  709TMC3    O110544   4.027   0.670  14.334  0.3616 -0.4261  0.1853
  709TMC3    O210545   4.187   1.186  14.149 -0.1956 -0.4994  0.3476
  710TMC3    C110546   1.111   1.776   0.145  0.4749 -0.5904  0.9551
  710TMC3    C210547   1.159   1.823   0.020  0.8679 -0.1679 -0.1251
  710TMC3    C310548   1.192   1.730  17.671  0.4010 -0.1175 -0.3685
  710TMC3    C410549   1.123   1.643   0.177  0.1465  0.2145  0.2893
  710TMC3    C510550   1.157   1.558   0.081 -0.6443 -0.7384  0.0708
  710TMC3    C610551   1.191   1.597  17.698  0.4625  0.1853 -0.6820
  710TMC3     C10552   1.046   1.859   0.249 -0.1437 -0.8654  0.0726
  710TMC3     O10553   1.022   1.810   0.358  0.5916 -0.5475 -0.2514
  710TMC3     H10554   1.167   1.926  17.735 -1.5914 -0.5149 -2.0094
  710TMC3    H110555   1.097   1.599   0.272  2.6243 -1.1533  0.3197
  710TMC3    H210556   1.211   1.524  17.620  1.2878 -1.4876  1.0880
  710TMC3    C710557   1.170   1.414   0.116  0.6173 -0.5834 -0.0072
  710TMC3    C810558   1.301   1.766  17.572 -0.4201 -0.3701 -0.6000
  710TMC3    O110559   1.100   1.382   0.214 -0.1508  0.8243 -0.0132
  710TMC3    O210560   1.335   1.676  17.494 -0.3374 -0.2803  0.0137
  711TMC3    C110561   1.116   2.656  15.081  0.1598 -0.6822 -0.7681
  711TMC3    C210562   1.173   2.753  15.162  0.3943 -0.3339  0.1894
  711TMC3    C310563   1.264   2.706  15.250  0.3929 -0.4643 -0.3319
  711TMC3    C410564   1.151   2.522  15.088 -0.7277 -0.0688  0.3725
  711TMC3    C510565   1.230   2.484  15.187 -0.5637 -0.1127 -0.1982
  711TMC3    C610566   1.293   2.573  15.273  0.0271  0.4580  0.7183
  711TMC3     C10567   1.000   2.680  14.991  0.7769 -0.1738  0.1445
  711TMC3     O10568   0.914   2.596  14.981  0.7433 -0.2797 -0.0800
  711TMC3     H10569   1.140   2.856  15.154  0.0085 -0.4048  0.8873
  711TMC3    H110570   1.096   2.446  15.033  0.5100 -0.2480 -0.6381
  711TMC3    H210571   1.369   2.553  15.347  0.2631 -0.7083  0.1567
  711TMC3    C710572   1.280   2.354  15.179 -0.3169  0.3518 -0.1870
  711TMC3    C810573   1.274   2.791  15.368 -0.1517 -0.4163  0.6603
  711TMC3    O110574   1.345   2.326  15.277 -0.2005  0.2881  0.5371
  711TMC3    O210575   1.187   2.877  15.375  0.1065  0.1147  0.1424
  712MPD2     C10576   2.402   4.223  13.290 -0.4847 -0.6736 -1.2538
  712MPD2    C110577   2.268   4.201  13.261  0.7844 -0.2643  0.7452
  712MPD2    C210578   2.170   4.224  13.357  0.3605  0.0190  0.4744
  712MPD2    C310579   2.205   4.273  13.482  0.3304 -0.4819 -0.1486
  712MPD2    C410580   2.336   4.298  13.513  0.4654  0.2045 -0.2292
  712MPD2    C510581   2.429   4.277  13.417  0.4984 -0.5218  0.3366
  712MPD2     H10582   2.066   4.210  13.332 -0.0768 -0.6446  2.7221
  712MPD2    H110583   2.371   4.322  13.612  1.6038 -0.0340 -0.5714
  712MPD2    H210584   2.488   4.211  13.227  1.0448  0.2625  0.6377
  712MPD2    H310585   2.532   4.296  13.445 -0.2118  2.1337  1.1150
  712MPD2     N10586   2.104   4.305  13.572 -0.4500  0.1810 -0.2116
  712MPD2    H510587   2.137   4.359  13.651 -0.3106  1.2102 -0.9693
  712MPD2    N110588   2.221   4.158  13.135 -0.0689 -0.2883  0.5793
  712MPD2    H710589   2.122   4.138  13.132  0.0338 -1.0104  1.9631
  713TMC3    C110590   1.898   4.374  13.656 -0.9093  0.2079 -0.6073
  713TMC3    C210591   1.984   4.438  13.739 -0.3010 -0.0224 -0.1161
  713TMC3    C310592   1.994   4.573  13.740  0.0360  0.0831 -0.2828
  713TMC3    C410593   1.808   4.453  13.584  0.7679 -0.3963 -0.7819
  713TMC3    C510594   1.823   4.585  13.578  0.0478  0.1825 -0.4181
  713TMC3    C610595   1.924   4.647  13.650 -0.4644 -0.0199 -0.8267
  713TMC3     C10596   1.973   4.284  13.569  0.7228  0.0036  0.2009
  713TMC3     O10597   1.904   4.215  13.490  0.0676 -0.5218  0.3778
  713TMC3     H10598   2.042   4.381  13.810 -0.8663  1.4795  1.5341
  713TMC3    H110599   1.736   4.402  13.522 -2.1231  2.4290  0.2985
  713TMC3    H210600   1.945   0.016  13.642 -0.7472  0.1834  1.0418
  713TMC3    C710601   1.727   4.650  13.503  0.4247  0.4492 -0.2446
  713TMC3    C810602   2.129   4.628  13.753  0.0772  0.5258 -0.7951
  713TMC3    O110603   1.615   4.606  13.482 -0.6935 -0.4262  0.1979
  713TMC3    O210604   2.155   4.735  13.707 -0.0358  0.3432  0.0618
  714MPD2     C10605   4.565   2.656   1.787  0.0387 -0.1188  0.1695
  714MPD2    C110606   4.580   2.566   1.685 -0.0493 -0.2100  0.5981
  714MPD2    C210607   4.465   2.553   1.601  0.5491 -0.1356  0.2464
  714MPD2    C310608   4.361   2.641   1.607  0.8225 -0.3629  0.1508
  714MPD2    C410609   4.356   2.731   1.715  0.7304 -0.4649  0.1208
  714MPD2    C510610   4.461   2.740   1.801  0.7915  0.6142 -0.2369
  714MPD2     H10611   4.460   2.484   1.517  3.8905 -0.6024  0.4402
  714MPD2    H110612   4.271   2.797   1.731  0.0498 -0.9515 -1.4514
  714MPD2    H210613   4.651   2.680   1.849  0.0234 -1.2585  0.6344
  714MPD2    H310614   4.465   2.811   1.882  0.9680  0.5011 -0.1445
  714MPD2     N10615   4.255   2.644   1.510 -0.2584  0.3583 -0.0428
  714MPD2    H510616   4.269   2.577   1.435  1.4299  0.3282  0.3126
  714MPD2    N110617   4.698   2.491   1.681 -0.0168 -0.2565 -0.3280
  714MPD2    H710618   0.034   2.519   1.745  0.1966 -0.6115 -0.4101
  715TMC3    C110619   0.134   2.361   1.586 -0.3579 -0.6573  1.2487
  715TMC3    C210620   0.171   2.276   1.484 -0.1047  0.4673  0.7702
  715TMC3    C310621   0.298   2.234   1.468 -0.2775  0.1458  0.5213
  715TMC3    C410622   0.225   2.415   1.669  0.4198  0.2659  0.2349
  715TMC3    C510623   0.356   2.374   1.652 -0.5875 -0.0748 -0.3895
  715TMC3    C610624   0.395   2.282   1.557 -0.1401  0.3972 -0.0002
  715TMC3     C10625   4.731   2.402   1.582 -0.2699 -0.4751 -1.0752
  715TMC3     O10626   4.655   2.350   1.502 -0.0362 -0.1441 -0.3968
  715TMC3     H10627   0.099   2.242   1.410  0.5705 -0.3556  0.4873
  715TMC3    H110628   0.205   2.493   1.742 -1.3640  0.9487 -0.9971
  715TMC3    H210629   0.499   2.270   1.532 -0.0992 -1.7676  1.2270
  715TMC3    C710630   0.465   2.430   1.733 -0.0168 -0.3719 -0.2850
  715TMC3    C810631   0.333   2.149   1.354 -0.3881 -0.3616 -0.3544
  715TMC3    O110632   0.576   2.375   1.733 -0.5472 -0.4816  0.6705
  715TMC3    O210633   0.241   2.112   1.276 -0.4374  0.1805 -0.9856
  716MPD2     C10634   3.733   1.331   9.598  0.1168 -0.4925  0.0755
  716MPD2    C110635   3.674   1.277   9.485 -0.0121  0.2842  0.1418
  716MPD2    C210636   3.741   1.175   9.420 -0.2748 -0.8461  0.4137
  716MPD2    C310637   3.869   1.131   9.463 -0.2537  0.3000 -0.2769
  716MPD2    C410638   3.925   1.189   9.569  0.1786 -0.0154 -0.7506
  716MPD2    C510639   3.862   1.295   9.639  0.5716  0.1201  0.5635
  716MPD2     H10640   3.695   1.121   9.338 -1.1041  0.1671  0.2273
  716MPD2    H110641   4.021   1.162   9.613  0.5330 -1.8976 -2.6717
  716MPD2    H210642   3.685   1.416   9.645  0.4905  0.1537 -0.7009
  716MPD2    H310643   3.909   1.351   9.720  2.0513  0.6335 -0.6547
  716MPD2     N10644   3.923   1.023   9.402  0.6084 -0.2399  0.1560
  716MPD2    H510645   3.877   0.984   9.321  1.3512 -0.3938 -0.1901
  716MPD2    N110646   3.546   1.331   9.451 -0.3177  0.2870 -1.0039
  716MPD2    H710647   3.503   1.405   9.505 -0.1732 -0.5732  0.2841
  717TMC3    C110648   4.059   0.832   9.372  0.7285 -0.2555 -0.8849
  717TMC3    C210649   4.004   0.816   9.250  0.0249 -0.1635 -0.5283
  717TMC3    C310650   4.015   0.696   9.192 -0.2829 -0.2585  0.3901
  717TMC3    C410651   4.112   0.724   9.439  0.5574  0.3783  0.1522
  717TMC3    C510652   4.131   0.608   9.377 -0.0910 -0.2989 -0.2535
  717TMC3    C610653   4.083   0.587   9.249  0.8081 -0.1897  0.1577
  717TMC3     C10654   4.031   0.948   9.454  0.1647 -0.6051  0.0672
  717TMC3     O10655   4.078   0.956   9.569  0.3321 -0.5038 -0.3374
  717TMC3     H10656   3.979   0.902   9.189 -0.8235 -0.6952 -0.9268
  717TMC3    H110657   4.161   0.730   9.535  1.6421 -1.2120 -0.3197
  717TMC3    H210658   4.075   0.488   9.206 -2.8778 -0.3436  1.1339
  717TMC3    C710659   4.176   0.486   9.453 -0.0034 -0.2932  0.0702
  717TMC3    C810660   3.933   0.680   9.073  0.2815 -0.5591  0.1214
  717TMC3    O110661   4.151   0.483   9.570  0.5631 -0.4609 -0.1788
  717TMC3    O210662   3.868   0.775   9.040  0.7044 -0.1308 -0.0251
  718MPD2     C10663   3.482   0.167  11.735 -0.5286  0.8489 -0.0978
  718MPD2    C110664   3.382   0.109  11.808  0.7744 -0.5162 -0.0025
  718MPD2    C210665   3.423   0.037  11.917 -1.5697 -0.3051 -0.1121
  718MPD2    C310666   3.555   0.019  11.945 -0.1064  0.2398  0.5907
  718MPD2    C410667   3.655   0.076  11.874  0.0813 -0.0607  0.3098
  718MPD2    C510668   3.616   0.152  11.767  0.1966 -0.2025  0.5222
  718MPD2     H10669   3.364   4.723  11.992 -1.7548 -0.3279 -0.2751
  718MPD2    H110670   3.763   0.072  11.881  0.2155  0.3552 -1.4616
  718MPD2    H210671   3.461   0.223  11.645 -1.8049  1.2444  0.4449
  718MPD2    H310672   3.690   0.190  11.698 -0.3092  0.2574  0.2325
  718MPD2     N10673   3.583   4.671  12.055 -0.7356  0.1404  0.0661
  718MPD2    H510674   3.502   4.617  12.084 -0.3895 -1.5815 -2.1088
  718MPD2    N110675   3.249   0.122  11.773  0.3442  0.1025 -0.9218
  718MPD2    H710676   3.229   0.165  11.683 -2.3482 -1.3875 -1.0243
  719TMC3    C110677   3.012   0.078  11.774  0.5276  0.0830  0.2520
  719TMC3    C210678   2.920   0.016  11.854  0.6031  0.6338  0.3544
  719TMC3    C310679   2.849   4.646  11.808 -0.4753 -0.4745 -0.5478
  719TMC3    C410680   3.025   0.042  11.643  0.6854 -0.2973  0.5398
  719TMC3    C510681   2.963   4.667  11.599 -0.0675  0.2835 -0.4210
  719TMC3    C610682   2.867   4.607  11.676 -0.3093  0.2518  0.3187
  719TMC3     C10683   3.141   0.086  11.849 -0.0873 -0.3143  0.3046
  719TMC3     O10684   3.140   0.027  11.955  0.6302  0.0619  0.1634
  719TMC3     H10685   2.912   0.036  11.961  0.9788  0.0070  0.5012
  719TMC3    H110686   3.100   0.086  11.578  0.9557 -0.0679  1.0035
  719TMC3    H210687   2.818   4.516  11.645 -0.5872  0.4214  0.2604
  719TMC3    C710688   3.064   4.572  11.551 -0.2442 -0.0053 -0.3843
  719TMC3    C810689   2.838   4.534  11.898 -0.5147 -0.2375 -0.0236
  719TMC3    O110690   3.148   4.612  11.474 -0.0795 -0.2200 -0.3390
  719TMC3    O210691   2.768   4.439  11.869  0.3037  0.3319 -0.3934
  720MPD2     C10692   1.936   0.958  13.691  0.6125  0.2230 -0.3303
  720MPD2    C110693   2.008   1.042  13.604 -0.0608 -0.7280 -0.5797
  720MPD2    C210694   2.129   1.086  13.654  0.2518  0.5004 -0.3012
  720MPD2    C310695   2.179   1.043  13.781 -0.1280  0.5371 -0.5052
  720MPD2    C410696   2.104   0.954  13.857 -0.0680  0.1563  0.3016
  720MPD2    C510697   1.979   0.913  13.815  0.0623  0.5027  0.7771
  720MPD2     H10698   2.194   1.150  13.596  2.3769 -1.4309 -0.0462
  720MPD2    H110699   2.143   0.923  13.954  0.4946 -0.4330 -0.1139
  720MPD2    H210700   1.834   0.927  13.669  0.5450  0.4855 -0.3895
  720MPD2    H310701   1.921   0.846  13.877 -1.8302 -0.7569 -2.3819
  720MPD2     N10702   2.311   1.077  13.823  0.3631 -1.1077 -0.0479
  720MPD2    H510703   2.359   1.152  13.772  1.1700 -1.1350  0.6792
  720MPD2    N110704   1.953   1.080  13.476 -0.3780  0.0650 -0.2656
  720MPD2    H710705   1.996   1.164  13.439 -1.2201  0.0575 -1.2547
  721TMC3    C110706   2.466   1.133  13.985 -0.0632 -0.0094 -0.0821
  721TMC3    C210707   2.478   1.143  14.122  0.4460  0.2496  0.2765
  721TMC3    C310708   2.608   1.178  14.175 -0.0414 -0.2601  0.9045
  721TMC3    C410709   2.574   1.159  13.902 -0.0247  0.3732 -0.7332
  721TMC3    C510710   2.696   1.193  13.960  0.2819  0.3225 -0.4711
  721TMC3    C610711   2.720   1.196  14.095  0.0055  0.3759  0.0125
  721TMC3     C10712   2.368   1.037  13.938 -0.6309 -0.3367  0.2044
  721TMC3     O10713   2.349   0.939  14.006 -0.0518  0.5592  0.4207
  721TMC3     H10714   2.386   1.141  14.179  1.0522  0.0186  1.2525
  721TMC3    H110715   2.577   1.145  13.795  0.1834  3.0468 -1.0784
  721TMC3    H210716   2.815   1.228  14.135  0.3321 -1.6025  0.8683
  721TMC3    C710717   2.815   1.180  13.872  0.2298 -0.3453 -0.6859
  721TMC3    C810718   2.630   1.151  14.315 -0.1412  0.1563  0.0412
  721TMC3    O110719   2.803   1.231  13.760 -0.3692 -0.3643  0.1912
  721TMC3    O210720   2.533   1.125  14.387  0.2099  0.3422  0.3341
  722MPD2     C10721   0.933   4.260  13.201  0.0488 -0.0276 -0.0049
  722MPD2    C110722   0.868   4.373  13.156  0.2596  0.0277 -0.0952
  722MPD2    C210723   0.755   4.414  13.217 -0.4000  0.2177  0.0716
  722MPD2    C310724   0.695   4.341  13.313  0.2764  0.1602 -0.6786
  722MPD2    C410725   0.753   4.221  13.353 -0.4923  0.0640 -0.0252
  722MPD2    C510726   0.868   4.180  13.290 -0.0644 -0.2252  0.8784
  722MPD2     H10727   0.717   4.514  13.199 -1.7312 -0.4907 -1.0171
  722MPD2    H110728   0.716   4.150  13.425 -1.0332  0.7838  0.4110
  722MPD2    H210729   1.021   4.223  13.149  1.2563  0.5806  1.6308
  722MPD2    H310730   0.917   4.091  13.326  1.0821  0.5218  1.1736
  722MPD2     N10731   0.583   4.390  13.371 -0.0655  0.3312 -0.3086
  722MPD2    H510732   0.544   4.477  13.335 -1.2139  0.1903  0.6006
  722MPD2    N110733   0.937   4.468  13.080  0.1344 -0.3005  0.0906
  722MPD2    H710734   0.886   4.546  13.040 -1.9808 -0.5224  2.3763
  723TMC3    C110735   0.413   4.437  13.517  0.3998 -0.0012  0.5988
  723TMC3    C210736   0.367   4.515  13.413 -0.0505 -0.7870 -0.4838
  723TMC3    C310737   0.382   4.654  13.412  0.2872 -0.2137 -0.6338
  723TMC3    C410738   0.457   4.503  13.623  0.1289 -0.4245  0.0135
  723TMC3    C510739   0.466   4.644  13.627 -0.4947 -0.3298 -0.1376
  723TMC3    C610740   0.441   4.723  13.515 -0.5695 -0.2139 -0.3239
  723TMC3     C10741   0.506   4.336  13.480  0.2451  0.0088  0.9856
  723TMC3     O10742   0.526   4.225  13.532 -0.0159 -0.1321 -0.0250
  723TMC3     H10743   0.302   4.461  13.346  0.8227 -1.2658 -0.9421
  723TMC3    H110744   0.496   4.438  13.699  3.0933  1.9360  0.5108
  723TMC3    H210745   0.464   0.091  13.504 -0.4327 -0.3417 -1.2213
  723TMC3    C710746   0.559   4.693  13.732 -0.5438  0.8198 -0.5061
  723TMC3    C810747   0.379   4.720  13.283  0.0954 -0.2222 -0.3358
  723TMC3    O110748   0.604   4.617  13.814  0.0179  0.1072 -0.3414
  723TMC3    O210749   0.422   0.098  13.280  0.1536  0.4796  0.4719
  724TMC3    C110750   1.353   3.012   9.916  0.3308 -0.3509  0.2092
  724TMC3    C210751   1.366   3.032   9.786 -0.5152 -0.0634 -0.2118
  724TMC3    C310752   1.459   3.123   9.754 -0.2906 -0.1324  0.6201
  724TMC3    C410753   1.403   3.075  10.021 -0.7056  0.1465 -0.7774
  724TMC3    C510754   1.490   3.170   9.985  0.5418 -0.8263 -0.6159
  724TMC3    C610755   1.516   3.201   9.854  0.5800  0.0777 -0.2831
  724TMC3     C10756   1.259   2.905   9.960 -0.1076  0.2422 -0.5760
  724TMC3     O10757   1.266   2.865  10.073  0.6908 -0.0470  0.4631
  724TMC3     H10758   1.331   2.972   9.703  0.6539 -2.9101  1.3374
  724TMC3    H110759   1.396   3.048  10.126  3.5776  1.9644 -0.0516
  724TMC3    H210760   1.605   3.261   9.838  0.3415  0.5551  0.1967
  724TMC3    C710761   1.521   3.286  10.067 -0.0781  0.1532  0.3362
  724TMC3    C810762   1.483   3.161   9.613  0.2823  0.5074  0.2066
  724TMC3    O110763   1.547   3.392  10.010 -0.2251 -0.2521  0.5040
  724TMC3    O210764   1.413   3.110   9.526  0.2403 -0.0908  0.1857
  725TMC3    C110765   2.704   1.487  12.139  0.1468  0.6160  0.1840
  725TMC3    C210766   2.579   1.490  12.092 -0.7401 -0.1966 -0.7138
  725TMC3    C310767   2.506   1.377  12.066 -0.3569 -0.0071  0.3630
  725TMC3    C410768   2.762   1.369  12.174 -0.3329 -0.2331 -0.4045
  725TMC3    C510769   2.673   1.253  12.170  0.4012 -0.2938 -0.2870
  725TMC3    C610770   2.553   1.256  12.106 -1.2393  0.3934  0.3941
  725TMC3     C10771   2.763   1.602  12.190 -0.0945 -0.4577 -0.0916
  725TMC3     O10772   2.683   1.693  12.219  0.5396  0.0652  0.4057
  725TMC3     H10773   2.531   1.587  12.083  1.2355  0.6315 -2.3348
  725TMC3    H110774   2.860   1.355  12.218 -0.0201  1.2960 -0.6177
  725TMC3    H210775   2.505   1.162  12.080  0.1816  0.2471 -1.7139
  725TMC3    C710776   2.733   1.132  12.220 -0.0208  0.2702  0.1514
  725TMC3    C810777   2.382   1.386  11.999  0.5092  0.6731  0.3147
  725TMC3    O110778   2.855   1.124  12.231 -0.7176  0.1464  0.0651
  725TMC3    O210779   2.307   1.294  12.007 -0.3837 -0.1796 -0.0365
  726MPD2     C10780   0.043   3.171   9.708  0.6106  0.5465  0.0419
  726MPD2    C110781   0.140   3.100   9.778 -0.1604 -0.2586 -0.2377
  726MPD2    C210782   0.105   2.995   9.863 -0.0043 -0.0311 -0.2743
  726MPD2    C310783   4.705   2.965   9.887 -0.1000  0.3231  0.1900
  726MPD2    C410784   4.614   3.035   9.815 -0.4248  0.2075 -0.2035
  726MPD2    C510785   4.650   3.139   9.733 -0.5961  0.0879  0.3384
  726MPD2     H10786   0.178   2.934   9.914 -1.3158 -1.1154  0.3138
  726MPD2    H110787   4.507   3.025   9.829 -0.6076  0.1849 -1.6469
  726MPD2    H210788   0.076   3.237   9.629  0.2684 -1.0574 -1.4470
  726MPD2    H310789   4.572   3.197   9.684  0.2376 -1.1099 -2.4076
  726MPD2     N10790   4.658   2.880   9.989  0.1415  0.5321 -0.2118
  726MPD2    H510791   4.560   2.896  10.009  0.3686 -0.2447  1.4783
  726MPD2    N110792   0.280   3.137   9.764  0.1901 -0.1751 -0.6985
  726MPD2    H710793   0.348   3.067   9.790  1.2769  0.2757 -2.2862
  727TMC3    C110794   0.463   3.252   9.701  0.0738 -0.1284  0.3248
  727TMC3    C210795   0.523   3.360   9.755 -0.5615  0.2850 -1.0685
  727TMC3    C310796   0.657   3.357   9.762  0.2152 -0.0850  0.3074
  727TMC3    C410797   0.532   3.154   9.630 -0.5562 -0.1051 -0.0055
  727TMC3    C510798   0.667   3.166   9.631  0.8200 -0.7445 -0.4465
  727TMC3    C610799   0.732   3.266   9.695  0.3439  0.3380  0.1636
  727TMC3     C10800   0.324   3.250   9.699 -0.2887 -0.1231 -0.3150
  727TMC3     O10801   0.264   3.357   9.686  0.3362  0.1966 -0.0224
  727TMC3     H10802   0.470   3.434   9.814 -0.1346 -0.1595 -0.1253
  727TMC3    H110803   0.483   3.072   9.579 -1.4659 -0.3944  1.3464
  727TMC3    H210804   0.838   3.259   9.714  0.4114  0.9713  0.0107
  727TMC3    C710805   0.738   3.053   9.574 -0.1045  0.0449 -0.9130
  727TMC3    C810806   0.727   3.450   9.853 -0.3793  0.5077  0.2753
  727TMC3    O110807   0.671   2.955   9.555  0.0752 -0.0235  0.1503
  727TMC3    O210808   0.844   3.432   9.874  0.4049 -0.3108  1.3339
  728TMC3    C110809   0.240   1.709  15.208  0.3848  0.5122 -0.3640
  728TMC3    C210810   0.368   1.760  15.230 -0.5112 -0.7825 -0.9258
  728TMC3    C310811   0.406   1.869  15.154  0.3516 -0.5628  0.4132
  728TMC3    C410812   0.159   1.763  15.118  0.3690 -0.4912  0.8428
  728TMC3    C510813   0.195   1.874  15.048 -0.0483 -0.2183 -0.3418
  728TMC3    C610814   0.323   1.926  15.060  0.9745  0.4155 -0.3223
  728TMC3     C10815   0.180   1.631  15.319  0.6096  0.3274 -1.0532
  728TMC3     O10816   0.253   1.608  15.411 -0.4024  0.0427 -0.1657
  728TMC3     H10817   0.428   1.727  15.314 -0.3462 -3.4511 -2.1063
  728TMC3    H110818   0.059   1.724  15.100 -0.3297  1.0002  1.4696
  728TMC3    H210819   0.351   2.011  15.000  0.6545  1.3647  0.8700
  728TMC3    C710820   0.113   1.906  14.931  0.2971 -0.3128 -0.1128
  728TMC3    C810821   0.534   1.927  15.161 -0.3215  0.2607 -0.2344
  728TMC3    O110822   0.027   1.827  14.890  0.3646 -0.1964  0.5512
  728TMC3    O210823   0.550   2.044  15.136  0.6582  0.1634  0.0275
  729MPD2     C10824   1.999   2.752  16.948  0.1117 -0.2868 -0.0636
  729MPD2    C110825   2.124   2.696  16.960 -0.0121 -0.4543  0.1624
  729MPD2    C210826   2.188   2.694  17.089  0.2390 -0.2513  0.0226
  729MPD2    C310827   2.124   2.756  17.195  0.1241 -0.2865  0.0280
  729MPD2    C410828   2.000   2.803  17.178 -0.5900 -0.5062 -0.0108
  729MPD2    C510829   1.937   2.811  17.059  0.3506  0.1803 -0.0937
  729MPD2     H10830   2.291   2.659  17.098  0.5334  1.0445  1.8573
  729MPD2    H110831   1.946   2.859  17.254  1.1095  3.1075 -1.4751
  729MPD2    H210832   1.948   2.759  16.853  1.4937  2.6520 -0.5695
  729MPD2    H310833   1.849   2.873  17.047  1.3518  1.6460  0.1000
  729MPD2     N10834   2.182   2.770  17.323 -0.7510 -0.0688  0.6878
  729MPD2    H510835   2.124   2.829  17.382 -1.3526  0.3395 -0.3121
  729MPD2    N110836   2.179   2.654  16.839  0.3829 -0.5654 -0.9723
  729MPD2    H710837   2.123   2.658  16.755 -1.0294  0.3030  0.0027
  730TMC3    C110838   2.332   2.797  17.492 -0.3228  0.6284  0.4779
  730TMC3    C210839   2.451   2.858  17.478  0.5511 -0.4735  0.6300
  730TMC3    C310840   2.460   2.985  17.532 -0.5489 -0.0913  0.5506
  730TMC3    C410841   2.228   2.855  17.563 -0.5776  0.1475 -0.5725
  730TMC3    C510842   2.239   2.983  17.607  0.0674 -0.0667  0.6796
  730TMC3    C610843   2.354   3.057  17.584 -0.2593 -0.0381  0.8034
  730TMC3     C10844   2.299   2.722  17.373 -0.0004  0.2195  0.0473
  730TMC3     O10845   2.385   2.661  17.307 -0.2807  0.5163 -0.0530
  730TMC3     H10846   2.544   2.808  17.453  0.6564  0.8766 -1.6597
  730TMC3    H110847   2.133   2.802  17.565  0.5829 -1.8535  1.9810
  730TMC3    H210848   2.355   3.161  17.614 -1.3936 -0.1623  1.2748
  730TMC3    C710849   2.120   3.066  17.585 -0.4986  0.2700  0.1515
  730TMC3    C810850   2.571   3.064  17.473  0.7812  0.4889  0.4420
  730TMC3    O110851   2.011   3.030  17.629  0.6444 -0.0642  0.2202
  730TMC3    O210852   2.626   3.007  17.379 -0.0307 -0.2368  0.3229
  731MPD2     C10853   2.164   0.385  11.536  0.7504  0.5005  0.3170
  731MPD2    C110854   2.156   0.501  11.604 -0.7818 -0.0105  0.1922
  731MPD2    C210855   2.217   0.506  11.728 -0.4846 -0.1643 -0.1767
  731MPD2    C310856   2.248   0.385  11.789 -0.9313 -0.2252  0.2551
  731MPD2    C410857   2.255   0.271  11.719 -0.0312 -0.3926 -0.0792
  731MPD2    C510858   2.216   0.276  11.590  0.0917  0.5219  0.0894
  731MPD2     H10859   2.235   0.603  11.773 -1.5858  0.0085 -0.1231
  731MPD2    H110860   2.282   0.177  11.767 -0.4645 -0.1461  0.6427
  731MPD2    H210861   2.123   0.378  11.436  1.6323 -1.5607  0.0887
  731MPD2    H310862   2.212   0.180  11.539  1.6985  0.0526  0.8268
  731MPD2     N10863   2.280   0.377  11.931  0.8066 -0.2279 -0.0989
  731MPD2    H510864   2.267   0.287  11.975  0.5150  0.1681  0.6212
  731MPD2    N110865   2.117   0.617  11.542 -0.1300  0.2198 -0.5924
  731MPD2    H710866   2.109   0.615  11.441 -0.7597 -0.0173 -0.5395
  732TMC3    C110867   2.121   0.855  11.535  0.7161 -0.6017 -0.5504
  732TMC3    C210868   2.065   0.876  11.417 -0.7713  0.2129 -0.1029
  732TMC3    C310869   2.089   0.993  11.354  0.0766 -1.0532 -0.3382
  732TMC3    C410870   2.205   0.948  11.599 -0.4635 -0.3848  0.1569
  732TMC3    C510871   2.238   1.059  11.526  0.7035  0.3625 -0.1668
  732TMC3    C610872   2.175   1.085  11.407 -0.6569  0.2130 -0.7564
  732TMC3     C10873   2.106   0.733  11.610 -0.3782 -0.1951 -0.2235
  732TMC3     O10874   2.084   0.750  11.730  0.2351 -0.1540 -0.0089
  732TMC3     H10875   2.003   0.807  11.360 -2.6100  0.0644  2.0590
  732TMC3    H110876   2.258   0.911  11.686 -3.4860 -1.3275  1.5849
  732TMC3    H210877   2.198   1.173  11.346  1.5183  0.9609  1.1676
  732TMC3    C710878   2.332   1.159  11.570  0.1054 -0.2260  0.0257
  732TMC3    C810879   1.973   1.035  11.287  0.6525 -0.2958 -0.2866
  732TMC3    O110880   2.313   1.276  11.541  0.4545 -0.8448  0.9084
  732TMC3    O210881   1.985   1.121  11.194 -0.5897  0.1384 -0.0036
  733TMC3    C110882   3.731   4.427  12.393  0.2834  0.6405 -0.4792
  733TMC3    C210883   3.776   4.509  12.296 -0.6065 -0.1643  0.0671
  733TMC3    C310884   3.698   4.516  12.186  0.5130 -1.0275  0.0495
  733TMC3    C410885   3.622   4.344  12.387  0.4227  0.5520 -0.8363
  733TMC3    C510886   3.549   4.351  12.276  0.2742 -0.4462 -0.5940
  733TMC3    C610887   3.588   4.432  12.173 -0.8933 -0.5358  0.1932
  733TMC3     C10888   3.805   4.456  12.516 -0.5141 -0.1494 -0.5188
  733TMC3     O10889   3.926   4.463  12.499 -0.3711 -0.1973 -0.8009
  733TMC3     H10890   3.872   4.560  12.302 -0.6431 -0.1871  0.8196
  733TMC3    H110891   3.595   4.280  12.470  0.9586 -0.1997 -1.2396
  733TMC3    H210892   3.521   4.428  12.088  1.4023 -3.9921 -1.4363
  733TMC3    C710893   3.414   4.295  12.265  0.3098 -0.0269 -0.5006
  733TMC3    C810894   3.706   4.637  12.108  0.0097 -0.1961  0.2000
  733TMC3    O110895   3.383   4.186  12.303  0.0062 -0.2293  0.0285
  733TMC3    O210896   3.814   4.699  12.106 -0.4860 -0.5274 -0.4118
  734MPD2     C10897   0.785   1.155  12.568  0.5550 -0.0018 -0.0721
  734MPD2    C110898   0.661   1.123  12.508  0.7104 -0.0687  0.2345
  734MPD2    C210899   0.598   1.226  12.430  0.4443  0.0319 -0.1676
  734MPD2    C310900   0.661   1.349  12.414 -0.1377  0.2577  0.0747
  734MPD2    C410901   0.777   1.378  12.483  0.5043 -0.0391  1.0122
  734MPD2    C510902   0.833   1.286  12.563 -0.3224 -0.2339  0.0900
  734MPD2     H10903   0.509   1.206  12.372  0.3789 -1.0376  0.2986
  734MPD2    H110904   0.815   1.480  12.487 -1.3362  0.6882  0.0569
  734MPD2    H210905   0.842   1.079  12.621 -3.3701 -1.4937  2.0799
  734MPD2    H310906   0.917   1.311  12.625 -0.9108  2.3880 -0.1983
  734MPD2     N10907   0.581   1.451  12.347 -0.0132  0.6436  0.2231
  734MPD2    H510908   0.498   1.409  12.306  1.2339 -2.2042  0.5572
  734MPD2    N110909   0.603   1.000  12.524  0.7431 -0.0232 -0.5046
  734MPD2    H710910   0.656   0.923  12.565  1.0564  0.3102 -0.2829
  735TMC3    C110911   0.438   0.839  12.453  0.7140 -0.1957  0.0264
  735TMC3    C210912   0.301   0.813  12.443 -0.8779  0.2958  0.0383
  735TMC3    C310913   0.246   0.750  12.336  0.1811  0.6041 -0.2885
  735TMC3    C410914   0.523   0.796  12.356 -0.0557 -0.5872  0.6901
  735TMC3    C510915   0.467   0.724  12.254  0.0845 -0.2191  0.3788
  735TMC3    C610916   0.333   0.706  12.240 -0.0346 -0.3793  0.2942
  735TMC3     C10917   0.466   0.974  12.503 -0.7468 -0.1082  0.5513
  735TMC3     O10918   0.381   1.058  12.473 -0.2689 -0.0245  0.6085
  735TMC3     H10919   0.242   0.866  12.517  0.2231  0.5536  0.7397
  735TMC3    H110920   0.626   0.829  12.347  0.2226 -1.1215  1.9083
  735TMC3    H210921   0.295   0.655  12.152 -1.3794  1.7231 -0.3346
  735TMC3    C710922   0.541   0.700  12.131 -0.0956  0.1011  0.2982
  735TMC3    C810923   0.125   0.820  12.275 -0.7360  0.0420 -0.0963
  735TMC3    O110924   0.482   0.698  12.023 -0.1967  0.0519 -0.0086
  735TMC3    O210925   0.064   0.770  12.182 -0.6755 -0.0917 -0.4694
  736MPD2     C10926   0.891   0.591  12.107  0.3297 -0.1935  0.6166
  736MPD2    C110927   0.771   0.635  12.055  0.4457 -0.3291 -0.0201
  736MPD2    C210928   0.754   0.653  11.919 -0.1450 -0.3530  0.1259
  736MPD2    C310929   0.855   0.619  11.835  0.5298  0.2217 -0.1081
  736MPD2    C410930   0.972   0.563  11.881 -0.0676 -0.1876  1.3512
  736MPD2    C510931   0.991   0.556  12.019 -0.7506 -0.3496  0.7522
  736MPD2     H10932   0.661   0.687  11.875 -0.2212 -0.7901 -0.0569
  736MPD2    H110933   1.056   0.534  11.818  1.3739 -0.9510  3.6363
  736MPD2    H210934   0.906   0.577  12.213 -1.3086  0.1867  0.8849
  736MPD2    H310935   1.076   0.507  12.064  0.4832  0.3238 -0.8587
  736MPD2     N10936   0.838   0.628  11.691 -0.2052  0.0540 -0.5540
  736MPD2    H510937   0.912   0.588  11.634  0.5546  0.3110  0.2397
  736MPD2    N110938   0.671   0.666  12.153  0.0197 -0.4850  0.3452
  736MPD2    H710939   0.708   0.651  12.246  0.0677  2.3554  0.7681
  737TMC3    C110940   0.760   0.705  11.480  0.3923 -0.8015 -0.0383
  737TMC3    C210941   0.720   0.821  11.414  0.5610 -0.1502  0.2559
  737TMC3    C310942   0.773   0.843  11.293 -0.2097  0.0781 -0.1350
  737TMC3    C410943   0.852   0.621  11.430  0.0284  0.2674  0.3803
  737TMC3    C510944   0.879   0.635  11.303  0.1533  0.7379  0.1207
  737TMC3    C610945   0.857   0.752  11.232 -0.1863 -1.0042 -0.3231
  737TMC3     C10946   0.737   0.692  11.620  0.4214  0.5567  0.2179
  737TMC3     O10947   0.643   0.751  11.671  0.4481  0.4584  0.9557
  737TMC3     H10948   0.633   0.869  11.459 -0.0658 -0.6832 -0.3843
  737TMC3    H110949   0.882   0.530  11.480 -2.1886 -0.1427  0.9442
  737TMC3    H210950   0.888   0.749  11.128  1.1840  0.0469  0.0553
  737TMC3    C710951   0.943   0.525  11.239  0.0287  0.7305 -0.2644
  737TMC3    C810952   0.695   0.926  11.206  0.4080 -0.0147  0.6689
  737TMC3    O110953   0.936   0.413  11.288 -0.1693  0.0141 -0.3395
  737TMC3    O210954   0.575   0.935  11.223  0.4862 -0.3170 -0.7263
  738MPD2     C10955   0.931   0.084  15.367  0.2608  0.1515  0.2763
  738MPD2    C110956   0.936   0.039  15.232  0.1075  0.8430  0.4599
  738MPD2    C210957   1.040   0.086  15.159 -0.7248  0.0597 -0.1875
  738MPD2    C310958   1.148   0.154  15.207  0.4327  0.2544  0.0480
  738MPD2    C410959   1.137   0.193  15.341  0.0150 -0.1336  0.1089
  738MPD2    C510960   1.034   0.152  15.424  0.2468  0.3350 -0.7365
  738MPD2     H10961   1.050   0.048  15.058 -2.2239  0.0320 -0.3171
  738MPD2    H110962   1.210   0.264  15.380  0.0597  0.1048 -0.4106
  738MPD2    H210963   0.850   0.053  15.432  0.6332  1.4540  1.3459
  738MPD2    H310964   1.030   0.194  15.524  0.2460  0.5765 -0.8380
  738MPD2     N10965   1.259   0.193  15.131  0.0188 -1.1427 -0.5787
  738MPD2    H510966   1.327   0.256  15.172  0.4220 -2.0997  0.2212
  738MPD2    N110967   0.851   4.688  15.161 -0.4571  0.0349  0.2469
  738MPD2    H710968   0.861   4.674  15.061  1.0798 -0.5955  0.4841
  739TMC3    C110969   1.398   0.229  14.938  0.7023  0.8336 -0.6768
  739TMC3    C210970   1.415   0.229  14.804  0.0772 -0.0901  0.4016
  739TMC3    C310971   1.536   0.261  14.751  0.3221  0.1537 -0.3081
  739TMC3    C410972   1.505   0.217  15.021 -1.0888 -0.2899 -0.6646
  739TMC3    C510973   1.630   0.230  14.966 -0.0802  0.1705  0.1928
  739TMC3    C610974   1.650   0.247  14.825 -0.5207  0.6193 -0.2109
  739TMC3     C10975   1.270   0.188  14.994  0.7915 -0.1967 -0.3700
  739TMC3     O10976   1.184   0.149  14.912 -0.0851  0.7453  0.1116
  739TMC3     H10977   1.328   0.237  14.739  2.0938 -0.0374 -2.3254
  739TMC3    H110978   1.488   0.190  15.125  0.7100 -0.3626 -0.3844
  739TMC3    H210979   1.749   0.267  14.785  0.0824 -2.5559 -0.3143
  739TMC3    C710980   1.738   0.240  15.061 -0.4587  0.0378 -0.0470
  739TMC3    C810981   1.537   0.319  14.610 -0.1783  0.5218 -0.5865
  739TMC3    O110982   1.712   0.193  15.170 -0.6008 -0.6219 -0.4251
  739TMC3    O210983   1.428   0.339  14.561  0.4550 -0.0983  0.8759
  740TMC3    C110984   1.769   1.727  14.141  0.0337 -0.3656 -0.3030
  740TMC3    C210985   1.900   1.729  14.175 -0.3214 -0.1608 -0.0903
  740TMC3    C310986   1.986   1.702  14.074  0.0689 -0.0076  0.0513
  740TMC3    C410987   1.724   1.697  14.015  0.0775  0.5920  0.6158
  740TMC3    C510988   1.816   1.667  13.919  0.4677 -0.5428 -0.2846
  740TMC3    C610989   1.954   1.679  13.942  0.1261  0.1587 -0.6531
  740TMC3     C10990   1.665   1.782  14.224  0.3105  0.1265 -0.3626
  740TMC3     O10991   1.592   1.866  14.175 -0.0241 -0.0473  0.0420
  740TMC3     H10992   1.935   1.745  14.277 -0.0291 -0.4398 -0.1428
  740TMC3    H110993   1.617   1.697  13.999 -0.1916 -2.0507  2.3477
  740TMC3    H210994   2.021   1.676  13.857  0.0372  1.4889 -0.7784
  740TMC3    C710995   1.770   1.597  13.799 -0.1482  0.0663  0.3270
  740TMC3    C810996   2.127   1.732  14.113  0.2693 -0.1893  0.0438
  740TMC3    O110997   1.662   1.539  13.809 -0.1587 -0.2068  0.1588
  740TMC3    O210998   2.145   1.802  14.210 -1.0240  0.4588 -0.4465
  741TMC3    C110999   1.564   0.801  14.217 -0.4863 -0.1444  0.8414
  741TMC3    C211000   1.454   0.727  14.210  0.9211  0.6693  0.0794
  741TMC3    C311001   1.412   0.660  14.321 -0.4755  0.6094 -0.1275
  741TMC3    C411002   1.645   0.796  14.327  0.0012 -0.0027 -0.3714
  741TMC3    C511003   1.592   0.728  14.434 -0.0647  0.0315 -0.4941
  741TMC3    C611004   1.471   0.679  14.438 -0.5406  0.0391 -1.1816
  741TMC3     C11005   1.601   0.886  14.105 -0.1298  0.3162 -0.3676
  741TMC3     O11006   1.721   0.899  14.079  0.8862 -0.1968  0.7607
  741TMC3     H11007   1.393   0.714  14.122 -0.3970 -0.0926  1.1028
  741TMC3    H111008   1.726   0.866  14.343 -0.0930 -0.0531  0.3273
  741TMC3    H211009   1.436   0.636  14.531 -0.5869 -0.6470 -1.5199
  741TMC3    C711010   1.672   0.728  14.563 -0.5859  0.1939 -0.3910
  741TMC3    C811011   1.277   0.621  14.321  0.9456  0.1973  0.2157
  741TMC3    O111012   1.615   0.716  14.675  0.0412  0.1005  0.1123
  741TMC3    O211013   1.202   0.675  14.247  0.5629 -1.0458  0.5073
  742TMC3    C111014   1.120   3.881  15.457  0.4684  0.6537  0.0991
  742TMC3    C211015   1.068   3.872  15.333  0.2177 -0.3073  0.6552
  742TMC3    C311016   1.126   3.777  15.254 -0.1355 -0.4565 -0.1748
  742TMC3    C411017   1.214   3.797  15.510  0.5439  0.5807 -0.3218
  742TMC3    C511018   1.257   3.692  15.436  0.2606 -0.3658  0.3155
  742TMC3    C611019   1.223   3.692  15.302  0.4822 -0.1327  0.3197
  742TMC3     C11020   1.094   3.990  15.546  0.3030 -0.2046  0.7594
  742TMC3     O11021   1.087   3.967  15.667  0.3112  0.0460 -0.1365
  742TMC3     H11022   1.016   3.953  15.285 -0.1211  0.3542  2.1441
  742TMC3    H111023   1.256   3.830  15.604 -0.0935 -3.2294  1.2973
  742TMC3    H211024   1.271   3.619  15.238 -0.1046  1.2965 -1.7464
  742TMC3    C711025   1.378   3.631  15.480  0.2207  0.4889  0.7365
  742TMC3    C811026   1.113   3.789  15.110  0.5765 -0.1457  0.6146
  742TMC3    O111027   1.444   3.571  15.397  0.2465 -0.4641  0.1796
  742TMC3    O211028   1.200   3.737  15.033 -0.5916 -0.1440  0.5607
  743MPD2     C11029   4.709   0.217   1.334 -0.3691  0.1674  0.7152
  743MPD2    C111030   4.608   0.192   1.239 -0.2500 -0.3135 -0.2919
  743MPD2    C211031   4.648   0.203   1.105 -0.4831 -0.1425 -0.2297
  743MPD2    C311032   0.042   0.225   1.067 -0.2826  1.2076  0.3517
  743MPD2    C411033   0.133   0.255   1.160 -0.5956  0.5160  0.7729
  743MPD2    C511034   0.097   0.251   1.293  0.5955  0.5171 -0.0588
  743MPD2     H11035   4.569   0.206   1.032 -0.9040  0.0221  0.2338
  743MPD2    H111036   0.232   0.294   1.139 -0.7963  1.1065  0.9245
  743MPD2    H211037   4.683   0.219   1.439 -0.5759  1.4002  0.6471
  743MPD2    H311038   0.175   0.282   1.362  0.6715 -2.1610  1.0670
  743MPD2     N11039   0.066   0.218   0.929 -0.1419 -0.2857  0.5289
  743MPD2    H511040   4.722   0.222   0.867 -0.0535 -1.0022  0.3686
  743MPD2    N111041   4.477   0.163   1.285 -0.5161  0.0601 -0.5070
  743MPD2    H711042   4.452   0.168   1.383  1.5729 -1.9652  0.1298
  744TMC3    C111043   4.241   0.109   1.265  0.9081  0.2930  0.1093
  744TMC3    C211044   4.198   0.196   1.362 -0.0647  0.4571 -0.1312
  744TMC3    C311045   4.069   0.245   1.348 -0.0250 -0.0969  0.6505
  744TMC3    C411046   4.156   0.063   1.175 -0.1999  0.5380  0.5329
  744TMC3    C511047   4.033   0.114   1.156 -0.2893 -0.0497  0.6183
  744TMC3    C611048   3.991   0.209   1.241  0.6734  0.0828  0.0470
  744TMC3     C11049   4.374   0.124   1.200  0.2234  0.4367 -0.5549
  744TMC3     O11050   4.378   0.092   1.085 -0.0149 -0.2396 -0.0356
  744TMC3     H11051   4.253   0.238   1.446  1.7875 -0.0655 -1.0852
  744TMC3    H111052   4.180   4.718   1.108  0.6381  0.1285  1.3329
  744TMC3    H211053   3.895   0.256   1.225  0.0772 -0.6250  1.6054
  744TMC3    C711054   3.962   0.092   1.030 -0.6386  1.2613  0.0459
  744TMC3    C811055   4.039   0.353   1.439  0.1958 -0.2950  0.7494
  744TMC3    O111056   3.916   0.199   0.987  0.5332 -0.2619  0.5527
  744TMC3    O211057   4.105   0.360   1.542  0.4005 -0.2826  0.3472
  745TMC3    C111058   2.241   4.107  12.900  0.0474 -0.1336 -0.1087
  745TMC3    C211059   2.148   4.002  12.905  0.3141 -0.0123 -0.0912
  745TMC3    C311060   2.103   3.960  12.781  0.4023 -0.6739 -0.4080
  745TMC3    C411061   2.287   4.157  12.775  0.1897 -0.8483 -0.0336
  745TMC3    C511062   2.220   4.117  12.660  0.2404 -0.3666  1.2525
  745TMC3    C611063   2.123   4.021  12.660 -0.1981  0.5722  0.2653
  745TMC3     C11064   2.309   4.143  13.022 -0.7214  0.1509  0.1488
  745TMC3     O11065   2.419   4.188  13.000  0.2117  0.1603 -0.6659
  745TMC3     H11066   2.110   3.963  12.998  1.2295 -0.2433  0.1811
  745TMC3    H111067   2.352   4.244  12.777 -1.2530  0.2749 -2.2231
  745TMC3    H211068   2.054   4.009  12.577  0.2631 -0.4839  0.0235
  745TMC3    C711069   2.247   4.181  12.534 -0.2387  0.0011  0.2881
  745TMC3    C811070   1.996   3.859  12.776  0.5443 -0.2988 -0.7735
  745TMC3    O111071   2.163   4.174  12.445 -0.3593  0.5610  0.1234
  745TMC3    O211072   1.918   3.857  12.680 -0.4597 -0.3723 -0.8088
  746TMC3    C111073   4.073   1.075  11.010  0.7256  0.2439 -0.4655
  746TMC3    C211074   4.140   1.046  10.893  0.5896 -0.6749 -0.0861
  746TMC3    C311075   4.071   0.963  10.798  0.3390  0.2194  0.1983
  746TMC3    C411076   3.945   1.024  11.038 -0.1192 -0.1430 -0.4733
  746TMC3    C511077   3.889   0.942  10.945  0.3856 -0.0352  0.0079
  746TMC3    C611078   3.949   0.904  10.827 -0.3410 -0.2285  0.7555
  746TMC3     C11079   4.103   1.197  11.080 -0.1996 -0.3564  0.5972
  746TMC3     O11080   4.010   1.253  11.138  0.2777  0.3325  0.4753
  746TMC3     H11081   4.233   1.091  10.862  0.0286  0.0374 -0.7201
  746TMC3    H111082   3.904   1.032  11.138  1.4714 -1.8145  0.3194
  746TMC3    H211083   3.904   0.847  10.747  0.2739  1.7786 -1.0034
  746TMC3    C711084   3.744   0.935  10.938  0.2336  0.0390  0.6881
  746TMC3    C811085   4.107   0.974  10.655 -0.3216 -0.5673 -0.8721
  746TMC3    O111086   3.711   0.880  10.831  0.0068 -0.5914  0.2057
  746TMC3    O211087   4.010   0.976  10.582  0.1917 -0.1766  0.0791
  747TMC3    C111088   1.693   0.629  10.532  0.8019  0.6521 -0.9004
  747TMC3    C211089   1.619   0.537  10.601 -0.4113  1.3159  0.1551
  747TMC3    C311090   1.599   0.562  10.732  0.4755  0.4500 -0.3207
  747TMC3    C411091   1.741   0.741  10.586 -0.0566  0.4590 -0.4773
  747TMC3    C511092   1.736   0.755  10.723  0.5814  0.2996  0.6419
  747TMC3    C611093   1.666   0.663  10.796 -0.7637  0.1810 -0.0033
  747TMC3     C11094   1.694   0.611  10.385  0.2092  0.7440 -0.3470
  747TMC3     O11095   1.687   0.718  10.323 -0.0304 -0.5344  0.0553
  747TMC3     H11096   1.557   0.463  10.552  1.4008 -0.3697  0.3849
  747TMC3    H111097   1.787   0.812  10.518  2.0338  2.1884  2.7342
  747TMC3    H211098   1.667   0.675  10.904  1.9642 -1.1825  0.1232
  747TMC3    C711099   1.779   0.874  10.780 -0.7779  0.3107  0.5034
  747TMC3    C811100   1.519   0.471  10.807  0.9477 -0.0588  0.3344
  747TMC3    O111101   1.803   0.866  10.903 -0.0225 -0.1612  0.4444
  747TMC3    O211102   1.524   0.355  10.775  0.5935  0.6136  0.0609
  748MPD2     C11103   3.618   1.557   0.636  0.4405 -0.5022 -0.5764
  748MPD2    C111104   3.610   1.569   0.776 -0.7064  0.9025  0.0835
  748MPD2    C211105   3.727   1.611   0.838 -0.0186 -0.4866 -0.1583
  748MPD2    C311106   3.843   1.645   0.769  0.3772 -0.9595  0.3003
  748MPD2    C411107   3.844   1.634   0.631 -0.8895 -0.1499  0.4433
  748MPD2    C511108   3.732   1.587   0.562 -0.1806 -0.0310 -0.7064
  748MPD2     H11109   3.720   1.625   0.945  0.3555  0.5608 -0.2735
  748MPD2    H111110   3.922   1.678   0.570  0.8381  1.6328  3.9438
  748MPD2    H211111   3.526   1.524   0.589 -0.6874  1.1967  0.4387
  748MPD2    H311112   3.728   1.577   0.454 -3.9663 -0.6343 -0.5135
  748MPD2     N11113   3.945   1.707   0.848  0.5909  0.0822  0.6547
  748MPD2    H511114   3.931   1.692   0.948  0.5071  0.2463  0.6676
  748MPD2    N111115   3.488   1.542   0.837 -0.0239 -0.0693 -0.2002
  748MPD2    H711116   3.404   1.539   0.780 -0.3162  1.2678  0.1716
  749TMC3    C111117   4.146   1.826   0.883 -0.2266  0.2939 -0.1033
  749TMC3    C211118   4.209   1.730   0.964  0.3024  0.0472  0.7064
  749TMC3    C311119   4.326   1.775   1.027  0.1089  0.5313 -0.0013
  749TMC3    C411120   4.200   1.951   0.861 -0.0578  0.0330 -0.6466
  749TMC3    C511121   4.316   1.988   0.915 -0.7191 -0.0113  0.5961
  749TMC3    C611122   4.375   1.903   1.008 -0.0629  0.2146  0.2222
  749TMC3     C11123   4.055   1.773   0.789 -0.3452  0.3602 -0.3601
  749TMC3     O11124   4.079   1.812   0.679 -0.8584 -0.4843 -0.1086
  749TMC3     H11125   4.193   1.623   0.963  0.8526 -0.0288  0.2094
  749TMC3    H111126   4.149   2.009   0.785  3.1282  3.9088  0.1698
  749TMC3    H211127   4.469   1.922   1.059 -0.6542  2.3161  0.5450
  749TMC3    C711128   4.335   2.130   0.933  0.0768 -0.1025 -0.4976
  749TMC3    C811129   4.419   1.674   1.077  0.4141  0.8167  0.0748
  749TMC3    O111130   4.395   2.151   1.038  0.7180 -0.6046 -0.1938
  749TMC3    O211131   4.477   1.704   1.180  0.0327 -0.7795 -0.3095
  750MPD2     C11132   3.660   2.910  11.064 -0.0519 -0.1300  0.4134
  750MPD2    C111133   3.582   2.891  11.177 -0.0948 -0.4010 -0.7189
  750MPD2    C211134   3.573   2.761  11.224 -0.0177 -0.2511  0.6511
  750MPD2    C311135   3.630   2.655  11.153  0.5744  0.2180  0.4308
  750MPD2    C411136   3.707   2.680  11.035 -0.0861  0.0690  0.2287
  750MPD2    C511137   3.720   2.809  11.000  0.3015 -0.2085  0.2586
  750MPD2     H11138   3.503   2.733  11.302  2.9524 -1.8377  2.7559
  750MPD2    H111139   3.770   2.604  10.990  0.5608  0.2773  0.7919
  750MPD2    H211140   3.671   3.007  11.016 -0.1033  0.0952  0.8607
  750MPD2    H311141   3.779   2.832  10.912 -1.1995  2.3126 -0.0955
  750MPD2     N11142   3.621   2.521  11.186 -0.1361 -0.5480  0.0439
  750MPD2    H511143   3.674   2.458  11.126  0.7375  0.0542  0.1953
  750MPD2    N111144   3.523   3.007  11.246  0.4959 -0.1777 -0.1829
  750MPD2    H711145   3.538   3.097  11.202 -0.1316 -0.4707 -1.0002
  751TMC3    C111146   3.543   2.314  11.271  1.2882 -0.0585 -0.0139
  751TMC3    C211147   3.425   2.246  11.303 -0.5969 -0.0188  0.0765
  751TMC3    C311148   3.439   2.115  11.330  0.0451  0.2976 -0.3693
  751TMC3    C411149   3.664   2.255  11.250  0.0888 -0.5560  0.4892
  751TMC3    C511150   3.673   2.121  11.281 -0.1010  0.4121 -0.1261
  751TMC3    C611151   3.564   2.059  11.330 -0.0953  0.2381 -0.0234
  751TMC3     C11152   3.533   2.466  11.268 -0.1814  0.0090  0.0274
  751TMC3     O11153   3.433   2.515  11.321 -0.1900 -0.1609 -0.0076
  751TMC3     H11154   3.335   2.306  11.311 -0.1145  0.6712  0.3509
  751TMC3    H111155   3.760   2.304  11.236 -0.0396 -0.3762  0.2438
  751TMC3    H211156   3.578   1.956  11.362  1.5171  0.3407 -0.4185
  751TMC3    C711157   3.756   2.044  11.190 -0.3426 -0.0786  0.1088
  751TMC3    C811158   3.335   2.032  11.286  0.6541  0.4023  0.7901
  751TMC3    O111159   3.840   2.105  11.127 -0.5242  0.9568 -0.2564
  751TMC3    O211160   3.361   1.913  11.277  0.4988  0.5731  0.2314
  752TMC3    C111161   3.201   2.147  17.025  0.1617  0.4142 -0.7222
  752TMC3    C211162   3.287   2.052  17.062  0.0241  0.5788 -0.2661
  752TMC3    C311163   3.337   2.058  17.188 -0.4051  0.0209  0.4322
  752TMC3    C411164   3.165   2.255  17.106  0.8069 -0.4200  0.7408
  752TMC3    C511165   3.209   2.250  17.237 -0.0407  0.0593  0.0287
  752TMC3    C611166   3.294   2.152  17.278 -0.9131 -0.6430  0.0441
  752TMC3     C11167   3.166   2.149  16.882  0.3218 -0.6778  0.2031
  752TMC3     O11168   3.220   2.066  16.815 -0.0649  0.5366 -0.8703
  752TMC3     H11169   3.313   1.969  16.996 -0.8041  0.1105 -0.0102
  752TMC3    H111170   3.119   2.338  17.055  1.8698 -0.4481 -0.2478
  752TMC3    H211171   3.326   2.168  17.380  1.3766 -0.2979 -0.7414
  752TMC3    C711172   3.159   2.346  17.329  0.9712 -0.1584  0.1693
  752TMC3    C811173   3.391   1.934  17.242 -0.2868 -0.4083 -0.8338
  752TMC3    O111174   3.220   2.370  17.431 -0.4957  0.1401 -0.5961
  752TMC3    O211175   3.331   1.830  17.220  0.5245 -0.0820 -0.1050
  753TMC3    C111176   4.729   3.826  13.063  0.3119 -0.1598  0.2654
  753TMC3    C211177   0.070   3.796  13.174 -0.0493 -0.2652  0.0985
  753TMC3    C311178   0.115   3.666  13.189 -0.0668  0.2080  0.0173
  753TMC3    C411179   4.711   3.727  12.966 -0.3834 -0.3284  0.2864
  753TMC3    C511180   0.021   3.603  12.979  0.4171  0.2360  0.3057
  753TMC3    C611181   0.088   3.566  13.094  0.2335 -0.4397 -0.0097
  753TMC3     C11182   4.711   3.964  13.035  0.0587 -0.7526 -0.4107
  753TMC3     O11183   0.047   4.041  13.092  0.9057  0.0291 -0.1846
  753TMC3     H11184   0.068   3.877  13.246 -0.3690  1.2305 -1.5944
  753TMC3    H111185   4.662   3.752  12.873  0.0582  0.8608  0.3761
  753TMC3    H211186   0.112   3.461  13.106 -0.6158 -0.5456  0.7776
  753TMC3    C711187   4.721   3.498  12.891 -0.1075  0.0189 -0.4392
  753TMC3    C811188   0.195   3.628  13.301 -0.9328  0.1044  0.8859
  753TMC3    O111189   4.617   3.507  12.833 -0.4584 -0.2878  0.5257
  753TMC3    O211190   0.237   3.517  13.300 -0.5620 -0.3164  0.4404
  754MPD2     C11191   2.961   2.582  12.865  0.5074  0.7368 -0.9538
  754MPD2    C111192   2.960   2.459  12.799  0.0688 -0.3743  0.0030
  754MPD2    C211193   2.832   2.406  12.774 -0.3303 -0.8200  0.2373
  754MPD2    C311194   2.715   2.461  12.829  0.1512 -0.0126  0.6186
  754MPD2    C411195   2.725   2.583  12.890 -0.7042 -0.6052 -0.0575
  754MPD2    C511196   2.845   2.643  12.914  0.8548 -0.4563 -0.3438
  754MPD2     H11197   2.825   2.308  12.727  0.4594 -0.2202 -1.1234
  754MPD2    H111198   2.634   2.633  12.922 -0.1275 -0.7999  1.8861
  754MPD2    H211199   3.058   2.627  12.882  1.1430 -0.7401 -0.6438
  754MPD2    H311200   2.855   2.733  12.973 -0.7555 -1.4174  1.3932
  754MPD2     N11201   2.581   2.407  12.809 -0.5036 -0.3322  0.5158
  754MPD2    H511202   2.504   2.470  12.831 -1.0896 -1.1178  0.6963
  754MPD2    N111203   3.082   2.394  12.768 -0.0145 -0.1946  0.0393
  754MPD2    H711204   3.161   2.432  12.818 -1.1038 -0.6222  2.0666
  755MPD2     C11205   3.365   2.128  13.288 -0.4536 -0.0629 -0.5612
  755MPD2    C111206   3.269   2.229  13.267  0.5422  0.6229 -0.0682
  755MPD2    C211207   3.157   2.216  13.184 -0.1665  0.8668 -1.6041
  755MPD2    C311208   3.139   2.088  13.128  0.0982 -0.1792  0.1652
  755MPD2    C411209   3.226   1.985  13.156  0.2829 -0.9823 -0.5578
  755MPD2    C511210   3.336   2.005  13.238 -0.2524 -0.4498 -0.1688
  755MPD2     H11211   3.095   2.302  13.164 -1.1255  0.4078 -0.6157
  755MPD2    H111212   3.207   1.882  13.126  0.8718 -0.7230 -1.8435
  755MPD2    H211213   3.455   2.142  13.346  0.0770 -0.4140 -1.2937
  755MPD2    H311214   3.412   1.931  13.256 -1.6866 -1.6844  0.7985
  755MPD2     N11215   3.028   2.055  13.044 -0.0062 -0.4887  0.7476
  755MPD2    H511216   3.036   1.964  12.999  0.7745  0.7411 -1.5879
  755MPD2    N111217   3.291   2.360  13.317  0.1323  0.2505  0.1072
  755MPD2    H711218   3.232   2.434  13.282 -1.5211 -1.6085 -1.0041
  756MPD2     C11219   4.070   4.065   9.808 -0.4950 -0.4191 -0.3610
  756MPD2    C111220   4.050   3.948   9.740 -0.1631 -0.4859 -0.2535
  756MPD2    C211221   3.976   3.948   9.630 -0.5141 -0.6532 -0.3706
  756MPD2    C311222   3.947   4.066   9.560 -0.6572 -0.5218  0.7156
  756MPD2    C411223   3.970   4.183   9.622  0.1434 -0.7943  1.0187
  756MPD2    C511224   4.029   4.179   9.747 -0.1590  0.0575 -0.6544
  756MPD2     H11225   3.963   3.849   9.589  0.5207 -0.0101 -2.3007
  756MPD2    H111226   3.946   4.280   9.580 -0.8787 -0.3331  2.6666
  756MPD2    H211227   4.126   4.083   9.899 -0.8256  0.0555 -0.2511
  756MPD2    H311228   4.031   4.270   9.806  2.1112 -0.3539 -0.1198
  756MPD2     N11229   3.873   4.051   9.445  0.6197  0.2731 -0.2510
  756MPD2    H511230   3.854   3.954   9.422  2.6762  0.4538 -2.7346
  756MPD2    N111231   4.075   3.822   9.801  0.6424 -0.7244  0.1852
  756MPD2    H711232   4.017   3.746   9.766  1.4884 -1.1415 -0.3114
  757MPD2     C11233   3.212   3.494   9.370 -0.2825 -0.0342  0.9887
  757MPD2    C111234   3.342   3.458   9.364  0.0938  0.6746  0.1811
  757MPD2    C211235   3.434   3.548   9.323 -0.2677  0.4196 -0.2087
  757MPD2    C311236   3.393   3.678   9.289 -0.3826  0.5617  0.4503
  757MPD2    C411237   3.264   3.710   9.295  0.6631  0.0557  0.0509
  757MPD2    C511238   3.171   3.616   9.326  0.6231  0.5241  0.1791
  757MPD2     H11239   3.538   3.521   9.308  0.2164  1.2261  1.6484
  757MPD2    H111240   3.221   3.808   9.279  2.3794  0.9274  0.7955
  757MPD2    H211241   3.136   3.427   9.408 -0.1033  0.1066  1.5870
  757MPD2    H311242   3.067   3.645   9.322 -0.3086 -2.6500  1.4896
  757MPD2     N11243   3.486   3.778   9.241  0.1435  0.0691 -0.3605
  757MPD2    H511244   3.586   3.760   9.238  0.1382 -0.1323  0.6448
  757MPD2    N111245   3.370   3.318   9.396  0.1584  0.3463 -0.0622
  757MPD2    H711246   3.294   3.254   9.419 -0.3120  0.4762 -1.2896
  758MPD2     C11247   3.748   1.904  15.969 -0.1783 -0.7450  0.4083
  758MPD2    C111248   3.831   1.956  16.069  0.4757 -0.0187  0.6850
  758MPD2    C211249   3.795   2.068  16.138  0.2574  0.0942 -0.0398
  758MPD2    C311250   3.675   2.128  16.108 -0.3998 -0.4305  0.4413
  758MPD2    C411251   3.587   2.077  16.016  0.3144  0.1690  0.1579
  758MPD2    C511252   3.629   1.965  15.945 -0.0262 -0.3659 -0.3313
  758MPD2     H11253   3.868   2.110  16.206 -1.1331  1.1085  0.8298
  758MPD2    H111254   3.491   2.122  15.995  0.0664 -0.1409  0.6247
  758MPD2    H211255   3.769   1.817  15.908  2.3900 -1.1312  1.8284
  758MPD2    H311256   3.561   1.914  15.877 -0.0963  0.3190 -0.7779
  758MPD2     N11257   3.626   2.245  16.175 -0.2290  0.5967 -0.4228
  758MPD2    H511258   3.526   2.236  16.190  0.0537 -0.5860  0.7862
  758MPD2    N111259   3.953   1.885  16.089  0.6607 -0.1619 -0.1165
  758MPD2    H711260   3.976   1.809  16.026  2.7353 -0.4006  0.9250
  759MPD2     C11261   1.884   1.441   9.564  0.0344 -0.1064 -0.3428
  759MPD2    C111262   2.015   1.412   9.605  0.6410 -0.2071  1.0649
  759MPD2    C211263   2.119   1.417   9.511 -0.6781  0.9915 -1.0618
  759MPD2    C311264   2.096   1.455   9.386  0.4484 -0.1704  0.3548
  759MPD2    C411265   1.963   1.483   9.343 -0.5167  0.4939 -0.4793
  759MPD2    C511266   1.858   1.469   9.434  0.2019 -0.3052  0.8453
  759MPD2     H11267   2.218   1.401   9.553 -1.3903 -1.6901 -0.4121
  759MPD2    H111268   1.935   1.498   9.239  0.5980 -1.7452 -1.1139
  759MPD2    H211269   1.798   1.439   9.631  0.1564  0.4036 -0.1705
  759MPD2    H311270   1.759   1.485   9.393  1.2940  2.6033 -0.7007
  759MPD2     N11271   2.210   1.466   9.311 -0.0062  0.4157  0.5835
  759MPD2    H511272   2.298   1.435   9.351 -0.6256  0.4735  2.0116
  759MPD2    N111273   2.049   1.364   9.736  0.4774  0.0552  0.2328
  759MPD2    H711274   2.146   1.356   9.765  1.0080 -0.1264 -1.5879
  760MPD2     C11275   1.899   2.728  12.022 -0.3028  0.2984  0.4556
  760MPD2    C111276   1.976   2.755  11.906  0.3071  0.3352 -0.0342
  760MPD2    C211277   2.039   2.648  11.843 -0.5819 -0.1836  0.3377
  760MPD2    C311278   2.008   2.517  11.872  0.4747  0.4738 -0.3359
  760MPD2    C411279   1.919   2.501  11.980 -0.4184  0.4260 -0.2884
  760MPD2    C511280   1.864   2.600  12.059  0.7922  0.1909  0.3952
  760MPD2     H11281   2.115   2.653  11.766 -1.4191 -1.3805 -0.5825
  760MPD2    H111282   1.893   2.400  12.007 -1.9279  0.0597 -3.0988
  760MPD2    H211283   1.865   2.813  12.081  0.7180  1.0976 -0.1097
  760MPD2    H311284   1.802   2.572  12.143  1.9422 -1.2071  0.7711
  760MPD2     N11285   2.042   2.405  11.798  0.1105  0.1851 -0.7704
  760MPD2    H511286   1.997   2.317  11.823 -0.9667  0.1538 -2.8218
  760MPD2    N111287   1.999   2.892  11.859 -0.3089 -0.3397  0.2025
  760MPD2    H711288   1.969   2.971  11.915 -1.1744  0.1539 -0.9482
  761MPD2     C11289   2.855   1.933  11.142 -0.0748  0.5363  0.1891
  761MPD2    C111290   2.976   1.874  11.102 -0.2108 -0.3049 -0.1086
  761MPD2    C211291   3.093   1.930  11.158 -0.3347  0.0539  0.0311
  761MPD2    C311292   3.090   2.026  11.252  0.5672  1.1829  0.1237
  761MPD2    C411293   2.968   2.085  11.290  0.5758 -0.8017 -0.3169
  761MPD2    C511294   2.854   2.037  11.231 -0.0329 -0.7342 -0.5350
  761MPD2     H11295   3.186   1.882  11.132  0.1728  0.4720  1.0467
  761MPD2    H111296   2.960   2.170  11.356 -1.6278 -0.7895 -0.6044
  761MPD2    H211297   2.758   1.914  11.098 -0.4670 -2.3939  2.3726
  761MPD2    H311298   2.758   2.078  11.260 -0.2623  0.3134 -2.8250
  761MPD2     N11299   3.208   2.088  11.291 -0.1385 -0.4317  0.6488
  761MPD2    H511300   3.189   2.173  11.343 -0.2515 -0.7770  1.1704
  761MPD2    N111301   2.976   1.759  11.018  0.4671 -0.1636  0.4261
  761MPD2    H711302   2.887   1.714  10.999  0.9532 -1.0190  0.1788
  762MPD2     C11303   3.645   1.296  10.881 -0.6523 -0.1520  0.1110
  762MPD2    C111304   3.561   1.330  10.783 -0.0919 -0.5664  0.4308
  762MPD2    C211305   3.605   1.365  10.648  0.4431 -0.0054 -0.1604
  762MPD2    C311306   3.743   1.380  10.626 -0.3509 -0.7472 -0.3339
  762MPD2    C411307   3.830   1.359  10.736 -0.1689  0.3542 -0.3139
  762MPD2    C511308   3.782   1.312  10.862  0.3299  0.2817 -0.5838
  762MPD2     H11309   3.531   1.373  10.570 -0.9104 -1.1597  1.0150
  762MPD2    H111310   3.937   1.375  10.729 -0.0704  0.6600  2.0219
  762MPD2    H211311   3.615   1.280  10.984 -2.0331 -2.6151 -0.6670
  762MPD2    H311312   3.856   1.301  10.941 -0.0984  2.7064  0.1478
  762MPD2     N11313   3.789   1.423  10.503 -0.4598  0.5493  0.1958
  762MPD2    H511314   3.726   1.408  10.426 -1.9108  2.8519  0.9282
  762MPD2    N111315   3.425   1.327  10.820 -0.1195  0.3806  0.2985
  762MPD2    H711316   3.394   1.305  10.914 -1.6440  2.4485  0.2793
  763MPD2     C11317   1.230   1.892  15.964 -0.5576  0.3546  0.2880
  763MPD2    C111318   1.127   1.984  15.935 -0.0723  0.2415  0.0801
  763MPD2    C211319   1.147   2.112  15.968 -0.1756 -0.0997  0.4527
  763MPD2    C311320   1.267   2.161  16.026 -0.3736  0.4055 -0.0133
  763MPD2    C411321   1.373   2.073  16.044  0.5548 -0.6202 -0.1053
  763MPD2    C511322   1.348   1.939  16.018 -0.1044 -0.5690 -0.1805
  763MPD2     H11323   1.075   2.183  15.927 -1.1367 -0.0451  2.2372
  763MPD2    H111324   1.467   2.118  16.076 -0.7255  1.9002  0.0940
  763MPD2    H211325   1.235   1.786  15.943 -1.9180  0.5303 -0.9312
  763MPD2    H311326   1.429   1.868  16.017  0.2238 -0.1764 -1.1702
  763MPD2     N11327   1.294   2.298  16.026 -0.6342 -0.3120 -0.0510
  763MPD2    H511328   1.389   2.330  16.012 -0.5795  0.0502  1.1391
  763MPD2    N111329   1.008   1.953  15.864 -0.2873 -0.8275  0.2096
  763MPD2    H711330   0.941   2.029  15.853 -0.5133 -1.0563 -0.0141
  764MPD2     C11331   3.815   3.264  17.504 -0.3660 -0.5458 -0.3705
  764MPD2    C111332   3.703   3.333  17.546  0.3726  0.7368 -0.6255
  764MPD2    C211333   3.704   3.384  17.671 -0.0301 -0.3871  0.0661
  764MPD2    C311334   3.806   3.361   0.016  0.1834 -0.6098  0.4882
  764MPD2    C411335   3.914   3.283  17.721 -0.2956  0.0086 -0.1092
  764MPD2    C511336   3.923   3.238  17.588  0.1059 -0.2361 -0.3100
  764MPD2     H11337   3.619   3.444  17.699  0.4570  0.4072 -0.1331
  764MPD2    H111338   3.997   3.264   0.043 -1.7076 -2.6793  0.8512
  764MPD2    H211339   3.812   3.207  17.412 -0.9589 -0.9262 -0.1198
  764MPD2    H311340   4.002   3.170  17.558  1.6380  1.2956  0.2858
  764MPD2     N11341   3.784   3.414   0.142 -0.7523 -0.0069 -0.0539
  764MPD2    H511342   3.707   3.479   0.156  0.0827  1.2898 -1.5788
  764MPD2    N111343   3.584   3.346  17.466 -0.3953  0.4511 -0.4001
  764MPD2    H711344   3.507   3.394  17.512  1.6812  0.5161  2.9976
  765MPD2     C11345   3.416   1.647  15.716  0.4483  0.2541 -0.2534
  765MPD2    C111346   3.498   1.743  15.650 -0.0924 -0.3432 -0.0181
  765MPD2    C211347   3.606   1.695  15.578  0.4873 -0.1138 -0.4084
  765MPD2    C311348   3.628   1.562  15.563  0.0576 -0.4036  0.1623
  765MPD2    C411349   3.543   1.473  15.631 -0.0109  0.1338 -0.6000
  765MPD2    C511350   3.440   1.514  15.712 -0.2079  0.1714  0.7056
  765MPD2     H11351   3.667   1.762  15.519  1.0917 -1.3674 -1.1722
  765MPD2    H111352   3.552   1.366  15.617 -0.6675  0.0332 -0.2423
  765MPD2    H211353   3.320   1.667  15.762  1.3283 -0.0552  1.7216
  765MPD2    H311354   3.375   1.449  15.769 -0.1191  1.1349  1.9092
  765MPD2     N11355   3.736   1.513  15.485 -0.2742 -0.6797  0.6470
  765MPD2    H511356   3.803   1.584  15.459 -1.4365  0.2829  0.2835
  765MPD2    N111357   3.460   1.880  15.663  0.2937  0.2592  0.2173
  765MPD2    H711358   3.385   1.905  15.727  0.1471  1.7095 -0.5179
  766MPD2     C11359   3.001   2.080  15.155 -0.0063 -0.2843 -0.3436
  766MPD2    C111360   3.126   2.026  15.188  0.3018  0.3759 -0.2258
  766MPD2    C211361   3.188   1.938  15.100  0.3289 -0.1889  0.5939
  766MPD2    C311362   3.123   1.914  14.979 -0.0949  0.0548  0.2612
  766MPD2    C411363   3.007   1.978  14.941 -0.0441 -0.7527 -0.6989
  766MPD2    C511364   2.948   2.054  15.036 -0.1855  0.7968  0.2881
  766MPD2     H11365   3.280   1.884  15.121  0.9506  0.2653 -0.9593
  766MPD2    H111366   2.957   1.955  14.847  1.4462  1.3156 -2.0030
  766MPD2    H211367   2.952   2.158  15.212  2.6161 -0.2210  1.8590
  766MPD2    H311368   2.854   2.105  15.018 -0.3219 -0.0952 -1.5182
  766MPD2     N11369   3.182   1.843  14.873  0.7178 -0.0824 -0.3077
  766MPD2    H511370   3.138   1.850  14.782  0.9362 -1.2231 -0.5023
  766MPD2    N111371   3.192   2.057  15.304 -0.6761  0.3795  0.6257
  766MPD2    H711372   3.272   1.995  15.317 -1.2293 -0.7587 -1.3437
  767MPD2     C11373   2.928   2.291  14.550 -0.0359  0.4029 -0.6327
  767MPD2    C111374   3.033   2.204  14.562  0.1385  0.5011  0.2106
  767MPD2    C211375   3.028   2.100  14.483 -0.2966  0.2220 -0.4718
  767MPD2    C311376   2.922   2.073  14.400 -0.5533 -0.9430 -0.5145
  767MPD2    C411377   2.810   2.164  14.399  0.0725  0.1309 -0.4249
  767MPD2    C511378   2.817   2.277  14.475 -0.0889  0.2941 -0.5480
  767MPD2     H11379   3.115   2.035  14.480  1.3230  2.3577 -0.1737
  767MPD2    H111380   2.717   2.143  14.347 -0.5176  2.8111 -0.4371
  767MPD2    H211381   2.928   2.381  14.610 -1.0447 -0.4525  0.6613
  767MPD2    H311382   2.729   2.339  14.483 -0.6877 -0.6979  0.4178
  767MPD2     N11383   2.930   1.958  14.321  0.3199  0.9323  0.4747
  767MPD2    H511384   3.009   1.897  14.339  0.1596  0.9416  1.2271
  767MPD2    N111385   3.134   2.231  14.658 -0.4606  0.3120 -0.9055
  767MPD2    H711386   3.106   2.300  14.727  2.5412 -0.7485  1.3861
  768MPD2     C11387   3.368   0.370  10.404 -0.3876 -0.2850 -0.3263
  768MPD2    C111388   3.423   0.497  10.440 -0.6556  0.5969  0.1956
  768MPD2    C211389   3.557   0.501  10.482  0.3008 -0.1417 -0.2002
  768MPD2    C311390   3.625   0.382  10.496  0.2382 -0.9595  0.4450
  768MPD2    C411391   3.574   0.266  10.451  0.5475 -0.0632  0.0206
  768MPD2    C511392   3.447   0.259  10.398 -0.3116  0.5132  0.0242
  768MPD2     H11393   3.585   0.595  10.529  1.0542 -1.3909  1.8519
  768MPD2    H111394   3.616   0.166  10.462  1.1054  0.2648  0.9643
  768MPD2    H211395   3.260   0.355  10.396 -0.3456 -0.4918 -0.5140
  768MPD2    H311396   3.403   0.164  10.367 -0.3205  0.1875  1.0438
  768MPD2     N11397   3.755   0.378  10.558 -0.2797 -0.4055 -0.1869
  768MPD2    H511398   3.792   0.287  10.581 -1.7426 -0.3978  2.1691
  768MPD2    N111399   3.347   0.614  10.458  0.3123 -0.2649 -0.4906
  768MPD2    H711400   3.383   0.700  10.498  1.0722 -1.1443  0.7164
  769MPD2     C11401   4.491   3.421  14.834 -0.2102  0.8595 -0.1556
  769MPD2    C111402   4.459   3.302  14.897  0.3209 -0.0802  0.2735
  769MPD2    C211403   4.446   3.297  15.038  1.1912 -0.1104  0.0855
  769MPD2    C311404   4.445   3.413  15.107  0.1755  0.7258  0.5096
  769MPD2    C411405   4.485   3.530  15.046 -0.1010 -1.0470 -0.0343
  769MPD2    C511406   4.508   3.531  14.911  0.3829 -0.7087  0.5772
  769MPD2     H11407   4.407   3.206  15.083 -0.5834 -0.7274 -2.6652
  769MPD2    H111408   4.495   3.627  15.093  0.8630 -1.1727  0.0274
  769MPD2    H211409   4.492   3.429  14.726  0.2981 -1.1756 -0.2968
  769MPD2    H311410   4.534   3.626  14.865  0.2440 -1.8198 -1.7353
  769MPD2     N11411   4.416   3.409  15.248  0.2631  0.3472  0.2419
  769MPD2    H511412   4.378   3.323  15.285  1.7301 -0.3308  0.1808
  769MPD2    N111413   4.429   3.193  14.816 -1.0333  0.4175  0.3153
  769MPD2    H711414   4.430   3.212  14.716  0.0271 -1.6908 -0.0694
  770MPD2     C11415   4.438   2.198  14.632  0.0622  0.2021  0.1650
  770MPD2    C111416   4.472   2.265  14.746 -0.6296  0.0266  0.5385
  770MPD2    C211417   4.475   2.399  14.756  0.4504 -0.8018  0.9132
  770MPD2    C311418   4.452   2.478  14.646  0.0612  0.0590 -0.0751
  770MPD2    C411419   4.414   2.414  14.533  0.7066 -0.1568  0.4441
  770MPD2    C511420   4.406   2.276  14.520 -0.2616 -0.3180  0.1283
  770MPD2     H11421   4.489   2.446  14.853 -1.5603 -1.0777  1.3431
  770MPD2    H111422   4.394   2.470  14.442  0.4133 -0.6514  0.2052
  770MPD2    H211423   4.434   2.091  14.618 -0.5354  0.1525  0.7580
  770MPD2    H311424   4.376   2.229  14.427  1.2801  2.6036 -1.8767
  770MPD2     N11425   4.444   2.620  14.652 -0.1196 -0.3207 -0.2960
  770MPD2    H511426   4.468   2.656  14.744 -1.6372 -0.5284  0.1837
  770MPD2    N111427   4.499   2.170  14.845 -0.5198  1.0767  0.5490
  770MPD2    H711428   4.477   2.074  14.823  0.7898  1.0987 -0.8382
  771MPD2     C11429   0.918   1.355  14.109  0.5226  0.6888 -0.9263
  771MPD2    C111430   0.903   1.382  13.976  0.3740 -0.4520 -0.3668
  771MPD2    C211431   0.926   1.289  13.879  0.2307  0.4323 -0.7822
  771MPD2    C311432   0.978   1.161  13.921  0.8508 -0.9773  0.1614
  771MPD2    C411433   0.979   1.127  14.058 -0.4032  0.0420  0.4879
  771MPD2    C511434   0.952   1.226  14.147  0.4694  1.2488 -0.0067
  771MPD2     H11435   0.919   1.315  13.774 -0.1405  1.3019 -0.5371
  771MPD2    H111436   1.006   1.030  14.097 -0.3780 -1.1185 -2.4129
  771MPD2    H211437   0.901   1.424  14.191  1.2725 -0.4249  0.1627
  771MPD2    H311438   0.953   1.192  14.250  1.7863 -0.4484 -0.5685
  771MPD2     N11439   0.984   1.070  13.812 -0.0502 -0.0923  0.0026
  771MPD2    H511440   0.951   1.104  13.723 -1.2175 -0.8227  0.1648
  771MPD2    N111441   0.868   1.505  13.930  0.0309  0.5081  0.2168
  771MPD2    H711442   0.871   1.529  13.832 -0.8433  1.6150  0.4440
  772MPD2     C11443   0.400   2.165  14.150  0.4854 -0.4899  0.0893
  772MPD2    C111444   0.379   2.041  14.110 -0.3863 -0.3656 -0.9201
  772MPD2    C211445   0.253   1.981  14.145 -0.1565 -0.0333 -0.2071
  772MPD2    C311446   0.152   2.061  14.185 -0.2559 -0.0424 -0.1346
  772MPD2    C411447   0.171   2.195  14.209 -0.2426  0.0978  1.0317
  772MPD2    C511448   0.296   2.245  14.189  0.0033 -0.1811 -0.3973
  772MPD2     H11449   0.243   1.877  14.116 -2.8952 -0.0222  0.6732
  772MPD2    H111450   0.095   2.265  14.242  1.8781  3.4701 -1.2265
  772MPD2    H211451   0.494   2.220  14.155 -1.1633  2.2979  0.2898
  772MPD2    H311452   0.309   2.350  14.211 -1.3028  0.2129 -1.4603
  772MPD2     N11453   0.022   2.005  14.207  0.0361 -0.0875 -0.3060
  772MPD2    H511454   4.685   2.067  14.236 -0.2595 -0.8044  0.4702
  772MPD2    N111455   0.483   1.954  14.058  0.0960 -1.2140  0.2035
  772MPD2    H711456   0.465   1.856  14.038  0.7683 -1.6181  1.6305
  773MPD2     C11457   4.636   3.012  17.704  0.3506  0.0998  0.2133
  773MPD2    C111458   4.540   2.916  17.694  0.3096  0.1073 -0.0368
  773MPD2    C211459   4.515   2.830   0.057 -0.5740 -0.0055 -0.0320
  773MPD2    C311460   4.600   2.831   0.167  0.1456  0.4792  0.0580
  773MPD2    C411461   4.702   2.928   0.171  0.4900  0.0308 -0.1618
  773MPD2    C511462   4.711   3.021   0.074 -0.0299 -0.2859 -0.7002
  773MPD2     H11463   4.443   2.750   0.048  0.4998 -1.1111  1.2557
  773MPD2    H111464   0.048   2.921   0.241 -1.1825 -3.6487  1.4916
  773MPD2    H211465   4.658   3.090  17.632 -2.1012 -2.6116 -3.4294
  773MPD2    H311466   0.048   3.100   0.074 -0.3869  0.0473 -0.0996
  773MPD2     N11467   4.587   2.722   0.254  0.2754  0.1069 -0.2408
  773MPD2    H511468   4.509   2.660   0.236  0.3178 -0.0118 -0.0111
  773MPD2    N111469   4.459   2.894  17.579  0.6963 -0.8846 -0.0694
  773MPD2    H711470   4.394   2.817  17.586  0.2584 -0.4796  0.3806
  774MPD2     C11471   3.240   1.470  13.134  0.4005  0.3263 -0.1225
  774MPD2    C111472   3.343   1.544  13.180  0.2913  0.2140 -0.2267
  774MPD2    C211473   3.381   1.647  13.099 -0.1549  0.2865  0.6152
  774MPD2    C311474   3.315   1.681  12.982 -0.2058  1.0197 -0.0894
  774MPD2    C411475   3.211   1.603  12.942 -0.7501 -0.2828 -0.2074
  774MPD2    C511476   3.177   1.500  13.020  0.5527 -0.1259 -0.1226
  774MPD2     H11477   3.464   1.707  13.134 -0.5286  0.2474  1.5866
  774MPD2    H111478   3.169   1.618  12.843 -0.1370 -3.0447 -0.8881
  774MPD2    H211479   3.206   1.388  13.196 -0.1197  2.1830  2.0137
  774MPD2    H311480   3.099   1.438  12.977 -0.8676  0.7938  1.0956
  774MPD2     N11481   3.358   1.791  12.910  0.1549 -0.4359  0.0729
  774MPD2    H511482   3.450   1.826  12.931 -0.1438 -0.3932  1.2758
  774MPD2    N111483   3.388   1.521  13.310 -0.1675  0.1884 -0.3856
  774MPD2    H711484   3.348   1.440  13.354 -2.9908  1.1685 -1.1417
  775MPD2     C11485   4.683   3.128  15.472 -0.3213 -0.0647  0.2927
  775MPD2    C111486   0.060   3.149  15.544 -0.5549  0.3199 -0.1621
  775MPD2    C211487   0.167   3.204  15.478  0.0004  0.0876  0.3492
  775MPD2    C311488   0.153   3.247  15.350 -0.2146 -0.0889  0.2933
  775MPD2    C411489   0.033   3.229  15.281 -0.1640  0.3886  0.1881
  775MPD2    C511490   4.670   3.168  15.344  0.2934  0.3240 -0.5486
  775MPD2     H11491   0.265   3.212  15.523  0.0842 -0.6160  0.2888
  775MPD2    H111492   0.020   3.264  15.179  0.2515  0.4840  0.1711
  775MPD2    H211493   4.601   3.074  15.518 -2.1238  2.2757 -0.1917
  775MPD2    H311494   4.581   3.145  15.287 -1.0075 -0.2038  1.6699
  775MPD2     N11495   0.260   3.320  15.281  0.2991  0.1953 -0.3350
  775MPD2    H511496   0.241   3.360  15.189 -0.2766  0.3967 -0.1248
  775MPD2    N111497   0.063   3.117  15.677  0.1699  0.0040 -0.5352
  775MPD2    H711498   4.712   3.074  15.705  0.2634 -0.6309 -1.2475
  776MPD2     C11499   3.825   3.692  11.556 -0.2167  0.1348  0.0654
  776MPD2    C111500   3.772   3.625  11.448  0.2144  0.0709  0.1152
  776MPD2    C211501   3.807   3.663  11.316 -0.5599  0.1546  0.7322
  776MPD2    C311502   3.898   3.768  11.303  0.0493  0.1328 -0.0786
  776MPD2    C411503   3.953   3.828  11.418  0.6579 -0.0324  0.1109
  776MPD2    C511504   3.923   3.787  11.544  0.6559 -0.0697 -0.3897
  776MPD2     H11505   3.764   3.602  11.238  1.5533 -2.0709  1.2809
  776MPD2    H111506   4.031   3.901  11.397  1.0290 -0.6418 -0.6385
  776MPD2    H211507   3.813   3.654  11.657  1.5206 -0.1059  0.1870
  776MPD2    H311508   3.993   3.812  11.623  0.7979  0.6661 -0.7386
  776MPD2     N11509   3.947   3.808  11.180 -0.0989  0.7741  0.2321
  776MPD2    H511510   4.027   3.870  11.187  0.4306 -0.0037  1.0425
  776MPD2    N111511   3.684   3.515  11.483  0.6555 -0.3969  0.3641
  776MPD2    H711512   3.687   3.471  11.575  0.5062 -2.5972 -0.6786
  777MPD2     C11513   4.030   0.950   0.246 -0.6828  0.7274 -0.9008
  777MPD2    C111514   4.100   0.853   0.316 -0.2123 -0.4196 -0.5751
  777MPD2    C211515   4.051   0.719   0.319 -0.4066 -0.4870 -0.4215
  777MPD2    C311516   3.937   0.688   0.249 -0.8859 -0.6551 -0.8876
  777MPD2    C411517   3.868   0.793   0.188 -0.1942  0.3271 -0.2268
  777MPD2    C511518   3.910   0.916   0.190  0.0877  0.2008 -0.7569
  777MPD2     H11519   4.113   0.644   0.366  0.0043 -0.2094 -0.5298
  777MPD2    H111520   3.780   0.781   0.125 -2.9498 -1.4857  3.9268
  777MPD2    H211521   4.065   1.051   0.228 -2.1077  0.9726 -2.3084
  777MPD2    H311522   3.864   0.996   0.133 -3.4015 -0.8284  0.6033
  777MPD2     N11523   3.890   0.553   0.250 -0.2386 -0.3138 -0.5758
  777MPD2    H511524   3.933   0.495   0.321 -1.2947  0.2632  0.5299
  777MPD2    N111525   4.225   0.878   0.375  0.3769 -1.1257 -0.2752
  777MPD2    H711526   4.256   0.972   0.399  1.2921 -1.5869  0.3453
  778MPD2     C11527   0.952   1.265  14.736 -0.7968  0.4738  0.4035
  778MPD2    C111528   0.971   1.162  14.649 -0.4630 -0.7297 -0.3164
  778MPD2    C211529   1.050   1.190  14.542 -0.5433 -0.5417  0.1160
  778MPD2    C311530   1.091   1.327  14.519  0.1069  0.5117 -0.2559
  778MPD2    C411531   1.057   1.428  14.603 -0.2435  0.0659  0.8167
  778MPD2    C511532   0.988   1.392  14.719 -0.6812  0.5400  0.1908
  778MPD2     H11533   1.079   1.118  14.466 -0.7017  0.3047 -0.7482
  778MPD2    H111534   1.093   1.530  14.596  1.8821 -0.8577 -1.5325
  778MPD2    H211535   0.884   1.241  14.816  2.8328 -0.9615  3.0885
  778MPD2    H311536   0.958   1.463  14.796 -3.7122  0.8744 -1.3160
  778MPD2     N11537   1.187   1.354  14.417  0.2285 -0.0059  0.4250
  778MPD2    H511538   1.233   1.272  14.377  1.6897  0.3757  1.3466
  778MPD2    N111539   0.909   1.034  14.667 -0.2133  0.1355  0.0401
  778MPD2    H711540   0.922   0.971  14.589 -0.6295  1.1698 -0.8484
  779MPD2     C11541   0.162   0.032  13.925  0.3481 -0.2602 -0.2697
  779MPD2    C111542   0.289   0.009  13.962 -0.3028 -0.3811 -0.6926
  779MPD2    C211543   0.372   0.114  13.981 -0.3933 -0.6901 -0.1556
  779MPD2    C311544   0.338   0.247  13.954  0.4787  0.0720  0.1728
  779MPD2    C411545   0.212   0.266  13.901  0.2280  0.2947 -0.3269
  779MPD2    C511546   0.129   0.162  13.893  0.0970  0.7498 -0.3338
  779MPD2     H11547   0.478   0.094  13.993 -0.2070 -0.6534 -1.7808
  779MPD2    H111548   0.180   0.363  13.862 -2.9404 -0.6349 -0.0665
  779MPD2    H211549   0.091   4.689  13.902  0.5958  0.0165 -1.9682
  779MPD2    H311550   0.028   0.177  13.856  1.0727  2.0280 -2.4610
  779MPD2     N11551   0.432   0.353  13.975 -0.1889 -0.3984  0.5036
  779MPD2    H511552   0.504   0.337  14.044  2.2915  1.1825 -1.7379
  779MPD2    N111553   0.351   4.616  13.977 -0.0766  0.7353  0.7182
  779MPD2    H711554   0.448   4.616  14.007  0.0667  2.7815  0.2780
  780MPD2     C11555   0.808   4.620   0.724  0.0774 -0.0556  0.6547
  780MPD2    C111556   0.704   4.526   0.742  0.0391 -0.0287 -0.3050
  780MPD2    C211557   0.625   4.496   0.629 -0.4477 -0.3423  0.1934
  780MPD2    C311558   0.661   4.539   0.505  0.1458 -0.0384 -0.4854
  780MPD2    C411559   0.759   4.628   0.485 -0.8728  0.0307 -0.3034
  780MPD2    C511560   0.839   4.661   0.598 -0.7621  0.5616 -0.6795
  780MPD2     H11561   0.534   4.438   0.638 -0.8390  0.3459  0.6740
  780MPD2    H111562   0.780   4.678   0.392  0.5311  0.1288  0.0679
  780MPD2    H211563   0.855   4.665   0.810  0.8545  1.1001 -0.3759
  780MPD2    H311564   0.915   4.736   0.581 -0.3156  0.7052  2.0085
  780MPD2     N11565   0.584   4.507   0.394 -0.1355  0.0538  0.3245
  780MPD2    H511566   0.518   4.435   0.420 -1.2180  0.5502 -1.0485
  780MPD2    N111567   0.671   4.483   0.874 -0.1945  0.1092 -0.6316
  780MPD2    H711568   0.755   4.482   0.931 -0.6564 -2.9923  0.0261
  781MPD2     C11569   1.444   1.224  11.633 -0.3632 -0.5620  0.1358
  781MPD2    C111570   1.563   1.243  11.698  0.1807  0.2134  0.4031
  781MPD2    C211571   1.675   1.278  11.631 -0.1103  0.5675  0.7423
  781MPD2    C311572   1.677   1.305  11.494 -0.7632  0.1811 -0.4071
  781MPD2    C411573   1.552   1.299  11.435 -0.4404 -0.8717  0.1069
  781MPD2    C511574   1.443   1.254  11.503  1.0595 -0.0281  0.7105
  781MPD2     H11575   1.767   1.297  11.685 -0.6273 -0.9327  2.1606
  781MPD2    H111576   1.534   1.317  11.330  2.4478 -0.2482 -0.2833
  781MPD2    H211577   1.352   1.199  11.683 -0.9171  2.8271  0.8111
  781MPD2    H311578   1.350   1.242  11.449  1.2185 -2.4614  0.9979
  781MPD2     N11579   1.791   1.335  11.413 -0.5211  0.2268 -0.6532
  781MPD2    H511580   1.782   1.373  11.319  1.4343 -0.7424 -1.2491
  781MPD2    N111581   1.580   1.234  11.839 -0.0850  0.3039 -0.6912
  781MPD2    H711582   1.671   1.253  11.879 -0.8212  0.2898  1.0021
  782MPD2     C11583   4.055   2.257  10.494 -0.4542  0.1527  0.0318
  782MPD2    C111584   4.185   2.213  10.513  0.3687  0.9455  0.3869
  782MPD2    C211585   4.285   2.308  10.472  0.2186  0.6649 -0.1762
  782MPD2    C311586   4.250   2.430  10.421  0.0598  0.7575 -0.3392
  782MPD2    C411587   4.121   2.466  10.405 -0.7019 -0.6837 -0.1897
  782MPD2    C511588   4.020   2.381  10.448 -1.0214  0.4374  0.0501
  782MPD2     H11589   4.388   2.280  10.490  0.0489  1.0037  1.3931
  782MPD2    H111590   4.093   2.564  10.367  2.4073  0.1407 -0.3163
  782MPD2    H211591   3.972   2.191  10.520 -0.3674  0.1364  0.2681
  782MPD2    H311592   3.913   2.402  10.444 -1.0798  0.1109 -0.1325
  782MPD2     N11593   4.357   2.513  10.385  0.6779 -0.1575  0.8111
  782MPD2    H511594   4.453   2.485  10.406  0.6330 -1.4758 -0.8296
  782MPD2    N111595   4.214   2.084  10.559  0.0651 -0.3789  0.6940
  782MPD2    H711596   4.137   2.018  10.554  0.2090 -0.4754 -0.2947
  783MPD2     C11597   3.769   1.677  11.152  0.1137 -0.0448 -0.4560
  783MPD2    C111598   3.810   1.807  11.125 -0.3736  0.1439  0.2916
  783MPD2    C211599   3.909   1.825  11.033 -0.2320 -0.1144  0.0667
  783MPD2    C311600   3.966   1.719  10.971  0.7102  0.0975 -0.1552
  783MPD2    C411601   3.925   1.595  11.002 -0.0981  0.0345  0.3917
  783MPD2    C511602   3.829   1.570  11.092 -0.7880 -0.2479  0.7169
  783MPD2     H11603   3.945   1.921  10.997  1.8676 -1.0687 -0.4065
  783MPD2    H111604   3.966   1.505  10.956 -3.2318 -1.6600  0.9358
  783MPD2    H211605   3.693   1.654  11.225 -1.3869  2.5357 -1.2042
  783MPD2    H311606   3.795   1.468  11.108 -0.5520 -0.6345 -1.2189
  783MPD2     N11607   4.064   1.742  10.871 -0.5147 -0.4545 -0.1526
  783MPD2    H511608   4.094   1.838  10.857  0.0558 -0.8715 -1.7658
  783MPD2    N111609   3.736   1.909  11.193  0.3227  0.6075  0.4257
  783MPD2    H711610   3.675   1.882  11.269  0.2916 -1.4268 -0.3272
  784MPD2     C11611   2.495   2.606   0.427  0.1599  0.1019  0.5275
  784MPD2    C111612   2.469   2.650   0.556  0.5355  0.0354 -0.3914
  784MPD2    C211613   2.372   2.746   0.577 -0.1304  0.3453  0.0824
  784MPD2    C311614   2.303   2.794   0.470  0.5841  0.6914 -0.6116
  784MPD2    C411615   2.327   2.752   0.343 -0.0652  0.6921 -0.6865
  784MPD2    C511616   2.430   2.657   0.324  0.0942  0.4864 -0.2622
  784MPD2     H11617   2.369   2.797   0.672 -0.1982 -2.2765  1.4943
  784MPD2    H111618   2.278   2.800   0.259 -2.1493  0.2521  0.2728
  784MPD2    H211619   2.587   2.551   0.410  0.1072 -0.5522  2.3305
  784MPD2    H311620   2.452   2.628   0.222 -0.1442 -3.9629  0.9655
  784MPD2     N11621   2.220   2.907   0.495  0.3293 -0.4478  0.3756
  784MPD2    H511622   2.223   2.932   0.594 -0.3776 -0.5882  0.4305
  784MPD2    N111623   2.535   2.602   0.670  0.2441  0.1421  0.3039
  784MPD2    H711624   2.512   2.627   0.766 -0.9252 -0.4100  0.1627
  785MPD2     C11625   2.515   2.017   9.992 -0.4548 -0.5533 -0.2153
  785MPD2    C111626   2.413   2.000  10.085  0.7125 -0.2835  0.6808
  785MPD2    C211627   2.313   1.919  10.052 -0.1760 -0.0175  0.0225
  785MPD2    C311628   2.306   1.853   9.930  0.3324  0.4717 -0.4772
  785MPD2    C411629   2.410   1.859   9.841 -0.3390 -0.1750 -1.0382
  785MPD2    C511630   2.512   1.950   9.871  0.0791  0.0630  0.1770
  785MPD2     H11631   2.222   1.913  10.111  1.1093 -0.0885  2.0214
  785MPD2    H111632   2.404   1.812   9.743  0.7644 -0.8878 -0.7673
  785MPD2    H211633   2.593   2.089  10.016 -2.4962  1.5448  0.1863
  785MPD2    H311634   2.586   1.963   9.793 -2.2778 -1.3577 -2.3363
  785MPD2     N11635   2.183   1.787   9.907 -0.1041 -0.7593  0.2086
  785MPD2    H511636   2.098   1.810   9.957 -1.3065 -1.7469 -1.4089
  785MPD2    N111637   2.402   2.092  10.189 -0.2255  0.0643 -0.9928
  785MPD2    H711638   2.460   2.174  10.178  0.8644 -0.2270  2.5869
  786MPD2     C11639   0.834   3.928  14.697  0.0967 -0.1345  0.2289
  786MPD2    C111640   0.973   3.892  14.703  0.4625  0.3721  0.9452
  786MPD2    C211641   1.025   3.875  14.830 -0.5256 -0.4489 -0.8150
  786MPD2    C311642   0.944   3.881  14.946  0.0529  0.0081 -0.2505
  786MPD2    C411643   0.813   3.922  14.941 -0.2503 -0.1023 -0.0919
  786MPD2    C511644   0.759   3.944  14.811 -0.5167 -0.0128  0.5914
  786MPD2     H11645   1.131   3.858  14.849 -0.5399 -1.6239 -1.8408
  786MPD2    H111646   0.758   3.954  15.028  0.6053 -0.6460  0.6517
  786MPD2    H211647   0.798   3.959  14.599 -0.7860  0.9168  0.8767
  786MPD2    H311648   0.657   3.976  14.796 -0.4767 -1.1626 -2.0712
  786MPD2     N11649   0.994   3.850  15.077 -0.0716  0.3156 -1.1281
  786MPD2    H511650   0.935   3.870  15.157  1.2651 -1.9723  0.4366
  786MPD2    N111651   1.053   3.862  14.587 -0.2700  0.4429 -0.1547
  786MPD2    H711652   1.150   3.841  14.608 -0.3167 -0.4726 -0.8632
  787MPD2     C11653   1.375   3.327  14.636  0.0003 -0.1317  0.3092
  787MPD2    C111654   1.353   3.335  14.501  0.3097 -0.4465  0.3436
  787MPD2    C211655   1.390   3.231  14.421 -0.1154  0.2873 -0.0824
  787MPD2    C311656   1.449   3.112  14.471 -0.1909  0.2059  0.1509
  787MPD2    C411657   1.478   3.108  14.610  0.5565  0.3862  0.9029
  787MPD2    C511658   1.440   3.221  14.686  0.7626  0.6590  0.1258
  787MPD2     H11659   1.362   3.245  14.317 -1.9861  1.1316  0.5415
  787MPD2    H111660   1.525   3.021  14.654  1.3789  0.5178  0.2933
  787MPD2    H211661   1.351   3.407  14.705  1.2477 -0.9798  1.7410
  787MPD2    H311662   1.460   3.216  14.792  0.3601 -0.2349  0.1542
  787MPD2     N11663   1.491   3.014  14.380 -0.5986 -0.5798  0.3611
  787MPD2    H511664   1.497   3.046  14.283  0.9359  1.6559  1.1772
  787MPD2    N111665   1.310   3.458  14.448  0.2344  0.6547 -0.1104
  787MPD2    H711666   1.263   3.513  14.519 -0.3376  1.5196 -1.1515
  788MPD2     C11667   3.485   2.594   0.996  0.3311 -0.7065  0.6158
  788MPD2    C111668   3.378   2.539   0.929  0.1087  0.1878 -0.5052
  788MPD2    C211669   3.288   2.621   0.871 -0.2042 -0.3802  0.2983
  788MPD2    C311670   3.309   2.756   0.867 -1.6171  0.3646  0.4240
  788MPD2    C411671   3.403   2.804   0.954 -0.2337  0.0416 -0.2211
  788MPD2    C511672   3.490   2.727   1.012  0.6252  0.6099 -0.5539
  788MPD2     H11673   3.204   2.574   0.822  0.7126 -0.8970 -0.7680
  788MPD2    H111674   3.425   2.910   0.951  0.0594 -0.0001  0.4329
  788MPD2    H211675   3.557   2.530   1.046  0.5925  0.1898  1.3779
  788MPD2    H311676   3.575   2.767   1.067  0.8225 -0.2988 -0.1966
  788MPD2     N11677   3.228   2.854   0.800 -0.1013 -0.6351 -0.1071
  788MPD2    H511678   3.262   2.949   0.809 -0.7778 -0.3444 -0.5576
  788MPD2    N111679   3.368   2.400   0.920 -0.0128 -0.0921  1.2657
  788MPD2    H711680   3.445   2.348   0.960  0.9585 -0.4800 -1.0845
  789MPD2     C11681   3.586   1.423  16.911  1.0421  0.1873 -0.5597
  789MPD2    C111682   3.497   1.411  16.805 -0.3467  0.4803 -0.1157
  789MPD2    C211683   3.384   1.486  16.805 -0.5781 -0.1097 -0.0892
  789MPD2    C311684   3.360   1.579  16.910 -0.2976  0.7243 -0.1713
  789MPD2    C411685   3.444   1.580  17.019 -0.7263  0.6788 -0.3361
  789MPD2    C511686   3.550   1.497  17.023 -0.6751 -0.3136 -0.3202
  789MPD2     H11687   3.317   1.483  16.720  0.8904  2.4509 -1.3427
  789MPD2    H111688   3.432   1.649  17.101 -0.2061  0.0801  0.2386
  789MPD2    H211689   3.683   1.375  16.916  0.0005 -1.8899 -0.3478
  789MPD2    H311690   3.624   1.495  17.102  1.3287  0.3898 -2.1854
  789MPD2     N11691   3.246   1.671  16.920  0.1467 -0.7253 -0.4747
  789MPD2    H511692   3.243   1.733  17.001 -0.9169 -0.9298 -0.3641
  789MPD2    N111693   3.514   1.330  16.687  1.0507  0.0680 -0.2662
  789MPD2    H711694   3.434   1.316  16.627  0.8847 -2.2776  0.5057
  790MPD2     C11695   4.403   2.979  12.881  0.6816  0.6762 -0.5437
  790MPD2    C111696   4.486   3.077  12.933  0.6730  0.2352 -0.1555
  790MPD2    C211697   4.447   3.210  12.928 -0.9610 -0.3668  0.3282
  790MPD2    C311698   4.323   3.244  12.876  0.1744  0.0065  0.4398
  790MPD2    C411699   4.246   3.145  12.824  0.0596 -0.2301  0.8847
  790MPD2    C511700   4.285   3.010  12.820 -0.1506  0.4414 -0.6016
  790MPD2     H11701   4.505   3.293  12.965 -0.1494  0.4543 -2.7702
  790MPD2    H111702   4.153   3.164  12.772 -0.3994  1.1241  2.2054
  790MPD2    H211703   4.417   2.871  12.889  0.6636  0.8219  1.3673
  790MPD2    H311704   4.222   2.932  12.779  0.0298 -0.7320  1.3234
  790MPD2     N11705   4.274   3.380  12.872 -1.1291 -0.3307 -0.6432
  790MPD2    H511706   4.347   3.451  12.876  0.6342 -2.2319  0.7028
  790MPD2    N111707   4.602   3.034  12.997  0.1350  0.0501  0.0753
  790MPD2    H711708   4.615   2.934  13.006 -0.4258  0.1275  1.6024
  791MPD2     C11709   3.596   4.015  12.689  0.3208  0.7035 -0.0202
  791MPD2    C111710   3.616   3.894  12.752  0.2082 -0.9067  0.0802
  791MPD2    C211711   3.505   3.814  12.772 -0.2152 -0.8034 -0.4156
  791MPD2    C311712   3.374   3.845  12.731  0.0537 -0.4891 -0.0625
  791MPD2    C411713   3.357   3.971  12.674  0.0777 -0.5266  0.3691
  791MPD2    C511714   3.465   4.055  12.664 -0.4179 -0.5590  1.3700
  791MPD2     H11715   3.531   3.715  12.807  2.3511 -0.2759 -0.8472
  791MPD2    H111716   3.262   4.003  12.633  0.8941  0.4082 -0.8171
  791MPD2    H211717   3.678   4.078  12.656 -0.1219  0.6831 -1.1463
  791MPD2    H311718   3.447   4.152  12.621 -0.0053 -1.2457 -0.3394
  791MPD2     N11719   3.278   3.741  12.742 -0.3551 -0.4462 -0.1412
  791MPD2    H511720   3.325   3.657  12.774  0.8409  0.4435  0.4373
  791MPD2    N111721   3.753   3.851  12.776 -0.5831  0.0320 -0.1538
  791MPD2    H711722   3.831   3.903  12.736  0.6718 -1.6677  0.0678
  792MPD2     C11723   4.123   3.121  11.136  0.2901 -0.0699  0.5157
  792MPD2    C111724   4.175   3.137  11.011  0.0455 -0.0954  0.9813
  792MPD2    C211725   4.170   3.037  10.921 -1.4494 -0.2534 -0.0701
  792MPD2    C311726   4.095   2.917  10.944  0.7447  0.1208  0.0404
  792MPD2    C411727   4.033   2.907  11.062 -0.3880  0.6256 -0.0649
  792MPD2    C511728   4.054   3.006  11.158  0.1106 -0.2510 -0.1412
  792MPD2     H11729   4.217   3.048  10.824  1.3304 -3.0984  0.9573
  792MPD2    H111730   3.976   2.820  11.093 -0.6804  1.2585  1.2217
  792MPD2    H211731   4.131   3.197  11.213  0.3092 -0.4051  0.8448
  792MPD2    H311732   3.998   2.997  11.250 -1.9561  0.6493 -1.3052
  792MPD2     N11733   4.080   2.802  10.851  0.3755 -0.4615  0.1166
  792MPD2    H511734   4.023   2.726  10.887  0.6910 -1.3288 -1.2366
  792MPD2    N111735   4.229   3.263  10.974 -0.0439  0.0479 -0.2581
  792MPD2    H711736   4.224   3.331  11.049  0.2104 -0.1965 -0.0222
  793MPD2     C11737   3.668   3.253  10.134  0.2586  0.0015 -0.9651
  793MPD2    C111738   3.806   3.232  10.142  0.0609 -0.1452 -0.0293
  793MPD2    C211739   3.855   3.121  10.218  0.2050  0.4212  1.2395
  793MPD2    C311740   3.771   3.038  10.286 -0.3951 -0.0070  0.7245
  793MPD2    C411741   3.640   3.070  10.292 -0.9035  0.4630 -0.1124
  793MPD2    C511742   3.588   3.167  10.209 -0.1247 -0.2643 -0.3995
  793MPD2     H11743   3.963   3.107  10.226  0.6898  1.9253 -2.6376
  793MPD2    H111744   3.571   2.989  10.313  0.1252 -0.1224  1.0214
  793MPD2    H211745   3.621   3.314  10.057 -0.7811  1.1845  0.6135
  793MPD2    H311746   3.483   3.187  10.191 -0.7575 -2.2824  1.0008
  793MPD2     N11747   3.832   2.928  10.356 -0.4327  0.5784 -0.1765
  793MPD2    H511748   3.933   2.932  10.353 -0.4032  0.4993  0.7006
  793MPD2    N111749   3.913   3.298  10.071 -0.0925 -0.4274 -0.6549
  793MPD2    H711750   4.005   3.257  10.088  1.3818  2.3734 -1.8138
  794MPD2     C11751   4.297   2.810  16.720 -0.1273  0.4051 -0.5687
  794MPD2    C111752   4.198   2.776  16.816 -0.1556 -0.1016 -0.8161
  794MPD2    C211753   4.075   2.713  16.763 -0.4403  0.3033  0.1923
  794MPD2    C311754   4.046   2.719  16.631 -0.1363  0.2709  0.1115
  794MPD2    C411755   4.139   2.772  16.540 -0.9753 -1.0463  0.2669
  794MPD2    C511756   4.264   2.812  16.586 -0.6165 -0.6847 -0.7551
  794MPD2     H11757   4.006   2.666  16.831  0.5091 -1.6741 -0.2169
  794MPD2    H111758   4.129   2.798  16.435  1.8328 -0.9054  0.0256
  794MPD2    H211759   4.395   2.847  16.746 -0.4498  1.0589 -0.2957
  794MPD2    H311760   4.342   2.835  16.514 -0.5697  2.4972  0.3226
  794MPD2     N11761   3.920   2.691  16.580  0.5901 -0.0713  0.0803
  794MPD2    H511762   3.911   2.707  16.480  0.4769  2.2524  0.4612
  794MPD2    N111763   4.206   2.787  16.953  0.0751 -0.2619 -0.3837
  794MPD2    H711764   4.120   2.777  17.005  0.7616  0.7727  0.9303
  795MPD2     C11765   1.617   0.248  13.142 -0.1239 -0.0122 -0.0937
  795MPD2    C111766   1.562   0.121  13.167  0.6650  0.1066  0.6546
  795MPD2    C211767   1.625   0.039  13.260 -0.7973  0.1362 -0.2912
  795MPD2    C311768   1.724   0.094  13.338  0.4967  0.3564  0.7654
  795MPD2    C411769   1.771   0.224  13.315 -0.0047 -0.1660  0.3574
  795MPD2    C511770   1.711   0.303  13.226  0.4155 -0.1745 -0.0825
  795MPD2     H11771   1.584   4.678  13.283 -2.2199  1.3127  2.1811
  795MPD2    H111772   1.842   0.273  13.379  1.9340  0.9798 -2.6453
  795MPD2    H211773   1.571   0.307  13.064 -1.7666 -0.6832  0.3811
  795MPD2    H311774   1.743   0.407  13.219  0.5408 -0.3485 -2.1907
  795MPD2     N11775   1.787   0.023  13.449  0.0156 -0.0164  0.0247
  795MPD2    H511776   1.866   0.054  13.503  0.0368  0.5326 -0.3222
  795MPD2    N111777   1.449   0.060  13.098  0.3201 -0.1206 -0.3228
  795MPD2    H711778   1.433   4.699  13.120 -0.8415 -0.1813 -1.4442
  796MPD2     C11779   1.299   1.124  15.544  0.4173  0.0405 -0.1460
  796MPD2    C111780   1.351   1.186  15.655 -1.8202 -0.2697 -0.1181
  796MPD2    C211781   1.341   1.327  15.664  0.2119  0.0351  0.6801
  796MPD2    C311782   1.272   1.408  15.575  0.4119 -0.4450 -0.7135
  796MPD2    C411783   1.234   1.343  15.461  0.0554 -0.0804  0.0787
  796MPD2    C511784   1.238   1.207  15.446 -0.0662 -0.3943 -0.0754
  796MPD2     H11785   1.385   1.379  15.749  0.6890  0.7072  0.0248
  796MPD2    H111786   1.182   1.401  15.385 -0.4796 -1.1895 -0.3958
  796MPD2    H211787   1.293   1.017  15.533  2.3707 -0.2451  1.5579
  796MPD2    H311788   1.195   1.151  15.364 -1.5369  0.1554  0.3268
  796MPD2     N11789   1.264   1.546  15.603  0.4185  0.1354 -0.3484
  796MPD2    H511790   1.301   1.581  15.690 -3.1021 -1.6385  1.8253
  796MPD2    N111791   1.381   1.103  15.769  0.0829 -0.2206  0.0031
  796MPD2    H711792   1.378   1.003  15.755 -2.3172  0.1475 -1.9519
  797MPD2     C11793   1.943   1.213  17.485  0.0469  0.0894  0.2257
  797MPD2    C111794   1.985   1.339  17.440 -0.8026 -0.4890  0.0779
  797MPD2    C211795   1.898   1.422  17.378 -0.4418  0.1204  0.7161
  797MPD2    C311796   1.762   1.406  17.374 -0.4197 -0.1012  0.1448
  797MPD2    C411797   1.718   1.282  17.418  0.0670 -0.0068  0.2163
  797MPD2    C511798   1.808   1.185  17.472 -0.3204 -0.1310  0.5076
  797MPD2     H11799   1.929   1.523  17.351 -1.4518 -0.0500 -1.0822
  797MPD2    H111800   1.616   1.251  17.400 -1.0531  3.0437  1.3558
  797MPD2    H211801   2.000   1.135  17.535 -0.3248  0.7771  1.7002
  797MPD2    H311802   1.762   1.098  17.518 -0.6059 -0.0801  0.3176
  797MPD2     N11803   1.674   1.493  17.309 -0.1396 -0.4092 -0.3118
  797MPD2    H511804   1.576   1.469  17.298  0.1487 -0.2214 -3.1262
  797MPD2    N111805   2.119   1.376  17.444  0.0917  0.1565 -0.7021
  797MPD2    H711806   2.141   1.462  17.396  1.7346  1.4917  2.4720
  798MPD2     C11807   2.031   2.041  17.132  0.0877 -0.1032 -0.0655
  798MPD2    C111808   2.021   1.917  17.072  0.6874  0.3580 -0.4041
  798MPD2    C211809   2.102   1.812  17.116  0.8696 -0.3399  0.3197
  798MPD2    C311810   2.197   1.840  17.213 -0.7973  0.8290  0.1798
  798MPD2    C411811   2.213   1.969  17.268 -0.7082 -0.4807  0.1401
  798MPD2    C511812   2.117   2.068  17.240  0.6779  0.3676  0.0557
  798MPD2     H11813   2.095   1.713  17.074  2.5288 -0.2858 -0.0917
  798MPD2    H111814   2.297   2.002  17.328 -1.3354  2.4821 -0.5781
  798MPD2    H211815   1.964   2.124  17.110  1.0116  0.6455 -0.0523
  798MPD2    H311816   2.132   2.164  17.289 -4.1711  1.1533  0.0339
  798MPD2     N11817   2.275   1.726  17.258 -0.6134 -0.6321 -0.5924
  798MPD2    H511818   2.264   1.644  17.200 -0.3638  0.1867 -1.8082
  798MPD2    N111819   1.916   1.886  16.984 -0.2325 -0.6513  0.5661
  798MPD2    H711820   1.835   1.948  16.987  0.3958  0.2355 -0.7397
  799MPD2     C11821   1.087   3.075  14.319 -0.1653 -0.2111 -0.6414
  799MPD2    C111822   1.155   2.990  14.247 -0.3267 -0.4604  0.0943
  799MPD2    C211823   1.198   3.014  14.120  0.3295  0.0569  0.2518
  799MPD2    C311824   1.163   3.131  14.061  0.7077  0.0829 -0.4905
  799MPD2    C411825   1.086   3.215  14.142 -0.0805 -0.0754 -0.3315
  799MPD2    C511826   1.054   3.195  14.271 -0.1521 -0.4887  0.8830
  799MPD2     H11827   1.253   2.934  14.073 -0.7473 -0.2640 -0.4572
  799MPD2    H111828   1.046   3.305  14.097  2.5635  0.5422 -1.4666
  799MPD2    H211829   1.047   3.061  14.419  0.8484 -1.6214 -0.4307
  799MPD2    H311830   0.999   3.272  14.325  0.4513  2.2487 -2.3934
  799MPD2     N11831   1.191   3.162  13.925 -0.4563  0.1903 -0.8140
  799MPD2    H511832   1.145   3.250  13.903  0.2407  0.5032 -1.0091
  799MPD2    N111833   1.175   2.859  14.303 -0.3353 -0.1234 -0.1488
  799MPD2    H711834   1.129   2.842  14.392 -0.3372  1.6357  0.1836
  800MPD2     C11835   1.659   3.565  13.029  0.4349 -0.0270 -0.5888
  800MPD2    C111836   1.747   3.627  13.115  0.1364  0.1787  0.5941
  800MPD2    C211837   1.861   3.688  13.067 -0.2550 -0.1774  0.0735
  800MPD2    C311838   1.879   3.704  12.930 -0.9006 -0.6874  0.2681
  800MPD2    C411839   1.790   3.645  12.845 -0.2264  0.0287  0.1647
  800MPD2    C511840   1.689   3.572  12.900 -0.6493 -0.0892  0.4697
  800MPD2     H11841   1.929   3.739  13.134 -0.3494  2.4796 -1.8547
  800MPD2    H111842   1.800   3.656  12.738  3.1464 -0.7453  0.3961
  800MPD2    H211843   1.573   3.504  13.056 -0.0930  0.4580 -1.1633
  800MPD2    H311844   1.610   3.537  12.834 -2.7339  1.6078  2.0676
  800MPD2     N11845   1.988   3.782  12.892 -0.3289 -0.2078 -0.3437
  800MPD2    H511846   2.049   3.805  12.969 -1.1713  0.7476  0.0429
  800MPD2    N111847   1.725   3.633  13.254 -0.3470  0.7499 -0.0185
  800MPD2    H711848   1.630   3.614  13.285 -1.0394  2.8804 -0.8363
  801MPD2     C11849   1.525   4.282  13.655 -0.3658  0.0041  0.5368
  801MPD2    C111850   1.607   4.210  13.744 -0.7829  0.2097  0.0330
  801MPD2    C211851   1.633   4.269  13.864 -0.4100  0.2548  0.2296
  801MPD2    C311852   1.586   4.401  13.896  0.2234 -0.4938 -0.3871
  801MPD2    C411853   1.514   4.469  13.804 -0.5894 -0.0569 -0.8733
  801MPD2    C511854   1.485   4.408  13.683  1.2028  0.0823 -0.2879
  801MPD2     H11855   1.683   4.213  13.941 -0.2779  2.6461  1.8803
  801MPD2    H111856   1.486   4.573  13.819  0.8075  0.4888 -2.0522
  801MPD2    H211857   1.492   4.237  13.562  0.4746  0.1013  0.1958
  801MPD2    H311858   1.431   4.463  13.606  0.6809  0.7382  0.5415
  801MPD2     N11859   1.604   4.469  14.023 -0.0794 -0.2462  0.4881
  801MPD2    H511860   1.534   4.540  14.042  0.9484  0.7679  0.4867
  801MPD2    N111861   1.650   4.075  13.723  0.0029  0.4296 -0.6291
  801MPD2    H711862   1.676   4.024  13.806  2.1048  1.1452 -0.8502
  802MPD2     C11863   0.834   1.078  17.675 -0.2884 -0.5919  0.3676
  802MPD2    C111864   0.786   0.950  17.678 -0.4692 -0.5785 -0.7274
  802MPD2    C211865   0.882   0.841  17.680 -0.6538  0.6044 -0.1500
  802MPD2    C311866   1.015   0.869  17.670 -0.0744  0.5335 -0.4868
  802MPD2    C411867   1.065   0.997  17.671  0.1296 -0.1531 -0.8235
  802MPD2    C511868   0.973   1.103  17.673  0.2295  0.7711 -0.1185
  802MPD2     H11869   0.850   0.738  17.671 -0.9445  0.4625  2.4703
  802MPD2    H111870   1.170   1.025  17.669  0.1990 -0.3153  0.7627
  802MPD2    H211871   0.765   1.162  17.685 -0.6879 -1.2997  3.4045
  802MPD2    H311872   1.014   1.201  17.657  0.5900  0.4364 -1.2518
  802MPD2     N11873   1.097   0.754  17.652 -0.0154 -0.2570  0.0678
  802MPD2    H511874   1.058   0.660  17.655 -0.2080 -0.1947 -0.5964
  802MPD2    N111875   0.641   0.919  17.679 -0.1373 -0.3178 -0.1958
  802MPD2    H711876   0.620   0.820  17.681 -0.3489 -0.2965 -1.5604
  803MPD2     C11877   1.752   3.146  11.967 -0.0424 -0.3297  0.3916
  803MPD2    C111878   1.787   3.272  11.923 -0.1732  0.3483  0.1377
  803MPD2    C211879   1.845   3.354  12.020  1.0845  0.1021  0.1221
  803MPD2    C311880   1.849   3.324  12.154  0.7547 -0.9937 -0.8253
  803MPD2    C411881   1.814   3.197  12.191 -0.3088  0.1587 -0.1062
  803MPD2    C511882   1.766   3.109  12.094 -1.0795 -0.1427 -0.3885
  803MPD2     H11883   1.861   3.453  11.979  2.5872 -0.6941 -1.2044
  803MPD2    H111884   1.806   3.163  12.293  0.7908 -0.9451 -0.3775
  803MPD2    H211885   1.720   3.068  11.900  0.7366 -2.1530  2.1449
  803MPD2    H311886   1.738   3.008  12.123 -0.0491 -0.4909 -0.6202
  803MPD2     N11887   1.901   3.411  12.254 -0.2455  0.2093 -0.8536
  803MPD2    H511888   1.900   3.381  12.351  0.4517 -1.2147 -1.2890
  803MPD2    N111889   1.783   3.320  11.790  0.2000 -0.9789  0.4138
  803MPD2    H711890   1.823   3.410  11.765 -0.7371  0.3800  3.7523
  804MPD2     C11891   1.484   4.416  16.669 -0.6601 -0.3015  0.2923
  804MPD2    C111892   1.514   4.385  16.803  0.0579  0.3545  0.2750
  804MPD2    C211893   1.589   4.473  16.875  0.4017 -0.2127 -0.4730
  804MPD2    C311894   1.631   4.586  16.814 -0.8230 -0.2373 -0.3170
  804MPD2    C411895   1.611   4.615  16.681  0.1835  0.3382  0.6854
  804MPD2    C511896   1.527   4.537  16.613 -0.5729  0.2363  0.4920
  804MPD2     H11897   1.611   4.460  16.980 -0.4820  2.0600 -0.0055
  804MPD2    H111898   1.660   4.701  16.636 -1.9749  1.6256  0.7994
  804MPD2    H211899   1.427   4.351  16.604  1.3795 -0.3465 -1.4239
  804MPD2    H311900   1.499   4.560  16.511  2.7382  0.3404 -0.3925
  804MPD2     N11901   1.708   4.671  16.899 -0.0663  0.0039 -0.0709
  804MPD2    H511902   1.715   4.639  16.995  0.4286 -0.1937 -0.1712
  804MPD2    N111903   1.483   4.261  16.858  0.2350 -0.1807  0.0514
  804MPD2    H711904   1.508   4.249  16.955 -0.7125  0.3147  0.3525
  805MPD2     C11905   1.333   2.921  15.626 -0.2962  0.2977 -0.9755
  805MPD2    C111906   1.426   2.846  15.556  0.2382  0.7298  0.4901
  805MPD2    C211907   1.555   2.831  15.598  0.3440  0.5176  1.0035
  805MPD2    C311908   1.599   2.892  15.711  0.2963 -0.1083  0.9917
  805MPD2    C411909   1.514   2.984  15.770 -0.5328 -0.1177  1.0130
  805MPD2    C511910   1.384   2.997  15.724 -0.4144  0.4165  0.1447
  805MPD2     H11911   1.624   2.774  15.537 -0.9460  0.8526 -0.7855
  805MPD2    H111912   1.546   3.047  15.852  0.4686 -0.2290  0.7044
  805MPD2    H211913   1.232   2.944  15.593 -1.5198 -0.0654  2.5415
  805MPD2    H311914   1.330   3.081  15.766 -0.0515 -0.0349  1.4929
  805MPD2     N11915   1.732   2.869  15.757  0.0028 -0.1092  0.2800
  805MPD2    H511916   1.796   2.810  15.705  0.3304 -1.4966  2.2436
  805MPD2    N111917   1.389   2.777  15.440 -0.1042 -0.8356 -0.0158
  805MPD2    H711918   1.463   2.720  15.400  0.8259  1.7269 -1.9791
  806MPD2     C11919   1.525   2.463  17.676 -0.5582  0.0276  0.0340
  806MPD2    C111920   1.457   2.522   0.036 -0.3716  0.8955  0.0230
  806MPD2    C211921   1.458   2.662   0.059 -0.0401  0.1640 -0.6242
  806MPD2    C311922   1.522   2.745  17.716  0.3878  0.2307  0.9843
  806MPD2    C411923   1.559   2.690  17.594  0.1424 -0.7773  0.2215
  806MPD2    C511924   1.570   2.555  17.584  0.1321  0.3883 -0.1978
  806MPD2     H11925   1.423   2.697   0.156 -0.2959  2.2275 -1.4705
  806MPD2    H111926   1.604   2.755  17.520 -1.4211 -1.1997 -1.0810
  806MPD2    H211927   1.522   2.357  17.656  0.8987 -0.0077  0.0008
  806MPD2    H311928   1.610   2.517  17.490 -1.9132 -1.0878 -0.4662
  806MPD2     N11929   1.529   2.882  17.741  0.2398 -0.2457 -0.6528
  806MPD2    H511930   1.496   2.915   0.086  2.7209  2.5190 -0.7564
  806MPD2    N111931   1.397   2.430   0.127 -0.4275 -0.8598 -0.4354
  806MPD2    H711932   1.427   2.333   0.118  1.3871 -0.3080 -0.3029
  807MPD2     C11933   1.486   1.748   0.226 -0.1779 -0.1425  0.3286
  807MPD2    C111934   1.400   1.776   0.331  0.3131  0.4899 -0.2689
  807MPD2    C211935   1.363   1.672   0.419  0.2605  0.3373 -0.2627
  807MPD2    C311936   1.398   1.540   0.390 -0.7732 -0.0331  0.2898
  807MPD2    C411937   1.493   1.522   0.291 -0.3715 -0.0137 -0.0620
  807MPD2    C511938   1.529   1.621   0.209 -0.6968 -0.2667  0.0363
  807MPD2     H11939   1.293   1.684   0.501  1.2382  2.7205  0.2076
  807MPD2    H111940   1.528   1.422   0.268 -0.1567  0.1059 -0.2497
  807MPD2    H211941   1.515   1.830   0.161  0.6980 -0.2886  0.5481
  807MPD2    H311942   1.595   1.610   0.124  1.8371  3.6210  1.4858
  807MPD2     N11943   1.339   1.442   0.466  0.4525  0.3607  0.1076
  807MPD2    H511944   1.270   1.476   0.532 -1.1770 -0.4541 -1.1970
  807MPD2    N111945   1.363   1.909   0.366  0.1306  0.8058 -0.0984
  807MPD2    H711946   1.337   1.922   0.463 -0.4470 -0.6590 -0.0553
  808MPD2     C11947   1.810   4.243  10.177  0.4806  0.2557  0.9611
  808MPD2    C111948   1.858   4.284  10.052 -0.5590 -0.1951 -0.1215
  808MPD2    C211949   1.913   4.412  10.045 -0.3035  0.4705 -1.0311
  808MPD2    C311950   1.899   4.503  10.145  0.2739  0.8215 -0.2391
  808MPD2    C411951   1.866   4.456  10.275 -0.4027 -0.0348  0.1979
  808MPD2    C511952   1.812   4.327  10.281 -0.9188  0.6560 -0.1815
  808MPD2     H11953   1.952   4.449   9.951 -1.2579  0.7413 -1.3197
  808MPD2    H111954   1.881   4.510  10.368  0.2380 -0.3791  0.2935
  808MPD2    H211955   1.755   4.150  10.183 -0.2382  0.6011 -0.2887
  808MPD2    H311956   1.767   4.299  10.376  0.8061 -0.8814  0.1871
  808MPD2     N11957   1.937   4.638  10.123  0.0266  0.3076 -0.0969
  808MPD2    H511958   1.938   4.702  10.202 -0.6832 -0.6364  0.6712
  808MPD2    N111959   1.849   4.210   9.926  0.1118  0.1641  0.1920
  808MPD2    H711960   1.878   4.266   9.846 -1.1485 -1.9147 -1.7271
  809MPD2     C11961   1.536   0.418   9.439 -0.3488 -0.5593 -0.8215
  809MPD2    C111962   1.631   0.512   9.485  0.9444  0.5569 -0.1414
  809MPD2    C211963   1.717   0.473   9.585  0.1025 -0.0445 -0.6049
  809MPD2    C311964   1.721   0.339   9.639 -0.1321  0.0586 -0.3004
  809MPD2    C411965   1.610   0.259   9.608  0.0622 -0.5870  0.4703
  809MPD2    C511966   1.518   0.302   9.512  0.2269  0.0615  0.0604
  809MPD2     H11967   1.785   0.551   9.620 -1.6555  0.4398  1.7208
  809MPD2    H111968   1.601   0.156   9.644  0.4416 -0.4962  0.8274
  809MPD2    H211969   1.477   0.437   9.350 -0.3068 -0.6489 -0.8675
  809MPD2    H311970   1.433   0.244   9.481 -1.0921  1.9802  0.0706
  809MPD2     N11971   1.821   0.290   9.720 -0.0537  0.0116 -0.6687
  809MPD2    H511972   1.809   0.199   9.762  0.9750 -0.5825 -1.6621
  809MPD2    N111973   1.650   0.646   9.442  0.0084 -0.4036  0.2678
  809MPD2    H711974   1.712   0.701   9.501  1.6274  0.2832 -2.0773
  810MPD2     C11975   1.296   3.073  10.941 -0.6273 -0.0227  0.6781
  810MPD2    C111976   1.258   3.060  10.810 -0.7957  0.3617 -0.3473
  810MPD2    C211977   1.234   3.171  10.736 -0.0164  0.6924 -0.6620
  810MPD2    C311978   1.235   3.298  10.792 -0.2067  0.0788  1.1667
  810MPD2    C411979   1.265   3.313  10.920  0.2394  0.8674 -0.2302
  810MPD2    C511980   1.300   3.200  10.987 -0.4607 -0.0038 -0.4489
  810MPD2     H11981   1.217   3.160  10.629 -2.5936  0.5432 -0.2531
  810MPD2    H111982   1.280   3.409  10.969  0.5345  1.4756 -1.5216
  810MPD2    H211983   1.336   2.988  10.995 -0.0009 -1.2232 -1.6849
  810MPD2    H311984   1.323   3.220  11.091  3.0173  1.6452 -1.5623
  810MPD2     N11985   1.216   3.421  10.714 -0.1055 -0.2814 -1.0060
  810MPD2    H511986   1.221   3.507  10.767  1.1512 -0.2112 -1.2474
  810MPD2    N111987   1.229   2.938  10.742  0.4779  0.5508 -0.0122
  810MPD2    H711988   1.185   2.950  10.651 -0.1657 -0.5196  0.1499
  811MPD2     C11989   0.814   2.897  10.129 -0.0175 -0.3622  0.2717
  811MPD2    C111990   0.908   2.940  10.217  0.2200 -0.2090  0.1236
  811MPD2    C211991   0.996   3.045  10.183  0.4659 -0.2144  0.8520
  811MPD2    C311992   0.973   3.103  10.061 -0.0503  0.2219 -0.4377
  811MPD2    C411993   0.870   3.066   9.974  0.2157 -0.3300  0.0021
  811MPD2    C511994   0.788   2.967  10.013  0.6014 -0.5764 -0.0624
  811MPD2     H11995   1.089   3.064  10.235  0.6673 -0.0372  0.4249
  811MPD2    H111996   0.849   3.132   9.891 -1.0615  0.6412  1.0940
  811MPD2    H211997   0.754   2.808  10.146  0.0712  0.0197  2.6010
  811MPD2    H311998   0.710   2.931   9.947 -0.1468 -0.2549  0.6363
  811MPD2     N11999   1.065   3.210  10.018 -0.1989 -0.5901 -0.2790
  811MPD2    H512000   1.131   3.243  10.087 -1.2496 -1.3701  1.1241
  811MPD2    N112001   0.920   2.860  10.333  0.4432 -0.3612  0.3433
  811MPD2    H712002   0.866   2.774  10.338 -0.9318  0.5279  0.5162
  812MPD2     C12003   4.189   3.712  12.090  0.3498 -0.0542  0.4922
  812MPD2    C112004   4.298   3.796  12.072 -0.3303  0.0203  0.6654
  812MPD2    C212005   4.423   3.757  12.112 -0.2386  0.1563 -0.1001
  812MPD2    C312006   4.439   3.643  12.190 -0.7455  0.3901 -0.0011
  812MPD2    C412007   4.330   3.571  12.220 -0.4870  0.4575  0.2565
  812MPD2    C512008   4.209   3.607  12.168  0.5966 -0.0036 -0.2283
  812MPD2     H12009   4.508   3.822  12.096 -0.7161  0.3328 -1.9153
  812MPD2    H112010   4.336   3.482  12.282 -1.5457  0.6892  0.6897
  812MPD2    H212011   4.091   3.740  12.053  0.8792  0.9302 -0.1541
  812MPD2    H312012   4.128   3.535  12.176  1.2531 -0.8988 -1.6357
  812MPD2     N12013   4.558   3.606  12.260  0.6626 -0.3676  0.6644
  812MPD2    H512014   4.558   3.540  12.336  1.6677  0.7847  1.6510
  812MPD2    N112015   4.296   3.913  11.986 -0.6431  0.2096  0.0594
  812MPD2    H712016   4.382   3.967  11.988  0.0537 -0.9176  0.4666
  813MPD2     C12017   4.292   0.725  13.138 -0.6347 -0.8694  0.2403
  813MPD2    C112018   4.210   0.838  13.163  0.4138 -0.6268  0.1927
  813MPD2    C212019   4.077   0.815  13.187 -0.5291  0.5201 -0.0323
  813MPD2    C312020   4.023   0.692  13.194 -0.1117  0.8004  0.5115
  813MPD2    C412021   4.104   0.585  13.178 -0.2942 -0.2245 -0.6483
  813MPD2    C512022   4.238   0.603  13.141 -0.6152 -0.4233  0.0412
  813MPD2     H12023   4.012   0.896  13.218 -1.3671 -0.6605  1.2861
  813MPD2    H112024   4.078   0.480  13.175 -0.3124 -0.2121 -0.9394
  813MPD2    H212025   4.394   0.742  13.107 -1.1465  3.2474  0.7007
  813MPD2    H312026   4.301   0.521  13.108 -1.5839 -0.3766 -1.9639
  813MPD2     N12027   3.887   0.675  13.230  0.7488  0.1230  0.2608
  813MPD2    H512028   3.826   0.756  13.230  0.5933 -0.0023  1.7242
  813MPD2    N112029   4.259   0.970  13.156 -0.4886 -0.6577 -0.0640
  813MPD2    H712030   4.186   1.041  13.155  1.1145  0.9838  0.3349
  814MPD2     C12031   4.190   2.145  12.827 -0.3873 -0.4014 -0.0822
  814MPD2    C112032   4.275   2.135  12.720  0.3443  0.1971 -0.3922
  814MPD2    C212033   4.314   2.244  12.643 -0.5471  0.7768 -0.6318
  814MPD2    C312034   4.276   2.377  12.670 -0.0853 -0.0082  0.7732
  814MPD2    C412035   4.198   2.386  12.791 -0.8126  0.1211  0.5647
  814MPD2    C512036   4.155   2.271  12.864 -0.3007  0.5492 -0.5246
  814MPD2     H12037   4.360   2.229  12.547  1.4156 -0.5953  0.5267
  814MPD2    H112038   4.181   2.482  12.837 -0.2760  1.0583 -1.1771
  814MPD2    H212039   4.154   2.053  12.873 -0.2978 -0.1239  0.5435
  814MPD2    H312040   4.098   2.288  12.955 -0.0108  0.9251 -0.4153
  814MPD2     N12041   4.322   2.493  12.602  0.0451  0.1028  0.4801
  814MPD2    H512042   4.292   2.584  12.635 -1.7883 -0.0658 -0.7361
  814MPD2    N112043   4.328   2.014  12.666 -0.5041 -0.6344 -0.2209
  814MPD2    H712044   4.398   2.041  12.597  1.0138 -1.1071  1.1337
  815MPD2     C12045   4.653   4.598  11.931 -0.5493  0.3638 -0.0344
  815MPD2    C112046   4.627   4.578  11.792  0.3705  0.2608 -0.3604
  815MPD2    C212047   4.491   4.584  11.753  0.0718  0.6085  0.2198
  815MPD2    C312048   4.381   4.607  11.836  0.0070  1.1032 -0.0244
  815MPD2    C412049   4.412   4.617  11.970  0.7053  0.2349 -0.3542
  815MPD2    C512050   4.543   4.616  12.015  0.7007  0.1969  0.4109
  815MPD2     H12051   4.463   4.566  11.649  3.0091  0.8452 -0.5940
  815MPD2    H112052   4.333   4.638  12.041 -0.9059 -0.4723 -1.9265
  815MPD2    H212053   0.014   4.593  11.978 -0.0344 -0.5150 -1.1754
  815MPD2    H312054   4.577   4.635  12.116  2.0429 -0.3577  0.0667
  815MPD2     N12055   4.249   4.611  11.774  0.1798 -0.9028  0.4644
  815MPD2    H512056   4.243   4.615  11.673  2.7384 -1.4159  0.3088
  815MPD2    N112057   4.734   4.561  11.698  0.4157 -0.2050 -0.2519
  815MPD2    H712058   0.092   4.564  11.735 -0.5724  0.7621  2.2086
  816MPD2     C12059   0.399   3.870  16.871 -0.5042 -0.4886 -0.4716
  816MPD2    C112060   0.409   3.996  16.810 -0.7550  0.2093  0.6891
  816MPD2    C212061   0.493   4.000  16.700  0.3307 -0.7649 -0.3881
  816MPD2    C312062   0.574   3.893  16.656 -0.0901  0.2593 -0.3757
  816MPD2    C412063   0.557   3.770  16.715 -0.4213  0.4025  0.4293
  816MPD2    C512064   0.476   3.766  16.822 -0.4770  0.3102  0.2551
  816MPD2     H12065   0.495   4.088  16.637  1.8012 -0.4863  0.0541
  816MPD2    H112066   0.587   3.669  16.689 -1.3547  0.7229 -1.8357
  816MPD2    H212067   0.340   3.844  16.958 -1.1150  1.2874 -0.3494
  816MPD2    H312068   0.447   3.668  16.858 -1.9782  1.1394  1.3162
  816MPD2     N12069   0.654   3.915  16.542  0.0326  0.0073 -0.9623
  816MPD2    H512070   0.661   4.011  16.507  1.8423  0.9872  2.0884
  816MPD2    N112071   0.337   4.114  16.850  0.2731 -0.5580  0.5673
  816MPD2    H712072   0.366   4.196  16.798 -1.3948  1.4998  2.9172
  817MPD2     C12073   0.083   0.991  10.171  0.3256 -0.0859  0.0819
  817MPD2    C112074   0.004   1.002  10.063 -0.4844  0.3259  0.1627
  817MPD2    C212075   4.711   1.131  10.029  0.0600 -0.3216 -0.2162
  817MPD2    C312076   0.037   1.244  10.082 -0.8837  0.1248 -0.5622
  817MPD2    C412077   0.129   1.224  10.180  0.0513 -0.3352  0.2035
  817MPD2    C512078   0.144   1.099  10.229  0.1203  0.1207  0.6379
  817MPD2     H12079   4.656   1.144   9.936 -1.2882  2.2989  0.9344
  817MPD2    H112080   0.179   1.306  10.230  0.8141 -0.6715 -0.0224
  817MPD2    H212081   0.108   0.891  10.205 -1.2241 -1.1463 -1.9139
  817MPD2    H312082   0.213   1.076  10.310  1.6924  1.1088 -0.4298
  817MPD2     N12083   0.016   1.376  10.034  0.5287 -0.1873  0.3214
  817MPD2    H512084   4.683   1.393   9.962 -1.4904  0.7049  2.4740
  817MPD2    N112085   4.676   0.891  10.000  0.6447  0.2674 -0.0711
  817MPD2    H712086   4.617   0.926   9.926 -0.6275  0.1803  0.8978
  818MPD2     C12087   3.446   1.504   9.982 -0.2564 -0.5917  0.0023
  818MPD2    C112088   3.367   1.423   9.906  0.6719 -0.1968 -0.1836
  818MPD2    C212089   3.410   1.299   9.866  0.8571  0.6308  1.4810
  818MPD2    C312090   3.541   1.260   9.896  0.8945 -1.0633  0.4928
  818MPD2    C412091   3.619   1.343   9.971  0.1927 -0.3703 -0.8877
  818MPD2    C512092   3.577   1.470  10.008 -0.3823 -0.4494  0.0789
  818MPD2     H12093   3.338   1.235   9.815  0.7945  0.3500  1.9240
  818MPD2    H112094   3.719   1.308   9.992  0.2854  1.0101  0.9723
  818MPD2    H212095   3.416   1.604  10.013  0.2430 -0.9119  1.5315
  818MPD2    H312096   3.649   1.531  10.061 -0.2696 -0.4832 -0.0345
  818MPD2     N12097   3.606   1.135   9.859 -0.5087  0.1455  0.0327
  818MPD2    H512098   3.696   1.126   9.904  0.5117  0.1684 -1.9866
  818MPD2    N112099   3.232   1.455   9.882 -0.5110  0.5604 -0.5304
  818MPD2    H712100   3.168   1.386   9.842 -1.6564  0.4181  1.5687
  819MPD2     C12101   1.891   2.306  15.670  0.0142 -0.0449 -0.6221
  819MPD2    C112102   1.953   2.187  15.685  0.3351  0.2738  0.5401
  819MPD2    C212103   2.087   2.172  15.723  0.2730 -0.1803  0.5973
  819MPD2    C312104   2.158   2.289  15.749 -1.0236 -0.0125 -0.3882
  819MPD2    C412105   2.088   2.409  15.743  0.0135  0.4823 -0.0112
  819MPD2    C512106   1.956   2.413  15.723  0.1961 -0.4078  0.0837
  819MPD2     H12107   2.128   2.074  15.744 -1.9726 -0.7284  2.4418
  819MPD2    H112108   2.133   2.498  15.785 -0.1490  0.3524  0.4275
  819MPD2    H212109   1.790   2.315  15.631 -1.1151  2.2386  2.7688
  819MPD2    H312110   1.899   2.505  15.715 -1.0282 -0.9571  2.6236
  819MPD2     N12111   2.295   2.276  15.784  0.1481 -0.3910  0.1542
  819MPD2    H512112   2.341   2.191  15.753 -0.7979 -1.2339  1.0392
  819MPD2    N112113   1.867   2.078  15.656 -0.1470 -0.3854 -0.4822
  819MPD2    H712114   1.770   2.107  15.660  0.4693  1.8088 -1.9165
  820MPD2     C12115   1.275   2.076  14.929 -0.3583 -0.0685  0.1400
  820MPD2    C112116   1.306   2.144  15.049 -1.1246 -0.4913 -0.0660
  820MPD2    C212117   1.367   2.069  15.150 -0.3001 -0.8260 -0.0724
  820MPD2    C312118   1.424   1.944  15.120  0.2141 -0.4861  0.5296
  820MPD2    C412119   1.402   1.886  14.994  0.3172  0.2111 -0.1784
  820MPD2    C512120   1.320   1.949  14.905  0.0332 -0.4490 -0.3969
  820MPD2     H12121   1.380   2.113  15.249  0.4097  0.4363 -0.7214
  820MPD2    H112122   1.442   1.792  14.956 -0.4402 -0.8689  1.6743
  820MPD2    H212123   1.209   2.116  14.853  1.1542  0.4572 -0.8991
  820MPD2    H312124   1.293   1.891  14.818  2.0621 -0.6143 -0.9182
  820MPD2     N12125   1.497   1.874  15.216  0.0158  1.4448  0.3432
  820MPD2    H512126   1.495   1.772  15.209  1.2521  1.5894 -2.1859
  820MPD2    N112127   1.257   2.272  15.065  0.4472 -0.2779 -0.6759
  820MPD2    H712128   1.202   2.313  14.989  0.3888  2.4035  0.7996
  821MPD2     C12129   2.329   4.377  12.329 -0.2008  0.0669  0.3676
  821MPD2    C112130   2.407   4.337  12.433 -0.0981 -0.0854 -0.2954
  821MPD2    C212131   2.538   4.383  12.436  0.0956 -0.3771  0.0061
  821MPD2    C312132   2.580   4.474  12.336 -0.3232 -0.0524  0.0666
  821MPD2    C412133   2.497   4.518  12.235  0.1395 -0.2921  0.2908
  821MPD2    C512134   2.363   4.480  12.245  0.7828  0.6906 -0.2213
  821MPD2     H12135   2.605   4.347  12.513  2.3465  1.7102 -0.9595
  821MPD2    H112136   2.524   4.601  12.170 -0.7535  0.0105  0.2982
  821MPD2    H212137   2.224   4.352  12.315  0.2629 -0.4361 -2.2246
  821MPD2    H312138   2.295   4.507  12.166 -0.8797 -0.4579  0.8099
  821MPD2     N12139   2.712   4.521  12.329 -0.4422  0.1126 -0.1466
  821MPD2    H512140   2.727   4.573  12.243 -1.0628  0.6365  0.0629
  821MPD2    N112141   2.363   4.251  12.537  0.2769 -0.1100  0.2684
  821MPD2    H712142   2.427   4.241  12.615 -0.2744  0.1525  0.7638
  822MPD2     C12143   2.595   3.869  15.657  0.0183  0.0630  0.3648
  822MPD2    C112144   2.551   3.829  15.777 -0.1273 -0.0293 -0.3289
  822MPD2    C212145   2.472   3.904  15.851  0.1565  0.2149  0.9318
  822MPD2    C312146   2.443   4.031  15.815 -0.4302 -0.2477 -0.1033
  822MPD2    C412147   2.480   4.071  15.682  0.1938 -0.2669  0.3109
  822MPD2    C512148   2.551   3.989  15.603  0.1137 -0.4434 -0.3721
  822MPD2     H12149   2.451   3.866  15.951  0.9889 -0.0018  1.0204
  822MPD2    H112150   2.458   4.167  15.637 -0.6440 -0.7937 -0.4083
  822MPD2    H212151   2.670   3.812  15.603  1.1625  2.1426 -0.2449
  822MPD2    H312152   2.592   4.026  15.510  0.0197 -0.7741 -0.5470
  822MPD2     N12153   2.372   4.108  15.907  0.3875  0.2259  0.0425
  822MPD2    H512154   2.339   4.065  15.993  0.4236 -3.1701 -1.6206
  822MPD2    N112155   2.576   3.688  15.822  0.1059 -0.6600  0.0697
  822MPD2    H712156   2.557   3.665  15.919  0.9676  0.6557  0.5481
  823MPD2     C12157   1.846   4.250  16.552  0.4447  0.1152 -0.1521
  823MPD2    C112158   1.925   4.171  16.468 -0.6548  0.2666 -0.8934
  823MPD2    C212159   1.955   4.037  16.505  0.6579  0.2297  0.5587
  823MPD2    C312160   1.917   3.992  16.632 -0.3438 -0.3076 -0.3437
  823MPD2    C412161   1.827   4.069  16.705 -0.3894 -0.2011  0.1691
  823MPD2    C512162   1.783   4.194  16.658  0.1654  0.1410  0.3809
  823MPD2     H12163   2.022   3.976  16.445 -1.0957  0.4946 -1.6519
  823MPD2    H112164   1.775   4.027  16.791 -2.1172  2.0756  0.2548
  823MPD2    H212165   1.819   4.352  16.527 -1.5494 -0.5822 -0.8524
  823MPD2    H312166   1.712   4.263  16.702  1.1933  0.6963  1.1368
  823MPD2     N12167   1.962   3.868  16.695 -0.0941 -0.0938 -0.1382
  823MPD2    H512168   1.915   3.841  16.781 -0.7106 -1.9928 -1.0711
  823MPD2    N112169   1.973   4.235  16.356  0.5733 -0.3542  0.0727
  823MPD2    H712170   1.958   4.335  16.352 -1.1655 -0.6744 -1.9242
  824MPD2     C12171   3.288   3.240  15.822 -0.4783  0.5952  0.0352
  824MPD2    C112172   3.203   3.286  15.723 -0.3252  0.4472  0.2314
  824MPD2    C212173   3.252   3.286  15.596  0.9490 -0.4629 -0.2285
  824MPD2    C312174   3.385   3.253  15.573 -0.2928 -0.0226  0.2427
  824MPD2    C412175   3.467   3.224  15.682  0.0701  0.6905  0.1920
  824MPD2    C512176   3.417   3.226  15.808 -0.0312  0.2835 -0.4705
  824MPD2     H12177   3.200   3.316  15.506 -0.7101 -2.8306 -0.0778
  824MPD2    H112178   3.573   3.206  15.668  0.0578  0.1093  0.8431
  824MPD2    H212179   3.258   3.229  15.925 -0.8422 -3.4753 -0.4862
  824MPD2    H312180   3.472   3.200  15.898  1.3005  0.8505 -1.1215
  824MPD2     N12181   3.440   3.263  15.442 -0.2096 -0.1626 -0.1251
  824MPD2    H512182   3.375   3.279  15.366  0.3447 -0.6758 -0.7051
  824MPD2    N112183   3.059   3.311  15.752 -0.2985  0.6037 -0.2000
  824MPD2    H712184   3.002   3.338  15.672 -2.3354 -1.0134  0.7173
  825MPD2     C12185   3.640   3.319  14.570 -0.0658  0.0970 -0.4379
  825MPD2    C112186   3.619   3.382  14.694  0.3404  0.2431  0.4109
  825MPD2    C212187   3.618   3.523  14.695 -0.0226  0.0471  0.7109
  825MPD2    C312188   3.637   3.598  14.580 -0.0741 -0.3912 -0.0793
  825MPD2    C412189   3.649   3.533  14.458 -0.5296 -0.2199 -0.2469
  825MPD2    C512190   3.641   3.394  14.452  0.6019 -0.3120  0.3510
  825MPD2     H12191   3.606   3.574  14.790  1.5906 -1.7100  1.8455
  825MPD2    H112192   3.653   3.582  14.361  2.8896  0.1667  0.0885
  825MPD2    H212193   3.650   3.212  14.555 -1.7835 -0.1598  0.3368
  825MPD2    H312194   3.648   3.347  14.354  0.2288  0.5479 -0.0867
  825MPD2     N12195   3.630   3.742  14.574  0.2664 -0.1867 -0.3943
  825MPD2    H512196   3.634   3.779  14.480 -2.3039 -1.3069 -0.9295
  825MPD2    N112197   3.613   3.306  14.817 -0.6014 -0.5450 -0.6072
  825MPD2    H712198   3.627   3.205  14.812 -1.7273 -0.6102 -2.3239
  826MPD2     C12199   3.504   3.594  13.485  0.3645  0.2302  0.2534
  826MPD2    C112200   3.425   3.489  13.443  0.8315 -0.2576  0.5426
  826MPD2    C212201   3.286   3.508  13.427 -0.0702  0.6306 -0.1861
  826MPD2    C312202   3.234   3.633  13.435 -0.4990  0.7259  0.5846
  826MPD2    C412203   3.318   3.735  13.457 -0.4969 -0.0312 -0.5538
  826MPD2    C512204   3.444   3.719  13.498 -0.4586  0.2752 -0.1925
  826MPD2     H12205   3.222   3.425  13.399 -1.0711  1.6031 -0.7793
  826MPD2    H112206   3.279   3.832  13.485  0.8567 -0.0586  1.4863
  826MPD2    H212207   3.603   3.580  13.526  0.5187 -2.3369 -0.9414
  826MPD2    H312208   3.502   3.806  13.526 -1.0433  0.2597  1.0541
  826MPD2     N12209   3.100   3.668  13.417 -1.3416  0.3671 -0.5876
  826MPD2    H512210   3.087   3.768  13.406 -0.0601  0.5342 -0.6497
  826MPD2    N112211   3.479   3.358  13.434  0.0512 -0.1841 -0.3190
  826MPD2    H712212   3.579   3.345  13.442  0.4370  2.6049 -0.7412
  827MPD2     C12213   3.538   0.577   9.778  0.0926 -0.2456  0.0570
  827MPD2    C112214   3.561   0.470   9.702  0.7333 -0.8885 -0.4409
  827MPD2    C212215   3.461   0.435   9.616  0.6926  0.4651  0.7612
  827MPD2    C312216   3.342   0.508   9.599 -0.4740  0.1223 -0.2144
  827MPD2    C412217   3.336   0.627   9.666  0.2861 -0.3063  0.0151
  827MPD2    C512218   3.420   0.655   9.765  0.2660  0.2358  0.3448
  827MPD2     H12219   3.467   0.345   9.555 -1.6185  0.2997  0.7777
  827MPD2    H112220   3.246   0.687   9.660  0.1952 -0.7229 -2.7864
  827MPD2    H212221   3.615   0.602   9.850  0.8462 -0.0075 -0.8336
  827MPD2    H312222   3.413   0.743   9.828 -1.5145  0.7481 -0.5806
  827MPD2     N12223   3.234   0.430   9.536  0.4705 -0.2557 -0.3740
  827MPD2    H512224   3.245   0.338   9.495  0.7803 -1.1697  1.7694
  827MPD2    N112225   3.683   0.403   9.720 -0.6527 -0.2206 -0.2658
  827MPD2    H712226   3.747   0.449   9.784 -0.6367 -0.2164 -0.2849
  828MPD2     C12227   2.313   4.674  11.957  0.3437 -0.2103 -0.1504
  828MPD2    C112228   2.203   4.682  11.879 -0.3146 -0.4049 -0.4764
  828MPD2    C212229   2.217   4.668  11.737  0.7222  0.2159  0.0689
  828MPD2    C312230   2.343   4.654  11.679 -0.2825 -0.4153 -0.2711
  828MPD2    C412231   2.447   4.659  11.761 -0.1390  0.4109  0.2604
  828MPD2    C512232   2.435   4.672  11.894 -0.3760  0.6097 -0.3025
  828MPD2     H12233   2.129   4.672  11.673  2.4000  1.0555 -2.1703
  828MPD2    H112234   2.544   4.629  11.724  0.3020  2.8433 -0.5447
  828MPD2    H212235   2.306   4.685  12.065 -2.6862 -1.0818 -0.2365
  828MPD2    H312236   2.527   4.659  11.949  0.7251 -3.2131 -3.0987
  828MPD2     N12237   2.379   4.639  11.547  0.1806  0.1812  0.1544
  828MPD2    H512238   2.477   4.652  11.526  0.3204 -1.3703 -0.1571
  828MPD2    N112239   2.078   4.704  11.936  0.0552 -0.3583  0.8556
  828MPD2    H712240   2.002   4.714  11.869 -1.2604 -1.8065  2.1505
  829MPD2     C12241   1.363   0.132  11.504  0.0537 -0.1046 -0.4747
  829MPD2    C112242   1.305   0.046  11.599  0.2098  0.1662  0.5038
  829MPD2    C212243   1.393   4.737  11.695  0.4679  0.1685  0.4008
  829MPD2    C312244   1.524   0.038  11.704  0.0349 -0.4881 -0.0889
  829MPD2    C412245   1.572   0.124  11.604 -0.1614 -0.9088 -0.1459
  829MPD2    C512246   1.494   0.169  11.503  0.3178 -0.1619  0.4190
  829MPD2     H12247   1.358   4.670  11.773  0.7554  0.9720  1.2127
  829MPD2    H112248   1.673   0.162  11.619 -0.8643  0.9387 -0.1364
  829MPD2    H212249   1.294   0.166  11.427 -0.1852  0.2081 -0.1265
  829MPD2    H312250   1.531   0.243  11.432 -0.9290  1.4198  1.4303
  829MPD2     N12251   1.619   0.004  11.806  0.4548  0.1831  0.8049
  829MPD2    H512252   1.715   0.036  11.795  0.6440 -1.0110 -1.0522
  829MPD2    N112253   1.165   0.023  11.592 -0.0609  0.2112  0.5130
  829MPD2    H712254   1.124   0.074  11.514  0.9771 -0.5793 -0.5430
  830MPD2     C12255   3.144   2.209  15.824  0.5552 -0.1819  0.9051
  830MPD2    C112256   3.024   2.251  15.758 -0.1622  0.1296  0.1062
  830MPD2    C212257   3.025   2.367  15.683 -0.7282  0.7102  0.9685
  830MPD2    C312258   3.140   2.447  15.687  0.3176  0.2138 -0.3198
  830MPD2    C412259   3.245   2.418  15.774 -0.2530 -0.1616  0.0326
  830MPD2    C512260   3.250   2.294  15.840  0.5624  0.7804 -0.9873
  830MPD2     H12261   2.946   2.406  15.620  1.3018 -1.3183 -2.7901
  830MPD2    H112262   3.320   2.493  15.794 -0.0541 -0.2681 -0.3153
  830MPD2    H212263   3.144   2.115  15.877 -0.9296  0.3410  1.8470
  830MPD2    H312264   3.336   2.273  15.902 -2.6916 -0.6291  3.0131
  830MPD2     N12265   3.146   2.566  15.622  0.0460 -0.2816 -0.2587
  830MPD2    H512266   3.210   2.637  15.656  3.3218 -3.8887  1.1191
  830MPD2    N112267   2.908   2.174  15.768 -0.4174  0.4130  0.6965
  830MPD2    H712268   2.901   2.108  15.845  1.2418  0.2378  0.6888
  831MPD2     C12269   2.524   4.127  16.254  0.3515 -0.2687  0.3823
  831MPD2    C112270   2.568   4.013  16.194 -0.1622  0.3976  0.4270
  831MPD2    C212271   2.489   3.901  16.195 -0.3054  0.0551 -0.0645
  831MPD2    C312272   2.364   3.902  16.258 -0.3629  0.0481  0.2463
  831MPD2    C412273   2.321   4.024  16.302  0.2546 -0.2654  0.6246
  831MPD2    C512274   2.399   4.132  16.300  0.8576  0.2330 -0.1084
  831MPD2     H12275   2.534   3.808  16.159  0.3814 -0.7294  2.8559
  831MPD2    H112276   2.224   4.029  16.352  0.0556  2.1009  0.0018
  831MPD2    H212277   2.593   4.209  16.269  0.1006 -0.6795  3.7112
  831MPD2    H312278   2.354   4.213  16.357  1.2760 -0.6623  1.4964
  831MPD2     N12279   2.284   3.796  16.254 -0.1775  0.1017 -0.1857
  831MPD2    H512280   2.214   3.793  16.327  0.7984  2.2305  0.8122
  831MPD2    N112281   2.695   4.020  16.139  0.2492  0.5017  0.0524
  831MPD2    H712282   2.747   4.106  16.150 -1.7289  1.6444  0.3812
  832MPD2     C12283   1.003   0.589  17.165  0.3340  0.1961  0.0086
  832MPD2    C112284   0.998   0.693  17.075 -0.7506  0.6237 -0.4922
  832MPD2    C212285   0.886   0.706  16.994  0.2165  0.5803 -0.0921
  832MPD2    C312286   0.794   0.608  16.985 -0.0805  0.4422  0.4919
  832MPD2    C412287   0.817   0.497  17.065  0.3477  0.6548 -0.2465
  832MPD2    C512288   0.908   0.490  17.159 -1.3837  0.3626  0.2609
  832MPD2     H12289   0.879   0.787  16.923  3.7259  1.7932  0.9469
  832MPD2    H112290   0.748   0.414  17.071  0.9161  0.2173  0.2110
  832MPD2    H212291   1.084   0.580  17.236 -0.7107 -0.7013  1.0773
  832MPD2    H312292   0.927   0.403  17.221  1.3968  1.1810  0.5476
  832MPD2     N12293   0.684   0.605  16.899  0.1345 -0.0549  0.5137
  832MPD2    H512294   0.632   0.519  16.891 -0.0427 -0.0238  1.2962
  832MPD2    N112295   1.102   0.784  17.060  0.5857  0.5031 -0.9483
  832MPD2    H712296   1.177   0.778  17.129 -0.0203  0.0710 -0.3259
  833MPD2     C12297   3.130   2.096  12.319 -0.3436  0.2512  0.0227
  833MPD2    C112298   3.024   2.164  12.276 -0.3329 -0.2607  0.3758
  833MPD2    C212299   3.017   2.183  12.137  0.5800 -0.7752 -0.6921
  833MPD2    C312300   3.112   2.127  12.050  0.1032  0.3159 -0.1134
  833MPD2    C412301   3.220   2.060  12.094 -0.1199  0.0885  0.2400
  833MPD2    C512302   3.226   2.037  12.233  0.6048  0.3874  0.6106
  833MPD2     H12303   2.927   2.231  12.098  0.5643 -0.3622 -0.1564
  833MPD2    H112304   3.288   2.019  12.020 -1.3261 -0.9323 -0.3072
  833MPD2    H212305   3.150   2.077  12.424  2.9104  0.1388 -0.6203
  833MPD2    H312306   3.309   1.986  12.280 -0.0738 -1.4183 -0.1640
  833MPD2     N12307   3.098   2.128  11.913 -0.4549  0.3744 -0.6138
  833MPD2    H512308   3.166   2.078  11.857  0.9019  1.4794  0.0461
  833MPD2    N112309   2.938   2.228  12.365 -0.5617 -0.0473  0.1093
  833MPD2    H712310   2.944   2.206  12.464  1.8985 -0.9622 -0.2350
  834MPD2     C12311   2.729   1.425  11.367  0.4256 -0.4530  0.5387
  834MPD2    C112312   2.697   1.520  11.275 -0.0650  0.5048  0.0741
  834MPD2    C212313   2.735   1.650  11.312 -0.2346  0.2634  0.1116
  834MPD2    C312314   2.807   1.677  11.430 -0.5100  1.1433 -0.5994
  834MPD2    C412315   2.842   1.571  11.515  0.3590 -0.6607 -0.2740
  834MPD2    C512316   2.788   1.448  11.485 -0.9400 -0.0641 -0.1105
  834MPD2     H12317   2.710   1.731  11.244 -2.7902 -0.4417  0.1858
  834MPD2    H112318   2.895   1.580  11.609  0.8730  0.4048 -0.6638
  834MPD2    H212319   2.709   1.319  11.363  1.8021 -0.6883  0.1320
  834MPD2    H312320   2.795   1.370  11.560  0.6963 -1.3864 -1.6285
  834MPD2     N12321   2.822   1.811  11.459 -0.0112  0.2090  0.6163
  834MPD2    H512322   2.780   1.874  11.392 -2.9835 -2.2187  0.1791
  834MPD2    N112323   2.636   1.486  11.151 -0.2527  0.6640 -0.1330
  834MPD2    H712324   2.584   1.399  11.143  2.3370 -0.6723 -2.2727
  835MPD2     C12325   3.174   4.566  10.262 -0.0829 -0.3206 -0.4262
  835MPD2    C112326   3.048   4.569  10.326 -0.5791 -0.0920  0.0107
  835MPD2    C212327   3.039   4.535  10.455 -0.9857  0.3222  0.0685
  835MPD2    C312328   3.147   4.510  10.534  0.3044 -0.3353  0.1802
  835MPD2    C412329   3.272   4.516  10.479 -0.0391  0.1791 -0.0693
  835MPD2    C512330   3.285   4.541  10.338  0.9025  0.1948 -0.0667
  835MPD2     H12331   2.940   4.515  10.492 -1.8530  1.6120 -1.5721
  835MPD2    H112332   3.367   4.500  10.530 -0.6997 -1.4409  0.6397
  835MPD2    H212333   3.201   4.594  10.160 -1.1562  1.7410 -0.1483
  835MPD2    H312334   3.379   4.533  10.284  0.5554 -0.0516 -0.6393
  835MPD2     N12335   3.137   4.468  10.671 -0.4474 -0.0682  0.0709
  835MPD2    H512336   3.226   4.450  10.718 -0.8320  1.3457  1.3512
  835MPD2    N112337   2.927   4.585  10.255  0.3699  0.5395  0.1556
  835MPD2    H712338   2.841   4.575  10.309  0.4877 -0.0713  0.2350
  836MPD2     C12339   2.529   0.024  10.992  0.0229 -0.6556  0.5176
  836MPD2    C112340   2.626   0.013  11.090  0.4871 -0.0310  0.0592
  836MPD2    C212341   2.604   0.081  11.212  0.4285 -0.3583  0.2885
  836MPD2    C312342   2.497   0.174  11.221  0.1940 -0.2144  0.2179
  836MPD2    C412343   2.399   0.186  11.120 -1.0138 -0.1672 -0.1781
  836MPD2    C512344   2.426   0.113  11.006 -0.0030 -0.3901  0.2228
  836MPD2     H12345   2.683   0.075  11.286  0.7392 -1.4017 -0.1125
  836MPD2    H112346   2.303   0.235  11.132 -1.0738  0.1143 -1.9190
  836MPD2    H212347   2.524   4.706  10.899 -1.0696  0.7034 -0.2218
  836MPD2    H312348   2.358   0.121  10.922 -1.1236  0.0107  1.1619
  836MPD2     N12349   2.477   0.263  11.334 -0.3336 -0.9649  0.8525
  836MPD2    H512350   2.407   0.336  11.329  0.0860 -0.5474  1.0265
  836MPD2    N112351   2.735   4.662  11.073 -0.2614 -0.2118 -1.0404
  836MPD2    H712352   2.728   4.595  10.997 -1.1324  0.5389 -1.6124
  837MPD2     C12353   1.193   3.939  10.162 -0.0366 -0.5835 -0.2537
  837MPD2    C112354   1.137   3.885  10.049  0.2446 -0.2419  0.7029
  837MPD2    C212355   1.028   3.950   9.992 -0.8853 -0.1798  0.3608
  837MPD2    C312356   0.976   4.069  10.045 -0.3653  0.6339 -1.0674
  837MPD2    C412357   1.042   4.128  10.153 -0.2181  0.5534 -0.4475
  837MPD2    C512358   1.139   4.057  10.215 -0.0299  0.7635 -0.6063
  837MPD2     H12359   0.981   3.906   9.905  0.6593  0.8722 -1.0060
  837MPD2    H112360   1.028   4.228  10.193  1.8898  1.2008 -1.3186
  837MPD2    H212361   1.287   3.900  10.200  1.8808  4.2314  0.0796
  837MPD2    H312362   1.189   4.088  10.306 -2.3548 -0.0521  0.9591
  837MPD2     N12363   0.873   4.127   9.970  0.7934  0.1928 -0.1525
  837MPD2    H512364   0.831   4.070   9.897 -0.5474  0.4748  0.3980
  837MPD2    N112365   1.180   3.764  10.005  0.3879  0.3383  0.2220
  837MPD2    H712366   1.143   3.740   9.913 -0.6484 -0.2233  0.7798
  838MPD2     C12367   0.010   3.174  11.644  0.1902 -0.1092  0.1762
  838MPD2    C112368   4.656   3.069  11.624  0.2521 -0.1859 -0.8151
  838MPD2    C212369   4.555   3.043  11.716  0.0454  0.0102  0.1681
  838MPD2    C312370   4.544   3.113  11.825  0.1013 -0.0884  0.1068
  838MPD2    C412371   4.624   3.221  11.842 -0.9023  0.3297  0.4772
  838MPD2    C512372   4.733   3.248  11.756  0.1648  0.0370  0.3862
  838MPD2     H12373   4.477   2.971  11.691 -0.2503  0.2563  0.3820
  838MPD2    H112374   4.614   3.289  11.926 -1.6309  1.2578 -0.3712
  838MPD2    H212375   0.096   3.181  11.579 -0.7530 -1.8511 -1.2760
  838MPD2    H312376   0.074   3.322  11.772 -0.4293  0.6715  0.3357
  838MPD2     N12377   4.429   3.090  11.908  0.3052 -0.0411  0.2495
  838MPD2    H512378   4.374   3.007  11.887 -0.6653  0.5245  0.5508
  838MPD2    N112379   4.668   2.977  11.521  0.2289  0.3294  0.0667
  838MPD2    H712380   4.604   2.899  11.512 -1.4348  1.6001  0.9998
  839MPD2     C12381   3.999   2.502  11.379  0.3038 -0.5355  0.0364
  839MPD2    C112382   4.104   2.416  11.370  0.9675 -0.2179 -0.0466
  839MPD2    C212383   4.228   2.470  11.336  0.8749  1.2314 -0.3255
  839MPD2    C312384   4.251   2.609  11.336 -0.4920 -0.2145 -0.7307
  839MPD2    C412385   4.151   2.693  11.365  0.4790  0.4199  0.0798
  839MPD2    C512386   4.024   2.634  11.376  0.4561 -0.0082  0.2652
  839MPD2     H12387   4.314   2.406  11.318 -0.6731 -0.7948 -0.5596
  839MPD2    H112388   4.161   2.800  11.350 -0.0581  0.3268 -0.8968
  839MPD2    H212389   3.898   2.465  11.395  0.2794  0.1710  1.4887
  839MPD2    H312390   3.934   2.695  11.378 -0.3406 -1.2741  3.1151
  839MPD2     N12391   4.375   2.665  11.305 -0.3032 -0.1157 -0.4197
  839MPD2    H512392   4.381   2.766  11.306  1.1714 -0.1939 -1.9267
  839MPD2    N112393   4.099   2.282  11.393 -0.1680 -0.2158 -0.1221
  839MPD2    H712394   4.187   2.236  11.371 -0.4322 -1.2853  1.0635
  840MPD2     C12395   4.204   0.675   9.831 -0.3119 -0.1683 -0.3149
  840MPD2    C112396   4.204   0.562   9.917 -0.2619  0.3134 -0.5394
  840MPD2    C212397   4.253   0.563  10.048 -0.7845  0.7112 -0.0446
  840MPD2    C312398   4.311   0.684  10.090 -0.0819  0.3489  0.4817
  840MPD2    C412399   4.303   0.797  10.016  0.1090 -0.4421  0.7113
  840MPD2    C512400   4.256   0.792   9.891 -0.3331 -0.1832  0.3068
  840MPD2     H12401   4.236   0.479  10.114  0.9242  0.7718  0.4807
  840MPD2    H112402   4.343   0.893  10.049  0.5440  0.1417 -1.5488
  840MPD2    H212403   4.158   0.683   9.733 -0.8310 -0.7008 -0.1119
  840MPD2    H312404   4.272   0.881   9.830  1.8480  0.4487  1.7825
  840MPD2     N12405   4.365   0.700  10.218  0.1217  0.0313 -0.5693
  840MPD2    H512406   4.387   0.792  10.255  0.8921 -0.2631 -0.3058
  840MPD2    N112407   4.139   0.450   9.862  0.9752 -0.0599 -0.6617
  840MPD2    H712408   4.094   0.462   9.772  0.1807 -0.5808 -0.3320
  841MPD2     C12409   0.318   3.923  14.455  0.0099  0.0034  0.4087
  841MPD2    C112410   0.227   3.937  14.351  0.2563  0.0118 -0.2268
  841MPD2    C212411   0.203   4.057  14.296 -0.2515 -0.5160  0.2043
  841MPD2    C312412   0.254   4.174  14.351 -0.3064  0.2174 -0.1489
  841MPD2    C412413   0.347   4.150  14.451 -0.4217 -0.2600 -1.0370
  841MPD2    C512414   0.379   4.031  14.505  0.5487 -0.2936 -0.5874
  841MPD2     H12415   0.126   4.072  14.221  0.2256  1.0362  0.0190
  841MPD2    H112416   0.395   4.239  14.491  1.4741 -1.5834 -0.4080
  841MPD2    H212417   0.352   3.830  14.497  0.2180  0.8875  2.1899
  841MPD2    H312418   0.456   4.019  14.580  0.2501  1.1287 -0.0694
  841MPD2     N12419   0.220   4.301  14.300  0.4090  0.7618  0.0198
  841MPD2    H512420   0.144   4.300  14.233 -0.0274 -2.9559  0.5409
  841MPD2    N112421   0.154   3.832  14.300 -0.7701  0.3557 -0.1904
  841MPD2    H712422   0.115   3.851  14.208 -0.4141  1.7637 -0.0567
  842MPD2     C12423   0.100   0.685  16.896  0.1925 -0.1375  0.8847
  842MPD2    C112424   4.704   0.659  16.891  0.2680 -0.1613  0.1181
  842MPD2    C212425   4.653   0.556  16.972  0.0842 -0.4228 -0.1937
  842MPD2    C312426   4.729   0.487  17.059 -0.4631 -0.1769 -0.3782
  842MPD2    C412427   0.123   0.526  17.074 -0.2062  0.0880 -0.1542
  842MPD2    C512428   0.173   0.631  16.995 -0.3148  0.0715 -0.1524
  842MPD2     H12429   4.551   0.524  16.956  0.2771 -0.1383 -1.9855
  842MPD2    H112430   0.186   0.478  17.147  0.8416  0.8522 -0.5674
  842MPD2    H212431   0.146   0.757  16.829  0.5255  0.5150  1.8071
  842MPD2    H312432   0.277   0.659  17.007 -0.9235  1.6650  1.3986
  842MPD2     N12433   4.680   0.399  17.155  0.4399 -0.6712  0.0424
  842MPD2    H512434   4.733   0.390  17.241 -1.1536 -0.8205  1.0020
  842MPD2    N112435   4.620   0.725  16.793  0.2616  0.0713 -0.1957
  842MPD2    H712436   4.662   0.797  16.736 -1.7117 -0.5524 -2.4448
  843MPD2     C12437   2.156   1.544   0.027  0.1036  0.3767  0.3674
  843MPD2    C112438   2.267   1.521   0.106 -0.1909 -0.0175  0.1174
  843MPD2    C212439   2.353   1.624   0.128  0.6272 -0.6404 -0.8539
  843MPD2    C312440   2.335   1.750   0.075  0.1170  0.5625  0.7471
  843MPD2    C412441   2.232   1.767  17.736  0.0431 -0.1010 -0.1018
  843MPD2    C512442   2.146   1.669  17.713 -0.3589 -0.2373 -0.3759
  843MPD2     H12443   2.449   1.597   0.170  1.1477  1.3486 -0.7796
  843MPD2    H112444   2.208   1.859  17.684 -0.6159  0.3766  1.0300
  843MPD2    H212445   2.078   1.472   0.006  0.1671  0.1744  0.8174
  843MPD2    H312446   2.077   1.695  17.633 -2.0472  2.8806  2.1000
  843MPD2     N12447   2.435   1.844   0.077 -0.0752  0.5969  0.0577
  843MPD2    H512448   2.428   1.923   0.013 -0.2230 -0.4579 -1.2362
  843MPD2    N112449   2.283   1.393   0.163  0.1280 -0.2611 -0.3116
  843MPD2    H712450   2.226   1.318   0.124 -1.5474  0.8282  0.0850
  844MPD2     C12451   0.392   0.005  16.356  0.3208 -0.3999 -0.1046
  844MPD2    C112452   0.447   0.088  16.257 -0.0513 -0.0043  0.2912
  844MPD2    C212453   0.518   0.193  16.307  0.1669 -0.0879 -0.6849
  844MPD2    C312454   0.544   0.211  16.444  0.1849 -0.3537 -0.2518
  844MPD2    C412455   0.493   0.122  16.539 -0.6275 -0.2668  0.4114
  844MPD2    C512456   0.421   0.015  16.482 -0.2746  0.5551  0.0357
  844MPD2     H12457   0.546   0.268  16.234  1.1545 -2.3965 -2.6563
  844MPD2    H112458   0.495   0.127  16.647 -2.5410 -0.2147  0.4518
  844MPD2    H212459   0.330   4.656  16.333 -3.1309  1.9279  0.5209
  844MPD2    H312460   0.373   4.673  16.539  0.0295  0.7443  0.5480
  844MPD2     N12461   0.634   0.318  16.494  0.0050 -0.6373 -0.3409
  844MPD2    H512462   0.654   0.393  16.429 -2.2730  0.2562 -0.0421
  844MPD2    N112463   0.427   0.070  16.118 -0.4367  0.8615  0.2978
  844MPD2    H712464   0.473   0.135  16.055  1.0140  1.3483  1.8791
  845MPD2     C12465   0.781   1.249  16.560 -0.5850  0.3532  0.3449
  845MPD2    C112466   0.848   1.210  16.678 -0.1834  0.7004  0.4244
  845MPD2    C212467   0.890   1.080  16.687  0.4616 -0.4932 -0.4332
  845MPD2    C312468   0.873   0.985  16.582 -0.4322 -0.3375 -0.5498
  845MPD2    C412469   0.799   1.028  16.473 -0.6105 -0.4454  0.2586
  845MPD2    C512470   0.761   1.154  16.467  0.3624 -0.1539  0.0143
  845MPD2     H12471   0.937   1.047  16.778 -0.0463 -2.4534 -0.8808
  845MPD2    H112472   0.775   0.959  16.393 -2.4554 -0.3099  0.7105
  845MPD2    H212473   0.738   1.347  16.544  1.9554  1.2653 -0.9511
  845MPD2    H312474   0.712   1.178  16.373  2.0175  1.6099 -0.3921
  845MPD2     N12475   0.904   0.853  16.607 -0.5878 -0.7992 -0.2294
  845MPD2    H512476   0.951   0.834  16.695 -3.4612 -1.8268  1.0601
  845MPD2    N112477   0.867   1.310  16.779 -0.6098  0.4494  0.4617
  845MPD2    H712478   0.820   1.398  16.760  0.0252  0.3313 -1.6307
  846MPD2     C12479   1.816   1.442  13.314 -0.1779  0.5801 -0.0788
  846MPD2    C112480   1.887   1.558  13.324  0.5306  0.0344 -1.4484
  846MPD2    C212481   1.889   1.624  13.448 -0.0789 -0.0041  0.1828
  846MPD2    C312482   1.827   1.572  13.558 -0.1025 -0.0380 -1.0122
  846MPD2    C412483   1.754   1.454  13.553 -0.4626  0.0283 -0.7751
  846MPD2    C512484   1.749   1.393  13.429  0.1228  0.1797  0.3427
  846MPD2     H12485   1.952   1.711  13.460 -0.6776  0.2772  1.3590
  846MPD2    H112486   1.703   1.406  13.635 -2.1362  0.3370 -1.6275
  846MPD2    H212487   1.809   1.389  13.220  2.4712 -0.2287  0.1862
  846MPD2    H312488   1.698   1.298  13.421  1.7031 -0.5279 -1.3852
  846MPD2     N12489   1.840   1.634  13.683 -0.4024 -0.1391 -0.0940
  846MPD2    H512490   1.911   1.706  13.691 -0.8462  0.2290  0.5606
  846MPD2    N112491   1.955   1.611  13.217  0.2227  0.7188  0.1918
  846MPD2    H712492   2.008   1.695  13.237  1.0089  0.6446 -1.6120
  847MPD2     C12493   2.609   2.943  14.619 -0.6384 -0.5230 -0.0429
  847MPD2    C112494   2.695   3.027  14.558 -0.0914  0.3304  0.3355
  847MPD2    C212495   2.824   2.988  14.535  0.4344 -0.2107 -0.1701
  847MPD2    C312496   2.878   2.867  14.572  0.5201  0.1672 -0.2417
  847MPD2    C412497   2.797   2.780  14.638 -0.2447  0.5069  0.0001
  847MPD2    C512498   2.669   2.826  14.669 -0.3263 -0.8921 -0.6878
  847MPD2     H12499   2.893   3.061  14.494  0.3216 -0.1828 -0.3096
  847MPD2    H112500   2.828   2.681  14.670  2.6196  1.0673 -1.1188
  847MPD2    H212501   2.506   2.969  14.641  0.1684  2.4478  0.2489
  847MPD2    H312502   2.596   2.764  14.721 -0.5511  0.7106  0.9421
  847MPD2     N12503   3.012   2.838  14.551 -0.1607  0.2732  0.1517
  847MPD2    H512504   3.064   2.768  14.603  0.8608  0.7869 -0.1801
  847MPD2    N112505   2.658   3.160  14.513  0.2386 -0.1718 -0.6002
  847MPD2    H712506   2.727   3.201  14.450  1.0273 -0.5328  0.0259
  848MPD2     C12507   0.470   0.853  16.129 -0.1186 -0.0659 -0.4618
  848MPD2    C112508   0.473   0.923  16.251  0.6868  0.2565  0.6442
  848MPD2    C212509   0.487   1.059  16.247  0.4498 -0.2936  0.0237
  848MPD2    C312510   0.481   1.122  16.116 -0.0430 -0.2770 -0.3519
  848MPD2    C412511   0.472   1.052  15.998  0.1915 -0.5152  0.3577
  848MPD2    C512512   0.475   0.920  16.008  0.1496 -0.5332  0.4977
  848MPD2     H12513   0.481   1.117  16.338  2.0610 -1.3483  0.7996
  848MPD2    H112514   0.479   1.103  15.903  0.5822 -2.6622 -0.7713
  848MPD2    H212515   0.458   0.746  16.119  1.3878 -0.3421  0.6389
  848MPD2    H312516   0.464   0.868  15.914 -1.3692 -1.3317  1.1287
  848MPD2     N12517   0.470   1.264  16.100  0.1540 -0.3684 -0.1275
  848MPD2    H512518   0.447   1.302  16.009  2.6365 -0.7543 -0.9045
  848MPD2    N112519   0.467   0.856  16.372  0.3396 -0.4925  0.0539
  848MPD2    H712520   0.443   0.907  16.456 -0.1715 -0.3994 -0.1531
  849MPD2     C12521   4.284   0.875  14.587 -0.6012  0.4863 -0.2754
  849MPD2    C112522   4.229   0.801  14.494 -0.1098  0.2927  0.5053
  849MPD2    C212523   4.281   0.680  14.453  0.4349  0.0356 -0.9220
  849MPD2    C312524   4.409   0.644  14.483 -0.2299  0.7733  0.0058
  849MPD2    C412525   4.475   0.741  14.563  0.5611  0.5949 -0.4548
  849MPD2    C512526   4.408   0.842  14.625  0.1362 -0.2420  0.1255
  849MPD2     H12527   4.222   0.608  14.398 -1.0632  1.7320 -1.5269
  849MPD2    H112528   4.581   0.726  14.578  0.3388 -0.2244  0.3228
  849MPD2    H212529   4.237   0.966  14.624 -0.3099 -0.5122  2.5580
  849MPD2    H312530   4.456   0.915  14.689  1.4428 -0.2200 -0.8864
  849MPD2     N12531   4.477   0.537  14.406 -0.0247 -0.4887  0.1130
  849MPD2    H512532   4.578   0.545  14.413 -0.4387  2.7862  2.3416
  849MPD2    N112533   4.109   0.856  14.435 -0.1579 -0.3608  0.4694
  849MPD2    H712534   4.086   0.949  14.469  1.5893 -0.4587  1.9206
  850MPD2     C12535   1.972   3.696  14.984  0.3863 -0.4113 -0.2392
  850MPD2    C112536   2.078   3.662  15.064 -0.0716  0.1425  0.2831
  850MPD2    C212537   2.199   3.727  15.062 -0.1233  0.3213 -0.6441
  850MPD2    C312538   2.218   3.822  14.968 -0.1797 -0.0985  0.0396
  850MPD2    C412539   2.118   3.853  14.876  0.0278 -1.0786 -0.2344
  850MPD2    C512540   1.995   3.794  14.887 -0.2295  0.2095  0.0095
  850MPD2     H12541   2.272   3.701  15.138  0.0345  0.0259 -0.8963
  850MPD2    H112542   2.141   3.928  14.801 -1.2878 -0.4890 -0.0392
  850MPD2    H212543   1.888   3.627  14.978  2.3673 -2.8830  0.3117
  850MPD2    H312544   1.920   3.816  14.812  0.3797  1.4782 -0.2242
  850MPD2     N12545   2.346   3.881  14.953 -0.8645  0.4274  0.5794
  850MPD2    H512546   2.346   3.961  14.890  1.0686 -0.3970 -0.4784
  850MPD2    N112547   2.057   3.565  15.165  0.2155  0.0071 -0.4089
  850MPD2    H712548   1.968   3.551  15.211  0.4160 -0.9413 -0.3117
  851MPD2     C12549   2.466   3.102  15.879 -0.0773  0.9463 -0.1954
  851MPD2    C112550   2.490   3.160  15.756  0.6452  0.2879  0.5615
  851MPD2    C212551   2.616   3.149  15.700  0.0991  0.1385 -0.4053
  851MPD2    C312552   2.714   3.079  15.769 -0.0538  0.6300  0.0350
  851MPD2    C412553   2.683   3.007  15.885 -0.0912 -0.1778 -0.0711
  851MPD2    C512554   2.560   3.022  15.943  1.9135 -0.7578 -0.8188
  851MPD2     H12555   2.647   3.206  15.613 -2.0370  0.9378 -0.6276
  851MPD2    H112556   2.744   2.931  15.933  0.4921 -0.1930 -0.8453
  851MPD2    H212557   2.368   3.104  15.926 -1.1472  2.5573 -2.4762
  851MPD2    H312558   2.541   2.966  16.033  2.5654 -2.1265 -1.5404
  851MPD2     N12559   2.831   3.046  15.693 -0.2916 -0.2516  0.0586
  851MPD2    H512560   2.828   3.076  15.596  1.7194 -0.0012  0.0898
  851MPD2    N112561   2.382   3.232  15.687  0.0732 -0.2555 -0.4423
  851MPD2    H712562   2.297   3.257  15.736  1.9062  3.2359  0.9781
  852MPD2     C12563   1.903   2.054   9.229 -0.4971  0.4352 -0.5020
  852MPD2    C112564   1.976   2.067   9.343  0.5327 -0.1617  0.8960
  852MPD2    C212565   2.075   2.163   9.350  0.5170  0.0956  0.5398
  852MPD2    C312566   2.082   2.261   9.255 -0.5246 -0.0235  0.0404
  852MPD2    C412567   2.006   2.246   9.137  0.6497 -0.5166  0.5473
  852MPD2    C512568   1.916   2.142   9.125 -0.1010 -0.4476  0.5327
  852MPD2     H12569   2.133   2.174   9.441  2.2618 -3.0313 -0.2235
  852MPD2    H112570   2.001   2.320   9.058 -0.8534  0.0179  1.1302
  852MPD2    H212571   1.832   1.973   9.214 -1.2044  0.7899  0.8829
  852MPD2    H312572   1.852   2.121   9.040  1.1090  1.3138 -0.8326
  852MPD2     N12573   2.158   2.375   9.294  0.6151  0.5170 -0.5411
  852MPD2    H512574   2.201   2.377   9.386  1.0886  2.8381 -0.8056
  852MPD2    N112575   1.961   1.986   9.453  0.0055 -0.2475  0.3861
  852MPD2    H712576   2.024   1.999   9.531  1.0800  0.5406 -0.5984
  853MPD2     C12577   4.128   0.850  12.282  0.3914  0.1777 -0.4139
  853MPD2    C112578   4.089   0.985  12.276  0.4476 -0.0463 -0.2200
  853MPD2    C212579   4.032   1.031  12.157 -0.3102 -0.0106 -0.7600
  853MPD2    C312580   4.042   0.957  12.045 -0.5471 -0.0682 -0.6155
  853MPD2    C412581   4.105   0.839  12.047  0.9642 -0.4943  0.1968
  853MPD2    C512582   4.134   0.775  12.164 -0.5451 -0.4790 -0.0429
  853MPD2     H12583   3.991   1.131  12.155  0.0669  0.1380 -1.0479
  853MPD2    H112584   4.118   0.780  11.957 -1.2577 -1.2450  0.3570
  853MPD2    H212585   4.163   0.812  12.377 -2.4460 -1.7643 -0.1452
  853MPD2    H312586   4.171   0.673  12.169 -1.9958 -1.0382 -0.7385
  853MPD2     N12587   3.984   0.996  11.924  0.1924 -0.1160 -0.3721
  853MPD2    H512588   4.007   0.954  11.835 -1.8159 -0.3615 -0.7600
  853MPD2    N112589   4.081   1.061  12.393 -0.1561 -0.2510  0.2503
  853MPD2    H712590   4.089   1.015  12.483 -1.1579 -0.7195  0.0968
  854MPD2     C12591   0.403   0.407  12.878  0.7984  0.1823  0.4811
  854MPD2    C112592   0.450   0.416  12.748 -0.2141 -0.3001 -0.3554
  854MPD2    C212593   0.588   0.420  12.721 -0.5987 -0.1724  0.2373
  854MPD2    C312594   0.670   0.393  12.825  0.2787  0.0582 -0.7017
  854MPD2    C412595   0.612   0.369  12.954  0.2879  0.6782 -0.1682
  854MPD2    C512596   0.485   0.385  12.976  0.2424 -0.0610 -1.1309
  854MPD2     H12597   0.629   0.439  12.622 -0.9120  0.2319  0.1840
  854MPD2    H112598   0.674   0.340  13.038  0.2360 -3.8043 -1.6651
  854MPD2    H212599   0.298   0.417  12.900  0.0175 -0.6675 -2.9234
  854MPD2    H312600   0.446   0.373  13.076  1.6874  3.4405 -0.1382
  854MPD2     N12601   0.814   0.405  12.818  0.4358 -0.0563  0.1552
  854MPD2    H512602   0.863   0.368  12.898 -1.9416 -0.3848  1.4420
  854MPD2    N112603   0.352   0.418  12.647  0.6189  0.0240 -0.9649
  854MPD2    H712604   0.254   0.408  12.672  0.8161 -1.4381 -0.7644
  855MPD2     C12605   1.600   0.624  13.366  0.5641 -0.0378 -0.0372
  855MPD2    C112606   1.477   0.557  13.377 -0.4776 -0.7308 -1.0818
  855MPD2    C212607   1.400   0.535  13.267 -0.6391  0.1574  0.0852
  855MPD2    C312608   1.451   0.573  13.144 -0.5109 -0.2712 -0.5194
  855MPD2    C412609   1.560   0.648  13.132  0.4078  0.6087 -0.3464
  855MPD2    C512610   1.637   0.670  13.242 -0.1812  0.2701 -0.4656
  855MPD2     H12611   1.314   0.469  13.276  0.2167 -1.0800 -0.7610
  855MPD2    H112612   1.592   0.680  13.034 -0.8338 -0.8649 -1.2261
  855MPD2    H212613   1.668   0.625  13.450  1.4164 -0.8724 -0.7187
  855MPD2    H312614   1.733   0.719  13.232  0.8135 -1.6746 -0.3360
  855MPD2     N12615   1.374   0.546  13.024  0.1956 -0.3770  0.8447
  855MPD2    H512616   1.408   0.580  12.934 -1.2649 -1.1470  0.0073
  855MPD2    N112617   1.427   0.498  13.495 -0.1647 -0.5207 -0.1286
  855MPD2    H712618   1.337   0.452  13.487  0.0404 -0.6126 -1.8237
  856MPD2     C12619   3.504   1.673  14.082 -0.2472 -0.0097  0.9735
  856MPD2    C112620   3.547   1.787  14.009  0.2812 -0.2412 -0.3886
  856MPD2    C212621   3.470   1.832  13.906 -0.2240 -0.2438  0.5698
  856MPD2    C312622   3.355   1.770  13.859 -0.9897 -0.2266 -0.3623
  856MPD2    C412623   3.317   1.655  13.924 -0.5496  0.2555 -0.1172
  856MPD2    C512624   3.388   1.616  14.031 -0.3637 -0.0023  0.7604
  856MPD2     H12625   3.506   1.912  13.841 -0.9970 -0.2051  0.1919
  856MPD2    H112626   3.224   1.604  13.900  0.2572 -0.7469 -1.1083
  856MPD2    H212627   3.555   1.629  14.167 -0.2001 -2.4795 -0.3499
  856MPD2    H312628   3.353   1.530  14.086  0.6567 -0.3270  0.9052
  856MPD2     N12629   3.271   1.817  13.753  0.2156 -0.0135 -0.2528
  856MPD2    H512630   3.192   1.758  13.731 -0.3297 -0.0199  1.7072
  856MPD2    N112631   3.649   1.871  14.050  0.0401 -0.0475  0.5107
  856MPD2    H712632   3.665   1.952  13.991 -1.4712 -2.8456 -3.7567
  857MPD2     C12633   0.402   4.662  12.760  1.0308 -0.3623 -0.1724
  857MPD2    C112634   0.371   4.544  12.818  0.1544 -0.0689 -0.3600
  857MPD2    C212635   0.363   4.540  12.955 -0.4873  0.1593  0.3026
  857MPD2    C312636   0.385   4.646  13.040  0.7638  0.1582 -0.1523
  857MPD2    C412637   0.417   0.025  12.981  0.1607  0.0944  0.8645
  857MPD2    C512638   0.429   0.035  12.840 -0.1726 -0.0048 -0.4848
  857MPD2     H12639   0.328   4.451  13.007 -0.1746  1.2341  2.3760
  857MPD2    H112640   0.433   0.116  13.038  0.5592 -0.8571  2.2738
  857MPD2    H212641   0.415   4.674  12.653  0.1347  0.5565 -0.1748
  857MPD2    H312642   0.454   0.133  12.800 -0.1756  0.3450  0.3741
  857MPD2     N12643   0.368   4.630  13.180 -0.0651 -0.5105  0.1332
  857MPD2    H512644   0.328   4.540  13.206 -0.0303  0.2700  2.9389
  857MPD2    N112645   0.340   4.431  12.741  0.0320  0.6494 -0.5707
  857MPD2    H712646   0.319   4.450  12.644  0.3481 -0.4364 -0.8553
  858MPD2     C12647   1.252   3.079  16.324 -0.3038 -0.1561 -0.2969
  858MPD2    C112648   1.239   2.944  16.363  0.3706 -0.4377 -0.3923
  858MPD2    C212649   1.176   2.912  16.486 -0.0709  0.2631 -0.4134
  858MPD2    C312650   1.130   3.017  16.570  0.2502 -0.1814 -0.3110
  858MPD2    C412651   1.145   3.146  16.522  0.1397 -1.0566  0.0912
  858MPD2    C512652   1.209   3.180  16.405 -0.0361  0.2855  0.1191
  858MPD2     H12653   1.171   2.812  16.527  1.5361  0.3744  0.0336
  858MPD2    H112654   1.103   3.224  16.586  0.2767 -0.6361 -0.3320
  858MPD2    H212655   1.303   3.107  16.232  0.1899  1.5177  0.5098
  858MPD2    H312656   1.211   3.285  16.380  0.7915  0.6806  1.8290
  858MPD2     N12657   1.061   3.003  16.695 -0.2241 -0.6515  0.6633
  858MPD2    H512658   1.037   3.090  16.743  1.3567  0.1851 -0.0711
  858MPD2    N112659   1.278   2.833  16.279 -0.7853  0.5713  0.6481
  858MPD2    H712660   1.251   2.741  16.314 -2.1622  0.6569 -0.1960
  859MPD2     C12661   3.621   0.389  14.590  0.4619 -0.2485 -0.1190
  859MPD2    C112662   3.751   0.416  14.552 -0.4440  0.4328 -0.5161
  859MPD2    C212663   3.799   0.357  14.435  0.0289 -0.1974 -0.5208
  859MPD2    C312664   3.718   0.287  14.349 -0.0363 -0.2807 -0.2861
  859MPD2    C412665   3.589   0.265  14.390 -0.6442  0.0995  0.1407
  859MPD2    C512666   3.549   0.308  14.513  0.2018 -0.2403 -0.6619
  859MPD2     H12667   3.903   0.372  14.406 -0.2925  0.2994 -1.3970
  859MPD2    H112668   3.521   0.198  14.339  0.2667 -1.6942  1.3019
  859MPD2    H212669   3.572   0.424  14.680  1.1645  2.1077 -0.6753
  859MPD2    H312670   3.447   0.284  14.542  0.9298 -0.7327  1.4940
  859MPD2     N12671   3.761   0.230  14.226 -0.1263  0.9125 -0.1251
  859MPD2    H512672   3.682   0.181  14.184 -1.0032  1.1928  1.1689
  859MPD2    N112673   3.829   0.495  14.640 -0.6619  0.3217  0.4504
  859MPD2    H712674   3.798   0.539  14.726  0.9339  1.2780  0.5413
  860MPD2     C12675   1.695   1.044  11.184 -0.5543  0.2837  0.0132
  860MPD2    C112676   1.726   0.991  11.307  0.2552  0.1213 -0.6933
  860MPD2    C212677   1.630   0.942  11.388 -0.0044 -0.1333  0.2348
  860MPD2    C312678   1.497   0.952  11.358  0.2567 -0.4326 -0.5780
  860MPD2    C412679   1.465   0.992  11.227 -0.2968 -0.4731  0.2884
  860MPD2    C512680   1.566   1.035  11.143  0.1819 -0.1583 -0.4347
  860MPD2     H12681   1.655   0.910  11.489  5.0472  1.1726 -0.6514
  860MPD2    H112682   1.361   0.987  11.195 -0.7141  3.0701  1.0495
  860MPD2    H212683   1.769   1.089  11.119 -0.0483  2.0504  1.8184
  860MPD2    H312684   1.538   1.077  11.047 -2.5207 -0.9590 -0.0009
  860MPD2     N12685   1.392   0.917  11.447 -0.5642 -0.0295  0.2730
  860MPD2    H512686   1.406   0.863  11.531  0.8351  0.2850  0.2416
  860MPD2    N112687   1.860   0.993  11.352  0.6837 -0.3585 -0.3241
  860MPD2    H712688   1.864   0.956  11.446 -1.6428 -1.2770 -0.5729
  861MPD2     C12689   0.569   3.480  10.886 -0.4392 -0.6174 -0.5417
  861MPD2    C112690   0.560   3.604  10.948  0.4706 -0.8168  0.5009
  861MPD2    C212691   0.504   3.716  10.884  0.2201 -0.4066  0.3565
  861MPD2    C312692   0.450   3.692  10.758 -0.5165 -0.4389  0.3233
  861MPD2    C412693   0.449   3.567  10.692  0.4437  0.4564 -0.3895
  861MPD2    C512694   0.511   3.467  10.762  0.1301  0.4245 -0.1762
  861MPD2     H12695   0.490   3.804  10.947 -2.2638  0.1191 -0.9109
  861MPD2    H112696   0.389   3.545  10.605 -0.0302 -1.7985  0.5080
  861MPD2    H212697   0.612   3.396  10.939  1.4859  1.3612  0.9869
  861MPD2    H312698   0.508   3.364  10.730  1.4940  0.6909 -1.1681
  861MPD2     N12699   0.367   3.788  10.702  0.2572  0.0117 -0.1753
  861MPD2    H512700   0.334   3.762  10.609 -1.9675  1.6042  0.1532
  861MPD2    N112701   0.603   3.622  11.083 -0.4306  0.1740 -0.5583
  861MPD2    H712702   0.591   3.716  11.120 -0.7854 -0.1668  0.1789
  862MPD2     C12703   0.179   3.935  10.047  0.1490 -0.1602  0.6070
  862MPD2    C112704   0.239   3.886  10.160  0.3429 -0.6430 -0.0397
  862MPD2    C212705   0.289   3.761  10.161 -0.4436  0.0066  0.5155
  862MPD2    C312706   0.263   3.673  10.060 -0.1337  0.6565  0.1786
  862MPD2    C412707   0.201   3.719   9.945 -0.2425  0.0981 -0.3214
  862MPD2    C512708   0.155   3.851   9.947  0.4737  0.0831  0.7559
  862MPD2     H12709   0.341   3.729  10.251  0.0734 -0.6205  0.0051
  862MPD2    H112710   0.184   3.655   9.859 -0.2121  2.0775 -1.8045
  862MPD2    H212711   0.143   4.037  10.053  3.0365  0.9177 -0.1339
  862MPD2    H312712   0.101   3.885   9.860 -0.1310  0.1770  1.1680
  862MPD2     N12713   0.313   3.537  10.059 -0.0506 -0.0602 -0.0740
  862MPD2    H512714   0.273   3.468   9.997  1.3983 -2.0053  1.1743
  862MPD2    N112715   0.254   3.958  10.282  0.8141 -0.4526  0.5158
  862MPD2    H712716   0.294   3.907  10.360  1.9074  0.4619  0.5476
  863MPD2     C12717   3.641   1.838  16.762  0.5853  0.4904 -0.3688
  863MPD2    C112718   3.729   1.945  16.757 -0.1344  0.1006  0.1971
  863MPD2    C212719   3.867   1.929  16.767 -0.0510  0.1205 -0.5053
  863MPD2    C312720   3.915   1.807  16.801  0.2559 -0.1247 -0.8992
  863MPD2    C412721   3.834   1.695  16.796  0.6688  0.3431  0.6952
  863MPD2    C512722   3.701   1.713  16.774 -0.5833  0.0539  0.0915
  863MPD2     H12723   3.933   2.014  16.754 -0.3974  0.5838  0.7675
  863MPD2    H112724   3.869   1.593  16.813  0.3331  0.4499  2.0197
  863MPD2    H212725   3.535   1.850  16.742  0.1664 -1.6932  0.5770
  863MPD2    H312726   3.648   1.618  16.766  1.4279 -1.0796  0.1173
  863MPD2     N12727   4.049   1.769  16.830 -0.6908 -0.7945  0.4960
  863MPD2    H512728   4.060   1.676  16.869  3.3677 -0.3724  0.3332
  863MPD2    N112729   3.671   2.066  16.717 -0.4627 -0.2095  0.2822
  863MPD2    H712730   3.571   2.071  16.704 -0.6248 -2.7287  0.6387
  864MPD2     C12731   4.702   2.750  17.238  0.6689 -0.4082  0.0836
  864MPD2    C112732   0.012   2.720  17.114 -0.2471 -0.1219 -1.1935
  864MPD2    C212733   0.107   2.800  17.054 -0.6803  0.2694 -0.1550
  864MPD2    C312734   0.141   2.923  17.117 -0.1275  0.0541 -0.5140
  864MPD2    C412735   0.091   2.950  17.246 -0.1585 -0.6637 -0.0333
  864MPD2    C512736   0.014   2.861  17.309 -0.0460 -0.7812 -0.5210
  864MPD2     H12737   0.131   2.791  16.949 -1.1360 -2.1857 -0.0568
  864MPD2    H112738   0.112   3.047  17.289 -4.0307  0.1710  0.0520
  864MPD2    H212739   4.620   2.693  17.280 -0.2050  2.1874  1.9007
  864MPD2    H312740   4.713   2.876  17.410  0.0011  0.9886 -0.7619
  864MPD2     N12741   0.222   3.022  17.056 -0.1096  0.4517 -0.8476
  864MPD2    H512742   0.251   3.102  17.112  0.4438 -0.1603 -0.2563
  864MPD2    N112743   4.688   2.608  17.053 -0.1237  0.3226  0.3342
  864MPD2    H712744   4.596   2.587  17.091 -1.4874  0.1980 -2.9874
  865MPD2     C12745   4.637   3.367  16.505 -0.3736  0.1323 -0.3474
  865MPD2    C112746   0.011   3.341  16.437 -0.5206  0.9214  0.2319
  865MPD2    C212747   0.129   3.378  16.497 -0.1464 -0.0133  0.0852
  865MPD2    C312748   0.121   3.432  16.625 -0.5508 -0.4177 -0.7052
  865MPD2    C412749   0.006   3.461  16.686 -0.5896 -0.7731  0.0199
  865MPD2    C512750   4.632   3.417  16.627 -0.1875  0.0056 -0.0619
  865MPD2     H12751   0.225   3.346  16.459 -0.0213  0.2178  0.2062
  865MPD2    H112752   0.001   3.514  16.780 -1.0351 -0.2242 -0.3185
  865MPD2    H212753   4.543   3.352  16.454 -0.3334  0.7819 -0.6181
  865MPD2    H312754   4.534   3.434  16.669  0.0531 -1.3665  1.0650
  865MPD2     N12755   0.237   3.436  16.688 -0.3840 -0.1829  0.2074
  865MPD2    H512756   0.319   3.411  16.633 -1.8939  0.4009 -2.2791
  865MPD2    N112757   4.735   3.278  16.308  0.3546  0.8145 -0.9090
  865MPD2    H712758   4.644   3.238  16.285  0.7859 -0.2230 -0.8290
  866MPD2     C12759   1.094   4.226  11.481  0.1296 -0.6987 -0.3304
  866MPD2    C112760   1.104   4.203  11.346 -0.2899  0.2673  0.0344
  866MPD2    C212761   0.987   4.223  11.263  0.2829 -0.4339 -0.2611
  866MPD2    C312762   0.863   4.267  11.319  0.3281 -0.6174 -0.5209
  866MPD2    C412763   0.858   4.280  11.456 -0.5024 -0.2061 -0.3724
  866MPD2    C512764   0.970   4.260  11.532  0.0920 -0.5385  0.4231
  866MPD2     H12765   0.991   4.207  11.156 -0.5777 -0.8971 -0.2185
  866MPD2    H112766   0.765   4.291  11.510  1.0118 -0.8822  2.3332
  866MPD2    H212767   1.172   4.204  11.552 -0.0110 -0.4121 -0.0855
  866MPD2    H312768   0.968   4.267  11.640 -1.4440 -0.6268  0.4076
  866MPD2     N12769   0.747   4.291  11.250 -0.2024 -0.8011  0.4670
  866MPD2    H512770   0.665   4.314  11.305  0.5862 -0.3011  1.4467
  866MPD2    N112771   1.235   4.163  11.291  0.5921  0.1454 -0.0355
  866MPD2    H712772   1.319   4.170  11.348  0.6368  2.9269 -0.4475
  867MPD2     C12773   3.103   3.011  16.564  0.1477 -0.2038  0.6268
  867MPD2    C112774   3.193   2.952  16.646 -0.3085 -0.2673 -0.0561
  867MPD2    C212775   3.213   3.005  16.776 -0.0917  0.5773  0.1468
  867MPD2    C312776   3.148   3.114  16.815  0.4284 -0.0343  0.1702
  867MPD2    C412777   3.063   3.177  16.729 -0.2721  0.9199 -0.1692
  867MPD2    C512778   3.030   3.119  16.605 -0.2567  0.4891  0.0728
  867MPD2     H12779   3.285   2.965  16.847  1.4472  1.3456 -1.0095
  867MPD2    H112780   3.013   3.268  16.760  1.7813  2.7551 -2.2647
  867MPD2    H212781   3.076   2.960  16.472 -1.2793  0.5846  0.6152
  867MPD2    H312782   2.972   3.171  16.530  1.3384  0.2078 -1.3578
  867MPD2     N12783   3.160   3.159  16.946  0.0960  0.3389 -0.7297
  867MPD2    H512784   3.094   3.235  16.962 -1.4202 -1.2730  0.6650
  867MPD2    N112785   3.277   2.845  16.602 -0.5099 -0.0700 -0.7165
  867MPD2    H712786   3.267   2.814  16.506 -0.5601 -1.4355 -0.2584
  868MPD2     C12787   4.722   2.616  12.798  0.3540 -0.0812  0.0852
  868MPD2    C112788   0.024   2.518  12.887 -0.3572 -0.5133 -0.6578
  868MPD2    C212789   4.661   2.466  12.970  0.9233 -0.2097  0.5482
  868MPD2    C312790   4.528   2.493  12.963 -0.2161 -0.0815  0.0501
  868MPD2    C412791   4.495   2.591  12.874 -0.5044  0.3655  0.3422
  868MPD2    C512792   4.591   2.647  12.790 -0.2914  0.0549 -0.3194
  868MPD2     H12793   4.685   2.389  13.043  3.4124 -1.5560 -1.6985
  868MPD2    H112794   4.394   2.628  12.859 -0.0206  0.5394 -2.3685
  868MPD2    H212795   0.049   2.659  12.721 -2.0294  1.8153 -0.8303
  868MPD2    H312796   4.561   2.730  12.728 -0.4555 -0.7407 -1.3020
  868MPD2     N12797   4.422   2.451  13.043 -1.0167 -0.1705 -0.3485
  868MPD2    H512798   4.335   2.501  13.029 -0.4371  1.5376  2.0608
  868MPD2    N112799   0.159   2.477  12.889  0.0236  0.3516  0.5507
  868MPD2    H712800   0.220   2.523  12.822 -2.8572  2.2630 -0.8082
  869MPD2     C12801   1.825   4.585  17.429 -0.3255 -0.3966  0.5670
  869MPD2    C112802   1.763   4.566  17.547  0.4472  0.2841  0.5744
  869MPD2    C212803   1.825   4.598  17.664 -0.0322 -0.5720 -0.2315
  869MPD2    C312804   1.943   4.667  17.655 -0.0733 -0.3884 -0.4544
  869MPD2    C412805   2.004   4.699  17.531 -0.7072  0.8400  0.2853
  869MPD2    C512806   1.945   4.649  17.418 -0.4714 -0.0019  0.0193
  869MPD2     H12807   1.763   4.593   0.007  2.1186 -2.8633  1.1636
  869MPD2    H112808   2.104   0.003  17.521 -1.2011  1.9628  0.0079
  869MPD2    H212809   1.777   4.551  17.338 -1.8892 -0.2200  1.3232
  869MPD2    H312810   1.990   4.679  17.324 -0.0392 -1.4842 -0.2475
  869MPD2     N12811   2.014   4.716   0.023 -0.2958  0.0263  0.2109
  869MPD2    H512812   2.082   0.053   0.011  1.0080 -1.3397 -0.8676
  869MPD2    N112813   1.632   4.518  17.534  0.6330 -0.3359  0.3835
  869MPD2    H712814   1.594   4.520  17.441  1.4980  5.4358  0.1946
  870MPD2     C12815   2.504   4.174   1.137  0.1637  0.2216 -0.0599
  870MPD2    C112816   2.413   4.085   1.085  0.3885  0.0224  0.1651
  870MPD2    C212817   2.283   4.120   1.074  0.5420 -0.6053  0.3361
  870MPD2    C312818   2.246   4.234   1.146 -0.7973  0.1748  0.2582
  870MPD2    C412819   2.339   4.318   1.203 -0.0489 -0.3688  0.0647
  870MPD2    C512820   2.470   4.293   1.194 -0.0345  0.9459  0.6016
  870MPD2     H12821   2.205   4.061   1.027  0.0480  0.5399 -0.2629
  870MPD2    H112822   2.315   4.410   1.254 -1.0215 -0.0674 -0.9339
  870MPD2    H212823   2.610   4.154   1.145 -0.0779  0.1720  3.0814
  870MPD2    H312824   2.549   4.362   1.218 -0.0477  2.1168 -2.8151
  870MPD2     N12825   2.106   4.254   1.164  0.5001 -0.1512 -0.2929
  870MPD2    H512826   2.045   4.206   1.099 -2.2961  3.0680 -0.0698
  870MPD2    N112827   2.467   3.962   1.033  0.1860 -0.1239 -0.1801
  870MPD2    H712828   2.561   3.940   1.066  0.3395  0.5143 -0.1840
  871MPD2     C12829   2.363   3.320  16.401  0.8177  0.1881 -0.4035
  871MPD2    C112830   2.336   3.275  16.523  0.0788  0.8399 -0.5238
  871MPD2    C212831   2.312   3.142  16.549  0.1333  0.7588  0.1525
  871MPD2    C312832   2.313   3.051  16.445 -0.8294 -0.2029 -0.2414
  871MPD2    C412833   2.338   3.098  16.315  0.8783 -1.0315  0.4954
  871MPD2    C512834   2.361   3.233  16.296 -0.0350 -0.3429  0.0971
  871MPD2     H12835   2.292   3.118  16.653  1.5840 -1.6277 -0.1106
  871MPD2    H112836   2.334   3.031  16.230  0.4762  0.0074 -0.3036
  871MPD2    H212837   2.394   3.422  16.384 -0.8913  0.2822 -2.9529
  871MPD2    H312838   2.375   3.271  16.196  1.2581 -0.6880  0.1395
  871MPD2     N12839   2.325   2.916  16.481  0.0335 -0.1654 -0.3432
  871MPD2    H512840   2.312   2.892  16.579 -1.1422 -0.5276 -0.5869
  871MPD2    N112841   2.312   3.372  16.621  0.1676  0.0718  1.0533
  871MPD2    H712842   2.346   3.463  16.592 -0.3563 -0.3308 -0.8001
  872MPD2     C12843   3.316   1.113  13.926 -0.6998  0.5226 -0.2100
  872MPD2    C112844   3.248   1.207  13.844  0.5676 -0.4190 -0.0140
  872MPD2    C212845   3.110   1.195  13.842 -0.2193 -0.0034 -0.5967
  872MPD2    C312846   3.042   1.108  13.925  0.2629  0.1209  0.0546
  872MPD2    C412847   3.114   1.009  13.995  0.2400  0.2816 -0.2955
  872MPD2    C512848   3.247   1.022  13.995  0.5728  0.4414 -0.7583
  872MPD2     H12849   3.058   1.273  13.787 -1.8114 -0.2079  0.6117
  872MPD2    H112850   3.058   0.939  14.055  0.7315  1.2357  1.2865
  872MPD2    H212851   3.423   1.115  13.946 -0.4719 -3.0698 -1.0236
  872MPD2    H312852   3.304   0.958  14.062 -0.4568 -0.8519 -1.1407
  872MPD2     N12853   2.907   1.103  13.938 -0.2069 -0.2837 -0.1014
  872MPD2    H512854   2.874   1.038  14.008  2.0111 -1.7444 -0.4023
  872MPD2    N112855   3.310   1.316  13.773  0.0880  0.1829 -0.1462
  872MPD2    H712856   3.263   1.382  13.712 -0.3227 -1.1766 -1.2954
  873MPD2     C12857   4.477   1.437   0.129 -0.0940 -0.3485  0.0003
  873MPD2    C112858   4.510   1.316   0.194 -0.3097  0.3319  0.5321
  873MPD2    C212859   4.460   1.195   0.153 -0.0445 -0.0237  1.1379
  873MPD2    C312860   4.387   1.195   0.039 -0.7685 -0.1511  0.0439
  873MPD2    C412861   4.344   1.316  17.729  0.3984  0.6033 -0.0128
  873MPD2    C512862   4.404   1.434   0.017 -0.1360  0.2373 -0.6615
  873MPD2     H12863   4.469   1.103   0.210  2.0395 -0.8272 -0.5024
  873MPD2    H112864   4.283   1.320  17.639  1.1489 -0.0652 -0.5440
  873MPD2    H212865   4.517   1.532   0.162  0.9558 -0.5222 -0.7426
  873MPD2    H312866   4.378   1.527  17.713 -2.2244  0.1142  0.1966
  873MPD2     N12867   4.318   1.079  17.735  0.9530 -0.1811 -0.8210
  873MPD2    H512868   4.228   1.097  17.691 -0.6455 -1.4031  1.9382
  873MPD2    N112869   4.606   1.325   0.300  0.5848  0.1333  0.4921
  873MPD2    H712870   4.643   1.417   0.324  0.8421  0.0073  0.5806
  874MPD2     C12871   4.341   1.303  16.201  0.6787  0.5740 -0.6096
  874MPD2    C112872   4.441   1.240  16.271 -0.2776 -0.3551  0.0069
  874MPD2    C212873   4.575   1.277  16.269 -0.5216 -0.7406  0.1211
  874MPD2    C312874   4.609   1.387  16.192  0.2606  0.6059  0.8798
  874MPD2    C412875   4.512   1.448  16.116  0.5235 -0.9898  0.4767
  874MPD2    C512876   4.385   1.400  16.114 -0.3203 -0.3811  0.2697
  874MPD2     H12877   4.645   1.211  16.317  0.3353 -1.2045 -1.7543
  874MPD2    H112878   4.538   1.533  16.053  2.7083  0.0189  2.7188
  874MPD2    H212879   4.239   1.267  16.194  0.3662  0.8852  2.2855
  874MPD2    H312880   4.318   1.441  16.038 -1.4584  0.0633  1.5123
  874MPD2     N12881   0.013   1.432  16.179 -0.4236 -0.6671  0.0504
  874MPD2    H512882   0.078   1.378  16.236  1.4391  1.9525  0.4090
  874MPD2    N112883   4.399   1.131  16.360 -0.0142 -0.5839 -0.2776
  874MPD2    H712884   4.304   1.145  16.394  1.0585  0.9422  2.0861
  875MPD2     C12885   0.829   4.201  14.388  0.0162  0.4042  0.0652
  875MPD2    C112886   0.712   4.271  14.387 -0.3520  0.5630 -0.3413
  875MPD2    C212887   0.672   4.336  14.505 -0.3775 -0.7128  0.2605
  875MPD2    C312888   0.749   4.325  14.618 -0.4918  0.1541 -0.0296
  875MPD2    C412889   0.866   4.262  14.610 -0.2745  0.2055  0.2230
  875MPD2    C512890   0.913   4.206  14.493  0.0837  0.4064  0.1600
  875MPD2     H12891   0.588   4.404  14.512 -1.7052 -2.1333 -1.6960
  875MPD2    H112892   0.921   4.228  14.697 -0.1224  0.2204  0.1328
  875MPD2    H212893   0.871   4.158  14.298  0.1701  0.4956  0.0937
  875MPD2    H312894   0.987   4.128  14.500 -0.1723  0.2454  1.0145
  875MPD2     N12895   0.710   4.375  14.748 -0.1483  0.3073  0.0831
  875MPD2    H512896   0.773   4.350  14.824  0.6507  3.7748  0.5322
  875MPD2    N112897   0.627   4.288  14.272 -0.5516  0.0239  0.6414
  875MPD2    H712898   0.539   4.337  14.285 -1.3164 -1.0572 -0.4367
  876MPD2     C12899   0.127   1.268  15.615 -0.0481 -0.0155 -0.4415
  876MPD2    C112900   0.153   1.148  15.556  0.1677  0.3235 -0.7370
  876MPD2    C212901   0.160   1.042  15.643  0.4375 -0.2529  0.6172
  876MPD2    C312902   0.132   1.045  15.777  0.9453  0.5631 -0.0066
  876MPD2    C412903   0.116   1.171  15.832  0.8496  0.6916  0.2338
  876MPD2    C512904   0.099   1.276  15.741  0.3795 -0.1773 -0.3854
  876MPD2     H12905   0.196   0.950  15.599  1.8448  0.6242 -0.0711
  876MPD2    H112906   0.088   1.193  15.934  1.5350 -0.5327  0.6858
  876MPD2    H212907   0.123   1.351  15.545 -1.0760 -0.6332 -1.1153
  876MPD2    H312908   0.080   1.375  15.781 -0.6706 -0.2296 -0.7564
  876MPD2     N12909   0.143   0.931  15.858 -0.2184  0.4557 -0.3225
  876MPD2    H512910   0.153   0.844  15.808 -0.2462  0.8220 -0.9731
  876MPD2    N112911   0.170   1.143  15.418 -0.1903 -0.2801 -0.3272
  876MPD2    H712912   0.175   1.231  15.369 -1.2999  0.1693  0.3485
  877MPD2     C12913   0.279   1.572  14.764 -1.0866 -0.6383 -0.1876
  877MPD2    C112914   0.265   1.437  14.728  0.7659  0.2655  0.7776
  877MPD2    C212915   0.255   1.408  14.593  0.4448  0.3502  0.3674
  877MPD2    C312916   0.256   1.509  14.499  0.6866  0.1090  0.1291
  877MPD2    C412917   0.263   1.642  14.539 -0.2111  0.1224 -0.0672
  877MPD2    C512918   0.269   1.672  14.671 -0.1809  0.1516 -0.2861
  877MPD2     H12919   0.251   1.305  14.561 -0.7269  1.0941 -1.8339
  877MPD2    H112920   0.259   1.717  14.461 -0.3803 -1.4172 -1.5427
  877MPD2    H212921   0.294   1.604  14.866  1.6528 -1.3043 -0.3976
  877MPD2    H312922   0.271   1.778  14.690 -1.9772  0.1200  0.1105
  877MPD2     N12923   0.247   1.480  14.360  0.5248 -0.0176  0.4023
  877MPD2    H512924   0.255   1.558  14.295  0.4071 -0.0817  0.3092
  877MPD2    N112925   0.267   1.326  14.817 -0.1188 -0.6796  0.0401
  877MPD2    H712926   0.247   1.237  14.772 -1.8805  0.7095 -1.9260
  878MPD2     C12927   4.545   1.268  13.760  0.7225 -0.4106 -0.8325
  878MPD2    C112928   4.435   1.250  13.681  0.1952 -0.2608 -0.1186
  878MPD2    C212929   4.312   1.197  13.732  0.1356  0.0394 -0.2868
  878MPD2    C312930   4.300   1.177  13.871  0.0723 -0.6393  0.6073
  878MPD2    C412931   4.411   1.209  13.957 -0.5073  0.5952 -0.4993
  878MPD2    C512932   4.528   1.245  13.899  0.2176  0.0422  0.2245
  878MPD2     H12933   4.228   1.177  13.667  0.0275 -1.8251  0.4247
  878MPD2    H112934   4.410   1.187  14.064  1.4572  0.0136 -0.6013
  878MPD2    H212935   4.640   1.302  13.721  1.3484 -2.9345 -1.5327
  878MPD2    H312936   4.612   1.253  13.966  1.2157 -1.6939 -0.8097
  878MPD2     N12937   4.186   1.120  13.925 -0.1960 -0.0326 -0.3712
  878MPD2    H512938   4.140   1.052  13.865  0.5452  0.2099 -1.2099
  878MPD2    N112939   4.451   1.277  13.547  0.1162 -0.3401 -0.2099
  878MPD2    H712940   4.548   1.289  13.521  0.3603 -0.9532  0.4113
  879MPD2     C12941   0.222   1.261   0.071 -0.5956 -0.0208 -0.3852
  879MPD2    C112942   0.232   1.367  17.732 -0.6607 -0.0467  0.2157
  879MPD2    C212943   0.138   1.388  17.628 -0.2313 -0.1730  0.5267
  879MPD2    C312944   0.020   1.308  17.621 -0.2246  0.2208 -0.1448
  879MPD2    C412945   4.732   1.207  17.714  0.3877  0.3125  0.1955
  879MPD2    C512946   0.101   1.181   0.056 -0.2572 -0.3802  0.7050
  879MPD2     H12947   0.157   1.473  17.565  1.6898 -0.2200  1.0640
  879MPD2    H112948   4.647   1.143  17.698  1.7344 -1.2303 -0.8616
  879MPD2    H212949   0.301   1.225   0.135 -0.6574 -1.0849 -0.9100
  879MPD2    H312950   0.096   1.087   0.109 -1.1708 -1.2916 -0.9959
  879MPD2     N12951   4.661   1.321  17.517 -0.0427 -0.2833  0.3881
  879MPD2    H512952   4.585   1.253  17.517 -0.8137  0.5844  2.4268
  879MPD2    N112953   0.350   1.450   0.003 -0.3559 -0.3576 -0.7689
  879MPD2    H712954   0.412   1.431   0.081  0.9180 -1.3500 -2.0138
  880MPD2     C12955   1.254   3.384   0.405 -0.2279  0.3509 -0.0118
  880MPD2    C112956   1.344   3.488   0.413 -1.1112 -0.0344  0.3393
  880MPD2    C212957   1.478   3.459   0.449  0.0459 -0.0202 -0.6497
  880MPD2    C312958   1.521   3.324   0.465  0.1090 -1.3570  0.0364
  880MPD2    C412959   1.423   3.226   0.458 -0.1890  0.5372 -0.1865
  880MPD2    C512960   1.288   3.254   0.442  0.1504 -0.0171 -0.6235
  880MPD2     H12961   1.559   3.531   0.444  0.0390  0.1087  0.9849
  880MPD2    H112962   1.450   3.121   0.451 -0.8622  0.4059 -0.8533
  880MPD2    H212963   1.155   3.408   0.369 -0.1269 -0.5750 -0.9216
  880MPD2    H312964   1.216   3.177   0.414  0.6930 -0.6805 -0.1936
  880MPD2     N12965   1.659   3.293   0.485  0.2506  0.1739 -0.3300
  880MPD2    H512966   1.730   3.363   0.502  0.3751  0.4168 -1.9455
  880MPD2    N112967   1.297   3.618   0.377 -0.1932  0.0889  0.7027
  880MPD2    H712968   1.202   3.626   0.340  0.5229  1.1183 -0.8881
  881MPD2     C12969   1.697   4.193  17.383 -0.0456  0.8392  0.0388
  881MPD2    C112970   1.600   4.098  17.385  0.2286 -0.1252 -0.5229
  881MPD2    C212971   1.552   4.063  17.512 -0.3738 -0.0905 -0.4788
  881MPD2    C312972   1.615   4.106  17.630  0.7881  0.0357  0.5201
  881MPD2    C412973   1.730   4.171  17.619  0.1367  0.3128 -0.4137
  881MPD2    C512974   1.770   4.215  17.497  0.2905 -0.7801 -0.0943
  881MPD2     H12975   1.456   4.012  17.516 -0.5256  0.1086 -1.7521
  881MPD2    H112976   1.790   4.187  17.708 -1.9761 -1.7868  1.3787
  881MPD2    H212977   1.732   4.217  17.284 -0.4568 -0.6953 -0.4785
  881MPD2    H312978   1.863   4.270  17.492 -0.1783 -0.1420 -1.8960
  881MPD2     N12979   1.563   4.080   0.015  0.4626 -0.3051  0.0689
  881MPD2    H512980   1.627   4.101   0.091 -2.2499  1.1142  1.9255
  881MPD2    N112981   1.523   4.075  17.263 -0.4886  0.3305  0.7752
  881MPD2    H712982   1.536   4.136  17.183 -1.0201 -0.1833  0.2927
  882MPD2     C12983   4.709   1.631  13.588 -0.0796 -0.5743  0.6317
  882MPD2    C112984   4.672   1.592  13.712  0.2848 -0.1720 -0.3565
  882MPD2    C212985   4.534   1.585  13.745 -0.4999  0.2284 -0.5104
  882MPD2    C312986   4.435   1.605  13.646 -0.7327  0.0422 -0.3742
  882MPD2    C412987   4.474   1.647  13.523  0.5023 -0.4325 -0.1265
  882MPD2    C512988   4.610   1.656  13.492  0.6503  0.0401  0.2582
  882MPD2     H12989   4.501   1.553  13.843 -1.3472 -0.8317 -1.1284
  882MPD2    H112990   4.394   1.645  13.450  0.3257 -0.2812  0.0643
  882MPD2    H212991   0.077   1.651  13.570 -0.4680  0.1938 -0.7635
  882MPD2    H312992   4.641   1.679  13.391 -0.4107  0.6735  0.0777
  882MPD2     N12993   4.299   1.569  13.681 -0.3362 -0.2501  0.1508
  882MPD2    H512994   4.242   1.565  13.597  3.3378 -0.2317 -2.3791
  882MPD2    N112995   0.043   1.549  13.794 -0.0353 -0.4918 -0.4651
  882MPD2    H712996   0.136   1.551  13.754  0.6858 -0.4111  1.2161
  883MPD2     C12997   1.930   1.153  16.259 -0.3213 -0.5140 -0.4026
  883MPD2    C112998   1.991   1.246  16.184  0.3285  0.0424  0.2216
  883MPD2    C212999   2.097   1.317  16.234  0.0231  0.1539  0.1931
  883MPD2    C313000   2.145   1.287  16.358 -0.2821 -0.0957  0.0135
  883MPD2    C413001   2.080   1.201  16.445 -0.3187 -0.7116 -0.0894
  883MPD2    C513002   1.977   1.131  16.385  0.1060 -0.4244 -0.4585
  883MPD2     H13003   2.149   1.380  16.163  0.9364  0.6546  1.3056
  883MPD2    H113004   2.096   1.173  16.548  0.7966  0.8429  0.1550
  883MPD2    H213005   1.861   1.079  16.219 -2.1817  0.9062  0.1784
  883MPD2    H313006   1.921   1.057  16.443  1.2641 -0.2466  0.8923
  883MPD2     N13007   2.260   1.364  16.387 -0.6045  0.1425  0.3932
  883MPD2    H513008   2.294   1.422  16.310  2.3089 -1.2769  0.5966
  883MPD2    N113009   1.968   1.260  16.049 -0.0167 -0.0827 -0.4594
  883MPD2    H713010   2.025   1.325  15.996  0.8778  0.0112  0.6128
  884MPD2     C13011   3.979   1.776  15.191  0.2757 -0.3465  0.4841
  884MPD2    C113012   4.031   1.890  15.135 -0.1660  0.2340 -0.5413
  884MPD2    C213013   3.944   1.988  15.088 -0.3005  0.1497  0.0237
  884MPD2    C313014   3.804   1.982  15.104 -0.1786  0.5659 -0.4320
  884MPD2    C413015   3.762   1.865  15.160  0.2656 -0.1914 -0.4737
  884MPD2    C513016   3.845   1.760  15.201  0.6509 -0.4827 -0.5770
  884MPD2     H13017   3.983   2.078  15.043 -2.1787 -0.0190 -1.9380
  884MPD2    H113018   3.655   1.852  15.175  0.2193  0.3417 -0.3397
  884MPD2    H213019   4.040   1.692  15.223  1.4446  0.2904 -0.0535
  884MPD2    H313020   3.804   1.667  15.239  2.2076 -0.9794 -0.1439
  884MPD2     N13021   3.718   2.081  15.045  0.4282 -0.4650  0.6320
  884MPD2    H513022   3.769   2.160  15.006 -0.4625  0.5458  1.5195
  884MPD2    N113023   4.169   1.921  15.120  0.2172 -0.4251  0.1188
  884MPD2    H713024   4.194   2.011  15.080  2.2931 -0.1665  1.9682
  885MPD2     C13025   1.956   2.661   0.102 -0.8054  0.6514 -0.1019
  885MPD2    C113026   2.040   2.553   0.089  0.0906  0.6137 -0.7445
  885MPD2    C213027   2.055   2.498  17.713 -0.3318  0.7018 -0.8809
  885MPD2    C313028   1.985   2.546  17.596 -0.6068 -0.3691  0.1353
  885MPD2    C413029   1.904   2.656  17.612  0.6478 -0.2028  0.2300
  885MPD2    C513030   1.890   2.711  17.735  0.2903 -0.2258  0.3329
  885MPD2     H13031   2.112   2.406  17.701  0.8816  1.3291  0.1685
  885MPD2    H113032   1.857   2.702  17.527 -0.8260  1.2403  1.8299
  885MPD2    H213033   1.956   2.724   0.190  1.9181  0.0650  0.3075
  885MPD2    H313034   1.839   2.806  17.741 -0.7777 -0.8752  1.4542
  885MPD2     N13035   2.006   2.477  17.477 -0.2451  0.0589 -0.4223
  885MPD2    H513036   2.079   2.407  17.475 -0.5476 -0.2876  0.5956
  885MPD2    N113037   2.090   2.507   0.209 -0.6006  0.3854 -0.5286
  885MPD2    H713038   2.047   2.550   0.291 -0.1716 -1.1823  0.5191
  886MPD2     C13039   3.078   0.538  15.195  0.2246 -0.5596  0.1392
  886MPD2    C113040   3.207   0.591  15.215 -0.6780  0.2033 -0.1666
  886MPD2    C213041   3.219   0.730  15.190 -0.0435 -0.8221  0.6927
  886MPD2    C313042   3.116   0.803  15.140  0.4682  0.1775  0.1351
  886MPD2    C413043   3.000   0.738  15.101  0.4472  0.5787  0.3246
  886MPD2    C513044   2.982   0.608  15.126 -0.4312  0.7230 -0.5216
  886MPD2     H13045   3.318   0.772  15.199 -1.6412  2.6910  1.8203
  886MPD2    H113046   2.918   0.800  15.067  0.0380 -1.6726 -2.7437
  886MPD2    H213047   3.053   0.435  15.216 -0.6616 -0.4472 -0.3347
  886MPD2    H313048   2.885   0.560  15.122 -0.9933  1.6087  2.2741
  886MPD2     N13049   3.145   0.943  15.127  0.3942  0.0089 -0.3421
  886MPD2    H513050   3.234   0.980  15.158 -0.5828 -0.0780  2.5751
  886MPD2    N113051   3.318   0.524  15.271 -0.0294 -0.5102  0.4122
  886MPD2    H713052   3.398   0.581  15.297  1.5498 -2.5301  0.0501
  887MPD2     C13053   4.039   0.551  15.274  0.5789  0.1153 -0.1915
  887MPD2    C113054   3.920   0.612  15.317 -0.9778 -0.3798  0.2544
  887MPD2    C213055   3.911   0.752  15.327  0.0831  0.5646 -0.7411
  887MPD2    C313056   4.014   0.835  15.303 -0.4186  0.8883 -0.4997
  887MPD2    C413057   4.134   0.771  15.272 -0.1146  0.1014 -0.2068
  887MPD2    C513058   4.147   0.633  15.250 -0.3201 -0.2354  0.5049
  887MPD2     H13059   3.816   0.799  15.346 -0.4506 -1.0692  0.5982
  887MPD2    H113060   4.221   0.829  15.246 -0.9987  1.2459 -0.6265
  887MPD2    H213061   4.054   0.446  15.251  0.0359  0.1461 -0.6765
  887MPD2    H313062   4.238   0.604  15.198  0.4133  2.2423  0.4257
  887MPD2     N13063   3.989   0.976  15.304  0.0654  0.3674 -0.1447
  887MPD2    H513064   3.893   0.999  15.326  1.0722  3.4507  1.0858
  887MPD2    N113065   3.801   0.540  15.346  0.1767 -0.6005 -0.4369
  887MPD2    H713066   3.715   0.592  15.355  1.3831  1.4059 -0.5410
  888MPD2     C13067   1.041   0.477  14.800 -0.9012  0.1240 -0.6316
  888MPD2    C113068   0.987   0.550  14.902  0.1047 -0.3655  0.1485
  888MPD2    C213069   1.032   0.680  14.912 -0.5451 -0.0451 -0.4025
  888MPD2    C313070   1.128   0.735  14.830 -0.5472 -0.1450 -0.2283
  888MPD2    C413071   1.186   0.653  14.736  0.8959 -0.0449  0.5282
  888MPD2    C513072   1.152   0.518  14.731 -0.0321  0.6375  0.6310
  888MPD2     H13073   1.002   0.742  14.996 -0.6922  0.2961 -0.7096
  888MPD2    H113074   1.266   0.688  14.670  0.0520  0.3573 -0.2784
  888MPD2    H213075   1.025   0.370  14.799 -1.7041  0.2424 -0.2916
  888MPD2    H313076   1.204   0.445  14.669 -2.7043  0.4665 -1.4348
  888MPD2     N13077   1.162   0.869  14.846  0.5864  0.0336  0.1194
  888MPD2    H513078   1.115   0.908  14.927  1.3548  1.6221 -0.1873
  888MPD2    N113079   0.904   0.503  15.005 -0.2874 -0.0305 -0.5635
  888MPD2    H713080   0.868   0.561  15.080  3.0125 -0.0623  1.0979
  889MPD2     C13081   0.786   0.101  13.877  0.2397  0.0779  0.5368
  889MPD2    C113082   0.700   0.159  13.785 -0.1181  0.0091 -0.1647
  889MPD2    C213083   0.742   0.280  13.732 -0.1355 -0.3694 -0.6663
  889MPD2    C313084   0.848   0.355  13.783 -0.8658 -0.6156 -0.2798
  889MPD2    C413085   0.922   0.302  13.882 -0.4471  0.9819 -0.3449
  889MPD2    C513086   0.885   0.182  13.936  0.3493 -0.2792  0.1540
  889MPD2     H13087   0.668   0.326  13.668 -0.8094  0.0880  0.4523
  889MPD2    H113088   0.996   0.360  13.936 -0.5563  0.7592  0.0457
  889MPD2    H213089   0.763   0.011  13.933  3.8727  0.8613  3.2456
  889MPD2    H313090   0.942   0.150  14.022 -0.2822 -1.8832 -0.0378
  889MPD2     N13091   0.869   0.483  13.730  0.2805  0.1427 -0.4117
  889MPD2    H513092   0.951   0.534  13.759  0.1885 -1.0158  1.8609
  889MPD2    N113093   0.603   0.085  13.712  0.0611 -0.6210 -0.3447
  889MPD2    H713094   0.565   0.135  13.633  0.1227 -1.1162 -0.6832
  890MPD2     C13095   0.026   2.198  14.527 -0.0907 -0.4684 -0.2346
  890MPD2    C113096   0.091   2.270  14.622 -0.5088  0.3238  0.2020
  890MPD2    C213097   0.129   2.214  14.741 -0.1397  0.6305 -0.5704
  890MPD2    C313098   0.094   2.082  14.763 -0.8597  0.3493 -0.4986
  890MPD2    C413099   0.032   2.007  14.669  0.1666  0.2561 -0.3321
  890MPD2    C513100   4.734   2.066  14.552  0.0581  0.3012 -1.1571
  890MPD2     H13101   0.155   2.283  14.820 -3.1669 -0.4223  1.3548
  890MPD2    H113102   0.024   1.899  14.670  1.2798  0.1518 -2.0501
  890MPD2    H213103   0.002   2.237  14.428 -1.0900 -0.0771  0.1645
  890MPD2    H313104   4.685   2.010  14.473 -0.9385 -2.2263  1.2342
  890MPD2     N13105   0.138   2.035  14.886 -0.1229  0.1270  0.1824
  890MPD2    H513106   0.199   2.096  14.939  2.7290  0.0056 -2.9953
  890MPD2    N113107   0.138   2.398  14.584  0.2911  0.5932 -0.7817
  890MPD2    H713108   0.112   2.433  14.492 -1.0589  0.7224 -0.3556
  891MPD2     C13109   2.643   0.466  16.295 -0.5719 -0.7551 -0.3270
  891MPD2    C113110   2.628   0.572  16.378 -0.7601  0.4077 -0.4622
  891MPD2    C213111   2.693   0.567  16.505 -0.1617  0.7661 -0.1329
  891MPD2    C313112   2.787   0.470  16.533  0.0382 -0.4087  0.5056
  891MPD2    C413113   2.820   0.375  16.441 -0.4650 -0.3013 -1.2277
  891MPD2    C513114   2.750   0.377  16.323  0.5793  0.3114  0.3261
  891MPD2     H13115   2.672   0.642  16.579  2.4927  1.5721 -0.2058
  891MPD2    H113116   2.898   0.300  16.444  0.2957  0.6127  1.4061
  891MPD2    H213117   2.599   0.450  16.197 -2.4547 -0.3929  0.4463
  891MPD2    H313118   2.773   0.297  16.253  3.0550  0.9815  0.3766
  891MPD2     N13119   2.848   0.472  16.661  0.4142 -0.2404 -0.2012
  891MPD2    H513120   2.834   0.552  16.721  0.7665 -0.6224  0.3898
  891MPD2    N113121   2.522   0.654  16.345  0.0387 -0.8269 -0.0497
  891MPD2    H713122   2.477   0.648  16.254 -1.2445 -1.0248  0.6017
  892MPD2     C13123   3.906   1.476  14.582  0.1103 -0.2388  0.3750
  892MPD2    C113124   3.802   1.496  14.495  0.6779  0.1927 -0.9270
  892MPD2    C213125   3.816   1.461  14.359 -0.1821 -0.1717 -0.2501
  892MPD2    C313126   3.932   1.404  14.313  0.7029 -0.2283 -0.2639
  892MPD2    C413127   4.025   1.374  14.408  0.1309 -0.9761 -0.0474
  892MPD2    C513128   4.018   1.408  14.538 -0.4360  0.8106 -0.1011
  892MPD2     H13129   3.740   1.487  14.285  0.3864 -0.7895 -1.0494
  892MPD2    H113130   4.122   1.335  14.378  0.9683 -0.0560  1.4470
  892MPD2    H213131   3.902   1.509  14.685 -0.3652 -0.0393  0.2971
  892MPD2    H313132   4.112   1.395  14.589  0.3416  0.2185 -1.6798
  892MPD2     N13133   3.954   1.373  14.181 -0.3641  0.3908  0.2152
  892MPD2    H513134   4.046   1.338  14.156 -0.1128  0.9268  0.4016
  892MPD2    N113135   3.682   1.555  14.537  0.4552 -0.6561  0.3518
  892MPD2    H713136   3.603   1.561  14.474  0.7174  0.4027  0.1317
  893MPD2     C13137   0.975   4.565   1.410 -0.3947 -0.1483 -0.0815
  893MPD2    C113138   0.935   4.576   1.280 -0.3691 -0.4665 -0.5098
  893MPD2    C213139   0.797   4.594   1.254  0.4070 -0.8831 -0.8866
  893MPD2    C313140   0.705   4.579   1.352  0.2609  0.0847  0.4318
  893MPD2    C413141   0.746   4.539   1.475  0.2530  1.0944  0.1229
  893MPD2    C513142   0.883   4.553   1.506 -0.6470 -1.2912  0.9979
  893MPD2     H13143   0.767   4.611   1.152  1.8922  0.1206 -1.1613
  893MPD2    H113144   0.678   4.507   1.553 -3.3592  0.3113 -3.3435
  893MPD2    H213145   1.081   4.568   1.432 -0.2957 -1.8321 -0.3206
  893MPD2    H313146   0.914   4.546   1.609  0.6392  1.1581  0.7879
  893MPD2     N13147   0.566   4.576   1.330  0.2220  0.3857  0.4220
  893MPD2    H513148   0.509   4.531   1.401 -1.2109  2.2383  0.4616
  893MPD2    N113149   1.030   4.585   1.177 -0.0804  0.8978 -0.5062
  893MPD2    H713150   1.125   4.602   1.210 -1.0666  3.9772  0.7349
  894MPD2     C13151   3.816   2.036   0.982  0.2231  0.3508  0.8364
  894MPD2    C113152   3.794   2.057   1.123  1.0905 -1.0828 -0.3483
  894MPD2    C213153   3.845   2.165   1.178 -0.9084 -0.1674 -0.5808
  894MPD2    C313154   3.891   2.269   1.101 -0.1796 -0.5958 -0.0936
  894MPD2    C413155   3.912   2.250   0.970  0.2070  0.3409  0.3252
  894MPD2    C513156   3.881   2.133   0.912 -0.5668 -1.2900  0.2032
  894MPD2     H13157   3.829   2.186   1.283  0.5823  0.6094 -0.5112
  894MPD2    H113158   3.953   2.324   0.902 -2.2193  0.6775 -0.7663
  894MPD2    H213159   3.786   1.944   0.933 -0.6049  1.7847 -1.3961
  894MPD2    H313160   3.888   2.122   0.805 -0.0956 -2.5046  0.3544
  894MPD2     N13161   3.936   2.381   1.173 -0.4022 -0.2560 -0.7685
  894MPD2    H513162   3.950   2.365   1.272  0.8475  0.7180 -0.7800
  894MPD2    N113163   3.711   1.972   1.198  0.2215 -0.1215 -0.7323
  894MPD2    H713164   3.702   1.971   1.299 -0.0755  0.8677 -0.7544
  895MPD2     C13165   3.048   0.624  13.358  0.0084 -0.2318 -0.3606
  895MPD2    C113166   3.042   0.577  13.232 -0.0987 -0.5831 -0.6171
  895MPD2    C213167   3.031   0.442  13.212  0.1355  0.6820  0.1159
  895MPD2    C313168   3.006   0.359  13.321  0.3205  0.0048  0.4887
  895MPD2    C413169   3.015   0.405  13.447  1.0570 -0.2378  0.2481
  895MPD2    C513170   3.042   0.535  13.469  0.2862  0.2542 -1.1415
  895MPD2     H13171   3.021   0.412  13.108 -0.1661 -1.5943  0.8133
  895MPD2    H113172   3.001   0.338  13.532 -0.5387 -1.3347 -0.8970
  895MPD2    H213173   3.052   0.731  13.376  0.2701 -0.3437  0.2509
  895MPD2    H313174   3.043   0.580  13.567 -0.4707 -2.2710  0.0160
  895MPD2     N13175   2.958   0.225  13.304  0.3030  0.8811 -0.3808
  895MPD2    H513176   2.963   0.163  13.384 -0.3757  1.6674  0.2623
  895MPD2    N113177   3.027   0.656  13.116 -0.7396 -0.3301  0.2138
  895MPD2    H713178   3.033   0.601  13.030  0.8715  1.9377 -1.1156
  896MPD2     C13179   1.536   2.893   1.413 -0.5246  0.5354 -0.3552
  896MPD2    C113180   1.433   2.965   1.359 -0.3061 -0.6561  0.5680
  896MPD2    C213181   1.298   2.949   1.392 -0.4482 -0.0277  0.2113
  896MPD2    C313182   1.263   2.845   1.473  0.3733  0.3536  0.1376
  896MPD2    C413183   1.361   2.762   1.514 -0.1610  0.3347 -0.0155
  896MPD2    C513184   1.492   2.789   1.487 -0.1338  0.2226 -0.4500
  896MPD2     H13185   1.221   3.021   1.367  0.1993 -0.0252 -1.7168
  896MPD2    H113186   1.340   2.676   1.576 -0.0737  1.0486  1.0190
  896MPD2    H213187   1.641   2.901   1.386 -0.5102 -0.4191 -0.5912
  896MPD2    H313188   1.569   2.724   1.525  0.5851  1.3830  0.0749
  896MPD2     N13189   1.120   2.839   1.516 -0.4587  0.0009 -0.2150
  896MPD2    H513190   1.052   2.905   1.478 -1.8417 -0.3787  1.6301
  896MPD2    N113191   1.473   3.060   1.253 -0.3215  0.5743 -0.5906
  896MPD2    H713192   1.571   3.058   1.226  0.0677  1.3439  0.7516
  897MPD2     C13193   1.195   4.279  10.492 -0.2954  0.5287 -0.6360
  897MPD2    C113194   1.161   4.359  10.386  0.0699 -0.0249 -0.2173
  897MPD2    C213195   1.037   4.427  10.388 -0.1566 -0.0300  0.4219
  897MPD2    C313196   0.959   4.416  10.499 -0.2994 -0.9102  0.3259
  897MPD2    C413197   0.989   4.320  10.594 -0.1393  0.2226  0.1515
  897MPD2    C513198   1.106   4.250  10.587  0.3757  0.1371  0.2805
  897MPD2     H13199   1.015   4.502  10.313 -0.7892 -1.6357 -1.0211
  897MPD2    H113200   0.925   4.305  10.680 -0.9933  3.5979  0.0949
  897MPD2    H213201   1.292   4.231  10.494 -0.1424  0.8357 -0.5868
  897MPD2    H313202   1.135   4.180  10.665 -1.5645 -1.8921 -0.7986
  897MPD2     N13203   0.841   4.494  10.503  0.4464 -0.5448  0.1754
  897MPD2    H513204   0.809   4.527  10.412 -2.6534 -0.8378  1.1704
  897MPD2    N113205   1.253   4.379  10.281  0.2337 -0.3437 -0.5013
  897MPD2    H713206   1.337   4.323  10.288 -0.1073 -0.8641 -0.5922
  898MPD2     C13207   2.836   1.209  17.539 -0.3682  0.0495  0.2955
  898MPD2    C113208   2.945   1.159  17.606  0.0191  0.0557 -0.2211
  898MPD2    C213209   3.049   1.242  17.635  0.0321 -0.0180 -0.4384
  898MPD2    C313210   3.037   1.372  17.600  0.5420  0.1490 -0.5701
  898MPD2    C413211   2.923   1.423  17.537 -0.0178  0.8945  0.3011
  898MPD2    C513212   2.827   1.339  17.514  0.3435  0.7720 -1.0876
  898MPD2     H13213   3.138   1.201  17.680  1.0309  0.1982 -2.1945
  898MPD2    H113214   2.900   1.525  17.508  0.6698  0.9806  0.0618
  898MPD2    H213215   2.743   1.160  17.514  0.8401 -2.4428  0.7137
  898MPD2    H313216   2.744   1.371  17.453 -0.9511 -0.0599  0.2109
  898MPD2     N13217   3.141   1.462  17.645 -0.0090 -0.5127  0.0891
  898MPD2    H513218   3.217   1.422  17.700  0.4229 -0.6985 -0.6527
  898MPD2    N113219   2.955   1.025  17.656  0.0958 -0.0779 -0.1076
  898MPD2    H713220   3.043   1.002  17.701  0.5217  0.9058 -0.4230
  899MPD2     C13221   4.111   1.509  17.367 -0.7214  0.1018  0.4439
  899MPD2    C113222   4.209   1.598  17.376 -0.7758  0.0541  0.9453
  899MPD2    C213223   4.249   1.655  17.492  0.1862 -0.5404 -0.7153
  899MPD2    C313224   4.177   1.626  17.607 -0.1680 -0.0783  0.2445
  899MPD2    C413225   4.082   1.527  17.597 -0.1820  0.1688  0.9821
  899MPD2    C513226   4.042   1.466  17.478  0.5705 -0.6932  0.2062
  899MPD2     H13227   4.322   1.735  17.489 -1.2600  0.7700 -0.8043
  899MPD2    H113228   4.021   1.504  17.684 -3.1371  2.0832 -0.5692
  899MPD2    H213229   4.103   1.450  17.276  0.6382 -1.2255  1.1914
  899MPD2    H313230   3.964   1.390  17.468 -1.5467  1.3742  1.0530
  899MPD2     N13231   4.181   1.705  17.724  0.3753 -0.0798 -0.1840
  899MPD2    H513232   4.113   1.689   0.052  1.4914 -0.3544  0.7842
  899MPD2    N113233   4.253   1.649  17.253  0.3074 -0.4480 -0.6558
  899MPD2    H713234   4.216   1.610  17.167  0.4422  0.8522 -1.3031
  900MPD2     C13235   3.440   3.606  12.459  0.0102  0.3795  0.2061
  900MPD2    C113236   3.352   3.503  12.435  0.2294 -0.7088 -0.0482
  900MPD2    C213237   3.231   3.528  12.372  0.7189 -0.0802  0.0664
  900MPD2    C313238   3.201   3.654  12.325  0.0629  0.3418 -0.2300
  900MPD2    C413239   3.288   3.755  12.356  0.0988  0.8160  0.6256
  900MPD2    C513240   3.409   3.727  12.415  0.5253  0.2374 -0.1992
  900MPD2     H13241   3.151   3.457  12.354 -1.0121  2.0679 -0.6418
  900MPD2    H113242   3.271   3.860  12.333 -1.6553  0.6574  1.1610
  900MPD2    H213243   3.533   3.601  12.515 -0.1986 -0.5275  0.4864
  900MPD2    H313244   3.476   3.811  12.433 -1.7696  1.6565  1.7548
  900MPD2     N13245   3.085   3.676  12.252 -1.0465 -0.1695 -0.0023
  900MPD2    H513246   3.013   3.606  12.245  1.0182 -2.3758  1.0009
  900MPD2    N113247   3.402   3.383  12.474 -0.5750 -0.6582  0.4027
  900MPD2    H713248   3.498   3.393  12.505 -0.3328 -1.0797 -0.2295
  901MPD2     C13249   3.379   2.311  12.461 -0.7967  0.3751 -0.0870
  901MPD2    C113250   3.482   2.350  12.547 -0.0190 -0.0013  0.3153
  901MPD2    C213251   3.487   2.471  12.610  0.3793  0.8536 -0.4700
  901MPD2    C313252   3.403   2.568  12.563  0.2856 -0.4616  0.6188
  901MPD2    C413253   3.312   2.546  12.461 -0.1488  0.0615 -0.3604
  901MPD2    C513254   3.301   2.413  12.415 -0.7348  0.1441 -0.3451
  901MPD2     H13255   3.553   2.494  12.693  2.3180 -1.1396 -1.4447
  901MPD2    H113256   3.244   2.614  12.411  0.9738  0.5949 -1.1658
  901MPD2    H213257   3.374   2.208  12.426 -1.6937  0.9592 -1.6766
  901MPD2    H313258   3.227   2.389  12.340 -1.8840  1.3976  0.3801
  901MPD2     N13259   3.434   2.700  12.608  0.5578  0.1135  0.3130
  901MPD2    H513260   3.512   2.725  12.667  0.9540  0.2856 -0.2806
  901MPD2    N113261   3.573   2.251  12.584  0.4749  0.0404  0.3378
  901MPD2    H713262   3.548   2.161  12.544  2.0320 -0.2672  0.0540
  902MPD2     C13263   2.569   0.863  12.398 -0.0201 -0.6262 -0.3793
  902MPD2    C113264   2.665   0.926  12.334  0.1743  0.3735 -0.0955
  902MPD2    C213265   2.792   0.869  12.338  0.8858 -1.1367 -0.7432
  902MPD2    C313266   2.804   0.731  12.370  0.1163  0.0314 -0.3554
  902MPD2    C413267   2.695   0.669  12.424  0.5472 -0.1081 -0.3704
  902MPD2    C513268   2.573   0.733  12.430 -0.6848  0.3812 -0.1407
  902MPD2     H13269   2.885   0.913  12.304  1.5348 -0.8918  1.3073
  902MPD2    H113270   2.688   0.565  12.455 -1.1625  0.5912  1.5889
  902MPD2    H213271   2.479   0.918  12.425  0.5382 -1.0990  2.4723
  902MPD2    H313272   2.490   0.687  12.482  0.8861 -2.1688  0.1533
  902MPD2     N13273   2.922   0.655  12.360 -0.2791  0.0078  0.6656
  902MPD2    H513274   2.915   0.568  12.410  1.3087  0.2775  1.3430
  902MPD2    N113275   2.645   1.059  12.287  0.2728  0.6775 -0.4628
  902MPD2    H713276   2.546   1.082  12.277 -0.5975 -2.8663 -0.2600
  903MPD2     C13277   2.760   1.263  11.843 -0.3523 -0.4070 -0.2038
  903MPD2    C113278   2.734   1.128  11.846 -0.8455 -0.1174  0.4240
  903MPD2    C213279   2.632   1.075  11.775 -0.3256 -0.6843 -0.1776
  903MPD2    C313280   2.536   1.162  11.717 -0.3729  0.1279  0.3651
  903MPD2    C413281   2.546   1.298  11.737  0.3339  0.8399  0.0587
  903MPD2    C513282   2.662   1.343  11.795  0.4164  0.5552 -0.1340
  903MPD2     H13283   2.617   0.968  11.764  0.6845 -0.3410 -4.6688
  903MPD2    H113284   2.475   1.363  11.687  0.7765  3.0246  2.2578
  903MPD2    H213285   2.841   1.311  11.898 -1.2364  2.7244 -1.6198
  903MPD2    H313286   2.673   1.449  11.815  1.2965  0.7021 -1.3824
  903MPD2     N13287   2.433   1.100  11.644 -0.4065  0.6887 -0.2540
  903MPD2    H513288   2.442   0.999  11.640  2.4166  0.9286  0.4105
  903MPD2    N113289   2.826   1.045  11.914  0.5411 -0.6441 -0.2552
  903MPD2    H713290   2.913   1.085  11.947  0.3962 -1.1410  0.7394
  904MPD2     C13291   2.514   0.318  13.500  0.1123 -0.1501  0.8665
  904MPD2    C113292   2.488   0.407  13.604 -0.1447 -0.3084  0.4414
  904MPD2    C213293   2.575   0.412  13.714 -0.4826 -0.1748 -0.7075
  904MPD2    C313294   2.674   0.324  13.724  0.8283 -0.1308  0.1077
  904MPD2    C413295   2.692   0.227  13.625  0.1365  0.1194 -0.4018
  904MPD2    C513296   2.620   0.234  13.510 -0.0698  0.1107  0.1613
  904MPD2     H13297   2.565   0.481  13.796 -0.3437 -0.7396 -0.2174
  904MPD2    H113298   2.764   0.147  13.632  0.3207  0.3679  0.7304
  904MPD2    H213299   2.442   0.304  13.420 -0.9869  3.2524  1.2470
  904MPD2    H313300   2.623   0.151  13.442 -0.0008  1.1112 -1.0589
  904MPD2     N13301   2.749   0.327  13.841 -0.3600  0.1544  0.0260
  904MPD2    H513302   2.706   0.377  13.918 -0.4445 -1.6205  1.1307
  904MPD2    N113303   2.369   0.484  13.604  0.2562 -0.1083 -0.0968
  904MPD2    H713304   2.303   0.469  13.528  1.4321  1.6085 -1.4612
  905MPD2     C13305   2.202   0.475  12.976 -0.8960 -0.1712 -0.3819
  905MPD2    C113306   2.222   0.436  13.104  0.5084  0.0521  0.3052
  905MPD2    C213307   2.304   0.328  13.125  0.8810 -1.6317  0.6673
  905MPD2    C313308   2.362   0.251  13.023 -0.4473 -0.4761  0.4330
  905MPD2    C413309   2.335   0.295  12.891 -0.1621 -0.3325  0.2028
  905MPD2    C513310   2.258   0.408  12.870 -0.0170 -0.4291 -0.2431
  905MPD2     H13311   2.314   0.299  13.229  3.7348  0.3100  0.9199
  905MPD2    H113312   2.369   0.242  12.803  0.9737  0.6629  0.0444
  905MPD2    H213313   2.148   0.565  12.947 -0.2868  0.0499 -0.8431
  905MPD2    H313314   2.237   0.445  12.770 -0.2191  0.1411  0.0132
  905MPD2     N13315   2.455   0.144  13.041  0.0922  0.3929  0.1677
  905MPD2    H513316   2.504   0.110  12.959 -0.3867  2.0127 -0.7802
  905MPD2    N113317   2.150   0.513  13.203 -0.0642  0.4917 -0.3166
  905MPD2    H713318   2.084   0.583  13.169  0.3367  0.7936 -0.4698
  906MPD2     C13319   4.470   0.347  11.049  0.2670  0.1843 -0.0674
  906MPD2    C113320   4.419   0.335  10.922 -0.0250  0.0654  0.6238
  906MPD2    C213321   4.368   0.215  10.872  0.4840 -0.3665  0.4736
  906MPD2    C313322   4.345   0.108  10.967 -0.3445  0.4326 -0.1647
  906MPD2    C413323   4.378   0.125  11.101  0.3950  0.2501  0.1251
  906MPD2    C513324   4.440   0.241  11.137 -0.5321  0.0165  0.4191
  906MPD2     H13325   4.362   0.200  10.765 -2.1864 -0.1607  0.5920
  906MPD2    H113326   4.358   0.049  11.176 -1.3685 -0.3848 -0.9936
  906MPD2    H213327   4.542   0.421  11.082  0.6277 -0.6445  1.0321
  906MPD2    H313328   4.479   0.251  11.238 -2.3601 -2.4481  1.3628
  906MPD2     N13329   4.303   4.713  10.932 -0.4356 -0.1769 -0.2220
  906MPD2    H513330   4.292   4.645  11.007  0.4942 -1.4516 -1.2414
  906MPD2    N113331   4.452   0.441  10.834 -0.1619  0.2007 -0.1737
  906MPD2    H713332   4.530   0.503  10.855 -0.8686  1.7660 -2.2161
  907MPD2     C13333   3.775   4.433  15.055 -0.2788 -0.8329 -0.1627
  907MPD2    C113334   3.827   4.307  15.012 -0.3011  0.3105 -0.0238
  907MPD2    C213335   3.928   4.245  15.088  0.4223  0.6188  0.3813
  907MPD2    C313336   3.972   4.302  15.207  0.1366  0.3049 -0.6634
  907MPD2    C413337   3.926   4.427  15.238  0.7663  1.1152 -0.3115
  907MPD2    C513338   3.833   4.493  15.163 -0.5542 -0.1870  0.1515
  907MPD2     H13339   3.962   4.151  15.045 -0.5499  0.3606  0.1897
  907MPD2    H113340   3.940   4.475  15.335 -0.4275 -2.2910  1.5672
  907MPD2    H213341   3.705   4.489  14.995 -0.7261  0.1071  1.2485
  907MPD2    H313342   3.784   4.578  15.208  0.5128  0.2990  0.3748
  907MPD2     N13343   4.055   4.229  15.291 -0.0665  0.5754  0.1747
  907MPD2    H513344   4.056   4.128  15.278  1.1658  0.4088  1.6201
  907MPD2    N113345   3.781   4.226  14.898 -0.0003  0.3368 -0.6079
  907MPD2    H713346   3.838   4.143  14.885 -0.0200  0.1361  0.6122
  908MPD2     C13347   1.524   4.202   9.315 -0.1252  0.7203  0.0774
  908MPD2    C113348   1.618   4.299   9.349 -0.3466 -0.4807 -0.3256
  908MPD2    C213349   1.642   4.325   9.487  0.8020  0.0330  1.2189
  908MPD2    C313350   1.554   4.278   9.580 -0.0942 -0.2757  0.0284
  908MPD2    C413351   1.463   4.181   9.541 -0.1153 -0.1087 -1.0612
  908MPD2    C513352   1.450   4.141   9.412  0.1233  0.4445 -0.4828
  908MPD2     H13353   1.716   4.394   9.525  0.7164  1.7938 -1.8786
  908MPD2    H113354   1.390   4.146   9.614  0.0529 -0.9869 -1.3169
  908MPD2    H213355   1.521   4.168   9.212 -1.0476  0.6857  0.1211
  908MPD2    H313356   1.370   4.072   9.389  0.7282 -0.8708  1.3414
  908MPD2     N13357   1.558   4.339   9.705  0.4510 -0.0878  0.9533
  908MPD2    H513358   1.622   4.418   9.710  0.7643 -0.2370 -0.7004
  908MPD2    N113359   1.684   4.366   9.246 -0.2044  0.3192 -0.1954
  908MPD2    H713360   1.661   4.339   9.151 -2.1514 -2.0563  0.9585
  909MPD2     C13361   1.790   2.640  11.536 -0.1226 -0.5831  0.1801
  909MPD2    C113362   1.769   2.776  11.514 -0.4730  0.2659 -0.4118
  909MPD2    C213363   1.705   2.853  11.607  0.5252 -0.2043  0.0206
  909MPD2    C313364   1.648   2.801  11.716  0.4670  0.1780  0.3024
  909MPD2    C413365   1.658   2.660  11.734  0.1498  0.4085  0.2035
  909MPD2    C513366   1.729   2.583  11.642 -0.2098 -0.3644 -0.1034
  909MPD2     H13367   1.691   2.955  11.575  0.6049 -0.4998 -0.9681
  909MPD2    H113368   1.618   2.600  11.814  1.9429  0.8211  1.4022
  909MPD2    H213369   1.834   2.568  11.468 -1.0479 -0.6283 -0.3743
  909MPD2    H313370   1.732   2.476  11.656 -1.0392 -0.4129 -0.3182
  909MPD2     N13371   1.584   2.890  11.805  0.2289 -0.7857 -0.1099
  909MPD2    H513372   1.569   2.986  11.777  1.7079 -0.9070 -1.2830
  909MPD2    N113373   1.809   2.843  11.394 -0.2424 -0.8159 -0.3262
  909MPD2    H713374   1.768   2.935  11.382 -0.4735 -0.7273  1.1644
  910MPD2     C13375   2.769   0.055  15.312 -0.1086 -0.1858  0.0804
  910MPD2    C113376   2.896   0.111  15.281 -0.2465 -0.1216 -0.0978
  910MPD2    C213377   2.912   0.187  15.166 -1.0218  0.2328 -0.4911
  910MPD2    C313378   2.797   0.219  15.093 -0.9075 -0.6508  0.2503
  910MPD2    C413379   2.676   0.177  15.139  0.5749  0.3549 -0.0207
  910MPD2    C513380   2.658   0.089  15.236  0.6153  0.6068  0.3349
  910MPD2     H13381   3.010   0.226  15.143 -0.6061  0.8447  2.3219
  910MPD2    H113382   2.583   0.202  15.090  0.3890  0.4797  0.3968
  910MPD2    H213383   2.755   4.716  15.388 -1.4033 -0.5793 -0.5573
  910MPD2    H313384   2.560   0.044  15.249  1.0601 -0.4188  0.1376
  910MPD2     N13385   2.801   0.313  14.986 -0.1734 -0.3831 -0.0802
  910MPD2    H513386   2.717   0.345  14.939  1.6743  2.2266 -1.6212
  910MPD2    N113387   3.009   0.068  15.355  0.6755 -0.0401 -0.1640
  910MPD2    H713388   3.097   0.088  15.309 -1.1879  2.4589 -2.5964
  911MPD2     C13389   0.955   0.227  16.309 -0.2480  0.0156 -0.0099
  911MPD2    C113390   1.064   0.304  16.335  0.5706  0.9703  0.2353
  911MPD2    C213391   1.067   0.438  16.294  0.1188 -0.3222 -0.4562
  911MPD2    C313392   0.957   0.496  16.233 -0.6602  0.2008  0.9042
  911MPD2    C413393   0.847   0.417  16.218  0.5865 -0.0492  0.4059
  911MPD2    C513394   0.845   0.286  16.248  0.8444  0.1611  0.8034
  911MPD2     H13395   1.146   0.509  16.315  0.3711 -0.2699 -1.5522
  911MPD2    H113396   0.762   0.462  16.169 -1.0154 -0.2478  3.0186
  911MPD2    H213397   0.947   0.124  16.342 -0.6980  0.0032 -0.1554
  911MPD2    H313398   0.759   0.223  16.224  0.3440  1.3035 -0.4106
  911MPD2     N13399   0.954   0.627  16.177  0.3372 -0.6682 -0.0357
  911MPD2    H513400   0.865   0.661  16.143  0.4857  0.5477  0.7972
  911MPD2    N113401   1.179   0.250  16.390  0.0758 -0.0743 -0.6395
  911MPD2    H713402   1.180   0.150  16.406  1.5532  0.1432  0.5751
  912MPD2     C13403   0.480   0.717  15.614 -0.0430  0.3563  0.4996
  912MPD2    C113404   0.570   0.673  15.706  0.6839  1.1992  0.3691
  912MPD2    C213405   0.563   0.535  15.742  1.1433  0.3049  0.6504
  912MPD2    C313406   0.462   0.457  15.690  0.2813  0.1727  0.4063
  912MPD2    C413407   0.383   0.505  15.589 -0.0877  0.5123  0.4767
  912MPD2    C513408   0.385   0.634  15.560 -0.1821 -0.0174 -0.1348
  912MPD2     H13409   0.627   0.494  15.820  0.6594 -2.9018 -0.6307
  912MPD2    H113410   0.304   0.444  15.546  3.0170 -1.3059 -2.6644
  912MPD2    H213411   0.476   0.820  15.580 -1.3260  1.2261  3.3597
  912MPD2    H313412   0.307   0.673  15.495 -0.6005  2.4429  1.8290
  912MPD2     N13413   0.465   0.324  15.725 -0.4967  0.1698 -0.6627
  912MPD2    H513414   0.503   0.307  15.818  0.2991  0.4385 -0.9367
  912MPD2    N113415   0.660   0.766  15.765  0.7231  0.1622 -0.6351
  912MPD2    H713416   0.672   0.861  15.732 -0.3246  0.1671 -1.0334
  913MPD2     C13417   1.055   1.976  10.219 -0.0261  0.2915 -0.2052
  913MPD2    C113418   1.171   2.052  10.242  0.7917 -0.6239 -0.4746
  913MPD2    C213419   1.203   2.156  10.152  0.1555  0.2716  0.1187
  913MPD2    C313420   1.125   2.183  10.038 -0.3157  0.1253 -0.1697
  913MPD2    C413421   1.014   2.104  10.019  0.5842  0.0772 -0.0592
  913MPD2    C513422   0.980   2.000  10.107  0.9717 -0.5020 -0.0921
  913MPD2     H13423   1.293   2.217  10.157  0.6240 -0.2822 -1.5824
  913MPD2    H113424   0.943   2.117   9.938  2.6409 -0.3922 -1.9188
  913MPD2    H213425   1.022   1.899  10.288  0.5242  1.4044  1.2969
  913MPD2    H313426   0.893   1.936  10.101  1.4988 -1.3878  1.9219
  913MPD2     N13427   1.147   2.281   9.933  0.3311 -0.1198  0.1239
  913MPD2    H513428   1.086   2.283   9.852  1.4913  0.8321 -0.7022
  913MPD2    N113429   1.250   2.014  10.354 -0.4003  0.6149  0.0421
  913MPD2    H713430   1.202   1.953  10.420  1.6307 -0.8272  0.1834
  914MPD2     C13431   4.310   2.463  12.045 -0.4752  1.1608  0.3135
  914MPD2    C113432   4.252   2.541  12.143  0.6734 -0.1180  0.2738
  914MPD2    C213433   4.186   2.472  12.247  0.0418  0.1940  0.2002
  914MPD2    C313434   4.168   2.331  12.250 -0.5145  0.4822  0.3327
  914MPD2    C413435   4.234   2.258  12.155 -0.1215  0.5899 -0.0798
  914MPD2    C513436   4.295   2.329  12.051  0.5932  0.1873  0.0164
  914MPD2     H13437   4.145   2.531  12.329 -3.7805 -1.4576 -0.5057
  914MPD2    H113438   4.233   2.150  12.147 -0.9197  0.3222  3.3543
  914MPD2    H213439   4.355   2.502  11.955  2.7014  0.4918  1.5829
  914MPD2    H313440   4.340   2.273  11.970 -1.0883  0.5222 -1.1469
  914MPD2     N13441   4.114   2.280  12.365  0.1042  0.4256 -0.4635
  914MPD2    H513442   4.075   2.348  12.430 -0.5152 -1.4113  1.0860
  914MPD2    N113443   4.244   2.682  12.127 -0.8087  0.3914 -0.0148
  914MPD2    H713444   4.301   2.723  12.054 -1.1840  0.2069 -0.4111
  915MPD2     C13445   2.411   1.808  15.257  0.5829 -0.5279  0.2083
  915MPD2    C113446   2.279   1.848  15.281 -0.0655 -0.1198 -0.5722
  915MPD2    C213447   2.232   1.851  15.412  0.0290 -0.3631  0.4251
  915MPD2    C313448   2.319   1.830  15.511  0.1338  0.0045 -0.8610
  915MPD2    C413449   2.452   1.802  15.490  0.3286  0.0126  0.2983
  915MPD2    C513450   2.496   1.790  15.361  0.9904 -0.1647 -0.0014
  915MPD2     H13451   2.128   1.881  15.420 -0.6022 -2.6080  0.4901
  915MPD2    H113452   2.526   1.779  15.566 -0.0336 -0.5793  0.4677
  915MPD2    H213453   2.448   1.802  15.156  1.9053 -0.9815  0.7229
  915MPD2    H313454   2.601   1.776  15.338  1.2194 -2.7878  2.6842
  915MPD2     N13455   2.278   1.834  15.647 -0.6375 -0.2201  0.3647
  915MPD2    H513456   2.179   1.853  15.661 -0.8652 -1.0438 -0.1625
  915MPD2    N113457   2.200   1.880  15.173  0.5435  0.0333 -0.2436
  915MPD2    H713458   2.240   1.856  15.083  1.2080 -1.8241  0.5636
  916MPD2     C13459   0.021   0.348  15.677 -0.0937  0.6274  0.8908
  916MPD2    C113460   0.090   0.330  15.794 -0.2154 -0.5270 -0.2309
  916MPD2    C213461   0.079   0.211  15.861  0.5268 -0.2422  0.4352
  916MPD2    C313462   0.014   0.101  15.802  0.0410 -0.6179 -0.1269
  916MPD2    C413463   4.699   0.124  15.676 -0.6718 -0.2052 -0.0357
  916MPD2    C513464   4.691   0.245  15.623  0.7376  0.2636  0.0897
  916MPD2     H13465   0.123   0.190  15.957  0.3133  0.4065  0.6688
  916MPD2    H113466   4.648   0.044  15.623 -2.0006  0.9696 -0.5328
  916MPD2    H213467   0.017   0.438  15.617 -4.0356 -1.2008 -1.5932
  916MPD2    H313468   4.632   0.255  15.532  1.0854  0.7991 -0.0734
  916MPD2     N13469   0.002   4.710  15.870  0.5913 -0.6108  0.4221
  916MPD2    H513470   0.032   4.712  15.967  0.4879 -0.5735  0.4532
  916MPD2    N113471   0.145   0.443  15.854 -0.0106  0.1468 -0.3833
  916MPD2    H713472   0.123   0.532  15.811  1.6854 -0.1449 -1.8329
  917MPD2     C13473   0.247   2.459  11.301  0.6087  0.3791 -1.1169
  917MPD2    C113474   0.272   2.565  11.384 -0.0693 -0.3632 -0.0288
  917MPD2    C213475   0.370   2.653  11.343 -0.1856 -0.5940  0.0456
  917MPD2    C313476   0.439   2.630  11.219  0.1667  0.7561  0.0875
  917MPD2    C413477   0.404   2.528  11.142  0.1238 -0.4295  0.4817
  917MPD2    C513478   0.311   2.442  11.188 -0.0838  0.2456 -0.5174
  917MPD2     H13479   0.400   2.733  11.409  0.6526 -0.3370 -0.6378
  917MPD2    H113480   0.440   2.512  11.041 -1.1343 -0.3010  0.0156
  917MPD2    H213481   0.170   2.388  11.332  1.7148 -0.1178  0.5068
  917MPD2    H313482   0.269   2.374  11.114 -1.1151  0.5778 -0.2439
  917MPD2     N13483   0.547   2.711  11.178  0.3770 -0.5347  0.0365
  917MPD2    H513484   0.577   2.721  11.081  0.5886 -1.9758 -0.0400
  917MPD2    N113485   0.198   2.564  11.505  0.4412  0.2920  0.3815
  917MPD2    H713486   0.121   2.501  11.521 -1.0625  2.2085  0.6500
  918MPD2     C13487   0.225   3.156  12.311 -0.3265  0.1137 -0.6547
  918MPD2    C113488   0.329   3.099  12.238 -0.2775 -0.2532  0.5790
  918MPD2    C213489   0.299   3.005  12.142 -0.3346 -0.4866 -0.0014
  918MPD2    C313490   0.165   2.976  12.106 -0.2178  0.2952  0.2228
  918MPD2    C413491   0.072   3.047  12.168 -0.4665  0.4769 -0.7974
  918MPD2    C513492   0.097   3.134  12.270  0.3030  0.4099 -0.0254
  918MPD2     H13493   0.377   2.949  12.092 -0.3084  0.3659 -0.9060
  918MPD2    H113494   4.706   3.020  12.143 -0.1242 -3.1565  1.6846
  918MPD2    H213495   0.248   3.223  12.393 -0.6042 -0.4931 -0.0861
  918MPD2    H313496   0.015   3.193  12.308 -0.3624  0.2947 -1.2683
  918MPD2     N13497   0.125   2.873  12.016 -0.0819 -0.1235  0.3692
  918MPD2    H513498   0.193   2.837  11.950 -0.1790  0.4877 -0.0717
  918MPD2    N113499   0.464   3.123  12.263  0.1004  0.5484  0.8332
  918MPD2    H713500   0.525   3.090  12.189 -0.4064  1.0593  0.1799
  919MPD2     C13501   0.580   1.109  11.003  0.0913  0.1171 -0.0966
  919MPD2    C113502   0.717   1.090  11.018 -0.2155 -0.0137  0.1820
  919MPD2    C213503   0.813   1.173  10.959  0.2012  0.4148 -0.1601
  919MPD2    C313504   0.768   1.274  10.876 -0.8288  0.5737 -0.9015
  919MPD2    C413505   0.639   1.302  10.874  0.4568  0.1514  0.1636
  919MPD2    C513506   0.548   1.222  10.941 -0.7067 -0.2538  0.6366
  919MPD2     H13507   0.915   1.144  10.982 -0.9189 -2.6178  1.0933
  919MPD2    H113508   0.608   1.386  10.813  1.2369  1.5568  1.7226
  919MPD2    H213509   0.498   1.050  11.041  1.6362 -2.5099 -0.8163
  919MPD2    H313510   0.442   1.245  10.937 -0.3372  1.1960 -0.8670
  919MPD2     N13511   0.858   1.363  10.802  0.0108  0.0536 -0.1867
  919MPD2    H513512   0.821   1.438  10.744 -2.1300 -0.5856  0.3657
  919MPD2    N113513   0.765   0.987  11.105 -0.0268 -0.4822 -0.0150
  919MPD2    H713514   0.866   0.983  11.116 -0.0477  1.2672  0.7691
  920MPD2     C13515   0.673   2.140  10.610  0.7876 -0.0350 -1.4960
  920MPD2    C113516   0.601   2.022  10.585 -0.0531  0.2848  0.1468
  920MPD2    C213517   0.679   1.899  10.577  0.4758  0.0860  0.4125
  920MPD2    C313518   0.816   1.897  10.583  0.2845  0.7730 -0.4691
  920MPD2    C413519   0.880   2.020  10.590  0.4134  0.7744 -0.0678
  920MPD2    C513520   0.805   2.140  10.604  0.1418 -0.3137  0.6141
  920MPD2     H13521   0.629   1.804  10.561 -0.9784  0.7428  0.9629
  920MPD2    H113522   0.988   2.026  10.592  0.4301  0.7676 -1.0913
  920MPD2    H213523   0.625   2.238  10.613 -0.3831 -0.6927  1.9438
  920MPD2    H313524   0.854   2.236  10.609  1.7323 -1.0495 -0.7825
  920MPD2     N13525   0.875   1.771  10.576 -0.4006  0.0729 -0.0876
  920MPD2    H513526   0.812   1.693  10.593  0.8016 -1.3912 -2.4040
  920MPD2    N113527   0.457   2.019  10.571  0.6802 -0.0095  0.2442
  920MPD2    H713528   0.408   1.930  10.559 -2.9068  1.9264  0.3457
  921MPD2     C13529   1.970   0.702  16.837  0.5532 -0.2673 -0.6685
  921MPD2    C113530   1.947   0.680  16.698 -0.0462  0.4099 -0.0912
  921MPD2    C213531   1.858   0.580  16.657 -0.4734 -0.1537 -0.3330
  921MPD2    C313532   1.789   0.503  16.752 -0.0896  0.0714  0.2680
  921MPD2    C413533   1.814   0.525  16.889  0.7363  0.1423 -0.0279
  921MPD2    C513534   1.904   0.624  16.927  0.0888  0.2326  0.1595
  921MPD2     H13535   1.843   0.570  16.550  0.6190  0.2451 -0.5275
  921MPD2    H113536   1.763   0.464  16.964 -1.1286 -1.3056 -2.4672
  921MPD2    H213537   2.038   0.780  16.868 -1.0079  1.8506 -2.5324
  921MPD2    H313538   1.929   0.633  17.032 -2.7858 -0.2681  0.8833
  921MPD2     N13539   1.704   0.398  16.711 -0.5694 -0.2150 -0.6636
  921MPD2    H513540   1.660   0.334  16.776  0.5820  1.0662  1.3470
  921MPD2    N113541   2.019   0.763  16.606 -0.2319  0.0633  0.2681
  921MPD2    H713542   2.082   0.831  16.648  0.0919  0.6452 -1.1620
  922MPD2     C13543   2.779   3.538  17.386  0.5541  0.2142 -0.0337
  922MPD2    C113544   2.729   3.530  17.517  0.3392  0.6691  0.0578
  922MPD2    C213545   2.674   3.411  17.565  0.5617 -0.2973 -0.4261
  922MPD2    C313546   2.662   3.299  17.482  0.7072 -0.5010 -0.7996
  922MPD2    C413547   2.702   3.305  17.356  0.1762  0.3827  0.1325
  922MPD2    C513548   2.756   3.425  17.302  0.1078 -0.0811 -0.3040
  922MPD2     H13549   2.638   3.411  17.667  0.9227 -1.2750 -0.3003
  922MPD2    H113550   2.697   3.225  17.283  0.2971 -0.5049  1.1044
  922MPD2    H213551   2.828   3.626  17.346 -2.1053  0.0132 -3.7740
  922MPD2    H313552   2.785   3.429  17.198 -3.1456  0.2996 -1.1798
  922MPD2     N13553   2.588   3.190  17.533  0.8675 -0.3463  0.1708
  922MPD2    H513554   2.547   3.200  17.625 -0.8383 -1.4405 -0.4644
  922MPD2    N113555   2.747   3.636  17.608  0.2194  0.1004  0.0183
  922MPD2    H713556   2.728   3.614  17.705  0.0574  1.8221  0.3685
  923MPD2     C13557   3.689   0.467   8.692 -0.0292 -0.0244  0.5058
  923MPD2    C113558   3.646   0.553   8.786 -0.4775 -0.0142 -0.1165
  923MPD2    C213559   3.719   0.576   8.898  0.4143 -0.1211 -0.0762
  923MPD2    C313560   3.849   0.514   8.912  0.2919  0.2236  0.1560
  923MPD2    C413561   3.881   0.413   8.827 -0.6698  0.3203 -0.7800
  923MPD2    C513562   3.803   0.393   8.716 -0.4988  0.1626  0.2819
  923MPD2     H13563   3.689   0.648   8.974  0.8999 -0.3322  0.3135
  923MPD2    H113564   3.971   0.355   8.846 -1.4950 -0.2607  1.4037
  923MPD2    H213565   3.626   0.443   8.607  1.6801  1.3889 -1.1754
  923MPD2    H313566   3.826   0.312   8.648  1.5593  0.1651  0.9635
  923MPD2     N13567   3.942   0.559   9.003  0.0608 -0.0331 -0.1975
  923MPD2    H513568   4.017   0.492   9.014  0.8213  0.4352 -2.5686
  923MPD2    N113569   3.529   0.626   8.757 -0.2797  0.0798  0.0301
  923MPD2    H713570   3.490   0.632   8.664 -0.4103  0.6255  0.1185
  924MPD2     C13571   3.932   3.441  15.362  0.7631 -0.0330  0.0575
  924MPD2    C113572   3.933   3.488  15.488 -0.0914  0.6952  0.8311
  924MPD2    C213573   4.019   3.596  15.517 -0.0593  0.7181  0.6555
  924MPD2    C313574   4.098   3.648  15.407  0.1879 -0.4173 -0.4500
  924MPD2    C413575   4.092   3.600  15.280 -0.8862 -0.4662 -0.4023
  924MPD2    C513576   4.008   3.500  15.260 -0.3566  0.3393 -0.2625
  924MPD2     H13577   4.005   3.653  15.608  2.0439  0.8491  0.9021
  924MPD2    H113578   4.159   3.628  15.199  1.3262 -4.8214 -0.1416
  924MPD2    H213579   3.864   3.362  15.331 -1.0217  1.8785 -0.8288
  924MPD2    H313580   3.995   3.453  15.163 -0.8709 -1.4127  0.6452
  924MPD2     N13581   4.177   3.765  15.425 -0.1432  0.1871  0.0860
  924MPD2    H513582   4.228   3.803  15.346  1.1269 -3.0344 -0.6338
  924MPD2    N113583   3.846   3.426  15.579 -0.1476 -0.3935  0.0461
  924MPD2    H713584   3.784   3.350  15.552  0.7320 -0.6162 -1.3452
  925MPD2     C13585   2.953   1.034  14.453 -0.1199  0.5160  0.3161
  925MPD2    C113586   2.825   1.082  14.453  0.1246 -0.3655  0.3080
  925MPD2    C213587   2.764   1.102  14.573 -0.1306 -0.0684 -0.9144
  925MPD2    C313588   2.825   1.076  14.695 -0.1417  0.5506 -0.7542
  925MPD2    C413589   2.944   1.007  14.695  0.6192  0.4697 -0.0902
  925MPD2    C513590   3.007   0.999  14.572 -0.0543  0.3427  0.2669
  925MPD2     H13591   2.663   1.142  14.573 -0.5073 -1.0089  2.1699
  925MPD2    H113592   2.989   0.985  14.791  0.0239  0.1341  0.1105
  925MPD2    H213593   3.009   1.026  14.361 -1.8465 -0.4881 -0.6465
  925MPD2    H313594   3.103   0.948  14.577  0.7073  1.9095  1.5969
  925MPD2     N13595   2.763   1.089  14.816  0.4679 -0.2198  0.7652
  925MPD2    H513596   2.814   1.050  14.894 -2.4621 -0.0934  2.7100
  925MPD2    N113597   2.764   1.116  14.336  0.7007 -0.0280 -0.3710
  925MPD2    H713598   2.819   1.113  14.251  0.6488 -0.5467 -0.3856
  926MPD2     C13599   1.642   4.311  13.180  0.2675  0.3831 -0.7483
  926MPD2    C113600   1.520   4.340  13.124  0.1202 -0.1639 -0.7236
  926MPD2    C213601   1.518   4.427  13.020  0.3176  0.4051  0.3043
  926MPD2    C313602   1.638   4.502  12.980  0.3511 -0.5295  0.1679
  926MPD2    C413603   1.751   4.463  13.052  0.2452 -0.2217  1.0471
  926MPD2    C513604   1.759   4.364  13.133  0.8905  0.2823  0.4861
  926MPD2     H13605   1.419   4.448  12.982 -0.2560 -1.9607  0.4969
  926MPD2    H113606   1.846   4.511  13.029 -0.2008  0.1294 -0.0876
  926MPD2    H213607   1.647   4.234  13.256  1.9352  0.4820 -0.7731
  926MPD2    H313608   1.853   4.344  13.183  1.9175 -0.3878 -1.7021
  926MPD2     N13609   1.644   4.605  12.888  0.1700 -0.1420 -0.3072
  926MPD2    H513610   1.729   4.658  12.867  0.1876 -0.2480 -0.5010
  926MPD2    N113611   1.404   4.275  13.155 -0.1676  0.1204 -0.0705
  926MPD2    H713612   1.315   4.314  13.126 -0.7431 -0.4968  0.8735
  927MPD2     C13613   1.526   2.061  17.564  0.0600  0.1623 -0.3032
  927MPD2    C113614   1.459   1.954  17.510  0.0320 -0.2868 -0.7250
  927MPD2    C213615   1.448   1.943  17.375  0.0222 -0.9816  0.0461
  927MPD2    C313616   1.529   2.011  17.290 -0.7529 -0.6842  0.7165
  927MPD2    C413617   1.623   2.095  17.352 -0.2331 -0.6625 -0.4604
  927MPD2    C513618   1.614   2.128  17.486  0.0613  0.2250 -0.0687
  927MPD2     H13619   1.388   1.862  17.335  1.0433 -1.1759 -1.1278
  927MPD2    H113620   1.704   2.145  17.300 -0.8770 -1.1571 -1.9416
  927MPD2    H213621   1.526   2.085  17.669 -0.3092  1.1519 -0.5335
  927MPD2    H313622   1.684   2.197  17.531  0.1788 -0.3611  0.6521
  927MPD2     N13623   1.508   2.005  17.147 -0.3917 -0.3312  0.4793
  927MPD2    H513624   1.419   1.961  17.125  0.0350 -0.8221 -0.2534
  927MPD2    N113625   1.373   1.884  17.596  0.0034  0.1390 -0.1901
  927MPD2    H713626   1.348   1.928  17.684 -1.8964 -0.6323 -0.3477
  928MPD2     C13627   3.907   4.522   0.842 -0.1100 -0.0445  0.5969
  928MPD2    C113628   3.914   4.657   0.863  0.0591  0.2284  0.2604
  928MPD2    C213629   3.874   0.008   0.762  0.2224 -0.2614 -0.3245
  928MPD2    C313630   3.815   4.696   0.654 -0.4142  0.1362  0.5365
  928MPD2    C413631   3.822   4.558   0.634 -0.7264  0.0760  0.5908
  928MPD2    C513632   3.875   4.470   0.728  0.1489  0.1916 -0.2435
  928MPD2     H13633   3.872   0.116   0.778  1.8041 -0.5033  1.4617
  928MPD2    H113634   3.777   4.507   0.549 -2.1612  0.5680  1.0557
  928MPD2    H213635   3.935   4.454   0.922  0.4559 -2.4854 -1.6781
  928MPD2    H313636   3.860   4.363   0.713  1.0092 -0.0115  0.3391
  928MPD2     N13637   3.754   0.035   0.547  0.1897  0.3110  0.7502
  928MPD2    H513638   3.725   4.719   0.465  0.0853 -0.3714  1.2267
  928MPD2    N113639   3.962   4.699   0.987  0.2223  0.5195  0.0733
  928MPD2    H713640   3.998   4.623   1.045  0.7902  0.1911 -0.7241
  929MPD2     C13641   4.008   0.572  10.335 -0.2642 -0.8233 -0.9596
  929MPD2    C113642   3.943   0.497  10.232 -0.1063 -0.6516 -0.1650
  929MPD2    C213643   3.903   0.565  10.118 -0.1607  0.0426 -0.5595
  929MPD2    C313644   3.940   0.700  10.098  0.5692 -1.1361  0.2661
  929MPD2    C413645   3.982   0.773  10.208  0.5668  0.4401  0.3030
  929MPD2    C513646   4.024   0.709  10.325 -1.2426  0.6499 -0.1946
  929MPD2     H13647   3.875   0.503  10.034 -0.8265  0.1496 -0.4182
  929MPD2    H113648   3.992   0.880  10.191 -0.0620  0.6195  1.0830
  929MPD2    H213649   4.041   0.531  10.429  2.1989  1.5870 -0.7910
  929MPD2    H313650   4.075   0.762  10.404 -0.0184 -0.1791 -0.4298
  929MPD2     N13651   3.924   0.772   9.973 -0.3682  0.1138  0.0009
  929MPD2    H513652   3.936   0.872   9.980  1.4930 -0.0947 -0.1883
  929MPD2    N113653   3.910   0.359  10.260 -0.2682 -0.9128 -0.0437
  929MPD2    H713654   3.958   0.325  10.343 -2.3702 -1.2418  1.0313
  930MPD2     C13655   1.102   2.710  13.775 -0.0288 -0.3395 -0.0112
  930MPD2    C113656   1.196   2.669  13.685 -0.0559  0.4890  0.7619
  930MPD2    C213657   1.181   2.546  13.623  0.4992 -0.5387  0.7428
  930MPD2    C313658   1.063   2.474  13.648  0.1131  0.2630  0.6585
  930MPD2    C413659   0.966   2.522  13.734 -0.5447 -0.0469 -0.1763
  930MPD2    C513660   0.989   2.639  13.802 -0.3834 -0.8242  0.1209
  930MPD2     H13661   1.264   2.509  13.563 -0.0535 -0.6740  0.0722
  930MPD2    H113662   0.877   2.466  13.761  0.4168 -1.0869  0.8520
  930MPD2    H213663   1.107   2.811  13.814 -0.0638 -0.0768 -0.6733
  930MPD2    H313664   0.909   2.676  13.865 -0.6446 -1.9724  0.4573
  930MPD2     N13665   1.031   2.355  13.590  0.4969 -0.3021  0.4854
  930MPD2    H513666   0.934   2.325  13.592  0.1298  0.8529 -0.1164
  930MPD2    N113667   1.306   2.752  13.659  0.3463 -0.1768 -0.0503
  930MPD2    H713668   1.318   2.835  13.716 -0.9907 -0.4589  0.6348
  931MPD2     C13669   1.484   1.223   0.097  0.1071  0.8424  0.1911
  931MPD2    C113670   1.349   1.237   0.119 -0.0659 -0.4017 -0.2137
  931MPD2    C213671   1.276   1.134   0.179 -0.8213  0.1981  0.7165
  931MPD2    C313672   1.330   1.009   0.190  0.3814 -0.3209  0.1012
  931MPD2    C413673   1.464   0.996   0.161 -0.9403 -0.4664 -0.4669
  931MPD2    C513674   1.544   1.100   0.123 -0.0514  0.5329  0.5264
  931MPD2     H13675   1.169   1.152   0.184 -0.7777  0.2063  1.6616
  931MPD2    H113676   1.517   0.901   0.168 -0.9316 -0.3311  1.3284
  931MPD2    H213677   1.545   1.307   0.067 -0.4817  1.1633 -0.0932
  931MPD2    H313678   1.649   1.085   0.103 -0.2930 -1.0247  0.3970
  931MPD2     N13679   1.255   0.896   0.233 -0.2115  0.2826  0.1604
  931MPD2    H513680   1.311   0.813   0.250 -0.9880 -0.3803 -0.5256
  931MPD2    N113681   1.297   1.364   0.072  0.0839 -0.0830  0.3546
  931MPD2    H713682   1.357   1.419   0.013 -0.9903  2.8449  2.0100
  932MPD2     C13683   2.428   0.972  10.710  0.4084  0.4999  0.2594
  932MPD2    C113684   2.514   1.047  10.791  0.1225  0.4766  0.0444
  932MPD2    C213685   2.635   0.988  10.844  0.2658 -0.2585 -0.7910
  932MPD2    C313686   2.665   0.857  10.819 -0.2623 -0.3119 -0.8724
  932MPD2    C413687   2.578   0.780  10.737  0.5430  0.0401 -0.1938
  932MPD2    C513688   2.463   0.841  10.683  0.0920 -0.3392  0.1074
  932MPD2     H13689   2.710   1.045  10.897  0.4909 -0.5322 -0.8184
  932MPD2    H113690   2.592   0.672  10.735 -1.9240 -0.2792  0.3417
  932MPD2    H213691   2.336   1.007  10.664  0.9886  1.2902 -0.3146
  932MPD2    H313692   2.391   0.776  10.635 -0.3664  1.1453 -1.1883
  932MPD2     N13693   2.777   0.805  10.883  0.0441  0.0802 -0.3987
  932MPD2    H513694   2.813   0.861  10.959 -0.9888 -0.1035  0.2279
  932MPD2    N113695   2.492   1.183  10.816  0.3919  0.0116  0.2134
  932MPD2    H713696   2.560   1.243  10.862  0.9637  0.2972 -1.0040
  933MPD2     C13697   3.904   0.559   1.615 -0.0149  0.3179  0.8661
  933MPD2    C113698   3.859   0.515   1.492 -0.6956  0.8177 -0.4776
  933MPD2    C213699   3.748   0.567   1.435 -0.0687  0.5953  0.0514
  933MPD2    C313700   3.674   0.676   1.490 -0.5910 -0.2035 -0.7597
  933MPD2    C413701   3.712   0.719   1.619 -0.0599 -0.2428 -0.7230
  933MPD2    C513702   3.831   0.668   1.672 -0.4168  0.0229 -0.1359
  933MPD2     H13703   3.729   0.534   1.333 -2.0042  0.8136  0.3332
  933MPD2    H113704   3.654   0.798   1.666  0.1237 -0.2845 -0.4301
  933MPD2    H213705   3.989   0.515   1.665  0.7969  0.3093 -0.5108
  933MPD2    H313706   3.860   0.693   1.773 -0.5584  0.9398 -0.3216
  933MPD2     N13707   3.562   0.721   1.419  0.4924 -0.2937  0.2831
  933MPD2    H513708   3.531   0.669   1.338  1.6520 -1.0174  0.3053
  933MPD2    N113709   3.921   0.419   1.408  0.6294  0.6958 -0.4449
  933MPD2    H713710   3.863   0.383   1.333  0.8439  2.3441 -1.4215
  934MPD2     C13711   0.708   2.813   1.967 -0.4259  0.9631 -0.4581
  934MPD2    C113712   0.754   2.687   1.929  0.2215  0.1763 -0.1552
  934MPD2    C213713   0.665   2.606   1.875  0.0101  0.1310  0.9806
  934MPD2    C313714   0.531   2.642   1.853  0.2336  0.0529 -0.6422
  934MPD2    C413715   0.488   2.766   1.893  0.8645 -0.7405 -0.0603
  934MPD2    C513716   0.580   2.851   1.957  0.6454  0.3118  0.4754
  934MPD2     H13717   0.695   2.502   1.860  2.4495  0.9148  0.4879
  934MPD2    H113718   0.385   2.794   1.874  0.8900 -0.2386  0.5259
  934MPD2    H213719   0.776   2.887   2.008  0.8985  0.3584 -1.6067
  934MPD2    H313720   0.546   2.951   1.985 -0.1987 -0.1366  1.0688
  934MPD2     N13721   0.434   2.555   1.789 -0.3064 -0.6208 -0.4729
  934MPD2    H513722   0.341   2.590   1.767 -0.4551 -0.2593  0.6856
  934MPD2    N113723   0.893   2.652   1.925  0.1437 -0.3505  0.3938
  934MPD2    H713724   0.911   2.567   1.872 -2.9707 -0.9486  0.2974
  935MPD2     C13725   0.676   1.822   1.150  0.2867  0.4485  0.1452
  935MPD2    C113726   0.557   1.874   1.098 -0.2248  0.0897 -0.5420
  935MPD2    C213727   0.484   1.963   1.172 -0.7246  0.6367  0.1183
  935MPD2    C313728   0.525   2.001   1.296  0.4429  0.1867  0.1067
  935MPD2    C413729   0.637   1.946   1.349 -0.0871 -0.7597 -0.7303
  935MPD2    C513730   0.703   1.856   1.277 -0.2192 -1.1061  0.2344
  935MPD2     H13731   0.387   1.999   1.140 -1.4715 -1.9985 -0.5617
  935MPD2    H113732   0.666   1.969   1.451 -0.0785 -0.1731 -0.8674
  935MPD2    H213733   0.752   1.758   1.105  0.0918 -0.8417  1.6485
  935MPD2    H313734   0.784   1.806   1.329 -0.9619 -2.7461 -0.1732
  935MPD2     N13735   0.458   2.092   1.375 -1.0534 -0.0413  0.1790
  935MPD2    H513736   0.500   2.109   1.466  1.0672  1.1097 -1.0074
  935MPD2    N113737   0.515   1.838   0.970 -0.3896  0.2298  0.2505
  935MPD2    H713738   0.435   1.888   0.931  0.2643  0.2538 -1.0635
  936MPD2     C13739   3.118   4.247  12.216  0.0356  0.0335  0.1455
  936MPD2    C113740   3.187   4.362  12.186 -0.4979  0.0240  0.4631
  936MPD2    C213741   3.122   4.461  12.118 -0.0195  0.4432  0.1266
  936MPD2    C313742   2.996   4.445  12.069 -0.3693  0.4033 -0.2534
  936MPD2    C413743   2.923   4.333  12.103  0.2651  0.5053  0.3572
  936MPD2    C513744   2.986   4.238  12.178  0.3857  0.4967  0.0675
  936MPD2     H13745   3.174   4.553  12.094  0.0914 -0.7243 -4.1273
  936MPD2    H113746   2.825   4.317  12.059 -0.2955 -0.3198  1.9389
  936MPD2    H213747   3.159   4.160  12.266  0.9115 -0.1460 -0.8940
  936MPD2    H313748   2.925   4.150  12.195 -1.0070  1.5371  0.5080
  936MPD2     N13749   2.947   4.539  11.977 -0.1835  0.2701  0.5563
  936MPD2    H513750   3.004   4.622  11.961  0.5685 -0.3288  0.1458
  936MPD2    N113751   3.322   4.388  12.218 -0.0196 -0.5410  0.1605
  936MPD2    H713752   3.357   4.482  12.207  0.0223 -0.5840 -0.0860
  937MPD2     C13753   1.176   0.354  11.149  0.2762  0.5134 -0.4812
  937MPD2    C113754   1.163   0.488  11.114 -0.7657 -0.0710 -0.6218
  937MPD2    C213755   1.265   0.557  11.048 -0.0140  0.8749  0.6014
  937MPD2    C313756   1.366   0.485  10.993  0.5084 -0.4920 -0.3195
  937MPD2    C413757   1.382   0.351  11.029  0.5552 -0.1551  0.7672
  937MPD2    C513758   1.290   0.285  11.107 -0.2689  0.1125 -0.5134
  937MPD2     H13759   1.256   0.663  11.027  1.6223  1.1287  1.2267
  937MPD2    H113760   1.465   0.293  10.992 -0.7267 -1.0032 -0.7557
  937MPD2    H213761   1.098   0.292  11.192  0.3395  0.7067 -0.0844
  937MPD2    H313762   1.299   0.177  11.104 -0.0585  0.1721 -2.1345
  937MPD2     N13763   1.457   0.545  10.903  0.0073  0.3178  0.3934
  937MPD2    H513764   1.448   0.646  10.893 -2.9823 -0.1518 -1.4324
  937MPD2    N113765   1.052   0.567  11.162  0.4935  0.1193  0.3128
  937MPD2    H713766   1.060   0.664  11.135  0.6808  0.0314  0.0493
  938MPD2     C13767   4.233   2.616   0.861  0.0392  0.0597  0.7560
  938MPD2    C113768   4.297   2.556   0.968 -0.4141  0.7066 -0.6556
  938MPD2    C213769   4.315   2.421   0.963  0.2390 -0.0471  0.1614
  938MPD2    C313770   4.273   2.352   0.849  0.2786  0.0705 -0.6975
  938MPD2    C413771   4.221   2.414   0.735  0.5032  0.1440  0.2405
  938MPD2    C513772   4.199   2.549   0.742  0.0421  0.5706 -0.1394
  938MPD2     H13773   4.362   2.372   1.048  0.9706 -0.3463 -0.4173
  938MPD2    H113774   4.184   2.364   0.647  0.0368  1.8094 -0.4963
  938MPD2    H213775   4.226   2.724   0.859 -0.3284  0.0393  1.0223
  938MPD2    H313776   4.151   2.601   0.659  0.5724 -1.2174 -1.5762
  938MPD2     N13777   4.286   2.212   0.838  0.6066 -0.1334  0.1477
  938MPD2    H513778   4.256   2.175   0.748 -0.6714  1.6184 -0.1355
  938MPD2    N113779   4.338   2.623   1.088 -0.3184  0.2849  0.3026
  938MPD2    H713780   4.381   2.571   1.164  0.6357  0.1177 -0.3421
  939MPD2     C13781   1.056   2.911   1.022  0.0042  0.3949  0.0577
  939MPD2    C113782   0.961   3.006   0.991 -0.8217  0.2859 -0.5376
  939MPD2    C213783   0.871   2.990   0.886 -0.6902  0.0386  0.3713
  939MPD2    C313784   0.885   2.881   0.804 -0.4328 -0.4571  0.0556
  939MPD2    C413785   0.974   2.784   0.839 -0.8747  0.1326  0.1588
  939MPD2    C513786   1.053   2.792   0.957  0.4267  0.6147  0.0035
  939MPD2     H13787   0.800   3.065   0.855 -1.4149 -1.2539 -1.1125
  939MPD2    H113788   0.991   2.696   0.778 -1.1686  1.7299 -2.1988
  939MPD2    H213789   1.133   2.931   1.097  0.2977 -0.8487  0.0885
  939MPD2    H313790   1.117   2.707   0.978 -1.6158 -1.1745 -1.0531
  939MPD2     N13791   0.800   2.870   0.690 -0.5209 -0.1638  0.3168
  939MPD2    H513792   0.729   2.942   0.692 -2.5873 -2.1662 -1.6138
  939MPD2    N113793   0.968   3.128   1.064  0.2839 -0.0443 -0.5845
  939MPD2    H713794   1.018   3.117   1.152 -0.6938 -1.5342 -0.2133
  940MPD2     C13795   4.018   4.376  13.096 -0.4439  0.2454  0.4130
  940MPD2    C113796   4.012   4.240  13.068  1.0068 -0.2920  0.3173
  940MPD2    C213797   4.013   4.196  12.935  0.1756 -0.9426  0.0179
  940MPD2    C313798   4.016   4.292  12.830  0.6801  0.0554 -0.1607
  940MPD2    C413799   4.038   4.424  12.866 -0.1580 -0.4650  0.1448
  940MPD2    C513800   4.026   4.465  12.993  0.7189  0.2334 -1.2714
  940MPD2     H13801   4.014   4.089  12.915  1.9467 -0.4112 -2.6943
  940MPD2    H113802   4.052   4.505  12.795  2.6696  0.9767  2.3565
  940MPD2    H213803   4.015   4.418  13.196 -0.3349 -0.7186  0.8296
  940MPD2    H313804   4.025   4.571  13.015 -4.3984 -1.0329  4.2821
  940MPD2     N13805   4.018   4.254  12.698  0.1448 -0.3707  0.1225
  940MPD2    H513806   4.011   4.332  12.633 -0.5143  1.1937  2.0388
  940MPD2    N113807   4.007   4.144  13.171  0.3888  0.0970  0.2446
  940MPD2    H713808   4.023   4.050  13.137 -0.8296 -0.1188  0.2786
  941MPD2     C13809   3.234   3.437   9.719  0.0835 -0.9346  0.3009
  941MPD2    C113810   3.368   3.459   9.737  0.1029  0.6055 -0.6048
  941MPD2    C213811   3.451   3.357   9.774  0.0665 -0.0644 -0.0966
  941MPD2    C313812   3.399   3.223   9.789 -0.5417 -0.1174  0.7474
  941MPD2    C413813   3.261   3.204   9.775  0.1634 -0.2640  0.5746
  941MPD2    C513814   3.183   3.305   9.736  0.0982 -0.1819 -1.0296
  941MPD2     H13815   3.557   3.381   9.783  0.0640 -0.0415 -0.1257
  941MPD2    H113816   3.220   3.104   9.781 -1.3639  0.3773  0.7225
  941MPD2    H213817   3.157   3.510   9.698  1.0032 -0.0614 -0.0030
  941MPD2    H313818   3.080   3.286   9.707 -0.4160 -1.1100  1.3650
  941MPD2     N13819   3.477   3.115   9.825 -0.1375  0.1827 -1.0262
  941MPD2    H513820   3.434   3.042   9.881 -1.8540  2.1172  0.1521
  941MPD2    N113821   3.430   3.590   9.720  0.0518 -0.2127  0.0776
  941MPD2    H713822   3.532   3.595   9.725  0.1223 -2.3994  0.9867
  942MPD2     C13823   2.184   0.196   9.113  0.4780 -0.6010  0.3591
  942MPD2    C113824   2.303   0.229   9.175  0.9617  0.2707 -0.0547
  942MPD2    C213825   2.384   0.335   9.119  0.4409 -0.2940 -0.1327
  942MPD2    C313826   2.346   0.396   9.003  0.7721  0.5898 -0.3548
  942MPD2    C413827   2.233   0.355   8.944  0.1271  0.5381  0.9707
  942MPD2    C513828   2.149   0.264   9.002  0.6462  0.0610 -0.5736
  942MPD2     H13829   2.483   0.349   9.162 -0.6181  0.1856  2.1280
  942MPD2    H113830   2.201   0.396   8.849 -0.5767 -0.6858  0.6756
  942MPD2    H213831   2.120   0.120   9.156  1.6011 -1.0118  1.3234
  942MPD2    H313832   2.054   0.252   8.952 -0.8532  1.5879  1.9379
  942MPD2     N13833   2.428   0.489   8.939  0.5676  0.1803 -0.2566
  942MPD2    H513834   2.392   0.528   8.852 -0.7279 -0.5841 -0.0693
  942MPD2    N113835   2.367   0.141   9.268  0.1366  0.4486  0.3321
  942MPD2    H713836   2.452   0.173   9.315  0.4198 -0.1810  0.2509
  943MPD2     C13837   2.213   3.851   9.520  0.3577  0.3190  0.0605
  943MPD2    C113838   2.143   3.755   9.589  0.3051 -0.2638  0.2286
  943MPD2    C213839   2.113   3.786   9.720  0.2306  0.5435 -0.1112
  943MPD2    C313840   2.160   3.897   9.790  0.5891 -0.7537 -0.4244
  943MPD2    C413841   2.215   3.994   9.715 -0.6789  0.1082  0.2717
  943MPD2    C513842   2.241   3.972   9.581 -0.0597 -0.6483 -0.3420
  943MPD2     H13843   2.053   3.718   9.779  0.2282  0.6989  0.0648
  943MPD2    H113844   2.261   4.086   9.750 -1.9994  1.2674 -1.0837
  943MPD2    H213845   2.261   3.827   9.426 -0.6789 -1.7467  0.0458
  943MPD2    H313846   2.295   4.051   9.530 -1.5337  0.1374 -0.7011
  943MPD2     N13847   2.132   3.920   9.926  0.2451  0.4055  0.3796
  943MPD2    H513848   2.155   4.011   9.964  0.4293  0.8599 -0.8088
  943MPD2    N113849   2.118   3.631   9.531  0.0531 -0.4973 -0.0651
  943MPD2    H713850   2.170   3.615   9.445 -1.7852  0.6703 -1.3850
  944MPD2     C13851   1.234   2.238  11.064 -0.1389  0.6190  0.3445
  944MPD2    C113852   1.285   2.357  11.017 -0.1328  0.6533  0.2934
  944MPD2    C213853   1.333   2.449  11.106  0.3528 -0.4308 -0.4216
  944MPD2    C313854   1.310   2.432  11.243 -0.4807  0.0933  0.2326
  944MPD2    C413855   1.242   2.321  11.284 -0.2828  0.2472 -0.0501
  944MPD2    C513856   1.204   2.224  11.194  0.0464  0.7834  0.2853
  944MPD2     H13857   1.379   2.545  11.083 -0.7028  0.8438  2.8291
  944MPD2    H113858   1.216   2.297  11.387 -3.8508  0.5502 -0.8824
  944MPD2    H213859   1.213   2.156  10.996  2.8055  0.1371  0.0053
  944MPD2    H313860   1.166   2.129  11.230  1.2409  0.4057  0.5523
  944MPD2     N13861   1.333   2.544  11.327 -0.6762  0.3748  0.2707
  944MPD2    H513862   1.356   2.627  11.272  1.2430  0.9569  1.9667
  944MPD2    N113863   1.303   2.361  10.877 -0.1363  0.3483 -0.0814
  944MPD2    H713864   1.278   2.279  10.823  0.0644 -1.5038  2.6245
    1TMC1    C113865   0.248   2.846  13.624 -0.8109 -0.4269  0.1076
    1TMC1    C213866   0.331   2.753  13.562 -0.4238 -0.4309  0.6516
    1TMC1    C313867   0.288   2.677  13.459 -0.3279  0.5385  1.1285
    1TMC1    C413868   0.117   2.873  13.579 -0.4297  0.1826 -0.5694
    1TMC1    C513869   0.080   2.795  13.473 -0.2343  0.2649  0.8687
    1TMC1    C613870   0.159   2.696  13.410  0.1204 -0.1565 -0.2168
    1TMC1     C13871   0.308   2.925  13.727 -0.7495 -0.8826  0.0633
    1TMC1     O13872   0.404   2.883  13.783 -0.3990 -0.3400 -0.2230
    1TMC1     H13873   0.428   2.728  13.604  0.7098  1.7396 -0.6452
    1TMC1    H113874   0.051   2.931  13.642 -0.1502 -0.3689  0.2379
    1TMC1    H213875   0.133   2.636  13.323 -1.9695 -0.4985  0.6455
    1TMC1    C713876   4.692   2.827  13.413 -0.0546  0.2906  0.8796
    1TMC1    C813877   0.339   2.540  13.453 -1.1741 -0.1902  0.2514
    1TMC1    O113878   4.652   2.943  13.415 -0.2847 -0.4861  0.0338
    1TMC1    O213879   0.390   2.483  13.549 -0.1558  0.0937  0.0100
    1TMC1    O313880   4.639   2.727  13.344 -0.2574 -0.7916  0.1976
    1TMC1    H313881   4.646   2.642  13.392  0.6034  0.9798  3.2551
    1TMC1    O513882   0.346   2.488  13.320  0.3176  0.2792  0.3970
    1TMC1    H513883   0.333   2.557  13.251  0.6417 -1.8662 -1.8171
    2MPD2     C13884   0.300   3.355  14.008 -0.8028 -0.5629 -0.1394
    2MPD2    C113885   0.234   3.376  13.892 -0.5792 -0.0723  0.0506
    2MPD2    C213886   0.213   3.271  13.809  0.3153  0.4345 -0.4702
    2MPD2    C313887   0.277   3.153  13.824  0.3145  0.0777 -0.4136
    2MPD2    C413888   0.346   3.130  13.938  0.7637  0.2856 -1.2069
    2MPD2    C513889   0.360   3.232  14.021  0.7856 -0.7547 -0.8224
    2MPD2     H13890   0.165   3.284  13.712  0.1652  0.4430 -0.3954
    2MPD2    H113891   0.370   3.029  13.971 -2.4643  0.3553  1.3685
    2MPD2    H213892   0.317   3.430  14.084  0.6218 -0.7109 -0.3155
    2MPD2    H313893   0.409   3.219  14.117  0.5310 -3.1465 -1.0387
    2MPD2     N13894   0.249   3.050  13.731 -0.6301 -0.1118  0.0223
    2MPD2    H513895   0.177   3.074  13.663  0.6764  3.9624  0.1121
    2MPD2    N113896   0.185   3.503  13.866 -0.2360  0.0029  0.3216
    2MPD2    H713897   0.213   3.577  13.930 -1.8358  0.7283  0.1774
    3TMC2    C113898   0.075   3.676  13.743 -0.1932  0.8627  0.3360
    3TMC2    C213899   0.100   3.770  13.835 -0.4151  0.1882  0.2689
    3TMC2    C313900   0.028   3.884  13.819  0.9880  0.2631  0.0044
    3TMC2    C413901   4.730   3.702  13.632  0.1562 -0.0501 -0.0745
    3TMC2    C513902   4.665   3.818  13.619  0.7737  0.9858  0.0173
    3TMC2    C613903   4.679   3.917  13.716  1.0929  0.0428 -0.6452
    3TMC2     C13904   0.115   3.536  13.762  0.4478 -0.9633 -0.1408
    3TMC2     O13905   0.051   3.460  13.687  0.1879  0.2073 -0.2026
    3TMC2     H13906   0.163   3.746  13.920  0.1470 -0.3847 -0.3163
    3TMC2    H113907   4.695   3.622  13.567  0.3351  0.2232 -0.5036
    3TMC2    H213908   4.621   4.008  13.711  1.1365  0.0180 -1.5955
    3TMC2    C713909   4.582   3.844  13.493 -0.5699 -0.9124 -0.0687
    3TMC2    C813910   0.065   3.973  13.922 -0.6934 -0.3707  0.7991
    3TMC2    O113911   4.583   3.753  13.412  0.3258  0.4287 -0.1960
    3TMC2    O213912   0.104   3.942  14.033  0.4633 -0.1184 -0.0555
    3TMC2    O513913   0.056   4.100  13.884  0.0638 -0.1083 -0.2746
    3TMC2    H513914   0.033   4.095  13.789 -0.5544  1.0382 -0.1883
    4TMC2    C113915   4.376   4.701  12.975 -1.1005  0.5965  0.4229
    4TMC2    C213916   4.383   0.082  13.044 -0.5763  0.9609  0.2065
    4TMC2    C313917   4.396   0.086  13.180 -0.3822  0.2328  0.1468
    4TMC2    C413918   4.401   4.588  13.047  0.3479 -0.0165 -0.3162
    4TMC2    C513919   4.435   4.595  13.181 -0.0526  0.1546 -0.6635
    4TMC2    C613920   4.427   4.709  13.250  0.3995  0.6256  0.4111
    4TMC2     C13921   4.396   4.692  12.837  0.6584 -0.2726 -0.4468
    4TMC2     O13922   4.503   4.661  12.792 -0.5738 -0.7154 -0.3639
    4TMC2     H13923   4.363   0.172  12.986 -1.0947 -0.4288 -1.7560
    4TMC2    H113924   4.405   4.503  12.980  1.0334  0.3704 -0.7715
    4TMC2    H213925   4.438   4.710  13.358  2.3158  1.3382  0.2109
    4TMC2    C713926   4.448   4.468  13.261  0.2221  0.0554 -0.2324
    4TMC2    C813927   4.411   0.212  13.241  0.3937 -0.2022 -0.2327
    4TMC2    O113928   4.491   4.477  13.380 -0.2166 -0.1067  0.3183
    4TMC2    O213929   4.432   0.311  13.171 -0.0032  0.1074  0.6986
    4TMC2    O513930   4.339   0.208  13.356  0.3684 -0.1584 -0.1319
    4TMC2    H513931   4.320   0.123  13.401 -5.9951 -0.3820 -3.2788
    5MPD2     C13932   4.237   0.043  12.355 -0.0056  0.2404  0.1876
    5MPD2    C113933   4.131   0.059  12.437  0.0694 -0.3607  0.5430
    5MPD2    C213934   4.149   0.043  12.575 -0.6003  0.8314 -0.1589
    5MPD2    C313935   4.275   0.004  12.624 -0.1220  0.1991  0.0113
    5MPD2    C413936   4.375   4.721  12.538 -0.2481  0.2638  0.1235
    5MPD2    C513937   4.358   4.734  12.404  0.1464 -0.7555  0.0562
    5MPD2     H13938   4.073   0.077  12.645 -1.5101  0.1060 -0.7962
    5MPD2    H113939   4.476   4.703  12.574 -0.1352  1.8272  0.5890
    5MPD2    H213940   4.221   0.066  12.250  0.8161 -4.3099 -0.8961
    5MPD2    H313941   4.443   4.709  12.342  1.5971  2.4231  0.7271
    5MPD2     N13942   4.288   4.736  12.762  0.1647 -0.0730 -0.0445
    5MPD2    H513943   4.202   0.000  12.815  0.1173  2.7457 -0.1782
    5MPD2    N113944   4.012   0.106  12.379 -1.0440  0.3096  0.2195
    5MPD2    H713945   4.018   0.120  12.279  1.1512  0.1141  0.3219
    6MPD1     C13946   2.570   1.455  12.527 -0.3583 -0.0880 -0.7989
    6MPD1    C113947   2.540   1.333  12.582 -0.1443 -0.1737  0.5963
    6MPD1    C213948   2.645   1.238  12.602  0.5722  0.6342  0.9634
    6MPD1    C313949   2.779   1.270  12.567 -0.3163  1.4336  0.1809
    6MPD1    C413950   2.796   1.390  12.515 -0.1101 -0.4108  0.4875
    6MPD1    C513951   2.699   1.485  12.499  0.2072 -0.2693 -0.7685
    6MPD1     H13952   2.616   1.142  12.643  1.3696 -0.2082 -0.4392
    6MPD1    H113953   2.899   1.425  12.503  0.3532 -1.7909  0.4389
    6MPD1    H213954   2.492   1.526  12.502 -0.3221  0.6633  1.1917
    6MPD1    H313955   2.727   1.576  12.448 -2.1731 -0.0460 -1.6886
    6MPD1     N13956   2.889   1.184  12.580 -0.3587  0.5189 -0.5830
    6MPD1    H513957   2.975   1.196  12.528 -0.2872  0.6571 -0.4301
    6MPD1    N113958   2.407   1.292  12.593  0.0357  0.2624 -0.0262
    6MPD1    H613959   2.385   1.228  12.669 -0.9585  1.0771  0.3844
    6MPD1    H713960   2.340   1.369  12.596  0.6235  0.8012 -0.8928
    7MPD2     C13961   3.143   0.337  12.751  0.2004  0.7593  0.4442
    7MPD2    C113962   3.177   0.408  12.641 -0.1158 -0.0255 -0.0529
    7MPD2    C213963   3.255   0.349  12.544  0.0909 -0.2997  0.6210
    7MPD2    C313964   3.310   0.222  12.559 -0.0976 -0.2433  0.1183
    7MPD2    C413965   3.287   0.165  12.684  0.4629 -0.2691 -0.3124
    7MPD2    C513966   3.203   0.218  12.780  0.7392 -0.3237  0.4621
    7MPD2     H13967   3.268   0.422  12.465 -2.0425  0.2559  0.7772
    7MPD2    H113968   3.327   0.066  12.703 -1.8757 -0.9107  1.2355
    7MPD2    H213969   3.087   0.391  12.827 -0.4652 -1.3884  1.4887
    7MPD2    H313970   3.188   0.162  12.871 -0.0818  2.2739  1.9113
    7MPD2     N13971   3.411   0.171  12.479  0.0469  0.0417  0.5732
    7MPD2    H513972   3.465   0.092  12.513 -0.1715  0.1042  1.0585
    7MPD2    N113973   3.158   0.552  12.635  0.8424  0.5258  0.6433
    7MPD2    H713974   3.184   0.592  12.545  1.6829 -0.4238  0.4658
    8TMC3    C113975   3.569   0.168  12.294 -0.0946 -0.6913 -0.4502
    8TMC3    C213976   3.661   0.115  12.374 -0.2250 -0.0159  0.2792
    8TMC3    C313977   3.789   0.158  12.355 -0.5005 -0.1685 -0.2384
    8TMC3    C413978   3.600   0.256  12.191 -0.4523  0.1664  0.1273
    8TMC3    C513979   3.729   0.298  12.171 -0.5189 -0.0501  0.0699
    8TMC3    C613980   3.831   0.241  12.252  0.4497 -0.8589 -0.1770
    8TMC3     C13981   3.441   0.208  12.350 -0.0272 -1.5600  0.3802
    8TMC3     O13982   3.377   0.282  12.277  0.1592  0.0341 -0.5737
    8TMC3     H13983   3.638   0.051  12.459 -1.3532  0.7430  0.5433
    8TMC3    H113984   3.532   0.262  12.107  0.6464  1.8459 -0.6327
    8TMC3    H213985   3.927   0.290  12.247  0.9248 -1.9763 -2.1274
    8TMC3    C713986   3.745   0.437  12.144 -0.3285 -1.2059  0.5417
    8TMC3    C813987   3.887   0.108  12.445 -1.1439 -0.2503 -0.2579
    8TMC3    O113988   3.857   0.477  12.124 -0.0374  0.2341 -0.1312
    8TMC3    O213989   3.854   0.070  12.556  0.0767  0.1384  0.2256
    9TMC3    C113990   2.995   0.983  12.639  0.2834  0.8160  0.5406
    9TMC3    C213991   3.096   1.013  12.553  1.0387 -0.5033 -0.4967
    9TMC3    C313992   3.200   0.927  12.540  0.5749  0.1279 -0.6907
    9TMC3    C413993   2.995   0.858  12.701  0.3045  0.6378  0.6972
    9TMC3    C513994   3.110   0.779  12.685  0.0815 -0.0104 -0.4676
    9TMC3    C613995   3.213   0.813  12.610 -0.0344 -0.3545  0.1136
    9TMC3     C13996   2.889   1.074  12.663  0.6901 -0.2724 -0.2609
    9TMC3     O13997   2.811   1.029  12.746 -0.0432 -0.3786 -0.4531
    9TMC3     H13998   3.102   1.097  12.484 -1.4832 -1.4355 -1.8562
    9TMC3    H113999   2.914   0.815  12.759 -1.1730  0.3577 -1.5766
    9TMC3    H214000   3.304   0.755  12.599  0.2999 -0.2860  2.5375
    9TMC3    C714001   3.098   0.634  12.729 -0.6630 -0.0604 -0.5282
    9TMC3    C814002   3.294   0.952  12.427 -0.8415  0.2442  0.0740
    9TMC3    O114003   3.039   0.604  12.833  0.2104  0.4205  0.0375
    9TMC3    O214004   3.338   1.063  12.403  0.2751  0.2406  0.3001
   10MPD2     C14005   3.700   0.729  12.189  0.4849  0.2637 -0.8896
   10MPD2    C114006   3.598   0.633  12.209  0.4130 -0.2980  0.4472
   10MPD2    C214007   3.482   0.672  12.271  0.9164  0.5528  0.2434
   10MPD2    C314008   3.458   0.802  12.302  0.2612 -0.5470  0.2556
   10MPD2    C414009   3.556   0.899  12.274  0.0988  0.2799 -0.0808
   10MPD2    C514010   3.681   0.860  12.219 -0.7388  0.1915  0.6446
   10MPD2     H14011   3.409   0.598  12.301  0.4287  1.4073  1.1839
   10MPD2    H114012   3.535   1.004  12.290 -3.2310  0.0273 -2.5611
   10MPD2    H214013   3.802   0.701  12.166  0.5780 -1.1094  1.2394
   10MPD2    H314014   3.770   0.922  12.211  0.2007 -1.2923 -0.3711
   10MPD2     N14015   3.333   0.829  12.363  0.1179  0.7907  0.2133
   10MPD2    H514016   3.271   0.750  12.382 -1.3466  2.0307  0.6252
   10MPD2    N114017   3.621   0.500  12.170 -0.2325  0.2515 -0.5959
   10MPD2    H714018   3.549   0.435  12.201  0.4658  0.1868  0.9238
   11MPD2     C14019   4.409   3.943  13.282 -0.0085 -0.0605 -0.8110
   11MPD2    C114020   4.479   4.027  13.367  0.3803  0.2809  0.4176
   11MPD2    C214021   4.484   4.166  13.340 -0.2736  0.7833 -0.2828
   11MPD2    C314022   4.410   4.221  13.227 -0.2512 -0.2515 -0.7443
   11MPD2    C414023   4.355   4.132  13.131 -0.0827  0.3286 -0.0328
   11MPD2    C514024   4.351   3.993  13.164  0.6688  0.0201  0.2384
   11MPD2     H14025   4.548   4.228  13.402 -1.2753  0.3533  1.1722
   11MPD2    H114026   4.320   4.162  13.033 -0.7005 -0.6053 -0.1055
   11MPD2    H214027   4.400   3.836  13.293 -1.1714  0.1472  0.2983
   11MPD2    H314028   4.306   3.920  13.099  1.6295 -0.5246  0.1812
   11MPD2     N14029   4.401   4.359  13.185 -0.1843 -0.0482  0.1421
   11MPD2    H514030   4.362   4.371  13.092 -1.2658  1.6402  0.8163
   11MPD2    N114031   4.561   3.981  13.472  0.2678 -0.1126  0.5571
   11MPD2    H714032   4.602   4.054  13.529 -0.3097  0.1086  0.6916
    1MPD1     C14033   2.079   0.121  16.525 -0.1961  0.2335  0.3709
    1MPD1    C114034   2.176   0.101  16.623  0.1999 -0.0027 -0.4642
    1MPD1    C214035   2.247   0.212  16.665  0.7860  0.0033  1.0904
    1MPD1    C314036   2.210   0.344  16.625  0.7022 -0.0243 -0.0194
    1MPD1    C414037   2.101   0.363  16.542 -0.5359  0.0271  0.0770
    1MPD1    C514038   2.040   0.252  16.491  0.7103  0.2488  0.7883
    1MPD1     H14039   2.333   0.201  16.729 -0.4493 -0.7624  2.5973
    1MPD1    H114040   2.070   0.463  16.515  1.5884  0.5902 -0.2543
    1MPD1    H214041   2.015   0.039  16.493 -0.0122  0.8767 -1.5908
    1MPD1    H314042   1.956   0.266  16.424  0.1175  1.0124  1.6868
    1MPD1     N14043   2.282   0.453  16.662  0.4335  0.2436  0.0993
    1MPD1    H514044   2.245   0.539  16.622  2.1049  2.1175  2.5272
    1MPD1    N114045   2.214   4.709  16.652  0.0338 -0.4932  0.0843
    1MPD1    H614046   2.134   4.647  16.650  0.4903 -1.1258  1.1543
    1MPD1    H714047   2.266   4.702  16.739 -0.9819 -2.8564  0.4834
    2MPD1     C14048   2.107   1.383  16.964 -0.1741 -0.4184  0.5555
    2MPD1    C114049   2.243   1.384  16.998 -0.3272 -0.2977 -0.3641
    2MPD1    C214050   2.307   1.267  16.981  0.2565 -0.4295  0.6879
    2MPD1    C314051   2.250   1.158  16.923  0.2922  0.0583  0.0587
    2MPD1    C414052   2.118   1.161  16.880 -0.0684  0.0848  0.3931
    2MPD1    C514053   2.054   1.280  16.899  0.2688 -0.4634  0.2678
    2MPD1     H14054   2.402   1.261  17.034  1.7266 -2.3937 -2.1891
    2MPD1    H114055   2.062   1.072  16.854 -0.3206  0.6647 -1.0394
    2MPD1    H214056   2.044   1.469  16.978 -0.8804 -0.9992  0.9515
    2MPD1    H314057   1.952   1.282  16.863  0.7215 -0.5586 -1.0425
    2MPD1     N14058   2.327   1.035  16.931  0.4263  0.3304 -0.1970
    2MPD1    H514059   2.409   1.039  16.992 -1.4810  1.5301  2.2747
    2MPD1    N114060   2.305   1.496  17.049  0.3446 -0.6771 -0.5394
    2MPD1    H614061   2.263   1.579  17.006  0.5232 -0.6477 -0.6565
    2MPD1    H714062   2.406   1.493  17.052  0.3233  0.3217  1.2653
    3TMC3    C114063   2.381   0.798  16.881 -0.2384 -0.4489  0.4843
    3TMC3    C214064   2.515   0.820  16.887 -0.1399  0.3256  0.0195
    3TMC3    C314065   2.599   0.721  16.863 -0.0032  0.1282 -0.1905
    3TMC3    C414066   2.329   0.682  16.820  0.4094 -0.8934 -0.4458
    3TMC3    C514067   2.424   0.586  16.790  0.3363 -1.0304 -0.3800
    3TMC3    C614068   2.557   0.599  16.813  0.1106 -0.3324  0.0967
    3TMC3     C14069   2.303   0.922  16.854  0.0446  0.0063 -0.3132
    3TMC3     O14070   2.213   0.911  16.770 -0.3226 -0.0922  0.1141
    3TMC3     H14071   2.555   0.918  16.910  0.5361 -0.2614  1.3462
    3TMC3    H114072   2.221   0.687  16.808  0.4365 -0.3624 -0.4762
    3TMC3    H214073   2.632   0.525  16.790 -1.7068 -2.8963  2.3918
    3TMC3    C714074   2.387   0.458  16.746  0.5302 -0.0475  0.6679
    3TMC3    C814075   2.741   0.754  16.878  0.3555 -0.2189 -0.1552
    3TMC3    O114076   2.462   0.370  16.788 -0.3126 -0.6396  0.1143
    3TMC3    O214077   2.819   0.693  16.808 -0.7351 -0.2780 -0.1671
    4MPD1     C14078   3.145   0.931  17.149  0.1975 -0.4139  0.3649
    4MPD1    C114079   3.030   0.988  17.190  0.0428 -1.0311  0.0772
    4MPD1    C214080   2.912   0.946  17.138 -0.2571  1.1684 -0.1711
    4MPD1    C314081   2.899   0.861  17.031  0.1491 -0.3190  0.5405
    4MPD1    C414082   3.021   0.810  16.984 -0.5209  0.7044 -0.4061
    4MPD1    C514083   3.141   0.853  17.042  0.2272  0.4127  0.3462
    4MPD1     H14084   2.817   0.976  17.180 -1.5553  0.1780 -2.4512
    4MPD1    H114085   3.030   0.746  16.897  1.4898  0.1121  0.2520
    4MPD1    H214086   3.243   0.952  17.189  1.5063 -0.4831 -2.8203
    4MPD1    H314087   3.236   0.812  17.009  0.8422  0.0670  2.5278
    4MPD1     N14088   2.771   0.834  16.983 -0.2289 -0.5504 -0.4442
    4MPD1    H514089   2.699   0.875  17.041  0.5142 -0.4950  0.4621
    4MPD1    N114090   3.029   1.083  17.289  0.2346  0.5300 -0.2765
    4MPD1    H614091   3.118   1.098  17.335 -0.3225  0.1767  0.9123
    4MPD1    H714092   2.962   1.050  17.358 -1.3496 -0.4763 -2.2930
    1TCq1    O114093   3.664   0.080  10.720  0.8953 -0.1219  0.1350
    1TCq1    C114094   3.561   0.003  10.677  0.8141  0.4491  0.0532
    1TCq1    O214095   3.548   4.680  10.570  0.0661 -0.6956 -0.2394
    1TCq1    C214096   3.450   0.017  10.780  0.3376 -0.7937 -0.7854
    1TCq1    C314097   3.320   0.040  10.736  0.5915 -0.3152 -0.8959
    1TCq1    C414098   3.226   0.095  10.816  0.3132 -0.0412  0.1331
    1TCq1    C514099   3.260   0.130  10.944  0.0274 -0.4663 -0.3021
    1TCq1    C614100   3.386   0.101  10.987 -0.4672  0.2428 -0.1071
    1TCq1    C714101   3.491   0.044  10.913 -0.2070 -0.2692 -0.5892
    1TCq1    C814102   3.437   0.163  11.105 -0.3410  0.3681 -0.1193
    1TCq1    O414103   3.544   0.122  11.149 -0.0171  0.2249  0.4817
    1TCq1    C914104   3.097   0.156  10.762  0.5919 -0.1520  0.0302
    1TCq1    O514105   3.072   0.129  10.644  0.0250  0.5520 -0.5303
    1TCq1    O614106   3.065   0.273  10.816  0.4532 -0.3722 -0.2959
    1TCq1    H114107   3.632   0.142  10.789 -1.1447 -0.8127 -0.1752
    1TCq1    H214108   3.312   0.051  10.629 -0.5729 -0.9455 -0.8690
    1TCq1    H314109   3.181   0.169  11.007  1.9064 -0.9103  2.3155
    1TCq1    H414110   3.588   0.019  10.954  0.3892  1.2157 -1.1015
    2MPD1     C14111   3.397   0.426  11.540 -0.4903 -0.0197 -0.5647
    2MPD1    C114112   3.269   0.376  11.506 -0.1179 -0.3324  0.1013
    2MPD1    C214113   3.260   0.306  11.384 -0.2735  0.0907  0.4611
    2MPD1    C314114   3.366   0.287  11.304  0.1058  0.2033 -0.7355
    2MPD1    C414115   3.482   0.350  11.337 -0.3514  0.0809  0.5712
    2MPD1    C514116   3.500   0.424  11.451  0.2745  0.2124  0.0753
    2MPD1     H14117   3.163   0.266  11.358 -1.9344  2.8492  2.3775
    2MPD1    H114118   3.568   0.358  11.271 -1.4562 -0.8859 -0.9984
    2MPD1    H214119   3.415   0.485  11.630 -1.5446  0.6501 -0.7886
    2MPD1    H314120   3.590   0.482  11.467  2.9761 -3.5082 -1.4842
    2MPD1     N14121   3.339   0.229  11.181  0.0213 -0.3777 -0.2357
    2MPD1    H514122   3.242   0.214  11.157 -0.1210 -0.0220  0.1200
    2MPD1    N114123   3.172   0.383  11.608 -0.2677  0.1340  0.1388
    2MPD1    H614124   3.183   0.469  11.662  0.1304 -0.4187  0.9397
    2MPD1    H714125   3.076   0.387  11.575  0.0769  2.5093 -0.5523
    1TMC1    C114126   4.226   0.349   0.824 -0.2123 -0.4114 -0.7224
    1TMC1    C214127   4.143   0.357   0.720 -0.3705 -0.4524 -0.2988
    1TMC1    C314128   4.168   0.296   0.599  0.1837  0.3504  0.1424
    1TMC1    C414129   4.342   0.271   0.817 -0.2437 -0.2602  0.0185
    1TMC1    C514130   4.360   0.200   0.705  0.1247 -0.2150 -0.0523
    1TMC1    C614131   4.284   0.221   0.592  0.3536 -0.6555  0.1284
    1TMC1     C14132   4.186   0.406   0.949  0.1734 -0.1412 -0.1567
    1TMC1     O14133   4.068   0.431   0.963 -0.3501 -0.1637 -0.1882
    1TMC1     H14134   4.050   0.410   0.735 -0.5406 -0.4986 -1.1938
    1TMC1    H114135   4.411   0.255   0.899  1.4605 -0.5116 -1.4624
    1TMC1    H214136   4.311   0.165   0.502 -2.1990 -0.3328 -0.8457
    1TMC1    C714137   4.487   0.127   0.704 -0.2280  0.8549 -0.8723
    1TMC1    C814138   4.095   0.315   0.486 -0.1413 -0.2818 -0.1469
    1TMC1    O114139   4.578   0.143   0.784 -0.3025  0.6595  0.0094
    1TMC1    O214140   4.106   0.232   0.398  0.2998 -0.0700  0.9132
    1TMC1    O314141   4.463   0.022   0.624  0.4761 -0.0961 -0.9127
    1TMC1    H314142   4.374   0.019   0.583 -0.3775 -2.9109  1.1679
    1TMC1    O514143   4.071   0.446   0.472 -0.0701 -0.2138  0.0392
    1TMC1    H514144   4.088   0.504   0.549  0.4950 -0.1624 -0.1236
    2MPD1     C14145   4.277   0.606   1.404  0.5538  0.2669  0.2431
    2MPD1    C114146   4.390   0.529   1.372 -0.5121  0.1129  0.2093
    2MPD1    C214147   4.398   0.482   1.240  0.7512  0.3065 -0.0860
    2MPD1    C314148   4.288   0.482   1.156  1.0578 -0.5351  0.4067
    2MPD1    C414149   4.182   0.563   1.196  0.4572 -0.3478  0.5499
    2MPD1    C514150   4.177   0.633   1.315  0.7163 -0.3557  0.4451
    2MPD1     H14151   4.491   0.432   1.216  0.8488 -0.0344  0.9863
    2MPD1    H114152   4.092   0.581   1.138 -1.3091  0.3228  3.4826
    2MPD1    H214153   4.268   0.641   1.506 -0.0683 -2.9878  1.3204
    2MPD1    H314154   4.092   0.693   1.347  0.5966 -0.7342  0.8289
    2MPD1     N14155   4.295   0.428   1.027  0.3766  0.5043 -0.0596
    2MPD1    H514156   4.384   0.395   0.990  0.2489 -0.4052  0.4579
    2MPD1    N114157   4.504   0.527   1.458 -0.2804  0.2648  0.9564
    2MPD1    H614158   4.491   0.544   1.557  0.5315 -0.4861  1.1925
    2MPD1    H714159   4.551   0.437   1.451  0.2595  0.3424  3.6496
    1MPD1     C14160   0.237   1.272  10.651 -0.1209 -0.0568 -0.1871
    1MPD1    C114161   0.225   1.137  10.644 -0.9153 -0.1313  0.5969
    1MPD1    C214162   0.345   1.064  10.626  0.0050  0.7855  0.2863
    1MPD1    C314163   0.459   1.136  10.581  0.3822  0.2933 -0.4376
    1MPD1    C414164   0.450   1.264  10.549  0.0836 -0.4837 -0.8403
    1MPD1    C514165   0.342   1.336  10.599 -0.4239  0.5575  0.2037
    1MPD1     H14166   0.361   0.960  10.649 -3.3777 -0.4443 -3.0822
    1MPD1    H114167   0.535   1.322  10.516  0.4970 -0.8000 -0.3381
    1MPD1    H214168   0.150   1.330  10.677  1.9647  2.3921  1.2979
    1MPD1    H314169   0.333   1.444  10.601  2.4545  0.7488  2.1520
    1MPD1     N14170   0.574   1.060  10.559 -0.0497  0.3114 -0.5377
    1MPD1    H514171   0.574   0.963  10.587 -2.2078 -0.4507 -3.1321
    1MPD1    N114172   0.115   1.082  10.710 -0.2449 -0.0399  0.7657
    1MPD1    H614173   0.108   0.984  10.685 -0.9605  0.0984  0.4303
    1MPD1    H714174   0.032   1.133  10.681  0.2957  0.1385 -0.4432
    2MPD1     C14175   0.245   0.686  10.972 -0.4174  0.9289  0.6116
    2MPD1    C114176   0.195   0.779  10.879 -0.3073  0.2232  0.5580
    2MPD1    C214177   0.231   0.759  10.745 -0.7574 -0.3044 -0.6828
    2MPD1    C314178   0.322   0.660  10.703 -0.0363  0.0609  0.3979
    2MPD1    C414179   0.369   0.578  10.802  0.5309 -0.5841  0.1451
    2MPD1    C514180   0.334   0.589  10.934  0.0575 -0.2286  0.2101
    2MPD1     H14181   0.188   0.827  10.671 -0.1167  2.9542  1.9435
    2MPD1    H114182   0.430   0.492  10.779  0.4944 -0.2360 -1.2398
    2MPD1    H214183   0.224   0.693  11.078  2.1046 -1.7182  1.2768
    2MPD1    H314184   0.371   0.517  11.006  0.7709  1.2295  1.2985
    2MPD1     N14185   0.357   0.629  10.570  0.4418  0.4846  0.2195
    2MPD1    H514186   0.427   0.555  10.570 -0.9067 -0.7670  1.3210
    2MPD1    N114187   0.109   0.885  10.917 -0.3064 -0.8452 -0.6687
    2MPD1    H614188   0.103   0.909  11.016 -2.5101 -3.1345 -0.2440
    2MPD1    H714189   0.141   0.967  10.865 -0.1965  0.2891  1.1644
    3MPD1     C14190   0.193   0.758   9.529  0.1054 -0.2014  0.8469
    3MPD1    C114191   0.238   0.634   9.551  0.0235 -0.0057  0.3282
    3MPD1    C214192   0.299   0.601   9.676  0.3785  0.0572 -0.1537
    3MPD1    C314193   0.314   0.705   9.773  0.1527 -0.4383  0.6020
    3MPD1    C414194   0.269   0.835   9.741  0.0907 -0.0245  0.3155
    3MPD1    C514195   0.202   0.861   9.619  0.2714 -0.7070 -0.3719
    3MPD1     H14196   0.339   0.502   9.692  0.4863  0.0421 -0.5354
    3MPD1    H114197   0.268   0.912   9.816 -0.2403  0.9811 -0.7218
    3MPD1    H214198   0.137   0.786   9.441  1.2015 -1.6142 -0.2916
    3MPD1    H314199   0.174   0.964   9.602 -1.6721 -1.1919 -0.1274
    3MPD1     N14200   0.375   0.669   9.891 -0.0996 -0.0530 -0.3459
    3MPD1    H514201   0.397   0.571   9.901  0.0852  0.0174 -0.0523
    3MPD1    N114202   0.239   0.543   9.439  0.0187  0.0083  1.0954
    3MPD1    H614203   0.154   0.549   9.384  0.3068 -0.9842  0.5470
    3MPD1    H714204   0.248   0.446   9.469  0.3926 -0.6295 -1.0781
    4MPD2     C14205   1.277   0.768  10.313  0.3183  1.1427 -0.2091
    4MPD2    C114206   1.210   0.742  10.428 -0.0518 -0.2908 -0.9022
    4MPD2    C214207   1.225   0.618  10.486 -0.4838 -0.5717  0.2442
    4MPD2    C314208   1.297   0.512  10.429 -0.2776 -0.4610 -0.1456
    4MPD2    C414209   1.345   0.535  10.296  0.9208 -1.0034 -0.3794
    4MPD2    C514210   1.335   0.661  10.241 -0.4236 -0.1615 -0.2684
    4MPD2     H14211   1.201   0.611  10.591 -1.2711  1.7366  0.2312
    4MPD2    H114212   1.400   0.462  10.238 -1.2002 -2.3572 -0.6858
    4MPD2    H214213   1.281   0.862  10.258 -0.1625  1.7569  0.7955
    4MPD2    H314214   1.383   0.689  10.147  2.0603 -1.1754  0.6937
    4MPD2     N14215   1.287   0.384  10.488  0.2813  0.0804 -0.2299
    4MPD2    H514216   1.246   0.382  10.581  0.7300  1.5471 -0.0007
    4MPD2    N114217   1.145   0.838  10.506  0.0836  0.0372  0.4589
    4MPD2    H714218   1.109   0.800  10.593 -0.7469  0.5261  0.3253
    5TMC3    C114219   1.037   1.029  10.558  0.0248  0.0763 -0.5219
    5TMC3    C214220   0.924   1.081  10.502 -0.2153  0.3175 -0.5434
    5TMC3    C314221   0.810   1.058  10.572 -0.1667 -0.5547 -0.6834
    5TMC3    C414222   1.054   0.974  10.687 -0.6816 -0.0184 -0.4702
    5TMC3    C514223   0.938   0.933  10.743  0.1694 -0.0118 -0.2530
    5TMC3    C614224   0.815   0.981  10.692 -0.1648 -0.3011  0.7526
    5TMC3     C14225   1.113   0.962  10.457 -0.1187  0.3196  0.5834
    5TMC3     O14226   1.115   0.997  10.338  0.5010  0.3510  0.1639
    5TMC3     H14227   0.915   1.128  10.405  1.0161  2.2428  0.2689
    5TMC3    H114228   1.149   0.942  10.728 -0.2282  0.7902 -0.8894
    5TMC3    H214229   0.728   0.960  10.753 -1.3056  0.1838 -0.7096
    5TMC3    C714230   0.955   0.794  10.793  0.0220  0.1810  0.4943
    5TMC3    C814231   0.695   1.117  10.518  0.2697  0.2017  0.5846
    5TMC3    O114232   1.069   0.751  10.779 -0.2897 -0.3970  0.1535
    5TMC3    O214233   0.714   1.206  10.435 -0.3270  0.3907  0.0589
    6TMC3    C114234   0.390   0.647  10.340 -0.1662  0.2642  0.5713
    6TMC3    C214235   0.396   0.731  10.235 -0.1460  0.0013  0.1112
    6TMC3    C314236   0.435   0.684  10.117 -0.1087  0.8016 -0.3905
    6TMC3    C414237   0.430   0.517  10.336 -0.2159 -0.0592 -0.1291
    6TMC3    C514238   0.482   0.474  10.217  0.3769 -0.0068  0.7638
    6TMC3    C614239   0.490   0.552  10.105  0.2101 -0.0138 -0.6238
    6TMC3     C14240   0.330   0.706  10.463 -1.0086 -0.0312  0.7523
    6TMC3     O14241   0.244   0.792  10.462 -0.6823 -0.4226 -0.1964
    6TMC3     H14242   0.337   0.822  10.244 -1.4705 -0.6871 -1.6010
    6TMC3    H114243   0.421   0.454  10.423 -0.7602 -1.3506 -1.1232
    6TMC3    H214244   0.550   0.535  10.016 -1.4564 -0.8787 -1.5885
    6TMC3    C714245   0.578   0.375  10.229  1.0102  0.2736 -0.1522
    6TMC3    C814246   0.386   0.757  10.001 -0.1421 -0.8037  0.0642
    6TMC3    O114247   0.623   0.370  10.342  0.7791 -0.5549  0.5711
    6TMC3    O214248   0.363   0.874  10.020 -0.2760  0.2387 -0.0967
    7MPD2     C14249   0.775   0.341  10.947 -0.0699  0.1643 -0.2213
    7MPD2    C114250   0.882   0.378  10.874 -0.0610 -0.4646  0.4641
    7MPD2    C214251   0.911   0.509  10.843 -0.6681 -0.2116 -0.6199
    7MPD2    C314252   0.827   0.610  10.891  0.2210  0.2722  0.3515
    7MPD2    C414253   0.712   0.575  10.960  0.6612 -0.4067  0.0389
    7MPD2    C514254   0.688   0.446  10.993  0.0808  0.1091 -0.1979
    7MPD2     H14255   0.997   0.538  10.783  0.0224  2.2817  1.5956
    7MPD2    H114256   0.658   0.659  11.001  0.8142 -0.4621  0.3528
    7MPD2    H214257   0.758   0.239  10.979  2.0098 -0.5782 -1.5011
    7MPD2    H314258   0.606   0.420  11.059 -0.8466  2.9402 -0.2213
    7MPD2     N14259   0.843   0.746  10.852 -0.1627  0.1180 -0.2869
    7MPD2    H514260   0.769   0.814  10.870 -0.4464  0.1495 -1.5626
    7MPD2    N114261   0.961   0.272  10.823 -0.0899  0.0883  0.5033
    7MPD2    H714262   0.932   0.178  10.847 -1.7788  0.4668 -0.0158
    8TMC3    C114263   1.136   0.166  10.713 -0.6083 -0.0607 -0.5739
    8TMC3    C214264   1.047   0.083  10.647 -0.5790 -0.2228 -0.3832
    8TMC3    C314265   1.062   0.057  10.512 -0.6697  0.6502  0.7339
    8TMC3    C414266   1.253   0.198  10.647 -0.4645  0.2454  0.2503
    8TMC3    C514267   1.277   0.158  10.516 -1.4046  0.8385 -0.0496
    8TMC3    C614268   1.178   0.087  10.448  0.3288 -0.0298  0.4779
    8TMC3     C14269   1.079   0.284  10.762  0.4654  0.1522  0.6921
    8TMC3     O14270   1.148   0.379  10.730  0.2520 -0.0387 -0.1896
    8TMC3     H14271   0.947   0.061  10.683 -0.0825 -0.4915  0.8001
    8TMC3    H114272   1.328   0.260  10.695  0.4307 -1.9865  1.7111
    8TMC3    H214273   1.195   0.054  10.346  1.0548 -0.2176  0.6600
    8TMC3    C714274   1.333   0.267  10.438  0.7340 -0.1912  0.0912
    8TMC3    C814275   0.945   0.087  10.433 -0.3271  0.3785 -0.0827
    8TMC3    O114276   1.376   0.249  10.323 -0.2706  0.2049  0.4651
    8TMC3    O214277   0.858   0.158  10.478  0.0045  0.2393  0.4617
    9MPD2     C14278   0.917   0.039  10.067  0.1539 -0.3852  0.8650
    9MPD2    C114279   0.884   0.087  10.195  0.2999  0.3667  0.3677
    9MPD2    C214280   0.770   0.163  10.204 -0.0235  0.7985  0.2244
    9MPD2    C314281   0.710   0.220  10.097 -0.2322  0.0908  0.5616
    9MPD2    C414282   0.752   0.182   9.972 -0.9903 -0.3400 -0.4192
    9MPD2    C514283   0.850   0.086   9.959  0.1315  0.1046  0.2265
    9MPD2     H14284   0.730   0.180  10.303 -1.2595 -1.9717  0.1992
    9MPD2    H114285   0.704   0.226   9.885 -0.9266 -0.6063 -0.5908
    9MPD2    H214286   0.996   4.703  10.053 -1.6715 -2.4178  1.1357
    9MPD2    H314287   0.894   0.066   9.862 -1.0194  1.4596 -0.5698
    9MPD2     N14288   0.618   0.319  10.110 -0.5260  0.6201 -0.5787
    9MPD2    H514289   0.573   0.350  10.025 -1.1267 -0.3405 -0.6110
    9MPD2    N114290   0.963   0.048  10.304  0.1874 -0.1343  0.1052
    9MPD2    H714291   1.046   4.732  10.278  0.0865  0.0353 -0.5581
    1MPD1     C14292   3.191   4.289  14.631  0.5215 -0.1520 -0.0650
    1MPD1    C114293   3.187   4.158  14.668  0.4577  0.8401 -0.6672
    1MPD1    C214294   3.278   4.123  14.766  0.4528  0.0931  0.2042
    1MPD1    C314295   3.337   4.217  14.847 -0.3421  0.2895  0.0154
    1MPD1    C414296   3.316   4.350  14.829  0.3467 -0.2706  0.0193
    1MPD1    C514297   3.253   4.382  14.713  0.8642 -0.3558  0.1917
    1MPD1     H14298   3.282   4.023  14.805  0.4285 -0.2488 -0.6684
    1MPD1    H114299   3.361   4.436  14.876 -1.4622 -0.2062  1.6151
    1MPD1    H214300   3.133   4.322  14.544 -1.0043  1.4649  1.5557
    1MPD1    H314301   3.240   4.486  14.682  1.2392 -0.0913  0.9260
    1MPD1     N14302   3.419   4.183  14.956  0.1843  0.1937  0.6422
    1MPD1    H514303   3.445   4.263  15.013  1.5385 -1.0637  1.8092
    1MPD1    N114304   3.141   4.060  14.581 -0.2378 -0.1803  0.5200
    1MPD1    H614305   3.050   4.084  14.543  0.5649  0.9686 -0.6976
    1MPD1    H714306   3.121   3.971  14.625  3.0733 -2.5074 -2.6489
    2TMC2    C114307   3.640   4.140  15.304 -0.2172  0.6089  0.1544
    2TMC2    C214308   3.746   4.050  15.309 -0.0002 -0.1704 -0.2132
    2TMC2    C314309   3.745   3.948  15.214 -0.1403 -0.5796  0.6438
    2TMC2    C414310   3.545   4.151  15.204  0.1621  0.8373  0.0122
    2TMC2    C514311   3.553   4.054  15.103 -0.4943 -0.1038 -0.3917
    2TMC2    C614312   3.640   3.945  15.116  0.2932  0.0919  0.2500
    2TMC2     C14313   3.631   4.247  15.407  1.1816  0.1789 -0.7764
    2TMC2     O14314   3.540   4.327  15.392  0.1762 -0.3467 -0.0023
    2TMC2     H14315   3.824   4.052  15.383 -2.9990 -1.8962  2.9947
    2TMC2    H114316   3.456   4.213  15.213 -0.0991  0.7631 -2.0788
    2TMC2    H214317   3.638   3.868  15.040  0.5475  2.7416 -2.4265
    2TMC2    C714318   3.462   4.059  14.993 -0.0233  0.0233  0.4708
    2TMC2    C814319   3.865   3.866  15.207 -0.4634 -0.5600 -0.5586
    2TMC2    O114320   3.439   3.952  14.933 -0.3934  0.5677  0.0113
    2TMC2    O214321   3.977   3.911  15.224 -0.1663 -0.2015 -0.2072
    2TMC2    O514322   3.834   3.765  15.119  0.8555 -0.5542  0.4242
    2TMC2    H514323   3.744   3.744  15.152  0.9455 -2.9870 -0.9115
    3MPD1     C14324   3.788   4.527  15.811  0.7255 -0.2879 -0.5498
    3MPD1    C114325   3.878   4.427  15.793  0.3381  0.6488 -0.4433
    3MPD1    C214326   3.856   4.336  15.689 -0.1803  0.1676  0.9782
    3MPD1    C314327   3.742   4.342  15.607  0.4354  0.2489  0.0092
    3MPD1    C414328   3.650   4.439  15.641  0.1211  0.2057 -0.5086
    3MPD1    C514329   3.672   4.527  15.743  0.3355  0.9973 -0.5984
    3MPD1     H14330   3.933   4.260  15.679 -0.4252 -0.1529  1.5104
    3MPD1    H114331   3.550   4.445  15.600  0.2842  1.5101 -0.7220
    3MPD1    H214332   3.807   4.602  15.887 -2.8883  0.8719 -0.8039
    3MPD1    H314333   3.605   4.606  15.775 -2.6851 -1.5941 -0.6114
    3MPD1     N14334   3.725   4.242  15.506  0.5162  0.8184  1.2049
    3MPD1    H514335   3.783   4.160  15.515 -0.7327 -0.3836 -1.7376
    3MPD1    N114336   4.003   4.441  15.847 -0.0659 -0.4683 -0.2360
    3MPD1    H614337   3.995   4.476  15.943 -1.4295 -0.3685 -0.3762
    3MPD1    H714338   4.065   4.362  15.858  0.0548 -0.2162  0.9781
    1TMC1    C114339   2.821   3.862  12.904 -0.4501 -0.6524  0.0221
    1TMC1    C214340   2.713   3.783  12.932 -0.0967  0.5329  0.0765
    1TMC1    C314341   2.589   3.808  12.884 -0.1330  0.5351  1.2593
    1TMC1    C414342   2.798   3.974  12.829 -0.5777 -0.7362  0.1658
    1TMC1    C514343   2.670   4.013  12.806  0.6290  0.4221 -0.4769
    1TMC1    C614344   2.564   3.929  12.827  0.6741  0.5658 -0.1979
    1TMC1     C14345   2.942   3.858  12.976 -0.4683  0.3254 -0.6229
    1TMC1     O14346   2.999   3.967  12.999 -0.0309  0.1409  0.3155
    1TMC1     H14347   2.731   3.684  12.972  1.4979  1.6348  2.0717
    1TMC1    H114348   2.871   4.046  12.793 -3.2470  1.0644 -1.6900
    1TMC1    H214349   2.465   3.950  12.787  1.0022 -0.3841 -1.4881
    1TMC1    C714350   2.637   4.110  12.700  0.2831  0.3237  0.0965
    1TMC1    C814351   2.475   3.748  12.940 -0.1859 -0.2284 -0.0628
    1TMC1    O114352   2.645   4.231  12.710 -0.1435 -0.3435 -0.2628
    1TMC1    O214353   2.377   3.713  12.877 -0.3027 -0.2530 -0.0312
    1TMC1    O314354   2.558   4.042  12.617  0.4050 -0.0245  0.1500
    1TMC1    H314355   2.604   3.958  12.598 -0.2944 -0.8181  1.9621
    1TMC1    O514356   2.474   3.827  13.051 -0.2331 -0.2186  0.0241
    1TMC1    H514357   2.556   3.874  13.078 -1.4492  0.6210  2.3345
    2MPD2     C14358   3.217   3.770  13.055  0.3978 -0.2134  0.1120
    2MPD2    C114359   3.120   3.683  13.036  0.7145 -0.4990 -0.1822
    2MPD2    C214360   3.151   3.550  13.034  0.4680 -0.5687  0.0939
    2MPD2    C314361   3.275   3.502  13.075  0.7735 -1.0743  0.1818
    2MPD2    C414362   3.375   3.592  13.107 -0.4139  0.4000  0.1272
    2MPD2    C514363   3.341   3.728  13.098 -0.3908  0.2596  0.6597
    2MPD2     H14364   3.070   3.482  13.010  0.6166 -0.3723 -0.9574
    2MPD2    H114365   3.475   3.558  13.133  0.3990  4.3272  2.1088
    2MPD2    H214366   3.199   3.877  13.062 -0.3432 -0.3368  0.0805
    2MPD2    H314367   3.422   3.798  13.115  0.4079 -1.2465  3.0386
    2MPD2     N14368   3.291   3.365  13.088 -0.9187 -0.0919 -0.0355
    2MPD2    H514369   3.213   3.302  13.076  0.6547 -2.5660  2.7103
    2MPD2    N114370   2.985   3.730  13.007  0.1106  0.5952  0.0221
    2MPD2    H714371   2.925   3.649  12.998 -0.4302  1.0769 -0.6999
    3TCq1    O114372   3.697   2.937  12.947  0.3522 -0.1677  0.5219
    3TCq1    C114373   3.584   2.884  12.892 -0.5562 -0.4892 -0.0057
    3TCq1    O214374   3.565   2.774  12.842 -0.0909  0.0931  0.6275
    3TCq1    C214375   3.475   2.967  12.942  1.0433 -0.2660  0.2840
    3TCq1    C314376   3.368   2.897  12.969 -0.4476 -0.0516  0.2698
    3TCq1    C414377   3.268   2.960  13.037 -0.3231 -0.0038  0.5059
    3TCq1    C514378   3.284   3.086  13.076 -0.1321  0.0322 -1.0098
    3TCq1    C614379   3.402   3.156  13.048  0.0999  0.0217  0.0879
    3TCq1    C714380   3.504   3.098  12.979 -0.2049  0.3164  0.1074
    3TCq1    C814381   3.413   3.302  13.077 -0.2490 -0.2099 -0.3718
    3TCq1    O414382   3.513   3.354  13.030 -0.0589  0.6052 -0.4428
    3TCq1    C914383   3.149   2.878  13.057 -0.4399  0.2482 -0.0615
    3TCq1    O514384   3.043   2.935  13.102  0.4424 -0.2335 -0.1007
    3TCq1    O614385   3.149   2.756  13.034 -0.4079  0.3318  0.0646
    3TCq1    H114386   3.688   3.007  13.015 -1.6648  0.7039 -0.6741
    3TCq1    H214387   3.362   2.795  12.933 -0.7762  0.6926 -1.7854
    3TCq1    H314388   3.217   3.132  13.148  1.6908  1.7501 -0.3981
    3TCq1    H414389   3.590   3.148  12.937  1.6127 -1.6586  1.4787
    1MPD2     C14390   2.413   0.308  14.755 -0.6294 -0.5355  0.1203
    1MPD2    C114391   2.419   0.200  14.841 -0.2665 -0.4066 -0.4456
    1MPD2    C214392   2.536   0.124  14.849 -0.0804  0.2036 -0.4240
    1MPD2    C314393   2.644   0.151  14.770 -1.0526 -0.5044  0.1852
    1MPD2    C414394   2.637   0.261  14.684 -0.3344 -0.0453 -1.0095
    1MPD2    C514395   2.520   0.336  14.678  0.3186  0.3297  0.2545
    1MPD2     H14396   2.541   0.032  14.907 -0.1388  0.7269  0.4142
    1MPD2    H114397   2.723   0.292  14.626 -1.6500  0.4227 -2.6999
    1MPD2    H214398   2.315   0.352  14.737 -1.2026 -1.1093  1.7961
    1MPD2    H314399   2.510   0.408  14.598 -0.8527  0.7391  0.7635
    1MPD2     N14400   2.764   0.082  14.773  0.1588 -0.9651 -0.1355
    1MPD2    H514401   2.841   0.120  14.717  1.4783 -1.7693  1.1246
    1MPD2    N114402   2.302   0.169  14.914 -0.1370 -0.5466 -0.0173
    1MPD2    H714403   2.214   0.219  14.904  0.4813 -0.0326 -2.8454
    2TMC3    C114404   2.168   0.037  15.067 -0.4321 -0.2035 -0.3048
    2TMC3    C214405   2.189   4.697  15.179 -0.2393  0.3308  0.1264
    2TMC3    C314406   2.109   4.590  15.208  0.7183 -0.4783 -0.2792
    2TMC3    C414407   2.072   0.002  14.982 -0.1494  0.4445 -0.0367
    2TMC3    C514408   1.977   4.646  15.029 -0.1842  0.4221  0.0432
    2TMC3    C614409   1.995   4.561  15.139  0.0991 -0.3232 -0.0988
    2TMC3     C14410   2.302   0.077  15.016  0.3793  0.0765  0.1252
    2TMC3     O14411   2.391   0.006  15.058  0.1639 -0.2127  0.1678
    2TMC3     H14412   2.275   4.725  15.239  1.0207 -1.0227 -1.0598
    2TMC3    H114413   2.050   0.074  14.904  0.8496  1.6119  0.7621
    2TMC3    H214414   1.925   4.482  15.160 -2.5401  1.6002 -1.6625
    2TMC3    C714415   1.862   4.629  14.948 -0.1926 -0.8276  0.4404
    2TMC3    C814416   2.190   4.465  15.224 -0.1916 -0.3264 -0.4319
    2TMC3    O114417   1.763   4.587  15.007  0.3858 -0.0456  0.9653
    2TMC3    O214418   2.142   4.380  15.299  0.2574  0.3159  0.0844
    3TCq1    O114419   1.754   0.215  13.698 -0.2334  0.3105 -0.2235
    3TCq1    C114420   1.686   0.145  13.788  0.0564 -0.3859  0.0748
    3TCq1    O214421   1.574   0.088  13.780  0.0510 -0.4920 -0.4082
    3TCq1    C214422   1.760   0.136  13.914  0.7910 -0.9341 -0.2057
    3TCq1    C314423   1.890   0.179  13.927  0.1356 -0.2755  1.1739
    3TCq1    C414424   1.947   0.180  14.055  0.7179 -0.2631  0.3782
    3TCq1    C514425   1.881   0.125  14.160  0.2694 -0.1779 -0.2950
    3TCq1    C614426   1.755   0.073  14.138 -0.3981  0.0512  0.0145
    3TCq1    C714427   1.690   0.087  14.020 -0.1783  0.0153 -0.0694
    3TCq1    C814428   1.671   0.018  14.246 -0.4622 -0.4766 -0.4175
    3TCq1    O414429   1.555   4.718  14.217  0.1970 -0.5290  0.3318
    3TCq1    C914430   2.085   0.234  14.068 -0.3760  0.3176  0.2594
    3TCq1    O514431   2.144   0.290  13.970 -0.1393 -0.0708  0.3992
    3TCq1    O614432   2.137   0.211  14.185 -0.6470 -0.1017 -0.2638
    3TCq1    H114433   1.823   0.269  13.742  0.3025 -0.2492 -0.3749
    3TCq1    H214434   1.943   0.232  13.850 -0.3935 -1.4482  0.0048
    3TCq1    H314435   1.930   0.122  14.257  0.0713 -1.7824 -0.2576
    3TCq1    H414436   1.600   0.034  13.993 -2.0102  1.4748  3.2824
    4MPD2     C14437   1.562   4.708  14.535 -0.4439  0.1674  0.0333
    4MPD2    C114438   1.695   4.712  14.500  0.6639  0.3345  0.1623
    4MPD2    C214439   1.788   4.701  14.596 -0.1048 -0.2946  0.3110
    4MPD2    C314440   1.757   4.680  14.730  0.1660  0.6742 -0.1016
    4MPD2    C414441   1.623   4.654  14.768 -0.7640 -0.3809 -0.1540
    4MPD2    C514442   1.530   4.674  14.670 -0.6045  0.5213  0.1471
    4MPD2     H14443   1.890   4.729  14.571 -0.6616  0.5457 -1.0538
    4MPD2    H114444   1.585   4.629  14.866  1.5135  0.3806  0.9147
    4MPD2    H214445   1.477   4.728  14.471  2.3446 -0.0114 -3.7005
    4MPD2    H314446   1.425   4.663  14.692 -0.0239 -0.7967  2.3299
    4MPD2     N14447   1.865   4.668  14.817 -0.1502 -0.0907  0.6691
    4MPD2    H514448   1.955   4.673  14.769 -1.2890 -1.0400 -1.6008
    4MPD2    N114449   1.742   0.003  14.365 -0.0592  0.0736 -0.3002
    4MPD2    H714450   1.842   0.018  14.356  0.1047 -1.9346 -1.7454
    5TMC2    C114451   2.973   4.460  14.974 -0.0427  0.8154 -0.0585
    5TMC2    C214452   3.075   4.527  15.040 -0.8520  0.1095 -0.1465
    5TMC2    C314453   3.086   4.655  14.994  0.9490 -0.4026 -0.5771
    5TMC2    C414454   2.906   4.505  14.862 -0.0172  0.6741  0.9630
    5TMC2    C514455   2.917   4.637  14.829  0.1842  0.1083  0.0469
    5TMC2    C614456   3.005   4.717  14.900 -1.2289  0.4081  0.0400
    5TMC2     C14457   2.900   4.377  15.066  0.5736 -0.3592  0.3129
    5TMC2     O14458   2.956   4.328  15.163  0.4303 -1.0280 -0.1999
    5TMC2     H14459   3.139   4.491  15.119  0.2742  0.1017 -1.0655
    5TMC2    H114460   2.828   4.439  14.824  0.6680  0.8245 -0.7110
    5TMC2    H214461   3.015   0.085  14.871  0.4685  0.1773 -0.2270
    5TMC2    C714462   2.780   4.693  14.841  0.3920 -0.2811 -0.8931
    5TMC2    C814463   3.205   4.726  15.045  0.1903 -0.9413  0.7160
    5TMC2    O114464   2.701   4.629  14.911 -0.2360  0.6828  0.2630
    5TMC2    O214465   3.241   4.730  15.161 -0.0609 -0.3618 -0.0114
    5TMC2    O514466   3.248   0.075  14.947  0.4427 -0.3288 -0.0513
    5TMC2    H514467   3.227   0.054  14.853 -3.1461 -4.7197  1.7172
    6MPD2     C14468   2.405   4.281  15.259  0.0451 -0.1856 -0.0522
    6MPD2    C114469   2.411   4.390  15.172 -0.1207  0.0230  0.7672
    6MPD2    C214470   2.528   4.424  15.108  0.6259 -0.2497 -0.4192
    6MPD2    C314471   2.653   4.363  15.130  0.3309  0.3590  0.8200
    6MPD2    C414472   2.648   4.250  15.210  0.7518  0.1282  0.7133
    6MPD2    C514473   2.526   4.214  15.269 -0.6839 -0.0486  0.1103
    6MPD2     H14474   2.529   4.518  15.054  2.8591 -0.6328 -1.0397
    6MPD2    H114475   2.733   4.192  15.243  0.7673 -0.8774 -1.1123
    6MPD2    H214476   2.317   4.251  15.316 -1.0319  2.9850 -0.0353
    6MPD2    H314477   2.527   4.133  15.341 -2.7640 -1.1338 -1.0714
    6MPD2     N14478   2.768   4.416  15.064  0.9301  0.7854  0.1572
    6MPD2    H514479   2.748   4.498  15.008  0.7022  0.1503 -0.6972
    6MPD2    N114480   2.305   4.480  15.153 -0.2426 -0.3126 -0.0640
    6MPD2    H714481   2.312   4.571  15.108 -1.0632 -0.2163  0.0120
  945NH4     N114482   3.983   0.072  15.332  0.5619 -0.3358 -0.1832
  945NH4     H214483   4.051   0.026  15.268 -1.5827 -1.4636 -1.6417
  945NH4     H314484   4.035   0.149  15.378 -1.1437  0.7395 -0.0441
  945NH4     H414485   3.940   0.009  15.402  3.9087 -1.8116  0.5115
  945NH4     H514486   3.898   0.112  15.287  1.5536  1.1981 -0.7013
  946SOD     NA14487   3.902   1.233   1.602 -0.1588  0.2988  0.1989
  947SOD     NA14488   4.307   4.071   7.496 -0.3276  0.1996 -0.1628
  948SOD     NA14489   1.373   2.257  13.977 -0.5625  0.1363  0.9441
  949SOD     NA14490   4.110   0.509  14.200 -0.0584  0.0890  0.0694
  950SOD     NA14491   0.515   1.497   9.702 -0.1050  0.0907 -0.0855
  951SOD     NA14492   3.368   0.065   9.934  0.6373  0.3466 -0.2515
  952SOD     NA14493   1.120   0.481   9.277  0.1125 -0.1572  0.2245
  953SOL     OW14494   3.242   4.670   3.873  0.3162 -0.3689  0.4985
  953SOL    HW114495   3.191   0.014   3.871 -0.0773 -0.5673  2.7221
  953SOL    HW214496   3.323   4.697   3.830  0.2831 -1.8155 -0.4726
  954SOL     OW14497   2.978   3.648  16.527  0.2480 -0.1977  0.5396
  954SOL    HW114498   3.067   3.613  16.528  0.1386 -0.6464 -3.7385
  954SOL    HW214499   2.960   3.649  16.433  1.5485 -0.2851  0.2908
  955SOL     OW14500   0.867   2.071   3.678 -0.1961  0.1902  0.1303
  955SOL    HW114501   0.871   2.108   3.766 -0.4235  0.7988 -0.1184
  955SOL    HW214502   0.787   2.019   3.684  1.2550 -2.0454  0.1806
  956SOL     OW14503   3.663   0.317   3.870 -0.7073  0.6151  0.1740
  956SOL    HW114504   3.580   0.272   3.856 -0.7907  0.5443  0.9216
  956SOL    HW214505   3.636   0.407   3.848 -1.3204  0.6949  1.2580
  957SOL     OW14506   0.957   1.427   8.840  0.2782 -0.3618 -0.1765
  957SOL    HW114507   0.924   1.345   8.804 -0.3880 -0.1264 -0.0931
  957SOL    HW214508   1.047   1.440   8.808  0.3268  0.7810  0.4206
  958SOL     OW14509   4.056   2.000   7.014 -0.1171 -0.0806  0.4538
  958SOL    HW114510   4.114   1.950   7.072  0.4874 -0.0539 -0.1220
  958SOL    HW214511   4.004   1.929   6.977 -1.6852  0.6284  1.2821
  959SOL     OW14512   1.988   1.118  11.745  0.0209 -1.0234  0.2317
  959SOL    HW114513   1.974   1.191  11.684 -0.2181 -0.2685  1.1834
  959SOL    HW214514   2.081   1.120  11.766  0.1450  2.0014 -0.5916
  960SOL     OW14515   2.228   4.292   1.550  0.4174  1.0105 -0.1134
  960SOL    HW114516   2.278   4.361   1.592 -0.8230  0.9891  1.4099
  960SOL    HW214517   2.213   4.322   1.460 -1.2705 -0.6197 -0.3838
  961SOL     OW14518   4.053   3.876   8.193 -0.0364 -0.3345 -0.4034
  961SOL    HW114519   4.080   3.802   8.138  0.8156  0.3923 -0.9522
  961SOL    HW214520   4.119   3.943   8.174 -1.1234  0.6817 -0.5981
  962SOL     OW14521   0.451   0.565   1.764 -0.0528  0.1939  0.1021
  962SOL    HW114522   0.377   0.614   1.729  0.3457 -0.4313 -1.5872
  962SOL    HW214523   0.471   0.515   1.685 -0.1444 -0.8159  0.7066
  963SOL     OW14524   1.037   0.220  11.439  0.1718 -0.6252 -0.3122
  963SOL    HW114525   0.963   0.209  11.378 -0.5361 -0.4560  0.5164
  963SOL    HW214526   1.032   0.316  11.442  0.5791 -0.6536  1.2308
  964SOL     OW14527   1.644   3.645   9.988  0.0547 -0.5402  0.0167
  964SOL    HW114528   1.589   3.571  10.013 -0.5218 -0.6321 -1.5425
  964SOL    HW214529   1.655   3.629   9.894 -1.0759 -0.5660 -0.1038
  965SOL     OW14530   1.673   3.485   4.712 -0.3054 -0.5944  0.3007
  965SOL    HW114531   1.749   3.531   4.747  0.1771 -1.2950  0.1645
  965SOL    HW214532   1.609   3.553   4.691 -0.1388 -1.1991 -2.2129
  966SOL     OW14533   1.669   1.665   5.155 -0.2560 -0.4207 -0.1422
  966SOL    HW114534   1.594   1.627   5.110  0.5084 -2.3013  0.1506
  966SOL    HW214535   1.738   1.610   5.117 -0.4932 -2.4835  2.3514
  967SOL     OW14536   3.187   2.437  16.188  0.0981 -1.0257 -0.1890
  967SOL    HW114537   3.204   2.528  16.165 -0.2008 -1.2663 -1.3456
  967SOL    HW214538   3.218   2.449  16.278  1.1223 -3.6637 -0.1856
  968SOL     OW14539   1.012   1.375   2.594 -0.2159 -0.0796  0.0775
  968SOL    HW114540   1.107   1.386   2.599 -0.5112  2.1121  0.6060
  968SOL    HW214541   1.013   1.290   2.550 -1.2380  0.6792 -1.3855
  969SOL     OW14542   0.252   0.649   2.248 -0.1725  0.3771  0.2314
  969SOL    HW114543   0.178   0.657   2.188  0.4315 -0.4722 -0.6295
  969SOL    HW214544   0.299   0.575   2.209 -1.4101 -1.0124  1.3821
  970SOL     OW14545   2.823   3.391  10.890  0.3801 -0.5126  0.5758
  970SOL    HW114546   2.823   3.377  10.985 -0.1164 -2.0668  0.3564
  970SOL    HW214547   2.766   3.320  10.860  0.5339  0.3813 -1.8520
  971SOL     OW14548   2.848   2.237  14.061  0.2585  0.0969 -0.3875
  971SOL    HW114549   2.767   2.282  14.039  0.1721 -0.0500 -0.3666
  971SOL    HW214550   2.834   2.143  14.059 -0.1741  0.1509  0.0456
  972SOL     OW14551   1.061   0.332   6.006 -0.2439 -0.8860  0.4066
  972SOL    HW114552   1.015   0.371   6.081  1.5037 -1.9710  2.0421
  972SOL    HW214553   1.022   0.383   5.935 -0.1320  1.3605  1.9709
  973SOL     OW14554   3.172   4.116   2.239  0.7928 -0.1229  0.5848
  973SOL    HW114555   3.267   4.122   2.228  0.5705  1.7276 -0.3481
  973SOL    HW214556   3.153   4.026   2.210 -1.2382  0.2657  0.6830
  974SOL     OW14557   1.744   1.364  14.663 -1.4605  1.4557 -0.1239
  974SOL    HW114558   1.733   1.438  14.722 -1.5126  2.0985 -0.9527
  974SOL    HW214559   1.653   1.339  14.651 -0.8567 -1.3157  1.0178
  975SOL     OW14560   1.169   0.733  13.405  0.2204 -0.2937 -0.5392
  975SOL    HW114561   1.223   0.797  13.451 -2.0263  0.8445  0.5220
  975SOL    HW214562   1.217   0.693  13.333  1.1759 -1.2487  0.6155
  976SOL     OW14563   2.803   0.372   4.406 -0.4290  0.4268  0.5586
  976SOL    HW114564   2.762   0.355   4.321  1.8213  0.5621 -0.5611
  976SOL    HW214565   2.762   0.303   4.458 -3.6818  1.4383 -0.6609
  977SOL     OW14566   1.356   4.512  15.607  0.7195  0.0705  0.7158
  977SOL    HW114567   1.276   4.547  15.644  0.7250  1.8118 -0.9561
  977SOL    HW214568   1.333   4.530  15.516  0.4459  2.2414  1.2154
  978SOL     OW14569   1.005   0.448   8.093 -0.2480 -0.5721 -0.3177
  978SOL    HW114570   1.014   0.535   8.056 -3.8777 -0.5255 -1.1571
  978SOL    HW214571   1.021   0.396   8.014  1.3961 -1.0898  0.3689
  979SOL     OW14572   3.808   4.296  17.304  0.2147 -0.5128 -0.0988
  979SOL    HW114573   3.813   4.279  17.399  0.1452 -0.7089 -0.1303
  979SOL    HW214574   3.717   4.268  17.289 -0.1257  1.3833 -1.6154
  980SOL     OW14575   3.681   1.742   4.752 -0.0741  0.0116 -0.1980
  980SOL    HW114576   3.649   1.790   4.828  0.3699 -0.4517  0.2769
  980SOL    HW214577   3.667   1.803   4.679  2.2802  0.4789 -0.2663
  981SOL     OW14578   0.121   0.777   3.931  0.3834 -0.3240  0.0027
  981SOL    HW114579   0.146   0.854   3.880  0.8351  1.0400  2.2795
  981SOL    HW214580   0.059   0.731   3.874 -0.4110  0.0274  0.5673
  982SOL     OW14581   0.166   1.876   7.016 -0.4184 -0.1235  0.5099
  982SOL    HW114582   0.244   1.931   7.028 -0.3875 -0.9008  3.8141
  982SOL    HW214583   0.209   1.791   7.019  0.6295  0.3010 -2.4899
  983SOL     OW14584   2.707   1.502   9.567  0.3953  0.4972 -0.2600
  983SOL    HW114585   2.801   1.511   9.554  0.7973 -2.3091  0.5611
  983SOL    HW214586   2.684   1.447   9.492 -0.6595 -2.0184  1.8877
  984SOL     OW14587   2.360   1.053   8.403  0.6640  0.3279  0.1166
  984SOL    HW114588   2.402   1.049   8.489 -2.5211  0.2286  1.7079
  984SOL    HW214589   2.393   0.976   8.358  1.7995 -1.0469  3.3073
  985SOL     OW14590   4.592   4.445   1.942  0.9691  0.2572  0.3885
  985SOL    HW114591   4.513   4.427   1.994  1.8780 -1.4092  1.1983
  985SOL    HW214592   4.575   4.538   1.926  2.1746  0.3474 -0.3727
  986SOL     OW14593   3.486   3.848   0.228 -0.2501 -0.5691  0.7282
  986SOL    HW114594   3.426   3.916   0.197 -0.5998 -0.8656  0.7705
  986SOL    HW214595   3.435   3.802   0.294  0.6409 -0.1497  1.7244
  987SOL     OW14596   2.544   2.701   7.494 -0.2554 -0.5274 -0.4066
  987SOL    HW114597   2.592   2.764   7.440  0.4863 -0.8947 -0.1786
  987SOL    HW214598   2.584   2.622   7.458  2.0081 -0.3155  1.6890
  988SOL     OW14599   0.515   4.289  12.411  0.0313 -0.0223 -0.0171
  988SOL    HW114600   0.571   4.252  12.479  1.5597 -1.2614 -1.9720
  988SOL    HW214601   0.533   4.383  12.416  1.4477 -0.5315  3.7228
  989SOL     OW14602   3.482   4.458   9.601  0.4616  0.3423 -0.0277
  989SOL    HW114603   3.573   4.483   9.620  0.6287  1.0178 -1.7405
  989SOL    HW214604   3.481   4.376   9.552  0.7748  0.7312 -0.6732
  990SOL     OW14605   2.087   3.677   1.730  0.6042 -0.1498 -0.3107
  990SOL    HW114606   2.073   3.658   1.823 -2.7664 -2.9604 -1.3908
  990SOL    HW214607   2.150   3.749   1.725  0.3476  0.0542 -0.6154
  991SOL     OW14608   2.901   0.546   1.899 -0.5892  0.1358  0.2332
  991SOL    HW114609   2.928   0.614   1.837 -1.6139 -0.4589 -0.8890
  991SOL    HW214610   2.899   0.466   1.846  2.7373  0.0603  0.2220
  992SOL     OW14611   1.153   1.120   5.255  0.7354 -0.4241  0.3943
  992SOL    HW114612   1.213   1.051   5.228  0.3484 -1.1003  1.2446
  992SOL    HW214613   1.194   1.154   5.335 -0.6237  1.2698  0.3959
  993SOL     OW14614   3.412   1.753  16.094 -0.2950  0.4957 -0.6716
  993SOL    HW114615   3.366   1.825  16.049  0.1482  2.1777  1.5468
  993SOL    HW214616   3.440   1.800  16.173  0.9723 -2.1992  0.4664
  994SOL     OW14617   4.222   4.277   7.625  0.6996  0.5074  0.3447
  994SOL    HW114618   4.268   4.305   7.704 -1.0440 -0.0707  1.5580
  994SOL    HW214619   4.137   4.287   7.667  1.1357 -1.1893  1.6441
  995SOL     OW14620   3.015   2.625   0.470  0.3478  0.0421  0.1444
  995SOL    HW114621   3.063   2.660   0.545  0.3554 -0.3768  0.3358
  995SOL    HW214622   3.044   2.534   0.463  0.5782  0.1399 -0.1881
  996SOL     OW14623   3.306   1.847   2.796  0.2600  0.6300 -0.0846
  996SOL    HW114624   3.326   1.940   2.805 -4.9804  1.6253  1.1727
  996SOL    HW214625   3.229   1.847   2.739  0.4987 -0.8742 -0.4122
  997SOL     OW14626   1.803   1.290   3.822  0.2928 -0.7403  0.1458
  997SOL    HW114627   1.831   1.212   3.869  1.0287 -0.6807 -0.1791
  997SOL    HW214628   1.827   1.276   3.730  0.0976 -3.8942  0.5816
  998SOL     OW14629   1.537   3.799   2.073  0.1039 -0.1081 -0.1363
  998SOL    HW114630   1.457   3.751   2.094 -0.2070  0.9900  1.1771
  998SOL    HW214631   1.516   3.881   2.117  1.8231  0.2187  0.0610
  999SOL     OW14632   0.114   4.417  10.271  0.0430  0.0463  0.0683
  999SOL    HW114633   0.117   4.436  10.365 -1.5860  0.6849  0.0030
  999SOL    HW214634   0.109   4.322  10.273 -1.1466  0.1245  0.8905
 1000SOL     OW14635   1.192   0.214   5.791  0.4012  0.3000  0.0058
 1000SOL    HW114636   1.257   0.279   5.766  0.1021  0.6570  0.1484
 1000SOL    HW214637   1.150   0.246   5.871  1.5759 -1.1908  1.2125
 1001SOL     OW14638   4.198   2.016  10.940 -0.0899 -0.1123 -0.0471
 1001SOL    HW114639   4.275   2.068  10.916 -2.7543  2.9953 -1.8333
 1001SOL    HW214640   4.223   1.982  11.026  1.1961  0.0795 -0.3359
 1002SOL     OW14641   1.580   4.002   2.576  0.4538 -0.2872  0.0020
 1002SOL    HW114642   1.619   4.000   2.489  1.4666  4.6433  0.2881
 1002SOL    HW214643   1.488   4.004   2.549  0.4561  2.3051  0.1232
 1003SOL     OW14644   3.866   4.426   4.365  0.4095 -0.7297  0.1377
 1003SOL    HW114645   3.887   4.498   4.424  0.6489  0.2920 -1.1868
 1003SOL    HW214646   3.772   4.415   4.380  0.4874 -0.0236  1.0947
 1004SOL     OW14647   4.590   1.193  12.473 -0.3789 -0.3559 -0.4869
 1004SOL    HW114648   4.529   1.263  12.498  1.7271  1.3727 -0.2120
 1004SOL    HW214649   4.672   1.240  12.457  0.0468  0.1542  3.2231
 1005SOL     OW14650   2.854   0.625  11.598 -0.5167  0.0448 -0.1218
 1005SOL    HW114651   2.888   0.636  11.509 -1.5358 -1.8745 -0.7692
 1005SOL    HW214652   2.846   0.530  11.607 -1.0876  0.1321  0.3135
 1006SOL     OW14653   0.007   4.627   5.058  0.3005 -0.5402  0.6266
 1006SOL    HW114654   4.704   4.661   4.978 -2.0104 -1.2483  1.4837
 1006SOL    HW214655   0.080   4.689   5.063 -0.5500  0.5101 -0.2112
 1007SOL     OW14656   4.490   1.719   6.310 -0.1173  0.0221  0.0022
 1007SOL    HW114657   4.518   1.807   6.337  0.3499 -0.7986  2.1204
 1007SOL    HW214658   4.399   1.717   6.338  0.0793 -0.8733  0.5593
 1008SOL     OW14659   0.533   0.271   7.443  0.3912 -0.9820 -0.0356
 1008SOL    HW114660   0.475   0.265   7.367  1.3458  1.5046 -0.9596
 1008SOL    HW214661   0.587   0.348   7.427 -0.8077 -0.5484 -2.0423
 1009SOL     OW14662   1.710   3.265  16.059  0.7264 -0.4614 -0.4870
 1009SOL    HW114663   1.668   3.290  16.142 -0.2946  1.0825 -1.4786
 1009SOL    HW214664   1.693   3.171  16.053 -0.3888 -0.2156 -1.1670
 1010SOL     OW14665   0.714   2.736   7.204 -0.6094 -0.0026  0.0722
 1010SOL    HW114666   0.755   2.734   7.290 -0.0664  1.1141 -0.1712
 1010SOL    HW214667   0.688   2.828   7.195 -1.5069 -0.2875 -0.2720
 1011SOL     OW14668   3.077   3.494   8.513 -0.1982  0.1128 -0.1860
 1011SOL    HW114669   3.060   3.447   8.595  1.7394 -2.6143 -1.3549
 1011SOL    HW214670   3.146   3.441   8.473 -0.3232 -0.3212  0.1766
 1012SOL     OW14671   2.779   0.478   6.259 -0.2967  0.2711  0.5420
 1012SOL    HW114672   2.781   0.550   6.322 -1.1879  1.6334 -0.9946
 1012SOL    HW214673   2.693   0.439   6.273 -0.9689  0.8012 -2.1954
 1013SOL     OW14674   3.963   3.470  10.961  0.4654 -0.0855  0.4767
 1013SOL    HW114675   3.911   3.544  10.991  0.4567 -0.1444  0.6065
 1013SOL    HW214676   4.015   3.444  11.038  1.6623 -1.8057 -0.9149
 1014SOL     OW14677   3.705   3.432   2.239  0.0651  0.0250 -0.5098
 1014SOL    HW114678   3.769   3.476   2.295 -0.7927 -0.2079  0.6484
 1014SOL    HW214679   3.627   3.478   2.271  0.0414 -0.6951  0.4559
 1015SOL     OW14680   0.103   3.252   4.843 -0.5890 -0.1469  0.2067
 1015SOL    HW114681   0.095   3.346   4.831 -0.8878 -0.5756 -2.9654
 1015SOL    HW214682   0.076   3.221   4.757 -1.4007 -0.4326  0.5560
 1016SOL     OW14683   2.753   3.748   7.722 -1.2793 -0.3214 -0.2640
 1016SOL    HW114684   2.706   3.829   7.740  0.7209  1.0060 -1.0242
 1016SOL    HW214685   2.712   3.700   7.793 -0.4962  1.4612  1.3977
 1017SOL     OW14686   1.177   1.341   7.067 -0.0658 -0.1196 -0.2646
 1017SOL    HW114687   1.108   1.338   7.133  1.6635 -1.4221  1.5091
 1017SOL    HW214688   1.255   1.350   7.122 -0.1892 -0.7166  0.0127
 1018SOL     OW14689   4.659   0.034  13.577  0.0248  0.3028 -0.4487
 1018SOL    HW114690   4.702   0.038  13.492  0.7446 -2.7717 -0.2379
 1018SOL    HW214691   4.632   4.679  13.570  2.9490 -0.4712 -1.4018
 1019SOL     OW14692   1.879   4.041   2.794  0.2141  0.2324 -0.6817
 1019SOL    HW114693   1.903   3.961   2.747 -0.7362 -0.4539  0.0120
 1019SOL    HW214694   1.901   4.096   2.719 -0.2986  1.5500  0.1323
 1020SOL     OW14695   0.168   1.955   5.835 -0.1746  0.0125 -0.7568
 1020SOL    HW114696   0.076   1.948   5.809 -0.0010 -0.0672 -1.3561
 1020SOL    HW214697   0.214   1.881   5.795  1.1721 -0.0429  0.8758
 1021SOL     OW14698   2.884   1.362   2.218  0.0868 -0.3198 -0.5178
 1021SOL    HW114699   2.859   1.440   2.168  0.1817 -0.2717 -0.4924
 1021SOL    HW214700   2.975   1.385   2.240 -0.4339  2.4016 -1.2228
 1022SOL     OW14701   3.486   1.163   3.369 -0.4826  0.0571  0.1699
 1022SOL    HW114702   3.559   1.111   3.404  0.3069  2.0112  1.3827
 1022SOL    HW214703   3.506   1.256   3.377  0.3450 -0.2793  2.0980
 1023SOL     OW14704   0.811   3.055   6.991  0.3216  0.3057  0.0503
 1023SOL    HW114705   0.728   3.047   7.038  0.5331  0.2109  0.4073
 1023SOL    HW214706   0.874   3.020   7.054 -3.1512 -1.8647  2.3319
 1024SOL     OW14707   3.905   2.493   2.703 -0.3360  0.4209 -0.1475
 1024SOL    HW114708   3.972   2.542   2.656 -0.9733  2.9560  1.5927
 1024SOL    HW214709   3.881   2.551   2.775 -1.7724 -1.1048  0.6376
 1025SOL     OW14710   1.884   3.648   3.637  0.5332  0.2110  0.3871
 1025SOL    HW114711   1.909   3.562   3.671  0.3278  0.6281  1.5966
 1025SOL    HW214712   1.922   3.695   3.711 -2.7089 -1.6514  3.2156
 1026SOL     OW14713   0.157   1.144  12.736 -0.5234  0.2207  0.3644
 1026SOL    HW114714   0.068   1.158  12.768 -0.6461  2.1524 -0.8357
 1026SOL    HW214715   0.143   1.075  12.672  1.7986  0.2721 -0.2206
 1027SOL     OW14716   2.870   1.897   7.028  0.2049 -0.3022 -0.4774
 1027SOL    HW114717   2.928   1.897   6.951 -0.8212  1.2242 -1.2710
 1027SOL    HW214718   2.882   1.986   7.062  0.0905 -0.9618  1.2610
 1028SOL     OW14719   0.129   4.453   6.985 -0.1650 -0.6071  0.2436
 1028SOL    HW114720   0.065   4.384   7.002 -0.4439  0.3619  3.1250
 1028SOL    HW214721   0.211   4.408   6.963  1.1381  0.8912  2.0001
 1029SOL     OW14722   1.306   0.915   1.779 -0.0371  0.4173 -0.1090
 1029SOL    HW114723   1.365   0.894   1.707 -2.2398  1.5441 -2.2361
 1029SOL    HW214724   1.228   0.872   1.746  0.0104  0.3910 -0.1870
 1030SOL     OW14725   2.912   1.769  14.577 -0.1131  0.0550  0.4982
 1030SOL    HW114726   2.863   1.697  14.615 -1.4105 -0.5179 -2.2915
 1030SOL    HW214727   2.859   1.844  14.604 -0.0362  1.1254 -2.2657
 1031SOL     OW14728   0.300   3.185   6.240 -0.3146 -0.5289 -0.1701
 1031SOL    HW114729   0.301   3.097   6.276 -0.8117 -0.8905 -1.0333
 1031SOL    HW214730   0.250   3.164   6.161  0.1663 -0.2488 -0.5573
 1032SOL     OW14731   3.287   4.136  10.678 -0.0384  0.3172  0.1325
 1032SOL    HW114732   3.213   4.190  10.704 -0.4890 -0.1929 -0.0696
 1032SOL    HW214733   3.323   4.115  10.764 -0.8502 -4.3257 -0.6313
 1033SOL     OW14734   2.134   3.178   9.870  0.8430  0.1726  0.2817
 1033SOL    HW114735   2.137   3.200   9.964 -0.0829  1.9334 -0.1002
 1033SOL    HW214736   2.168   3.259   9.831 -2.6591  1.9944  1.0182
 1034SOL     OW14737   1.860   2.984  16.397 -0.1057 -0.0190  0.1201
 1034SOL    HW114738   1.784   2.956  16.345 -0.7279  1.1556  0.3974
 1034SOL    HW214739   1.925   2.926  16.359 -0.4003 -0.6483  0.5851
 1035SOL     OW14740   0.969   1.456   5.558  0.1135 -0.3433 -0.1359
 1035SOL    HW114741   1.034   1.403   5.604  3.1474  1.5657 -2.1552
 1035SOL    HW214742   1.023   1.522   5.514 -0.2397  0.5396  0.7382
 1036SOL     OW14743   3.125   4.708   2.577 -0.4989 -0.5015  0.1047
 1036SOL    HW114744   3.076   0.054   2.583  0.2607  0.0530 -1.1764
 1036SOL    HW214745   3.092   4.677   2.493  0.7911  0.4625 -0.7714
 1037SOL     OW14746   1.189   0.850  17.320 -0.0313 -0.4518 -0.7501
 1037SOL    HW114747   1.213   0.863  17.412 -0.1632  0.7060 -0.8791
 1037SOL    HW214748   1.144   0.934  17.307  1.8170  1.2370  3.5614
 1038SOL     OW14749   2.802   0.218  10.345 -0.0884  0.1466 -0.0061
 1038SOL    HW114750   2.807   0.170  10.428  0.6262  0.7008  0.2667
 1038SOL    HW214751   2.890   0.254  10.340  0.4884 -1.1772  0.4231
 1039SOL     OW14752   4.612   1.215  12.795 -0.6141 -0.2172 -0.2163
 1039SOL    HW114753   4.620   1.310  12.799  1.3118 -0.2984 -2.3745
 1039SOL    HW214754   4.522   1.198  12.770 -1.0783 -2.3747  2.8395
 1040SOL     OW14755   4.063   1.208   4.902 -0.0510 -0.0165  0.7844
 1040SOL    HW114756   4.119   1.187   4.976 -2.1343 -0.5710  2.1827
 1040SOL    HW214757   4.010   1.280   4.937 -1.0033  0.1749 -1.0229
 1041SOL     OW14758   0.961   2.387   4.843 -0.1705 -0.0536  0.5581
 1041SOL    HW114759   0.941   2.481   4.845 -1.0288 -0.1997 -2.2823
 1041SOL    HW214760   1.035   2.390   4.784 -2.6304  0.8656 -2.4749
 1042SOL     OW14761   3.055   3.343   7.746  0.6528  0.0983  0.1354
 1042SOL    HW114762   3.013   3.270   7.792 -0.3902 -0.6214 -1.9542
 1042SOL    HW214763   3.130   3.295   7.712  0.6254 -0.3545  0.7117
 1043SOL     OW14764   3.504   1.707  12.581  0.1424  0.9393  0.4378
 1043SOL    HW114765   3.583   1.723  12.633  2.1827  0.8747 -2.6580
 1043SOL    HW214766   3.539   1.642  12.521 -1.3440 -0.2614  0.8767
 1044SOL     OW14767   1.719   4.037   7.633 -0.2370  0.0673  0.8209
 1044SOL    HW114768   1.669   3.992   7.701  0.8343 -0.8694  0.9738
 1044SOL    HW214769   1.761   4.105   7.686 -1.0161 -0.4041  2.0330
 1045SOL     OW14770   0.783   3.712   2.300  0.2863 -0.4351  0.3701
 1045SOL    HW114771   0.848   3.654   2.338 -0.0667 -1.0416  0.0488
 1045SOL    HW214772   0.838   3.741   2.227 -0.1099  0.9010  0.5896
 1046SOL     OW14773   2.008   1.498   3.895  0.3919 -0.6688 -0.0041
 1046SOL    HW114774   2.039   1.445   3.822  0.4219 -0.5908 -0.0479
 1046SOL    HW214775   1.915   1.476   3.903  0.1617  0.0876 -0.6062
 1047SOL     OW14776   0.745   1.715  10.233  0.0820  0.2280  0.1051
 1047SOL    HW114777   0.752   1.811  10.232  2.3416  0.0542 -1.0943
 1047SOL    HW214778   0.837   1.694  10.248 -0.1332 -1.8844 -1.5822
 1048SOL     OW14779   3.599   1.241  15.878 -0.1333 -0.5611 -0.0112
 1048SOL    HW114780   3.546   1.281  15.947 -0.8898 -0.1338 -0.8445
 1048SOL    HW214781   3.670   1.197  15.925 -1.0000 -1.9259  0.0122
 1049SOL     OW14782   4.670   3.121   7.384  0.3304  0.1139  0.0950
 1049SOL    HW114783   4.676   3.029   7.409 -0.7651  0.1079  0.3363
 1049SOL    HW214784   0.012   3.160   7.422  2.1282 -1.9364 -1.5524
 1050SOL     OW14785   0.747   2.296   8.679  0.0528 -0.6086  0.0491
 1050SOL    HW114786   0.671   2.301   8.738  0.3700  1.1367  0.3191
 1050SOL    HW214787   0.791   2.221   8.718 -0.5568 -1.1622 -0.3228
 1051SOL     OW14788   0.118   0.795   1.009 -0.6876  0.4006  0.3950
 1051SOL    HW114789   0.084   0.754   0.929 -0.5254  0.3536  0.3487
 1051SOL    HW214790   0.176   0.862   0.973 -0.1143 -1.3300 -1.9121
 1052SOL     OW14791   1.819   4.285   0.560  0.0458 -0.0827  0.4132
 1052SOL    HW114792   1.863   4.209   0.597  1.7824  0.4822 -0.5022
 1052SOL    HW214793   1.739   4.250   0.522  0.8903  0.2456 -1.6722
 1053SOL     OW14794   0.400   1.740   6.918  0.1304 -0.2949  0.1986
 1053SOL    HW114795   0.440   1.679   6.980  3.7676  0.4585 -1.4583
 1053SOL    HW214796   0.362   1.683   6.851  2.5178 -0.2528 -1.1720
 1054SOL     OW14797   0.875   2.828   4.345  0.9182 -0.1880 -0.6493
 1054SOL    HW114798   0.858   2.903   4.288 -0.8134 -0.0042  0.0961
 1054SOL    HW214799   0.836   2.848   4.430 -0.3213  0.7967 -1.4509
 1055SOL     OW14800   1.232   4.013   8.864 -0.3877 -0.0344  0.4107
 1055SOL    HW114801   1.245   3.933   8.914 -2.7120 -0.3567  0.5069
 1055SOL    HW214802   1.319   4.044   8.837  0.0687 -0.2434  1.6698
 1056SOL     OW14803   1.237   2.001   5.779 -0.2787 -0.2154  0.2985
 1056SOL    HW114804   1.274   2.089   5.788 -2.3909  0.9861 -3.1181
 1056SOL    HW214805   1.239   1.987   5.874 -1.9187  1.7733  0.6381
 1057SOL     OW14806   3.290   2.390  14.340 -0.3151 -0.1737 -1.1758
 1057SOL    HW114807   3.278   2.481  14.313 -1.4249  0.6561  2.1246
 1057SOL    HW214808   3.211   2.345  14.308 -2.4181  1.5325  1.7209
 1058SOL     OW14809   4.448   3.679   3.775 -0.0527  0.5581  0.1368
 1058SOL    HW114810   4.501   3.609   3.737  1.4262  1.4027  0.6138
 1058SOL    HW214811   4.520   3.716   3.826  2.2853  0.0437 -2.7494
 1059SOL     OW14812   2.222   1.244  14.911 -0.3906  0.1312  0.0039
 1059SOL    HW114813   2.136   1.266  14.876  0.8766  0.8868 -2.6033
 1059SOL    HW214814   2.214   1.260  15.005 -0.0490  0.1122  0.0347
 1060SOL     OW14815   4.319   4.582   3.916 -0.1135  0.2775  0.1531
 1060SOL    HW114816   4.367   4.532   3.982 -0.9199  0.9104  1.2256
 1060SOL    HW214817   4.325   4.671   3.950  1.1099  0.2587 -0.0116
 1061SOL     OW14818   1.015   3.843  10.760 -0.4677 -0.2155  0.1373
 1061SOL    HW114819   0.930   3.835  10.717 -1.1570 -0.8813  1.6030
 1061SOL    HW214820   1.005   3.926  10.808  1.3175  0.7475 -1.1323
 1062SOL     OW14821   3.339   1.833  11.527 -0.0482  0.7667  0.8123
 1062SOL    HW114822   3.410   1.777  11.557  0.9234 -0.0415 -2.9792
 1062SOL    HW214823   3.361   1.839  11.434 -0.3519  0.3685  0.7168
 1063SOL     OW14824   2.853   1.517   6.907 -0.1265 -0.3507 -0.4450
 1063SOL    HW114825   2.758   1.522   6.914 -0.0994 -0.1724 -0.1860
 1063SOL    HW214826   2.874   1.475   6.991 -1.2215 -0.5626 -0.2801
 1064SOL     OW14827   1.448   0.060  17.120 -0.1848  0.4060 -0.0947
 1064SOL    HW114828   1.363   0.072  17.163 -0.7053 -1.8404 -0.4624
 1064SOL    HW214829   1.430   0.084  17.029 -1.9890 -2.1433 -0.4132
 1065SOL     OW14830   3.522   2.002   1.687  0.4564  0.6096  0.6269
 1065SOL    HW114831   3.589   2.005   1.755  2.8132 -1.3191 -1.6037
 1065SOL    HW214832   3.484   1.914   1.686  1.0396  0.3624  0.0695
 1066SOL     OW14833   0.063   2.874   7.215  0.1210  0.6558 -0.3314
 1066SOL    HW114834   0.050   2.819   7.293 -1.1502  1.2276 -0.1378
 1066SOL    HW214835   0.034   2.808   7.153  1.4624 -1.8062  1.6422
 1067SOL     OW14836   0.355   1.122   0.366  0.4655  0.5918  0.0870
 1067SOL    HW114837   0.446   1.105   0.340  0.8762 -0.0289  1.8986
 1067SOL    HW214838   0.370   1.210   0.399 -2.3607  1.3933 -0.7597
 1068SOL     OW14839   3.363   1.966   7.069  0.1669 -0.0963  0.0916
 1068SOL    HW114840   3.328   2.050   7.099 -1.3473 -0.2255 -1.3223
 1068SOL    HW214841   3.456   1.977   7.090  0.3364 -0.3734 -0.5093
 1069SOL     OW14842   3.237   0.989   0.031  0.0836  0.8480 -0.4518
 1069SOL    HW114843   3.246   0.973  17.682 -1.3019  0.5756 -0.5445
 1069SOL    HW214844   3.306   0.935   0.070 -2.0087 -2.2587 -1.0524
 1070SOL     OW14845   4.701   1.039   7.257 -0.2252  0.4925 -0.1414
 1070SOL    HW114846   0.046   1.028   7.307  0.2390  0.5310 -0.8966
 1070SOL    HW214847   4.706   1.125   7.215  3.9636 -0.2949 -1.2241
 1071SOL     OW14848   4.702   1.206   9.618  0.5058  0.2583  0.3480
 1071SOL    HW114849   4.675   1.158   9.540  2.6010  1.1562 -0.9456
 1071SOL    HW214850   0.057   1.223   9.597 -0.0032  1.2221 -1.0990
 1072SOL     OW14851   1.641   1.684  17.587  0.3636  0.3947  0.4693
 1072SOL    HW114852   1.711   1.694  17.523 -0.9385  1.9871 -0.7050
 1072SOL    HW214853   1.565   1.696  17.529  2.0356  0.9177 -1.5981
 1073SOL     OW14854   3.774   3.846  13.122 -0.5618  0.3678  0.1859
 1073SOL    HW114855   3.780   3.786  13.197  0.5378 -0.3421 -0.4657
 1073SOL    HW214856   3.744   3.787  13.053 -0.9838  0.4812  0.2740
 1074SOL     OW14857   3.716   1.510  13.136 -0.1964  0.0830 -0.2175
 1074SOL    HW114858   3.664   1.557  13.072  0.9181  0.7014 -0.6593
 1074SOL    HW214859   3.758   1.583  13.181  1.1615  0.4900 -2.1881
 1075SOL     OW14860   0.060   0.731   4.287  0.0739 -0.0751  0.0077
 1075SOL    HW114861   4.728   0.690   4.340 -1.4164  1.1750 -0.9577
 1075SOL    HW214862   0.134   0.672   4.299  0.7089  1.0089  1.4931
 1076SOL     OW14863   3.792   0.291   5.708  0.0776  0.2869 -0.6939
 1076SOL    HW114864   3.883   0.262   5.704 -0.1643 -0.7156  1.0499
 1076SOL    HW214865   3.775   0.301   5.614 -0.0306  0.1662 -0.6865
 1077SOL     OW14866   4.630   1.241  15.158 -0.4677  0.0209 -0.5353
 1077SOL    HW114867   4.649   1.198  15.075 -1.9214 -2.7711  0.5801
 1077SOL    HW214868   4.560   1.182  15.186  0.4235 -0.7360  0.0968
 1078SOL     OW14869   2.019   0.738   2.653  0.7861 -0.0823 -0.3592
 1078SOL    HW114870   2.075   0.718   2.728  1.1629  0.2542 -0.5519
 1078SOL    HW214871   1.968   0.657   2.656  0.7698 -0.0449  0.2777
 1079SOL     OW14872   4.443   2.844   6.309  0.5022 -0.5059  0.0176
 1079SOL    HW114873   4.444   2.918   6.369 -0.4622 -0.5781  0.1210
 1079SOL    HW214874   4.372   2.864   6.248 -1.2439 -1.4852  1.7369
 1080SOL     OW14875   2.444   0.501   2.639 -0.1585  0.1204 -0.4180
 1080SOL    HW114876   2.466   0.592   2.620  0.0399 -0.0496 -0.9825
 1080SOL    HW214877   2.492   0.494   2.721  1.1222  0.3541 -1.1518
 1081SOL     OW14878   2.604   2.815   4.892 -0.1210  0.1196 -0.1298
 1081SOL    HW114879   2.606   2.741   4.830 -0.7495  0.9589 -1.1518
 1081SOL    HW214880   2.695   2.846   4.890  0.0027 -0.3160 -1.9782
 1082SOL     OW14881   1.011   3.419   1.682 -0.7846  0.3767  0.3647
 1082SOL    HW114882   1.083   3.441   1.623 -1.8555 -1.6680 -1.6983
 1082SOL    HW214883   1.007   3.491   1.744 -2.3096  0.8290 -0.2367
 1083SOL     OW14884   4.477   4.519   7.778 -0.4196  0.1342  0.5745
 1083SOL    HW114885   4.457   4.482   7.692  0.6070 -0.1170  0.4465
 1083SOL    HW214886   4.395   4.503   7.825 -0.6767  1.3100  0.5201
 1084SOL     OW14887   2.785   2.742  16.496 -1.2104  0.2472  0.1108
 1084SOL    HW114888   2.736   2.802  16.439  0.9865  0.3176 -1.7232
 1084SOL    HW214889   2.840   2.695  16.433 -1.0459 -0.6924  0.9514
 1085SOL     OW14890   1.421   4.339  15.272  0.4134  0.4453  0.6270
 1085SOL    HW114891   1.409   4.253  15.232  0.8632  1.0431 -0.7721
 1085SOL    HW214892   1.424   4.310  15.363 -2.6840  1.6232  1.1134
 1086SOL     OW14893   2.586   3.119   4.337  0.3644  0.0252  0.2030
 1086SOL    HW114894   2.505   3.167   4.320  0.5659  0.5693  0.8129
 1086SOL    HW214895   2.640   3.181   4.387  1.0600 -0.5238  0.1319
 1087SOL     OW14896   3.762   3.062   3.236  0.4272 -0.0058 -0.1773
 1087SOL    HW114897   3.769   2.968   3.225 -0.2600  0.3626 -3.6420
 1087SOL    HW214898   3.840   3.090   3.187  0.9278  1.9090  1.7012
 1088SOL     OW14899   1.702   0.506   4.122 -0.4075  0.0169 -0.0729
 1088SOL    HW114900   1.768   0.470   4.181 -0.2760  1.4218  0.6512
 1088SOL    HW214901   1.746   0.570   4.065  0.1787  0.0421  0.4102
 1089SOL     OW14902   3.177   3.848   2.143 -0.0458  0.0198 -0.1747
 1089SOL    HW114903   3.198   3.785   2.075  1.1688 -0.3093  0.5139
 1089SOL    HW214904   3.161   3.789   2.216  0.5538 -0.6775 -0.6161
 1090SOL     OW14905   3.740   0.994   3.220 -0.1182  0.1764 -0.5914
 1090SOL    HW114906   3.760   0.983   3.313  0.4898 -0.0164 -0.7417
 1090SOL    HW214907   3.813   0.960   3.168 -0.2686 -0.6571 -0.2599
 1091SOL     OW14908   3.192   2.826   5.856  0.4093  0.2405  0.4045
 1091SOL    HW114909   3.160   2.759   5.795 -3.5700  1.4252  1.1816
 1091SOL    HW214910   3.139   2.902   5.833  0.2984  0.4067  1.1872
 1092SOL     OW14911   4.471   3.207   2.575 -0.7839 -1.0487  0.2944
 1092SOL    HW114912   4.450   3.263   2.650 -1.7474  0.2090 -0.9169
 1092SOL    HW214913   4.420   3.237   2.500 -1.1232  1.5112  1.5610
 1093SOL     OW14914   2.419   2.799   1.493  0.7367  0.3492  0.0610
 1093SOL    HW114915   2.351   2.865   1.508  1.7265  1.2334  0.6950
 1093SOL    HW214916   2.469   2.838   1.421 -0.1091 -1.2788 -1.3825
 1094SOL     OW14917   4.334   0.606   5.990  0.1548  0.6048  0.2344
 1094SOL    HW114918   4.247   0.569   6.007  0.9554 -0.6802  1.6228
 1094SOL    HW214919   4.320   0.633   5.900 -0.2515  0.1503  0.1601
 1095SOL     OW14920   4.447   0.635   2.920  0.2606  0.0447 -1.0504
 1095SOL    HW114921   4.504   0.680   2.982 -0.9178  0.0623  0.0231
 1095SOL    HW214922   4.494   0.552   2.914  0.3318 -0.0185  0.2733
 1096SOL     OW14923   2.211   3.880  15.559 -0.1606  0.2561 -0.1944
 1096SOL    HW114924   2.244   3.818  15.494 -0.3566 -0.3646  0.3042
 1096SOL    HW214925   2.289   3.928  15.584 -1.4754  1.7673  1.0092
 1097SOL     OW14926   0.196   2.621   3.611  0.0009 -0.2497 -0.3642
 1097SOL    HW114927   0.229   2.573   3.535  2.0908  2.7439 -1.3466
 1097SOL    HW214928   0.254   2.579   3.675 -0.2533  4.0786  2.6728
 1098SOL     OW14929   2.975   1.904   4.665  0.6050  0.6304  0.7484
 1098SOL    HW114930   3.060   1.906   4.622  0.4201 -0.4521  0.3394
 1098SOL    HW214931   2.948   1.996   4.658 -0.4850  0.1223 -1.5515
 1099SOL     OW14932   1.367   2.524   3.049 -0.9346  0.4313 -0.4979
 1099SOL    HW114933   1.397   2.565   2.968  0.4186 -0.5464 -0.5003
 1099SOL    HW214934   1.453   2.489   3.074 -2.2320 -0.4558  2.7208
 1100SOL     OW14935   1.934   2.171   0.411  0.6054 -0.6529 -0.4984
 1100SOL    HW114936   2.002   2.108   0.386  0.1206 -0.5028 -2.1912
 1100SOL    HW214937   1.851   2.124   0.403  0.2402 -0.2680  0.9468
 1101SOL     OW14938   0.843   1.032   7.341  0.0588  0.1876 -0.1817
 1101SOL    HW114939   0.775   0.999   7.281  0.8891 -0.1776 -0.9198
 1101SOL    HW214940   0.822   1.126   7.336  0.6412  0.2913 -0.6866
 1102SOL     OW14941   2.844   0.950   3.003  0.3012  0.0038  0.3868
 1102SOL    HW114942   2.916   0.986   2.952 -0.2715  1.2293  0.4440
 1102SOL    HW214943   2.886   0.953   3.089 -2.0132  0.6916  1.4996
 1103SOL     OW14944   2.574   4.576   2.533 -0.5565  0.1464 -0.2956
 1103SOL    HW114945   2.605   4.550   2.620  0.1366 -3.4966 -1.6424
 1103SOL    HW214946   2.562   4.670   2.547 -0.3517  0.2112 -0.5568
 1104SOL     OW14947   0.326   2.481   9.411  0.6375 -0.2531 -0.1976
 1104SOL    HW114948   0.341   2.547   9.344  2.2324 -1.6891 -1.2462
 1104SOL    HW214949   0.230   2.476   9.409  0.5472  1.7796 -0.8525
 1105SOL     OW14950   1.105   2.924   5.842 -0.3286 -0.0197 -0.2239
 1105SOL    HW114951   1.118   2.829   5.831  0.4883 -0.1572  1.8983
 1105SOL    HW214952   1.036   2.942   5.779  0.6529 -0.2232 -1.3579
 1106SOL     OW14953   3.887   2.196   4.456  0.3237  0.2623  0.0608
 1106SOL    HW114954   3.832   2.260   4.502 -0.8810  0.6648 -1.9641
 1106SOL    HW214955   3.876   2.116   4.508 -1.7102  0.6866  0.2925
 1107SOL     OW14956   2.103   1.880   1.461 -0.4812 -0.1073  0.3063
 1107SOL    HW114957   2.081   1.884   1.554  0.4240 -1.7945  0.5708
 1107SOL    HW214958   2.186   1.926   1.452 -0.1206 -0.6768  0.8239
 1108SOL     OW14959   0.958   1.373   4.423  0.2015  0.7855  0.1336
 1108SOL    HW114960   0.895   1.391   4.493 -0.6502 -0.5944 -0.2659
 1108SOL    HW214961   1.005   1.302   4.468 -0.2437 -0.2420 -1.0055
 1109SOL     OW14962   1.953   3.508   2.306  0.5570 -0.7292 -0.1136
 1109SOL    HW114963   2.018   3.479   2.242  0.4993 -1.1059 -0.0067
 1109SOL    HW214964   1.985   3.595   2.327 -1.5802 -0.1349  0.7034
 1110SOL     OW14965   1.707   1.957   3.105 -0.1257 -0.6929  0.7687
 1110SOL    HW114966   1.684   1.989   3.018  0.4350 -0.6441  0.6372
 1110SOL    HW214967   1.789   2.005   3.120 -0.6857  1.4577 -3.0541
 1111SOL     OW14968   2.329   1.121   7.381 -0.6358 -0.1712 -0.1787
 1111SOL    HW114969   2.265   1.145   7.314 -1.0259 -1.3285 -0.2173
 1111SOL    HW214970   2.301   1.182   7.449  0.2374  1.1986 -1.0540
 1112SOL     OW14971   1.071   0.243   4.370  0.1638 -0.0189 -0.5209
 1112SOL    HW114972   1.108   0.331   4.378  0.6307 -0.4039  1.3700
 1112SOL    HW214973   0.978   0.254   4.389  0.3791  1.9529 -0.5920
 1113SOL     OW14974   2.928   1.813  16.263  0.3497 -0.6648  0.0084
 1113SOL    HW114975   2.905   1.843  16.351 -1.3485 -3.4543  0.5261
 1113SOL    HW214976   3.015   1.785  16.291  0.4570  0.2019  0.5300
 1114SOL     OW14977   0.728   0.546   1.749  0.4230 -0.0868  0.4997
 1114SOL    HW114978   0.651   0.577   1.796  0.6418  1.1756  0.0364
 1114SOL    HW214979   0.798   0.574   1.808 -0.2051  0.6441  0.8958
 1115SOL     OW14980   1.206   3.920   2.175 -0.1010  0.3621  0.9338
 1115SOL    HW114981   1.236   3.832   2.201 -2.7799 -0.5038  1.0918
 1115SOL    HW214982   1.166   3.958   2.253  1.1869  1.8383  0.8692
 1116SOL     OW14983   1.343   1.271   3.486  0.4015  0.1454  0.0754
 1116SOL    HW114984   1.337   1.310   3.574  1.1065 -1.5742  0.8844
 1116SOL    HW214985   1.405   1.332   3.446 -0.7710  2.3855  1.6959
 1117SOL     OW14986   1.872   0.802   6.161 -0.1686 -0.0159 -0.4128
 1117SOL    HW114987   1.938   0.868   6.183  0.6258 -0.4769 -1.4001
 1117SOL    HW214988   1.909   0.764   6.081 -0.1405  0.2130 -0.5067
 1118SOL     OW14989   1.936   3.829   2.641  0.0544  0.0121 -0.1686
 1118SOL    HW114990   1.986   3.801   2.565 -1.0571  2.3369 -1.7629
 1118SOL    HW214991   1.862   3.770   2.636  0.0332  0.0148  0.0803
 1119SOL     OW14992   3.029   0.314   4.192 -0.4752 -0.2383  0.2196
 1119SOL    HW114993   2.965   0.353   4.251  0.0055  0.0797  0.5374
 1119SOL    HW214994   3.103   0.282   4.244  2.5889  3.2310 -1.9899
 1120SOL     OW14995   3.562   1.542   4.919  0.0758 -0.3800  0.0403
 1120SOL    HW114996   3.614   1.462   4.914  0.7213 -0.0367  1.2042
 1120SOL    HW214997   3.574   1.573   4.830  2.8061 -0.5287  0.3516
 1121SOL     OW14998   1.898   2.763   5.231 -0.1992 -0.0532 -0.1958
 1121SOL    HW114999   1.867   2.674   5.243 -2.8512  1.0830  1.3680
 1121SOL    HW215000   1.925   2.782   5.321 -0.8907  0.3143 -0.0641
 1122SOL     OW15001   2.693   3.916   6.140  0.3672  0.0656 -0.4978
 1122SOL    HW115002   2.777   3.952   6.111 -0.0767  0.9930 -0.6196
 1122SOL    HW215003   2.722   3.825   6.142  3.0283  0.8904 -0.8927
 1123SOL     OW15004   1.942   4.080   1.789 -0.5481 -0.5078 -0.2666
 1123SOL    HW115005   1.883   4.135   1.841  0.7936 -0.0551  0.7620
 1123SOL    HW215006   2.033   4.097   1.814 -0.8700  1.5200 -0.4344
 1124SOL     OW15007   0.837   4.488   1.989  0.2016 -0.5489 -0.1255
 1124SOL    HW115008   0.768   4.523   1.933 -0.3319  1.0357  1.5407
 1124SOL    HW215009   0.915   4.530   1.951  0.9246 -0.1466  1.8079
 1125SOL     OW15010   4.132   3.818  15.021  0.4764 -0.6638 -0.2605
 1125SOL    HW115011   4.188   3.848  15.093  1.7076  0.4391 -1.6913
 1125SOL    HW215012   4.052   3.807  15.073 -0.9246 -1.4456 -2.6112
 1126SOL     OW15013   1.961   2.530   2.364  0.1782 -0.2262  0.5112
 1126SOL    HW115014   1.869   2.520   2.343  0.7476 -0.6416 -1.8055
 1126SOL    HW215015   1.968   2.459   2.429 -1.9369 -1.6269 -0.8042
 1127SOL     OW15016   0.133   3.338   3.420 -0.3824 -0.3367  0.3763
 1127SOL    HW115017   0.060   3.333   3.482 -1.1780 -0.2459 -0.5585
 1127SOL    HW215018   0.208   3.349   3.479 -0.1342  1.7435 -0.3283
 1128SOL     OW15019   2.020   2.933   4.137 -0.2452  0.9636  0.7535
 1128SOL    HW115020   1.993   2.861   4.194 -1.4806 -2.3745 -4.0779
 1128SOL    HW215021   2.008   2.912   4.044  1.4794  1.3912  0.4277
 1129SOL     OW15022   0.534   1.295   3.387 -0.0715 -0.7491  0.4449
 1129SOL    HW115023   0.628   1.277   3.390  0.1175  0.1437 -0.1460
 1129SOL    HW215024   0.513   1.248   3.468 -2.5656 -1.4082 -0.5798
 1130SOL     OW15025   0.857   0.097   2.086 -0.5877  0.2263  0.0190
 1130SOL    HW115026   0.899   0.078   2.002 -2.6321 -1.5484 -0.6244
 1130SOL    HW215027   0.771   0.056   2.074  0.6070 -3.5436  3.9933
 1131SOL     OW15028   4.653   2.774   7.445 -0.1567 -0.4406  0.3524
 1131SOL    HW115029   4.622   2.690   7.480  0.1906 -1.4408 -1.7784
 1131SOL    HW215030   4.736   2.779   7.493 -0.1436 -0.2687  0.3111
 1132SOL     OW15031   4.246   2.910   0.407 -0.2563  0.3475 -0.1745
 1132SOL    HW115032   4.210   2.982   0.355 -1.6746  0.0254  0.3572
 1132SOL    HW215033   4.174   2.906   0.470 -0.5003 -0.3294 -0.4906
 1133SOL     OW15034   0.666   0.679   9.700 -0.0256  0.0503  0.3650
 1133SOL    HW115035   0.640   0.760   9.656  2.2716 -0.5099 -2.0221
 1133SOL    HW215036   0.662   0.626   9.620  1.8461 -0.1896  0.4324
 1134SOL     OW15037   3.728   3.688  10.720 -0.6806  0.1712 -0.2916
 1134SOL    HW115038   3.810   3.641  10.736  0.8232  2.0359 -2.4925
 1134SOL    HW215039   3.672   3.613  10.741 -1.4503  0.0290 -2.8825
 1135SOL     OW15040   2.116   3.850  15.855 -0.1628 -0.3557 -0.4633
 1135SOL    HW115041   2.096   3.761  15.825 -1.1101 -0.2724 -0.1015
 1135SOL    HW215042   2.147   3.894  15.776  0.0332  0.8810  0.2992
 1136SOL     OW15043   4.582   0.630   5.819  0.1474  0.2021 -0.4240
 1136SOL    HW115044   4.520   0.617   5.891 -0.9154  1.7119 -1.0684
 1136SOL    HW215045   4.531   0.596   5.746  0.2823  1.9982 -1.3428
 1137SOL     OW15046   3.623   1.961  13.517 -0.0282 -0.0647  0.4016
 1137SOL    HW115047   3.636   1.951  13.423 -0.3313  1.8226  0.1578
 1137SOL    HW215048   3.528   1.965  13.526 -0.0257 -1.2174  0.9447
 1138SOL     OW15049   1.889   0.227   4.501  0.0139  0.0043  0.0311
 1138SOL    HW115050   1.957   0.294   4.496  0.0096 -0.1710 -2.2687
 1138SOL    HW215051   1.877   0.202   4.593  0.3744  0.2988  0.1584
 1139SOL     OW15052   4.649   4.443   9.810  0.1020 -0.5766  0.3567
 1139SOL    HW115053   4.602   4.524   9.792  0.1384 -1.2243 -2.5798
 1139SOL    HW215054   4.617   4.425   9.899  0.1872 -1.0876  0.2869
 1140SOL     OW15055   2.960   3.216   4.708  0.1576 -0.4251  0.1560
 1140SOL    HW115056   2.899   3.156   4.750 -0.8781  0.1629 -0.4946
 1140SOL    HW215057   3.004   3.252   4.785  1.3430 -0.4346 -0.5159
 1141SOL     OW15058   2.804   4.671   6.580  0.4743  0.0404  0.2579
 1141SOL    HW115059   2.718   4.688   6.618 -0.0858 -0.3000 -0.8612
 1141SOL    HW215060   2.853   4.619   6.644  3.7325  2.7125 -0.0736
 1142SOL     OW15061   1.275   1.864   7.184  0.1935  0.5195  0.7421
 1142SOL    HW115062   1.258   1.776   7.149  1.8596 -1.0752  3.9760
 1142SOL    HW215063   1.240   1.932   7.126 -0.5321 -1.1332 -0.7375
 1143SOL     OW15064   1.970   0.857   7.264 -0.1361 -0.3258  0.3332
 1143SOL    HW115065   2.061   0.862   7.235  0.1123 -0.0970  1.1515
 1143SOL    HW215066   1.977   0.792   7.334  1.0321 -0.3346  0.2066
 1144SOL     OW15067   2.696   3.305   6.508 -0.3368  0.5377 -0.0638
 1144SOL    HW115068   2.735   3.323   6.422 -2.6033  0.0954 -1.1778
 1144SOL    HW215069   2.712   3.384   6.560  1.2644 -0.8842  1.5980
 1145SOL     OW15070   3.693   3.735  17.003  0.0778  0.0625 -0.7118
 1145SOL    HW115071   3.737   3.784  16.934 -2.1148 -0.1926 -2.3236
 1145SOL    HW215072   3.608   3.776  17.018  0.4423 -0.3590  2.3471
 1146SOL     OW15073   3.610   4.645   7.106 -0.2074  0.0961 -0.5319
 1146SOL    HW115074   3.559   4.649   7.187  0.8976  0.7592  0.1183
 1146SOL    HW215075   3.661   4.568   7.129  0.1226  0.7786  0.9752
 1147SOL     OW15076   3.930   0.737   7.984 -0.0904 -0.4555  0.2547
 1147SOL    HW115077   3.996   0.695   8.039 -0.5430  1.0247  1.9155
 1147SOL    HW215078   3.848   0.723   8.032 -0.3339 -1.4797 -0.4629
 1148SOL     OW15079   4.309   3.119   9.859  0.2499  0.3449 -0.2014
 1148SOL    HW115080   4.301   3.167   9.777  0.3620 -0.3288 -0.6008
 1148SOL    HW215081   4.217   3.098   9.877 -0.1308  1.5367 -0.7090
 1149SOL     OW15082   3.490   0.629   4.041  0.5996 -0.3031  0.1809
 1149SOL    HW115083   3.523   0.650   4.128  1.2444  1.0447 -0.3750
 1149SOL    HW215084   3.395   0.640   4.042  0.6978  0.5841 -0.5242
 1150SOL     OW15085   0.593   2.089   7.822 -0.4334 -0.0418 -0.3293
 1150SOL    HW115086   0.588   2.068   7.729 -3.7142  2.0681 -0.6397
 1150SOL    HW215087   0.592   1.998   7.853  0.6019 -0.2239 -0.8187
 1151SOL     OW15088   4.198   0.572   2.162  0.1248  0.1511  0.2835
 1151SOL    HW115089   4.227   0.552   2.251 -0.2559  0.0894  0.3934
 1151SOL    HW215090   4.106   0.591   2.180 -0.3001 -0.5672 -1.1639
 1152SOL     OW15091   1.370   2.295   6.884  0.5192 -0.2530  0.1026
 1152SOL    HW115092   1.312   2.369   6.869 -0.6854 -0.6919  2.5477
 1152SOL    HW215093   1.429   2.298   6.808 -1.6038 -0.6297 -1.5754
 1153SOL     OW15094   3.797   0.868   4.118 -0.4791  0.1592 -0.3895
 1153SOL    HW115095   3.795   0.777   4.149  1.0232  0.4838  0.6826
 1153SOL    HW215096   3.890   0.888   4.130  0.0832 -1.9654 -1.3151
 1154SOL     OW15097   3.851   2.951   2.975 -0.7077 -0.6489 -0.0772
 1154SOL    HW115098   3.918   3.017   2.993 -0.2242 -0.7689 -1.4304
 1154SOL    HW215099   3.803   2.984   2.900 -1.0778 -1.6892 -0.2874
 1155SOL     OW15100   2.777   3.177   4.967 -0.0022 -0.2348  0.4129
 1155SOL    HW115101   2.721   3.236   5.018  0.3495 -1.2228  1.9553
 1155SOL    HW215102   2.856   3.168   5.020 -0.5287 -3.1745  0.7357
 1156SOL     OW15103   1.133   3.027   2.546 -0.0564  0.0833 -0.0601
 1156SOL    HW115104   1.084   3.032   2.629 -0.8679  0.3971 -0.5504
 1156SOL    HW215105   1.190   3.104   2.552  1.0790 -0.6805 -1.3738
 1157SOL     OW15106   0.251   3.107   4.282 -0.3230  0.2139  0.3685
 1157SOL    HW115107   0.158   3.109   4.261 -0.0344  2.0837 -0.7927
 1157SOL    HW215108   0.243   3.053   4.361  1.4949 -1.4656 -0.6067
 1158SOL     OW15109   2.203   2.461   3.591 -0.2994 -0.0509 -0.0857
 1158SOL    HW115110   2.180   2.547   3.628  1.2341  1.7755 -3.4502
 1158SOL    HW215111   2.297   2.476   3.597 -0.4271  1.1979 -1.1822
 1159SOL     OW15112   0.054   4.176   3.829 -0.4497 -0.6768  0.0407
 1159SOL    HW115113   0.112   4.135   3.894 -0.2197 -0.1937  0.1387
 1159SOL    HW215114   0.004   4.106   3.787  0.3964 -1.1290 -0.2147
 1160SOL     OW15115   1.552   0.702   3.502 -0.0829 -0.0208 -0.6042
 1160SOL    HW115116   1.499   0.698   3.422  0.1481  0.9595 -0.8070
 1160SOL    HW215117   1.493   0.639   3.543  1.5253 -0.0094  1.7071
 1161SOL     OW15118   1.251   4.705   6.735 -0.0816 -0.0639  0.0659
 1161SOL    HW115119   1.247   4.631   6.675 -0.3150 -0.5461  0.6783
 1161SOL    HW215120   1.276   0.042   6.679 -0.3201  2.4061  3.1944
 1162SOL     OW15121   1.414   1.374   4.596  0.5936 -0.0885  0.5614
 1162SOL    HW115122   1.446   1.307   4.657  0.3361 -0.4838  0.2610
 1162SOL    HW215123   1.361   1.422   4.659 -0.4201 -0.8300  0.2776
 1163SOL     OW15124   4.609   1.593   5.483  0.8920 -0.4279  0.1641
 1163SOL    HW115125   4.611   1.576   5.389 -0.3911  0.2915  0.0022
 1163SOL    HW215126   4.658   1.675   5.489  0.4446 -0.2390  1.3220
 1164SOL     OW15127   1.722   1.967   0.246 -0.3131 -0.2250  0.5052
 1164SOL    HW115128   1.735   1.899   0.180  1.2153  1.3089 -0.7860
 1164SOL    HW215129   1.734   1.918   0.328 -1.6775 -1.3958 -0.0110
 1165SOL     OW15130   4.365   2.393   8.358 -0.0214  0.2179 -0.3780
 1165SOL    HW115131   4.279   2.434   8.355 -0.9078 -1.5534  0.9096
 1165SOL    HW215132   4.386   2.397   8.264  1.5052 -0.0750 -0.0469
 1166SOL     OW15133   1.892   1.259   7.852 -0.5095  0.2354  0.4435
 1166SOL    HW115134   1.802   1.226   7.856 -0.8995  1.0689 -1.8053
 1166SOL    HW215135   1.884   1.326   7.785  2.2219 -1.9349 -2.0468
 1167SOL     OW15136   4.285   1.478  15.124 -0.0832 -0.4899  0.1178
 1167SOL    HW115137   4.349   1.514  15.062  1.4989 -1.3810  1.2406
 1167SOL    HW215138   4.274   1.558  15.175  1.3459  0.2372 -0.7261
 1168SOL     OW15139   0.757   2.294  13.633  0.2597  0.2916  0.2350
 1168SOL    HW115140   0.699   2.223  13.659 -1.4677  2.1477  1.5013
 1168SOL    HW215141   0.720   2.322  13.550 -1.1794 -0.5362  0.6066
 1169SOL     OW15142   3.647   4.467   8.099  0.5003 -0.4097  0.1090
 1169SOL    HW115143   3.567   4.495   8.053  0.0963  1.1038  1.7311
 1169SOL    HW215144   3.644   4.529   8.172  4.2456 -0.3917  0.2566
 1170SOL     OW15145   2.752   3.319   3.112  0.2950 -0.2774  0.1612
 1170SOL    HW115146   2.776   3.325   3.019  1.9901  0.2464  0.6251
 1170SOL    HW215147   2.814   3.384   3.144  0.7239 -0.6062  0.0088
 1171SOL     OW15148   2.357   1.569   6.776  0.0734 -0.2464 -0.1059
 1171SOL    HW115149   2.340   1.621   6.698  0.7335  1.5504  0.9377
 1171SOL    HW215150   2.270   1.533   6.793  0.1031  0.1863  0.9457
 1172SOL     OW15151   1.383   3.719   1.545 -0.1829  0.1293 -0.0969
 1172SOL    HW115152   1.330   3.643   1.568 -0.6323  0.3285 -0.4638
 1172SOL    HW215153   1.461   3.709   1.599 -0.7012 -2.2926  0.1907
 1173SOL     OW15154   2.391   2.393   7.995  0.2694  0.2113 -0.4069
 1173SOL    HW115155   2.422   2.333   8.064  0.5147 -0.4347 -1.0810
 1173SOL    HW215156   2.442   2.474   7.999  1.7857 -0.7928  0.5341
 1174SOL     OW15157   2.278   1.968   5.547 -0.2143  0.1096  0.1416
 1174SOL    HW115158   2.194   1.992   5.588  0.5733  1.8866  0.7158
 1174SOL    HW215159   2.267   1.994   5.455  0.0037 -0.5340 -0.0644
 1175SOL     OW15160   0.934   4.344  14.923  0.0715  0.2172 -0.4600
 1175SOL    HW115161   0.979   4.394  14.990 -0.6797 -0.1617  0.3366
 1175SOL    HW215162   1.012   4.328  14.869 -0.3742 -1.9600 -0.4604
 1176SOL     OW15163   2.198   1.327   8.488  0.1336  0.0111 -0.2192
 1176SOL    HW115164   2.191   1.417   8.521 -0.0794 -0.5758  1.3553
 1176SOL    HW215165   2.284   1.311   8.450 -0.7926 -0.6114 -2.0274
 1177SOL     OW15166   0.962   1.900   2.931  0.0786  0.2678  0.0269
 1177SOL    HW115167   0.970   1.819   2.879  0.9185 -0.6028  1.5170
 1177SOL    HW215168   1.001   1.877   3.015 -1.9325  0.3975  0.9905
 1178SOL     OW15169   4.636   4.049   0.307  0.1714  0.0090 -0.2044
 1178SOL    HW115170   4.638   3.953   0.305 -0.8809 -0.0284  0.1871
 1178SOL    HW215171   4.601   4.066   0.394  0.8437  2.1300 -0.3568
 1179SOL     OW15172   2.620   4.086  11.594  0.2680 -0.3493  0.0817
 1179SOL    HW115173   2.706   4.113  11.561  1.0739 -1.4158  1.3153
 1179SOL    HW215174   2.631   4.025  11.667  0.0088 -1.3097 -0.6804
 1180SOL     OW15175   0.885   4.054   7.459  0.3463 -0.0263 -0.3370
 1180SOL    HW115176   0.949   4.008   7.404 -0.8104 -1.5408 -0.4062
 1180SOL    HW215177   0.803   4.009   7.442 -0.3523  1.8403 -1.9993
 1181SOL     OW15178   2.695   3.100   3.428  0.0535  0.1794 -0.0501
 1181SOL    HW115179   2.643   3.078   3.351  1.7013 -1.9882 -0.5488
 1181SOL    HW215180   2.665   3.041   3.498 -0.7942 -1.8940 -2.1688
 1182SOL     OW15181   1.859   2.678   7.932  0.0750  0.0681 -0.2431
 1182SOL    HW115182   1.775   2.718   7.958  0.6705  0.6650  0.7562
 1182SOL    HW215183   1.829   2.597   7.890 -1.5518  0.9285 -0.7630
 1183SOL     OW15184   1.232   1.752   3.119 -0.2608 -0.3135  0.0248
 1183SOL    HW115185   1.242   1.846   3.131 -1.8757  0.0640 -1.4606
 1183SOL    HW215186   1.142   1.740   3.149 -0.1790 -0.0442  0.3679
 1184SOL     OW15187   2.973   1.025   3.221 -0.8545 -0.4975  0.4442
 1184SOL    HW115188   2.981   1.119   3.210 -1.2149 -0.5920 -0.6193
 1184SOL    HW215189   2.964   1.019   3.317 -0.5008 -1.3499  0.4237
 1185SOL     OW15190   1.931   0.233   8.263  0.3921 -0.0128 -0.0833
 1185SOL    HW115191   1.978   0.310   8.232 -1.4633  1.4866  0.9071
 1185SOL    HW215192   1.983   0.204   8.338 -0.1632 -1.0947 -0.1148
 1186SOL     OW15193   4.736   3.755  17.636  0.3646 -0.1956 -0.0366
 1186SOL    HW115194   4.706   3.714  17.555 -1.1431 -0.7625  0.8102
 1186SOL    HW215195   0.060   3.825  17.612  1.1612 -0.9815 -0.3146
 1187SOL     OW15196   4.422   3.531   5.324 -0.2217 -0.0333  0.7638
 1187SOL    HW115197   4.427   3.456   5.384 -0.8431 -1.0659 -0.4744
 1187SOL    HW215198   4.332   3.533   5.292  0.1140 -3.4086 -0.3686
 1188SOL     OW15199   2.185   4.593  17.042  0.3911 -0.3152  0.5051
 1188SOL    HW115200   2.133   4.529  16.993  1.4820 -1.2660  0.5924
 1188SOL    HW215201   2.268   4.601  16.996  1.0648  1.4582  2.0120
 1189SOL     OW15202   1.024   3.968   3.511  0.0236  0.1748  0.1040
 1189SOL    HW115203   1.101   3.955   3.454 -0.7127  0.7847 -1.0379
 1189SOL    HW215204   0.957   3.976   3.443 -1.5816  0.2471  1.7044
 1190SOL     OW15205   0.727   2.449   4.370 -0.4335  0.5068  0.8193
 1190SOL    HW115206   0.774   2.475   4.290  2.8839 -0.9660  2.2925
 1190SOL    HW215207   0.787   2.379   4.396  1.5227  1.6207 -0.6538
 1191SOL     OW15208   4.523   2.264   6.477  0.4207 -0.3222 -0.1220
 1191SOL    HW115209   4.600   2.261   6.421  1.0613 -1.0205  0.7895
 1191SOL    HW215210   4.557   2.249   6.566 -0.4163 -2.8159 -0.2070
 1192SOL     OW15211   3.695   3.187  17.046  0.4862  0.3828  0.2955
 1192SOL    HW115212   3.654   3.190  17.133  0.9125  2.0529  0.4485
 1192SOL    HW215213   3.629   3.144  16.991  0.1408  0.7654  0.4088
 1193SOL     OW15214   0.144   1.538   7.117 -0.4402 -0.2198  0.4935
 1193SOL    HW115215   0.068   1.525   7.174  0.1849  0.0004  1.3940
 1193SOL    HW215216   0.106   1.554   7.031  0.0757  1.2719  0.5492
 1194SOL     OW15217   3.563   0.861  14.740  0.3640  0.1317 -1.1561
 1194SOL    HW115218   3.556   0.766  14.730  0.3348 -0.1833  1.8484
 1194SOL    HW215219   3.626   0.869  14.811  2.0367  0.8342 -2.7227
 1195SOL     OW15220   1.805   1.866   1.813  0.0930  0.3302 -0.6431
 1195SOL    HW115221   1.763   1.918   1.745 -2.3437 -1.1869 -0.3270
 1195SOL    HW215222   1.771   1.898   1.897  0.0309 -0.2231 -0.4571
 1196SOL     OW15223   4.549   0.468   6.109 -0.4431  0.4728  0.2192
 1196SOL    HW115224   4.568   0.386   6.064  1.0049  2.2154 -2.3956
 1196SOL    HW215225   4.458   0.491   6.089 -0.8327 -0.6992  0.7067
 1197SOL     OW15226   1.501   1.150   4.744  0.3452 -0.5331 -0.5016
 1197SOL    HW115227   1.530   1.176   4.831  0.3880 -2.0689 -0.0449
 1197SOL    HW215228   1.438   1.079   4.762  0.1695 -0.7723 -2.0369
 1198SOL     OW15229   0.282   4.087   4.860  0.1122 -0.0200 -0.2143
 1198SOL    HW115230   0.367   4.044   4.850  1.0497  1.4085  1.5410
 1198SOL    HW215231   0.293   4.176   4.826  0.4461  0.1542  0.3474
 1199SOL     OW15232   3.476   4.002  17.550 -0.6407 -0.1936 -0.4604
 1199SOL    HW115233   3.389   3.962  17.544  0.4407 -2.4573 -1.0598
 1199SOL    HW215234   3.467   4.095  17.572  1.2978  0.0987 -0.9340
 1200SOL     OW15235   3.810   2.593   2.050 -0.1429 -0.1782 -0.2988
 1200SOL    HW115236   3.873   2.624   1.985 -1.0469  2.7921  0.2459
 1200SOL    HW215237   3.762   2.525   2.002  0.2615  0.2210 -1.2726
 1201SOL     OW15238   0.599   3.186  11.206  0.1495  0.0937 -0.1832
 1201SOL    HW115239   0.660   3.200  11.279 -1.7198 -0.5144  1.4750
 1201SOL    HW215240   0.641   3.253  11.151  0.2797  1.3178  1.3946
 1202SOL     OW15241   4.526   0.366   2.869  0.0652  0.1139  0.1921
 1202SOL    HW115242   4.501   0.323   2.950  1.8603 -2.0215 -0.3929
 1202SOL    HW215243   4.612   0.330   2.845  0.4218  0.8308  0.3655
 1203SOL     OW15244   4.585   3.930   6.264  0.1883 -0.1366 -0.1628
 1203SOL    HW115245   4.542   3.958   6.183  1.7745  0.4799 -0.7833
 1203SOL    HW215246   4.636   3.853   6.239  0.1466 -0.4768  0.8028
 1204SOL     OW15247   2.473   3.280  17.069 -0.6535 -0.2524 -0.3906
 1204SOL    HW115248   2.553   3.310  17.026  0.6194  1.1759  2.9482
 1204SOL    HW215249   2.483   3.185  17.062 -0.0068 -0.2624  0.6193
 1205SOL     OW15250   0.864   2.382   9.042 -0.2802 -0.3554  0.0046
 1205SOL    HW115251   0.800   2.338   8.987 -0.1019 -1.7425  0.8964
 1205SOL    HW215252   0.886   2.443   8.972 -0.0829 -1.7220 -1.1162
 1206SOL     OW15253   2.184   4.054   6.992 -0.2043  0.0199 -0.4652
 1206SOL    HW115254   2.125   4.088   6.925 -1.5055  0.8105  1.0697
 1206SOL    HW215255   2.185   3.960   6.975 -1.3153  0.0534 -0.7672
 1207SOL     OW15256   0.816   0.720   1.005  0.4345 -0.3307 -0.0725
 1207SOL    HW115257   0.732   0.742   1.044  0.2493 -0.4870 -0.3826
 1207SOL    HW215258   0.878   0.768   1.060 -0.0033 -1.4928  1.3915
 1208SOL     OW15259   3.114   1.425   2.938 -0.1519 -0.0593 -0.0155
 1208SOL    HW115260   3.208   1.443   2.933 -0.5043  1.0277 -2.9900
 1208SOL    HW215261   3.098   1.384   2.853 -1.1404  0.1144  0.0899
 1209SOL     OW15262   1.039   0.761  12.462 -0.4883 -0.7747  0.5783
 1209SOL    HW115263   1.023   0.792  12.552  0.3518 -2.9811  1.5015
 1209SOL    HW215264   1.076   0.840  12.424 -3.7059 -0.3173 -1.5682
 1210SOL     OW15265   1.032   3.100   8.073 -0.1253 -1.0287  0.5011
 1210SOL    HW115266   1.069   3.075   8.157 -0.7084  2.0767  1.6737
 1210SOL    HW215267   0.970   3.172   8.085  0.7158 -0.4110  1.1308
 1211SOL     OW15268   1.345   1.977   2.026  0.0662  0.2930  0.0287
 1211SOL    HW115269   1.280   1.912   1.996 -0.3529  0.2017  1.1210
 1211SOL    HW215270   1.421   1.971   1.968 -0.3315  0.1331 -0.4782
 1212SOL     OW15271   0.012   3.667  17.000 -0.0293  0.0568  0.0300
 1212SOL    HW115272   0.069   3.606  16.952 -0.5641  0.4519 -1.0943
 1212SOL    HW215273   4.663   3.635  16.971  0.0895  0.4864 -0.7842
 1213SOL     OW15274   2.844   4.153  11.010  0.5585  0.8916  0.1956
 1213SOL    HW115275   2.822   4.060  11.013 -0.5546  1.1813  0.7646
 1213SOL    HW215276   2.773   4.195  11.059 -1.4595 -0.4720 -1.6118
 1214SOL     OW15277   2.424   2.775   8.134  0.4539  0.2681 -0.4338
 1214SOL    HW115278   2.474   2.707   8.089 -0.0586 -0.1436 -0.3929
 1214SOL    HW215279   2.483   2.816   8.197  1.1071 -1.0109 -0.2084
 1215SOL     OW15280   0.358   2.310   8.609 -0.6343  0.3029  0.3959
 1215SOL    HW115281   0.378   2.396   8.574  0.1299  0.2369  0.6679
 1215SOL    HW215282   0.266   2.301   8.582 -0.7348 -0.7376  1.0536
 1216SOL     OW15283   3.308   3.871   4.455 -0.0282 -0.1954 -0.0166
 1216SOL    HW115284   3.257   3.850   4.533  1.8956 -0.5156  1.1569
 1216SOL    HW215285   3.257   3.818   4.393  1.1572  0.3093 -1.4251
 1217SOL     OW15286   1.151   2.294   5.913  0.2328  0.0155  0.1641
 1217SOL    HW115287   1.076   2.251   5.872 -1.9077  2.4301  1.5353
 1217SOL    HW215288   1.190   2.224   5.965  0.4996  0.0791  0.0503
 1218SOL     OW15289   1.077   2.889  15.920  0.7794  0.2899 -0.5490
 1218SOL    HW115290   1.045   2.903  15.831 -0.1570 -0.5799 -0.3457
 1218SOL    HW215291   1.122   2.970  15.944  1.0933  0.6699 -2.4159
 1219SOL     OW15292   3.162   2.508   5.171  0.1353  0.0457  0.5626
 1219SOL    HW115293   3.208   2.425   5.181  0.7277  0.2927 -0.1059
 1219SOL    HW215294   3.069   2.486   5.176 -0.3915  1.8294 -1.1405
 1220SOL     OW15295   1.904   1.464   8.934 -0.1679  0.6542  0.2903
 1220SOL    HW115296   1.922   1.489   8.843  0.3323 -1.0205 -0.0745
 1220SOL    HW215297   1.972   1.520   8.970  0.0459  2.0061 -2.1798
 1221SOL     OW15298   2.081   3.994   1.350 -0.1169 -0.0568 -0.0928
 1221SOL    HW115299   2.038   4.047   1.416  0.2120  0.3057 -0.1709
 1221SOL    HW215300   2.008   3.933   1.335  0.0688  0.0036 -1.2738
 1222SOL     OW15301   0.181   3.506  10.807  0.2325  0.4686 -0.1183
 1222SOL    HW115302   0.277   3.503  10.798  0.2562 -1.6089  0.9285
 1222SOL    HW215303   0.189   3.508  10.902 -0.4939  0.4301 -0.0595
 1223SOL     OW15304   4.516   0.970   5.829 -0.1174 -0.1603 -0.4920
 1223SOL    HW115305   4.486   0.911   5.760  0.9933  0.3507 -1.4225
 1223SOL    HW215306   4.592   0.925   5.867 -0.6103  0.3792  1.1258
 1224SOL     OW15307   0.177   4.522  10.504 -0.2405  0.0921  0.2892
 1224SOL    HW115308   0.218   4.474  10.575  0.7275 -1.2707 -1.1981
 1224SOL    HW215309   0.153   4.609  10.538  1.4296  0.4132  0.6061
 1225SOL     OW15310   4.284   4.600   5.589  0.3466  0.1299  0.0576
 1225SOL    HW115311   4.219   4.641   5.532  0.5439 -1.7636 -1.5199
 1225SOL    HW215312   4.295   4.522   5.536 -0.3685 -1.1820  1.8206
 1226SOL     OW15313   3.364   0.320   3.791 -0.0310 -0.2404  0.4132
 1226SOL    HW115314   3.307   0.244   3.777 -0.5753  0.0793  0.9137
 1226SOL    HW215315   3.304   0.366   3.849  0.7171 -1.0155  1.7977
 1227SOL     OW15316   1.429   4.012  11.771  0.0676 -0.3056  0.5161
 1227SOL    HW115317   1.483   4.049  11.841 -0.1459 -0.2218  0.6369
 1227SOL    HW215318   1.499   3.999  11.707  0.1844 -0.5034  0.6809
 1228SOL     OW15319   0.823   2.712   7.745  0.0475 -0.5935 -0.0146
 1228SOL    HW115320   0.845   2.785   7.802 -0.3144  0.2855 -0.9955
 1228SOL    HW215321   0.830   2.636   7.803 -1.7911 -0.2738  0.6091
 1229SOL     OW15322   2.494   3.033   6.725  0.0269 -0.1661  0.1457
 1229SOL    HW115323   2.410   2.988   6.738  0.3359 -0.6381  0.4935
 1229SOL    HW215324   2.466   3.124   6.726 -0.1147 -0.1879 -1.3631
 1230SOL     OW15325   1.841   2.718   9.031  0.1160 -0.6364  0.4527
 1230SOL    HW115326   1.919   2.749   8.985 -1.1829  2.3808  0.2392
 1230SOL    HW215327   1.854   2.774   9.108  0.6843 -0.3313  0.1387
 1231SOL     OW15328   0.259   3.531  11.063 -0.2503 -0.3649  0.0526
 1231SOL    HW115329   0.307   3.488  11.134  1.3216  1.3342  0.0149
 1231SOL    HW215330   0.260   3.620  11.099  2.7157  0.4219 -1.9661
 1232SOL     OW15331   0.648   3.535  16.119 -0.0613  0.2053 -0.1193
 1232SOL    HW115332   0.590   3.608  16.141  1.1801  0.8024  1.1893
 1232SOL    HW215333   0.625   3.462  16.176  0.7700  0.9079  1.1109
 1233SOL     OW15334   1.801   2.069  16.637 -0.2571  0.0217 -0.2648
 1233SOL    HW115335   1.750   1.989  16.625  1.0274 -0.2537 -3.8258
 1233SOL    HW215336   1.788   2.101  16.548  0.8952 -0.2675 -0.5332
 1234SOL     OW15337   3.801   0.611   5.613  0.1744  0.6709 -0.1323
 1234SOL    HW115338   3.784   0.702   5.587  3.6318  1.2023 -0.4831
 1234SOL    HW215339   3.726   0.567   5.572  0.0911  1.1873 -0.5336
 1235SOL     OW15340   2.960   2.265  10.216  0.1330 -0.0358  0.2499
 1235SOL    HW115341   2.899   2.319  10.266  2.6569  3.3600 -0.2912
 1235SOL    HW215342   3.025   2.332  10.194 -2.4782  1.4804 -2.9601
 1236SOL     OW15343   4.215   0.183   4.855 -0.5483 -0.3404  0.2951
 1236SOL    HW115344   4.199   0.179   4.761  0.3498  0.8130  0.0931
 1236SOL    HW215345   4.177   0.098   4.876 -1.0931  0.2298  1.6739
 1237SOL     OW15346   2.284   4.282   6.517  0.5255 -0.4048 -0.6498
 1237SOL    HW115347   2.294   4.357   6.459 -3.7268  1.3097  0.8778
 1237SOL    HW215348   2.256   4.219   6.451  0.0964 -2.5618  1.5718
 1238SOL     OW15349   1.906   1.949   7.756  0.1466  0.4369  0.4799
 1238SOL    HW115350   1.940   1.906   7.834  2.5084 -0.9783 -1.3172
 1238SOL    HW215351   1.960   2.027   7.749 -0.1248  0.5751 -0.1031
 1239SOL     OW15352   4.037   1.688  14.222  0.0919  0.6074  0.1351
 1239SOL    HW115353   3.953   1.729  14.200 -0.0825 -0.1573 -0.6165
 1239SOL    HW215354   4.039   1.720  14.313  2.0745 -2.6843  1.2534
 1240SOL     OW15355   1.891   1.632   8.700 -0.0702  0.1390  0.5739
 1240SOL    HW115356   1.902   1.571   8.626 -0.0808  0.2408  0.4892
 1240SOL    HW215357   1.914   1.713   8.655 -0.4345 -0.7884 -1.2821
 1241SOL     OW15358   1.643   0.108   6.478  0.0340 -0.0025  0.7604
 1241SOL    HW115359   1.621   0.143   6.391 -1.0624 -0.5960  0.7974
 1241SOL    HW215360   1.555   0.104   6.515 -0.8981  2.9692 -1.1079
 1242SOL     OW15361   0.523   2.188   2.850  0.4688  0.6995 -0.0943
 1242SOL    HW115362   0.586   2.116   2.853  1.0404  1.2669  1.3953
 1242SOL    HW215363   0.563   2.254   2.907 -1.4791  0.4820  1.5170
 1243SOL     OW15364   0.975   0.499   9.774 -0.0169 -0.2680  0.3386
 1243SOL    HW115365   1.036   0.565   9.807  0.1703  0.3076 -1.1525
 1243SOL    HW215366   1.000   0.426   9.829  1.5376 -0.5695 -0.7639
 1244SOL     OW15367   1.152   2.779  12.078  0.8000 -0.4038  0.0534
 1244SOL    HW115368   1.127   2.862  12.120 -0.0955 -1.6888  2.1059
 1244SOL    HW215369   1.179   2.803  11.990  0.8465  2.6625  0.9068
 1245SOL     OW15370   4.695   1.707   2.304  0.1037 -0.0971  0.0807
 1245SOL    HW115371   0.025   1.640   2.321 -0.6064 -1.1428 -1.1542
 1245SOL    HW215372   4.720   1.768   2.373  1.2599 -2.3231  1.6478
 1246SOL     OW15373   1.084   3.493  17.467 -0.1583 -0.4362  0.4770
 1246SOL    HW115374   1.135   3.569  17.494  0.7758 -1.5516  1.8774
 1246SOL    HW215375   1.098   3.433  17.541  2.0599 -0.2798  0.1947
 1247SOL     OW15376   2.781   0.511  10.493 -0.0464 -1.1069 -0.0966
 1247SOL    HW115377   2.835   0.433  10.506  1.3514  0.0081  0.7814
 1247SOL    HW215378   2.800   0.559  10.573  1.8136  0.6115 -1.5704
 1248SOL     OW15379   0.343   3.434   0.342 -0.0955  1.0384 -0.0389
 1248SOL    HW115380   0.283   3.378   0.293 -1.2109  0.5486  1.8616
 1248SOL    HW215381   0.299   3.464   0.422 -1.2426  0.5936 -0.4965
 1249SOL     OW15382   1.948   3.386   3.076 -0.3101  0.0876 -0.2765
 1249SOL    HW115383   1.874   3.350   3.125 -0.0549 -0.7850 -0.5368
 1249SOL    HW215384   1.992   3.307   3.045  1.1797  0.3719  1.1229
 1250SOL     OW15385   4.404   1.487   5.678 -0.8459 -0.6532 -0.1511
 1250SOL    HW115386   4.465   1.421   5.710  0.9867  1.3400  0.4935
 1250SOL    HW215387   4.459   1.519   5.607 -0.9954  0.4545  0.2371
 1251SOL     OW15388   2.586   0.436   6.962  0.4902 -0.8366 -0.5471
 1251SOL    HW115389   2.655   0.479   7.012 -0.9868  1.7534 -0.7471
 1251SOL    HW215390   2.617   0.445   6.872 -2.4383 -0.2855 -1.5100
 1252SOL     OW15391   0.463   2.432   9.741  0.0028  0.3089 -0.0982
 1252SOL    HW115392   0.412   2.361   9.781  2.5514 -1.8083 -0.5640
 1252SOL    HW215393   0.403   2.470   9.677 -0.9101  0.0776  0.6214
 1253SOL     OW15394   0.878   2.429   4.143 -0.1478 -0.4009  0.1084
 1253SOL    HW115395   0.882   2.499   4.078  0.8392 -0.0062  0.5943
 1253SOL    HW215396   0.969   2.400   4.151  0.9064  2.4726 -1.7204
 1254SOL     OW15397   0.990   4.622  13.857  0.2232 -0.6466 -0.0802
 1254SOL    HW115398   1.062   4.686  13.861  0.5051 -1.0821  1.5175
 1254SOL    HW215399   0.933   4.666  13.794  1.8062  2.0333  0.3631
 1255SOL     OW15400   3.268   2.061   6.836  0.5084  0.4065  0.6112
 1255SOL    HW115401   3.191   2.005   6.823  0.7613  0.1319  0.2969
 1255SOL    HW215402   3.308   2.015   6.909  1.6047  0.1473 -0.1536
 1256SOL     OW15403   1.672   2.182   3.393 -0.1578  0.3156  0.6533
 1256SOL    HW115404   1.731   2.172   3.317 -1.7941 -1.0733 -0.4145
 1256SOL    HW215405   1.731   2.212   3.462 -0.3665  0.0093  0.9620
 1257SOL     OW15406   2.644   0.869   7.690 -0.4166 -0.1170  0.8502
 1257SOL    HW115407   2.594   0.907   7.617  2.6795 -1.8016 -2.1831
 1257SOL    HW215408   2.579   0.863   7.759  1.6551 -1.1906  2.7221
 1258SOL     OW15409   1.825   0.827  16.062  0.1244 -0.7618 -0.4648
 1258SOL    HW115410   1.838   0.914  16.024 -0.0539 -2.1441 -3.7417
 1258SOL    HW215411   1.738   0.802  16.028  0.0906  1.1870 -1.8321
 1259SOL     OW15412   0.896   2.032  11.237 -0.8943  0.7073 -0.4606
 1259SOL    HW115413   0.969   2.000  11.291  0.1887  1.8104 -1.2865
 1259SOL    HW215414   0.910   1.991  11.152 -0.2373 -1.1527  0.5457
 1260SOL     OW15415   1.528   0.674   4.499  0.4239 -0.3913 -0.5821
 1260SOL    HW115416   1.577   0.593   4.492  2.6635  0.8522  0.5870
 1260SOL    HW215417   1.496   0.691   4.410 -0.0349  2.4616  0.1330
 1261SOL     OW15418   3.803   1.711   8.044  0.2326  0.3722  0.5796
 1261SOL    HW115419   3.710   1.707   8.021  0.0856 -3.6902  1.7980
 1261SOL    HW215420   3.843   1.630   8.013 -0.5324  0.6650 -1.1669
 1262SOL     OW15421   2.408   0.196   4.800  0.1276 -0.3682  0.0877
 1262SOL    HW115422   2.503   0.197   4.815  0.2252  1.5434 -0.5872
 1262SOL    HW215423   2.392   0.103   4.813  0.8497 -0.6418 -1.0446
 1263SOL     OW15424   3.006   1.471  13.384 -0.5522  0.3269 -0.1790
 1263SOL    HW115425   3.013   1.560  13.349  3.2213  0.4195  0.7794
 1263SOL    HW215426   2.957   1.421  13.319  0.3754  1.9836 -2.1560
 1264SOL     OW15427   2.636   0.001   0.698 -0.0965  0.4015  0.6854
 1264SOL    HW115428   2.687   0.082   0.690 -1.2718  1.2198  1.3870
 1264SOL    HW215429   2.553   0.040   0.726 -0.1378 -0.3012  1.5307
 1265SOL     OW15430   1.438   1.880  11.765 -0.1378  0.4465 -0.4512
 1265SOL    HW115431   1.346   1.904  11.764 -0.5962 -1.2602  0.6373
 1265SOL    HW215432   1.482   1.953  11.721  1.1044  0.1663  0.3112
 1266SOL     OW15433   2.814   1.451   6.027  0.2134  0.2590  0.4522
 1266SOL    HW115434   2.828   1.365   6.065  0.4469  0.1981  0.2322
 1266SOL    HW215435   2.738   1.478   6.078 -0.8415 -0.7080 -0.5754
 1267SOL     OW15436   3.343   1.697   2.338 -0.4079  0.3227  0.1324
 1267SOL    HW115437   3.308   1.630   2.280  0.2315  0.5443 -0.5050
 1267SOL    HW215438   3.378   1.755   2.270 -1.0915 -0.4598 -0.8860
 1268SOL     OW15439   1.446   4.367   6.773  0.6111 -0.5780  0.5663
 1268SOL    HW115440   1.506   4.343   6.843  1.4686 -1.3655 -0.4390
 1268SOL    HW215441   1.370   4.396   6.823  0.7341  0.2996  0.2562
 1269SOL     OW15442   0.498   1.411   9.180  0.0352  0.6491 -0.3579
 1269SOL    HW115443   0.556   1.487   9.172  0.1611  0.7142  1.1669
 1269SOL    HW215444   0.489   1.393   9.087 -0.3651  2.3181 -0.6561
 1270SOL     OW15445   0.089   0.983   5.360 -0.0450 -0.4297  0.2846
 1270SOL    HW115446   0.138   0.953   5.284  0.3384  1.7417 -0.3152
 1270SOL    HW215447   0.154   0.992   5.429  1.0818  0.9025 -0.9356
 1271SOL     OW15448   2.120   1.600   8.110  0.7070 -0.0944 -0.0699
 1271SOL    HW115449   2.137   1.676   8.165 -1.4318  1.3109 -1.3395
 1271SOL    HW215450   2.112   1.538   8.182  1.4434 -0.9310 -0.7167
 1272SOL     OW15451   3.615   2.919   0.672 -0.8496 -0.6257  0.1312
 1272SOL    HW115452   3.680   2.990   0.669 -0.0875 -1.4004 -1.7424
 1272SOL    HW215453   3.640   2.865   0.597 -0.9650  0.8060 -0.9359
 1273SOL     OW15454   0.538   0.029   4.632  0.2910  0.3131 -0.2988
 1273SOL    HW115455   0.540   4.731   4.543 -0.0611  0.7924 -0.4871
 1273SOL    HW215456   0.612   4.714   4.666  1.1371  1.6329 -0.1486
 1274SOL     OW15457   1.913   0.327   8.694 -0.4994 -0.7618  0.7600
 1274SOL    HW115458   1.868   0.308   8.612  0.4153 -0.5520  0.2110
 1274SOL    HW215459   1.996   0.365   8.667 -1.3415  0.6928  0.2012
 1275SOL     OW15460   1.955   0.981   5.459  0.1314  0.1866 -0.0936
 1275SOL    HW115461   1.962   1.055   5.398 -1.5546  0.8864  0.5568
 1275SOL    HW215462   2.047   0.956   5.460 -0.5088 -2.2574 -1.6097
 1276SOL     OW15463   2.404   0.832   9.466  0.3054 -0.0562 -0.3010
 1276SOL    HW115464   2.415   0.752   9.415  0.4207  0.2392 -0.7428
 1276SOL    HW215465   2.362   0.801   9.546  0.9672 -1.0091 -0.3192
 1277SOL     OW15466   0.943   4.554   5.935  0.1484  0.2331  1.0097
 1277SOL    HW115467   1.000   4.482   5.964  0.3303 -1.4368 -3.5697
 1277SOL    HW215468   0.864   4.503   5.954  0.0868  0.0695  0.2862
 1278SOL     OW15469   3.302   4.191   5.155  0.0562  0.1495 -0.7690
 1278SOL    HW115470   3.302   4.284   5.134 -1.3694  0.1645 -0.6553
 1278SOL    HW215471   3.208   4.172   5.156 -0.3807  2.4905  0.9018
 1279SOL     OW15472   2.955   0.047   2.859 -0.2390 -0.4537 -0.1001
 1279SOL    HW115473   2.875   0.084   2.822  1.5621  1.2457 -2.3365
 1279SOL    HW215474   2.965   4.704   2.809  2.0173 -0.1236 -0.1816
 1280SOL     OW15475   1.306   2.454  13.277 -0.1763  0.3007 -0.0831
 1280SOL    HW115476   1.352   2.388  13.329 -1.4612 -1.4534 -1.1707
 1280SOL    HW215477   1.337   2.523  13.335  0.8387 -1.3091  1.2837
 1281SOL     OW15478   2.209   3.955   2.013  0.2882 -0.2942  0.2896
 1281SOL    HW115479   2.211   4.036   1.961 -1.5697 -0.0666  0.5447
 1281SOL    HW215480   2.179   3.977   2.102  0.6816  0.9264  0.1210
 1282SOL     OW15481   3.372   3.236   5.069  0.1559  0.0351  0.2528
 1282SOL    HW115482   3.417   3.284   4.999 -0.7652  0.2966 -0.1567
 1282SOL    HW215483   3.443   3.183   5.106  1.0803  0.8408 -0.3579
 1283SOL     OW15484   0.656   2.299  16.912  0.0233 -0.6138 -0.8991
 1283SOL    HW115485   0.729   2.358  16.933 -1.1219  0.5394 -0.1625
 1283SOL    HW215486   0.667   2.230  16.977  0.8783 -1.1443 -1.6040
 1284SOL     OW15487   3.019   3.496   3.692 -0.0890  0.0175 -0.0806
 1284SOL    HW115488   3.100   3.489   3.744 -0.7315  1.7000  1.1562
 1284SOL    HW215489   2.991   3.406   3.675  0.7149  0.2885 -2.8634
 1285SOL     OW15490   3.736   2.436  16.938 -0.2197 -0.4499  0.5597
 1285SOL    HW115491   3.762   2.508  16.881 -2.7825  1.7905  2.2053
 1285SOL    HW215492   3.793   2.450  17.014  2.5724  0.6981 -1.7813
 1286SOL     OW15493   0.069   1.055  13.299  0.4091 -0.1432  0.2758
 1286SOL    HW115494   0.008   0.995  13.342 -0.3761  0.3714 -0.1303
 1286SOL    HW215495   0.020   1.072  13.220 -2.2175 -1.3056  1.6727
 1287SOL     OW15496   2.472   3.255   8.774 -0.0196 -0.1228 -0.5838
 1287SOL    HW115497   2.448   3.264   8.681  0.0062  1.1166 -0.4730
 1287SOL    HW215498   2.455   3.338   8.818 -1.3504 -0.2835 -0.7976
 1288SOL     OW15499   3.594   3.656  15.223  0.6709  0.5189  0.2652
 1288SOL    HW115500   3.515   3.660  15.170  0.8390 -2.0801 -0.1917
 1288SOL    HW215501   3.558   3.634  15.309 -1.5286 -1.0136 -1.0570
 1289SOL     OW15502   4.128   3.320  10.337  0.0607  0.1798 -0.3327
 1289SOL    HW115503   4.109   3.251  10.399 -4.4713  2.6536  0.9822
 1289SOL    HW215504   4.095   3.402  10.374 -1.5315  0.2029 -1.7940
 1290SOL     OW15505   0.135   2.704   5.670 -0.2778 -0.5135 -0.4281
 1290SOL    HW115506   0.189   2.631   5.639  1.3503  0.2739  0.5778
 1290SOL    HW215507   0.112   2.749   5.589  1.1957 -0.5346 -0.8666
 1291SOL     OW15508   2.264   3.609  11.593  0.5044  0.2142  0.5523
 1291SOL    HW115509   2.178   3.592  11.555  1.2452 -1.9909 -0.0904
 1291SOL    HW215510   2.236   3.604  11.684 -0.6806  1.4788  0.2608
 1292SOL     OW15511   4.523   0.093   7.811  0.0439 -0.7963  0.0079
 1292SOL    HW115512   4.550   0.005   7.834  1.3205 -0.1570  0.9276
 1292SOL    HW215513   4.500   0.083   7.718  1.3427 -1.3948 -0.2558
 1293SOL     OW15514   3.813   4.052   6.826 -0.5576  0.2261 -0.2656
 1293SOL    HW115515   3.908   4.053   6.835 -0.3744  1.9051 -2.4940
 1293SOL    HW215516   3.784   3.991   6.894 -1.5219  0.7830 -0.1780
 1294SOL     OW15517   2.172   0.419  15.625 -0.5956  0.0275  0.3877
 1294SOL    HW115518   2.150   0.387  15.537  0.9607 -1.0618  0.4055
 1294SOL    HW215519   2.133   0.346  15.673 -1.2787 -0.1826 -0.4834
 1295SOL     OW15520   1.828   2.841   3.454 -0.3573 -0.3700  0.0224
 1295SOL    HW115521   1.910   2.792   3.460 -0.8846 -1.3491 -0.7715
 1295SOL    HW215522   1.852   2.906   3.387  0.0827  0.0886  0.6223
 1296SOL     OW15523   3.688   0.513  12.486  0.0818 -0.1762  0.1031
 1296SOL    HW115524   3.776   0.529  12.450  0.6881  1.4959  2.3528
 1296SOL    HW215525   3.663   0.600  12.517 -0.1801 -1.4208  3.4434
 1297SOL     OW15526   0.110   1.781  13.250  0.6564 -0.0187 -0.1831
 1297SOL    HW115527   0.179   1.818  13.306  2.4192 -0.4627 -2.0613
 1297SOL    HW215528   0.055   1.858  13.238 -0.4872 -0.6478  1.0381
 1298SOL     OW15529   0.729   3.572   1.456 -0.4514 -0.3041  0.8331
 1298SOL    HW115530   0.815   3.609   1.440  1.0347 -4.4013 -0.8419
 1298SOL    HW215531   0.718   3.624   1.535  0.9435 -1.2775  1.6677
 1299SOL     OW15532   0.286   0.288   5.944  0.3273 -0.3395 -0.5517
 1299SOL    HW115533   0.220   0.225   5.973  0.5320 -0.4400 -0.3008
 1299SOL    HW215534   0.228   0.336   5.886 -0.2671  0.2732  0.5543
 1300SOL     OW15535   1.744   1.849   0.479  0.0529  0.6427  0.1208
 1300SOL    HW115536   1.792   1.802   0.547 -1.1071  1.4989  1.5490
 1300SOL    HW215537   1.670   1.874   0.535 -0.3288 -1.5772  0.6062
 1301SOL     OW15538   1.960   4.459   8.523  0.3229 -0.0047  0.6487
 1301SOL    HW115539   2.007   4.414   8.593  1.9575  0.8137  0.0734
 1301SOL    HW215540   1.889   4.503   8.570 -0.6191 -0.2456 -0.5611
 1302SOL     OW15541   0.875   3.938   3.817  0.1003 -0.3521  0.2492
 1302SOL    HW115542   0.926   4.018   3.832 -0.6847 -0.1699  1.9928
 1302SOL    HW215543   0.946   3.876   3.832  0.0538 -0.2522  0.9037
 1303SOL     OW15544   2.073   2.680  14.846 -0.4744 -0.2181  0.3808
 1303SOL    HW115545   2.087   2.617  14.917  0.9382 -0.2706  0.0625
 1303SOL    HW215546   2.159   2.715  14.823  0.4332 -1.6685  1.6130
 1304SOL     OW15547   0.013   4.272   8.052 -0.4124 -0.5336 -0.4672
 1304SOL    HW115548   0.099   4.264   8.009 -1.3927  1.5219 -2.8017
 1304SOL    HW215549   4.733   4.180   8.072  0.6170 -0.5767  0.1926
 1305SOL     OW15550   0.220   0.651   5.415  0.3258  0.0320  0.5950
 1305SOL    HW115551   0.133   0.684   5.393 -0.2171 -1.6693  0.2006
 1305SOL    HW215552   0.250   0.727   5.466 -2.6907 -0.5841  3.2179
 1306SOL     OW15553   3.019   1.096   2.177 -0.3677 -0.2472  0.5829
 1306SOL    HW115554   2.992   1.188   2.189 -0.4550  0.0351 -1.8011
 1306SOL    HW215555   3.060   1.083   2.263  0.9385  1.5362  0.2224
 1307SOL     OW15556   2.293   4.445  16.447 -0.5912 -0.4711 -0.1904
 1307SOL    HW115557   2.212   4.489  16.422 -1.0365 -1.1965 -0.0202
 1307SOL    HW215558   2.348   4.520  16.471  0.6980 -1.8441  1.1637
 1308SOL     OW15559   0.955   4.642   5.198  0.8490  0.0666  0.1644
 1308SOL    HW115560   0.916   4.641   5.110 -0.3126 -1.0569  0.6859
 1308SOL    HW215561   0.904   4.713   5.237  2.2237 -0.1918  2.4297
 1309SOL     OW15562   2.841   0.282   3.540  0.5890 -0.5250 -0.0756
 1309SOL    HW115563   2.838   0.364   3.590  0.2904 -1.6115  1.6971
 1309SOL    HW215564   2.748   0.276   3.517 -0.7388  1.0083  4.8759
 1310SOL     OW15565   4.312   0.272  14.871  0.7963 -0.4791  0.3479
 1310SOL    HW115566   4.370   0.207  14.911 -1.7485 -2.5973  0.5436
 1310SOL    HW215567   4.345   0.276  14.781 -2.1769 -1.0904 -0.7453
 1311SOL     OW15568   3.175   0.177   8.353 -0.1971  0.4524 -0.3676
 1311SOL    HW115569   3.266   0.160   8.329 -0.2341  0.9689 -0.8743
 1311SOL    HW215570   3.134   0.108   8.301 -2.4032  1.2577  0.2975
 1312SOL     OW15571   3.698   4.225   7.769 -0.6302 -0.1053 -0.7965
 1312SOL    HW115572   3.739   4.140   7.754  2.6827  1.0058  1.8814
 1312SOL    HW215573   3.733   4.249   7.854 -1.0395 -3.0038  0.1781
 1313SOL     OW15574   1.833   0.468  14.787 -0.0911 -0.2156  0.1366
 1313SOL    HW115575   1.804   0.555  14.759  0.0328 -0.0796  0.4282
 1313SOL    HW215576   1.927   0.479  14.769 -0.1770  0.2732 -0.0162
 1314SOL     OW15577   1.504   4.341   1.484 -0.2093 -0.6119 -0.5350
 1314SOL    HW115578   1.470   4.254   1.465 -0.3715 -0.7495  0.3737
 1314SOL    HW215579   1.516   4.328   1.578 -2.3835 -0.0573 -0.1815
 1315SOL     OW15580   0.366   4.287   2.709  0.3353 -0.5384 -0.3028
 1315SOL    HW115581   0.402   4.321   2.627  2.4026 -2.2951 -0.1423
 1315SOL    HW215582   0.271   4.283   2.700  0.3339 -0.9275 -0.1195
 1316SOL     OW15583   0.256   1.076   2.534 -0.0942 -0.1199 -0.0674
 1316SOL    HW115584   0.199   1.117   2.599  1.1878 -0.0897  1.0202
 1316SOL    HW215585   0.205   0.999   2.507  1.6902 -0.7287 -1.7009
 1317SOL     OW15586   0.503   4.318  16.717  0.9180  0.1217 -0.0287
 1317SOL    HW115587   0.447   4.346  16.646  1.6692  4.2414  1.0185
 1317SOL    HW215588   0.574   4.382  16.712  0.9476  0.1441  0.6022
 1318SOL     OW15589   3.710   2.863   5.438  0.3496  0.4000 -0.4944
 1318SOL    HW115590   3.677   2.800   5.375  0.6875 -1.7040  1.4426
 1318SOL    HW215591   3.803   2.881   5.420  0.8894 -0.4958  1.3988
 1319SOL     OW15592   1.929   0.924   6.780  0.1692 -0.2371  0.1670
 1319SOL    HW115593   1.916   0.856   6.846  1.5901 -0.4552  0.2300
 1319SOL    HW215594   2.023   0.941   6.774  0.2457 -0.6391  0.2099
 1320SOL     OW15595   2.959   1.642   6.512  0.1820 -0.3686 -0.7036
 1320SOL    HW115596   2.903   1.695   6.568  0.7757 -1.6723  1.1377
 1320SOL    HW215597   3.042   1.675   6.546  0.0674  0.7847 -1.5416
 1321SOL     OW15598   1.542   2.266   4.713  0.3892 -0.0963 -0.3652
 1321SOL    HW115599   1.529   2.207   4.639 -1.1330 -1.1780  0.7831
 1321SOL    HW215600   1.558   2.200   4.780 -1.0163 -0.3311 -0.2707
 1322SOL     OW15601   3.412   0.916  10.377  0.2349  0.5369 -0.7639
 1322SOL    HW115602   3.423   0.839  10.321  0.5715 -0.9157  1.3151
 1322SOL    HW215603   3.475   0.892  10.445 -1.0038  0.0728  0.2193
 1323SOL     OW15604   0.574   3.457  11.543  0.1918 -0.0914 -0.4358
 1323SOL    HW115605   0.581   3.531  11.602  2.4123 -1.0382  0.4833
 1323SOL    HW215606   0.497   3.412  11.578 -1.3759  1.4362 -1.9219
 1324SOL     OW15607   3.582   3.620   3.488 -0.0002  0.4664  0.0759
 1324SOL    HW115608   3.652   3.558   3.508 -1.6031 -1.2008  0.5041
 1324SOL    HW215609   3.554   3.578   3.406 -0.2824  1.2094 -0.2047
 1325SOL     OW15610   2.910   3.954   7.303  0.1946 -0.4572 -0.4171
 1325SOL    HW115611   2.903   3.904   7.384  0.6200  2.7581  1.6244
 1325SOL    HW215612   2.836   3.906   7.267 -0.5455 -0.3931  1.0287
 1326SOL     OW15613   3.076   2.081   5.308 -0.7824  0.2019 -0.3542
 1326SOL    HW115614   3.034   2.041   5.384  2.8372 -0.7998  1.1208
 1326SOL    HW215615   3.043   2.029   5.234  0.6544 -1.6977  0.3138
 1327SOL     OW15616   4.369   4.696  16.001 -0.4017 -0.0080 -0.3011
 1327SOL    HW115617   4.399   4.702  16.092 -1.9812  1.9635  0.1004
 1327SOL    HW215618   4.343   4.604  16.006 -0.3787  0.0537  1.0431
 1328SOL     OW15619   0.177   2.726  15.693  0.1691  0.0275  0.1369
 1328SOL    HW115620   0.233   2.773  15.631 -0.0244  0.9334  0.6579
 1328SOL    HW215621   0.090   2.740  15.655  0.4167  0.1199 -0.3975
 1329SOL     OW15622   0.710   3.270   3.717  0.3676 -0.0026  0.4971
 1329SOL    HW115623   0.694   3.279   3.811 -0.6959  1.7215  0.1499
 1329SOL    HW215624   0.671   3.183   3.714 -1.3628  0.8631 -1.7340
 1330SOL     OW15625   3.287   2.803  11.936  0.1853  0.3967 -0.3031
 1330SOL    HW115626   3.277   2.897  11.924  2.2670  0.6078 -0.3162
 1330SOL    HW215627   3.251   2.789  12.024 -2.3919 -1.8796 -1.6914
 1331SOL     OW15628   4.436   0.995   9.271 -0.6963 -0.4639  0.2557
 1331SOL    HW115629   4.451   1.089   9.276 -0.7334 -0.5125  1.3115
 1331SOL    HW215630   4.401   0.977   9.358 -2.0192 -1.0478 -0.4024
 1332SOL     OW15631   0.738   3.980   4.095  0.1271 -0.5525  0.8697
 1332SOL    HW115632   0.787   4.010   4.018 -0.1414  0.0242  0.9220
 1332SOL    HW215633   0.645   3.996   4.075  0.8419  1.1604 -1.1347
 1333SOL     OW15634   4.101   1.646   1.362  0.3815 -0.2150 -0.5417
 1333SOL    HW115635   4.174   1.652   1.424  0.2683 -0.1033 -0.4175
 1333SOL    HW215636   4.121   1.559   1.327  0.6460  0.6191 -2.4823
 1334SOL     OW15637   1.551   1.053   8.648  0.5248  0.4544  0.0856
 1334SOL    HW115638   1.541   1.026   8.739  0.3434  1.5140  0.3888
 1334SOL    HW215639   1.500   1.135   8.644 -1.4145 -0.8169 -1.5318
 1335SOL     OW15640   3.271   0.749   7.075  0.1696  0.7189  0.3751
 1335SOL    HW115641   3.355   0.752   7.028 -0.1997 -0.8092 -0.3860
 1335SOL    HW215642   3.285   0.768   7.167  2.8167 -1.4444  0.4369
 1336SOL     OW15643   3.619   4.625  14.516  0.5376 -0.3714 -0.1704
 1336SOL    HW115644   3.549   4.690  14.523  0.5033 -0.3294 -0.9482
 1336SOL    HW215645   3.641   4.612  14.608  3.0169 -2.6926 -1.0767
 1337SOL     OW15646   4.698   2.283   5.611 -0.3396  0.5145  0.0432
 1337SOL    HW115647   4.662   2.331   5.536  0.2213  0.6931 -0.1117
 1337SOL    HW215648   0.050   2.284   5.576  0.0922  0.2538  1.1472
 1338SOL     OW15649   4.356   3.749   9.608 -0.4460 -0.0472  0.1490
 1338SOL    HW115650   4.423   3.704   9.660 -1.8010 -3.4022 -0.9868
 1338SOL    HW215651   4.418   3.815   9.577 -0.0064 -0.0081  1.1068
 1339SOL     OW15652   0.957   2.307  14.582 -0.2853 -0.2748 -0.0560
 1339SOL    HW115653   0.920   2.364  14.514 -1.8136 -0.5889  0.5041
 1339SOL    HW215654   0.876   2.259  14.598  0.0074 -0.2900  1.4362
 1340SOL     OW15655   1.729   4.398   5.144 -0.1419  0.4482 -0.1667
 1340SOL    HW115656   1.782   4.476   5.132  0.1277  0.8003  3.2758
 1340SOL    HW215657   1.642   4.436   5.132 -0.2500 -0.1997 -1.4438
 1341SOL     OW15658   2.764   0.247   6.714  0.1111  0.2610 -0.4113
 1341SOL    HW115659   2.763   0.336   6.680 -1.0474  0.3836 -0.0470
 1341SOL    HW215660   2.674   0.219   6.701  0.8544 -2.5666  0.4429
 1342SOL     OW15661   3.738   4.289  16.688  0.3094 -0.0669 -0.0534
 1342SOL    HW115662   3.731   4.196  16.710 -0.0062 -0.0162  0.0647
 1342SOL    HW215663   3.668   4.297  16.623 -1.6830  1.0632  2.2388
 1343SOL     OW15664   0.494   2.745  14.016 -0.1781  0.2519 -0.2504
 1343SOL    HW115665   0.497   2.662  13.968  0.1405  1.0273 -1.5686
 1343SOL    HW215666   0.472   2.798  13.940 -0.8266  0.2369 -0.0714
 1344SOL     OW15667   3.996   3.354   7.717 -1.0875 -0.0425  0.1459
 1344SOL    HW115668   3.909   3.346   7.678 -1.0071  2.1742 -0.5335
 1344SOL    HW215669   4.034   3.272   7.685  1.8330  0.9101  1.1944
 1345SOL     OW15670   0.507   2.732  15.273 -0.2024 -0.1553 -0.3391
 1345SOL    HW115671   0.444   2.686  15.217 -0.1482  3.3549 -3.2832
 1345SOL    HW215672   0.562   2.661  15.305  1.2273  1.1245  0.0133
 1346SOL     OW15673   1.711   1.951   7.247  0.6245 -0.6259  0.8048
 1346SOL    HW115674   1.660   1.889   7.299 -1.8255  2.0227  1.5662
 1346SOL    HW215675   1.716   1.902   7.165  0.3714  2.3399 -0.9854
 1347SOL     OW15676   1.828   4.321   2.210 -0.1848  0.2450 -0.4647
 1347SOL    HW115677   1.746   4.369   2.219 -0.7532 -1.0267  1.1639
 1347SOL    HW215678   1.889   4.370   2.265  1.1932 -0.7775 -1.0898
 1348SOL     OW15679   2.444   2.385   3.741 -0.3596 -0.2625  0.3166
 1348SOL    HW115680   2.456   2.290   3.729  0.5170 -0.0830 -0.2653
 1348SOL    HW215681   2.532   2.423   3.738 -1.9363  3.3002 -1.1831
 1349SOL     OW15682   4.666   1.727   7.414  0.0817  0.5473  0.2086
 1349SOL    HW115683   4.726   1.802   7.415 -0.8247  1.2689  1.1223
 1349SOL    HW215684   4.603   1.756   7.347  0.6321 -0.1121 -0.5960
 1350SOL     OW15685   1.643   0.640   7.085 -0.5760 -0.0778  0.3326
 1350SOL    HW115686   1.641   0.634   7.180 -2.3703  1.3676  0.3883
 1350SOL    HW215687   1.685   0.557   7.062 -0.3881 -0.6865  2.9560
 1351SOL     OW15688   1.008   1.012   5.522  0.4561  0.2148 -0.2794
 1351SOL    HW115689   1.079   1.068   5.490  0.4369 -1.0997 -2.6661
 1351SOL    HW215690   0.931   1.056   5.486  1.3708  0.1239 -2.3861
 1352SOL     OW15691   2.002   1.068   7.039  0.1089 -0.0443 -0.6641
 1352SOL    HW115692   2.016   1.028   7.125 -1.9851 -1.8981 -1.1902
 1352SOL    HW215693   2.051   1.010   6.981 -0.6130  0.0913 -1.3914
 1353SOL     OW15694   3.250   2.196   5.495 -0.0545 -0.1505  0.0842
 1353SOL    HW115695   3.197   2.150   5.429  1.5402  0.4308 -1.6169
 1353SOL    HW215696   3.305   2.124   5.525 -1.3751 -0.6231  1.3482
 1354SOL     OW15697   2.318   0.653  10.859  0.0520  0.1167  0.2442
 1354SOL    HW115698   2.353   0.644  10.947 -0.1748  2.8841  0.6321
 1354SOL    HW215699   2.364   0.731  10.826 -2.7068  1.6117 -0.1075
 1355SOL     OW15700   3.168   3.468  16.851  0.0363  0.2592  0.4559
 1355SOL    HW115701   3.164   3.528  16.777 -3.5084 -0.0275  0.4387
 1355SOL    HW215702   3.261   3.445  16.843  0.2235  1.1302  0.1475
 1356SOL     OW15703   2.596   3.830  11.122  0.3488  0.6314 -0.0381
 1356SOL    HW115704   2.530   3.886  11.083  0.4283 -0.0846 -1.1911
 1356SOL    HW215705   2.595   3.873  11.208 -0.7093  2.4638 -0.9711
 1357SOL     OW15706   3.341   2.099   1.491  0.0661 -0.2070 -0.2086
 1357SOL    HW115707   3.343   2.193   1.509 -2.4088  0.1176 -1.7330
 1357SOL    HW215708   3.409   2.068   1.552 -0.0008  0.1745  0.0617
 1358SOL     OW15709   4.082   0.870   5.829  0.5260  0.5616 -0.5708
 1358SOL    HW115710   4.113   0.797   5.775 -1.4349 -1.5515  1.1592
 1358SOL    HW215711   4.045   0.927   5.762 -2.1532 -0.9688 -0.4167
 1359SOL     OW15712   0.640   3.967   3.663  0.0968  0.2721 -0.2342
 1359SOL    HW115713   0.710   3.928   3.715  0.3438  0.1842 -0.6279
 1359SOL    HW215714   0.614   3.887   3.617  0.3452 -0.2334  0.5086
 1360SOL     OW15715   2.717   4.731   5.460  0.2642  1.2258  0.8456
 1360SOL    HW115716   2.629   0.012   5.428  0.2679  2.1096  1.3088
 1360SOL    HW215717   2.716   0.043   5.543 -2.2902  3.5529 -0.5680
 1361SOL     OW15718   4.397   1.210  14.343  0.1519 -0.1677 -0.2978
 1361SOL    HW115719   4.332   1.204  14.273 -0.0409 -1.9877  0.0465
 1361SOL    HW215720   4.399   1.302  14.370  1.0374  0.7092 -3.2512
 1362SOL     OW15721   1.512   2.742   9.195  0.4421  0.1653 -0.9821
 1362SOL    HW115722   1.554   2.812   9.245  1.9652 -0.4791 -1.3659
 1362SOL    HW215723   1.576   2.679   9.228 -1.8802 -2.4700 -1.4632
 1363SOL     OW15724   2.632   4.283   4.827 -0.1956  0.4001 -0.1456
 1363SOL    HW115725   2.670   4.278   4.914  0.9179  3.4141 -0.4710
 1363SOL    HW215726   2.590   4.198   4.812  1.2761  0.1012 -2.6806
 1364SOL     OW15727   1.882   3.909   6.452  0.0810  0.3220  0.1154
 1364SOL    HW115728   1.857   3.912   6.360 -1.6186 -0.1264  0.5549
 1364SOL    HW215729   1.964   3.959   6.455  0.2694  0.1347 -2.4136
 1365SOL     OW15730   2.874   2.493   5.453  0.0201 -0.1268 -0.7022
 1365SOL    HW115731   2.860   2.585   5.429  1.4633  0.2698 -0.0304
 1365SOL    HW215732   2.891   2.450   5.369 -1.7697  0.0114 -1.1239
 1366SOL     OW15733   3.649   1.464   5.737 -0.1403 -0.1325  0.5908
 1366SOL    HW115734   3.705   1.391   5.708 -1.3804 -1.0097  0.3970
 1366SOL    HW215735   3.708   1.528   5.777 -0.1291 -0.7430  1.5418
 1367SOL     OW15736   1.240   1.998   7.749 -0.0526 -0.7192  0.5962
 1367SOL    HW115737   1.200   1.938   7.811 -0.4821  1.0713  2.0655
 1367SOL    HW215738   1.175   1.988   7.680  1.3004 -1.9163 -0.5039
 1368SOL     OW15739   4.539   0.138  15.265  0.1161 -0.1023 -0.2517
 1368SOL    HW115740   4.507   0.171  15.349 -0.4244 -0.5727 -0.2738
 1368SOL    HW215741   4.575   0.052  15.284 -0.9102 -0.4982 -0.0785
 1369SOL     OW15742   2.420   3.009   1.150 -0.2593 -0.3806 -0.1811
 1369SOL    HW115743   2.366   3.078   1.191 -0.9830 -2.4302  2.3449
 1369SOL    HW215744   2.361   2.935   1.165 -1.9254  0.4605 -2.5903
 1370SOL     OW15745   1.092   4.507   4.436 -0.2437 -0.1880  0.4378
 1370SOL    HW115746   1.109   4.430   4.382  2.8688  1.1003 -0.4167
 1370SOL    HW215747   1.104   4.579   4.375  1.6321  0.3389  1.4404
 1371SOL     OW15748   4.141   3.091  16.321 -0.0726 -0.0068  0.3390
 1371SOL    HW115749   4.164   3.104  16.413 -1.3111 -2.4707  1.0010
 1371SOL    HW215750   4.226   3.069  16.282  0.5754  2.7182  0.2322
 1372SOL     OW15751   1.033   1.117   6.400 -0.1098  0.4897  0.2781
 1372SOL    HW115752   0.941   1.144   6.403  0.1620  1.6150 -1.2811
 1372SOL    HW215753   1.048   1.137   6.307 -1.6365 -0.8840 -0.2526
 1373SOL     OW15754   2.770   3.912  10.851  0.0165  0.0821 -0.2124
 1373SOL    HW115755   2.770   3.836  10.909 -0.9448  1.0653  1.0628
 1373SOL    HW215756   2.835   3.884  10.786 -0.3523 -1.0557 -0.0984
 1374SOL     OW15757   2.263   4.563   2.458  0.3202  0.2132  0.6212
 1374SOL    HW115758   2.355   4.563   2.431  0.0940  2.1368 -0.1796
 1374SOL    HW215759   2.247   4.657   2.455  0.0450  0.1544  0.2537
 1375SOL     OW15760   0.499   1.252   7.877  0.0824  0.1605  0.2336
 1375SOL    HW115761   0.579   1.231   7.925  0.0626 -2.7978 -1.0174
 1375SOL    HW215762   0.447   1.172   7.889 -0.7005  1.1893  3.8502
 1376SOL     OW15763   2.182   2.700   2.104  0.4082  1.0697 -1.0697
 1376SOL    HW115764   2.267   2.680   2.064  0.1838 -1.4506 -0.3493
 1376SOL    HW215765   2.123   2.644   2.053  0.8473  0.3887 -0.8379
 1377SOL     OW15766   0.008   4.530  13.422 -0.0104 -0.0356 -0.1426
 1377SOL    HW115767   0.006   4.623  13.397  1.9912 -0.0863 -0.5199
 1377SOL    HW215768   4.650   4.516  13.415 -0.1540  0.1277  1.4208
 1378SOL     OW15769   3.359   4.176  15.995  0.2915 -0.5688 -0.7378
 1378SOL    HW115770   3.313   4.255  15.966  1.5552  0.1109 -0.8972
 1378SOL    HW215771   3.349   4.190  16.089 -1.5091  0.4362 -1.0722
 1379SOL     OW15772   4.688   3.789   5.172 -0.1034  0.2423 -0.1589
 1379SOL    HW115773   4.716   3.857   5.111  0.1877 -0.2625 -0.5862
 1379SOL    HW215774   0.038   3.753   5.188 -0.4206  0.2901  1.7431
 1380SOL     OW15775   2.301   3.175   8.055 -0.0572  0.3584 -0.2745
 1380SOL    HW115776   2.338   3.203   7.972 -1.8187  1.0136 -0.8446
 1380SOL    HW215777   2.378   3.184   8.110 -0.5479  0.8456  0.3382
 1381SOL     OW15778   2.510   3.789   2.274  0.1403 -0.2641  0.0690
 1381SOL    HW115779   2.491   3.751   2.188  0.6393 -0.4510  0.0400
 1381SOL    HW215780   2.470   3.717   2.323  1.0934  0.2180  1.5503
 1382SOL     OW15781   3.858   2.788   6.669  0.0849 -0.5118  0.0141
 1382SOL    HW115782   3.897   2.822   6.749 -0.2617  0.2052 -0.1227
 1382SOL    HW215783   3.795   2.721   6.694 -1.5936  2.2217  3.0734
 1383SOL     OW15784   3.580   1.426   5.277  0.0233 -0.0782  0.6098
 1383SOL    HW115785   3.533   1.423   5.360  0.1751 -0.7876  0.6668
 1383SOL    HW215786   3.521   1.479   5.225  0.4365 -0.8866 -0.6780
 1384SOL     OW15787   1.519   0.878  13.554  0.9280 -0.0887 -0.0370
 1384SOL    HW115788   1.605   0.920  13.547  0.7975  0.3822  1.2514
 1384SOL    HW215789   1.550   0.810  13.613 -1.2053 -0.1922  0.9588
 1385SOL     OW15790   2.191   1.776  13.658  0.0151 -0.0326  0.5388
 1385SOL    HW115791   2.256   1.812  13.719  1.5230 -0.3299 -0.8940
 1385SOL    HW215792   2.118   1.830  13.689 -0.4361 -0.8100  0.8029
 1386SOL     OW15793   4.460   3.325   5.554  0.1579  0.6321  0.2749
 1386SOL    HW115794   4.443   3.302   5.646 -0.6554  4.1300  0.9851
 1386SOL    HW215795   4.536   3.384   5.554  0.2993  0.4490  0.1332
 1387SOL     OW15796   0.015   4.494   9.570 -0.5814  0.1877  0.1098
 1387SOL    HW115797   4.717   4.441   9.498  1.8610 -0.5725 -0.5236
 1387SOL    HW215798   4.703   4.454   9.642  0.5817 -2.2817 -0.4872
 1388SOL     OW15799   3.638   4.092   0.119 -0.1952 -0.1984  0.2200
 1388SOL    HW115800   3.560   4.091   0.064 -1.0322  2.1343  1.3602
 1388SOL    HW215801   3.705   4.110   0.052  1.4686  0.9330  2.2021
 1389SOL     OW15802   1.342   2.416   7.261 -0.2233  0.2206  0.3275
 1389SOL    HW115803   1.251   2.436   7.239 -0.6537 -2.0680  0.0490
 1389SOL    HW215804   1.338   2.322   7.243  1.3448 -0.0791  1.5167
 1390SOL     OW15805   2.491   3.825   4.571  0.5261  0.4357 -0.3787
 1390SOL    HW115806   2.413   3.828   4.515 -1.1604 -0.0808  1.9113
 1390SOL    HW215807   2.475   3.737   4.607  2.8042 -0.0722 -0.6060
 1391SOL     OW15808   2.988   1.406   7.820  0.0701  0.3023  0.0464
 1391SOL    HW115809   2.907   1.394   7.870 -0.9309 -4.0570 -2.5853
 1391SOL    HW215810   3.001   1.500   7.835  0.0477  0.7510 -2.6220
 1392SOL     OW15811   0.682   3.291  15.769 -0.3217  0.0783  0.4956
 1392SOL    HW115812   0.739   3.363  15.796  2.3413 -1.3918 -1.2952
 1392SOL    HW215813   0.653   3.323  15.684  0.9258 -0.2030 -0.0300
 1393SOL     OW15814   3.046   0.878   2.002 -0.1144  0.2044  0.0284
 1393SOL    HW115815   2.953   0.860   2.008  0.1099 -0.8345  0.4275
 1393SOL    HW215816   3.047   0.964   2.044  0.8883  1.0211 -1.6701
 1394SOL     OW15817   4.571   1.791   3.839  0.1039  0.3108 -0.6029
 1394SOL    HW115818   4.635   1.731   3.879 -0.0030  1.9550  2.0756
 1394SOL    HW215819   4.492   1.746   3.870  0.1850  0.7563  0.2549
 1395SOL     OW15820   3.387   1.171   7.406  0.0576 -0.5781 -0.3383
 1395SOL    HW115821   3.376   1.239   7.473  0.7417 -1.1334  0.3323
 1395SOL    HW215822   3.298   1.138   7.396  0.9273 -1.7215 -4.3474
 1396SOL     OW15823   0.945   2.368   6.994  0.1746 -0.8795  0.3211
 1396SOL    HW115824   0.861   2.322   6.993 -1.6474  2.4631  0.3364
 1396SOL    HW215825   0.963   2.376   6.900  1.2587 -0.9553  0.5225
 1397SOL     OW15826   2.063   0.041   5.781  0.0299  0.4961 -0.0735
 1397SOL    HW115827   2.049   4.724   5.703 -1.7417  1.0990 -0.1642
 1397SOL    HW215828   1.982   0.089   5.796  0.8034  0.4614  4.1322
 1398SOL     OW15829   4.098   3.052  11.516  0.5071 -0.6660  0.6174
 1398SOL    HW115830   4.180   3.030  11.472 -0.2422 -1.6373 -0.2865
 1398SOL    HW215831   4.124   3.060  11.608  0.0325 -1.2587  0.8059
 1399SOL     OW15832   0.833   2.477   7.549 -0.1443  0.4408  0.0266
 1399SOL    HW115833   0.867   2.559   7.513 -1.1428  0.7039 -0.3310
 1399SOL    HW215834   0.875   2.480   7.635  1.3442  0.3518 -0.6991
 1400SOL     OW15835   2.341   1.485   2.200 -0.1607 -0.4812 -0.4355
 1400SOL    HW115836   2.391   1.566   2.185  0.0740 -0.4697  0.4216
 1400SOL    HW215837   2.295   1.488   2.116 -0.3879  0.6948 -0.2759
 1401SOL     OW15838   1.915   0.393  10.748  0.0953  0.9331  0.6825
 1401SOL    HW115839   1.867   0.370  10.828  1.3141  1.3321  1.5274
 1401SOL    HW215840   1.939   0.479  10.782  2.0468  0.5317  0.3204
 1402SOL     OW15841   2.362   2.200   2.343  0.6501 -0.2364  0.0457
 1402SOL    HW115842   2.288   2.249   2.307  0.7073 -0.1192  0.0904
 1402SOL    HW215843   2.333   2.114   2.311  2.8624 -0.4639 -1.3490
 1403SOL     OW15844   2.454   0.715   0.629 -0.1659 -0.3041 -0.0621
 1403SOL    HW115845   2.390   0.737   0.696  2.0372 -1.1555  2.3331
 1403SOL    HW215846   2.499   0.800   0.629 -1.4475  0.3826 -2.4516
 1404SOL     OW15847   1.631   2.598   9.410  0.1331  0.5975  0.6375
 1404SOL    HW115848   1.608   2.668   9.472 -2.3059 -0.2683  0.7003
 1404SOL    HW215849   1.720   2.588   9.443 -0.1937  0.4337  1.4779
 1405SOL     OW15850   1.998   2.586   7.477 -0.2528 -0.4424  0.3618
 1405SOL    HW115851   2.009   2.507   7.425 -1.0334 -0.7123  0.6083
 1405SOL    HW215852   2.092   2.607   7.479  0.2894 -2.9872  0.4472
 1406SOL     OW15853   3.739   2.165   5.734 -0.5081 -0.7618  0.0252
 1406SOL    HW115854   3.719   2.089   5.680 -0.5329  0.5109 -1.7326
 1406SOL    HW215855   3.829   2.182   5.709 -0.2386  1.9394  2.8146
 1407SOL     OW15856   0.104   1.772   4.003 -0.4623 -0.0159  0.0539
 1407SOL    HW115857   0.080   1.780   4.095 -0.9184  0.1805 -0.0833
 1407SOL    HW215858   0.094   1.677   3.991 -0.6734  0.1955 -1.3638
 1408SOL     OW15859   0.525   4.163   9.416 -0.2243  0.0168 -0.4410
 1408SOL    HW115860   0.511   4.229   9.485  0.3649 -1.9596  1.5547
 1408SOL    HW215861   0.432   4.159   9.391 -0.9838 -1.7844  2.6433
 1409SOL     OW15862   2.235   3.780  17.443 -0.3703 -0.5992  0.1642
 1409SOL    HW115863   2.194   3.710  17.494 -0.7121 -0.7140 -0.2618
 1409SOL    HW215864   2.329   3.771  17.462 -0.6419 -1.9796  0.8504
 1410SOL     OW15865   3.696   1.914   6.538 -0.1839  0.2572 -0.1817
 1410SOL    HW115866   3.685   1.821   6.558  0.4255  0.2987  0.3413
 1410SOL    HW215867   3.707   1.943   6.628 -1.1680 -1.8946  0.6404
 1411SOL     OW15868   2.729   0.529   4.649 -0.4389 -0.5441 -0.2892
 1411SOL    HW115869   2.764   0.497   4.565 -0.0975 -1.6698  0.2819
 1411SOL    HW215870   2.743   0.461   4.714 -3.1924  0.1323  1.0066
 1412SOL     OW15871   4.179   0.491   4.319 -0.4155 -0.6835  0.1368
 1412SOL    HW115872   4.135   0.547   4.382  0.9419  1.9735 -1.2902
 1412SOL    HW215873   4.119   0.416   4.321 -0.2098 -0.7987  1.9900
 1413SOL     OW15874   4.138   3.813   3.446  0.4005 -0.3120 -0.0160
 1413SOL    HW115875   4.100   3.809   3.533  1.7874  0.7733  0.6376
 1413SOL    HW215876   4.207   3.746   3.450  0.4205 -0.4173 -1.8713
 1414SOL     OW15877   1.725   4.680   5.930  0.6457  1.1543  0.0535
 1414SOL    HW115878   1.726   4.630   6.012 -2.2094  1.2900  0.1520
 1414SOL    HW215879   1.670   4.625   5.874 -2.4175  2.6298  1.6380
 1415SOL     OW15880   3.777   1.077  10.077  0.3707 -0.7385 -0.1942
 1415SOL    HW115881   3.859   1.091  10.124 -0.6891 -2.8112  2.3140
 1415SOL    HW215882   3.735   1.005  10.124  2.3534 -1.1938  0.8794
 1416SOL     OW15883   1.457   2.864   6.498 -0.4421 -0.1532 -0.1178
 1416SOL    HW115884   1.538   2.852   6.449  0.4462  0.5693  1.1776
 1416SOL    HW215885   1.443   2.958   6.489  0.5261  0.1613  1.6611
 1417SOL     OW15886   2.687   3.808   4.914 -0.1868  0.5864  0.5808
 1417SOL    HW115887   2.775   3.774   4.930 -1.0924 -2.0607 -0.1046
 1417SOL    HW215888   2.634   3.729   4.921  0.8128 -0.1156  0.1804
 1418SOL     OW15889   3.617   3.650   0.050 -0.1739  0.5373 -0.5769
 1418SOL    HW115890   3.559   3.719   0.082 -1.6340 -0.6666 -0.6514
 1418SOL    HW215891   3.640   3.681  17.708 -1.6936 -1.5024 -1.6902
 1419SOL     OW15892   3.274   1.207   5.659 -0.6047 -0.1817  0.1851
 1419SOL    HW115893   3.206   1.173   5.717 -2.0739  1.1728 -0.7755
 1419SOL    HW215894   3.341   1.229   5.724 -1.0330 -0.7794  0.8238
 1420SOL     OW15895   0.480   3.738  16.224  0.1400  0.1186 -0.5590
 1420SOL    HW115896   0.480   3.820  16.175  0.8944  0.5522  0.1719
 1420SOL    HW215897   0.413   3.693  16.171 -0.0148  0.6426 -0.8123
 1421SOL     OW15898   1.160   1.555   0.640  0.0566 -0.0142 -0.5231
 1421SOL    HW115899   1.069   1.543   0.667 -0.4852  2.2117 -1.3440
 1421SOL    HW215900   1.188   1.593   0.724 -0.3831  2.5946 -1.5727
 1422SOL     OW15901   1.404   3.252   3.890  0.3883 -0.1191  0.1552
 1422SOL    HW115902   1.357   3.180   3.848  0.7188  0.1932 -0.7586
 1422SOL    HW215903   1.394   3.237   3.984 -0.6477 -0.1724  0.0343
 1423SOL     OW15904   3.294   2.813   1.678 -0.0352 -0.1191 -0.7339
 1423SOL    HW115905   3.248   2.894   1.657 -1.5793 -0.2720  1.9705
 1423SOL    HW215906   3.349   2.851   1.747  0.2168 -0.2212 -0.8763
 1424SOL     OW15907   3.761   0.376   6.229 -0.2728 -0.5889 -1.1963
 1424SOL    HW115908   3.796   0.421   6.306  0.7838 -1.5882 -1.0863
 1424SOL    HW215909   3.683   0.429   6.212 -0.9535 -1.9134 -2.1774
 1425SOL     OW15910   2.678   1.298  15.967 -0.5433  0.5326 -0.0916
 1425SOL    HW115911   2.683   1.358  16.042  0.6471  0.0421  0.2194
 1425SOL    HW215912   2.596   1.250  15.980 -0.7450  0.4330 -1.6817
 1426SOL     OW15913   0.040   3.736  15.079 -0.3388 -0.6331 -0.1219
 1426SOL    HW115914   4.728   3.814  15.057  1.4456  0.4904 -0.1016
 1426SOL    HW215915   0.090   3.725  14.998  1.0667 -0.2428  0.6826
 1427SOL     OW15916   4.209   1.162   1.155  0.0561 -0.2286  0.4723
 1427SOL    HW115917   4.299   1.186   1.134 -0.0387 -0.2069  0.0751
 1427SOL    HW215918   4.173   1.154   1.067 -1.3315  0.4172  0.9768
 1428SOL     OW15919   3.986   2.495   6.134  0.0066 -0.9275 -0.8344
 1428SOL    HW115920   4.034   2.443   6.199  1.6134 -2.2076 -3.0289
 1428SOL    HW215921   4.056   2.553   6.102  1.2153 -1.2640  1.1614
 1429SOL     OW15922   1.143   2.756   4.387  0.3611  0.8254 -0.3929
 1429SOL    HW115923   1.049   2.768   4.375  0.5093 -0.0652 -2.6525
 1429SOL    HW215924   1.167   2.766   4.294 -0.0905 -2.1044 -0.8465
 1430SOL     OW15925   0.966   0.654   7.925 -0.3263  0.2094  0.0478
 1430SOL    HW115926   0.887   0.650   7.870 -0.8971  0.6017  0.8469
 1430SOL    HW215927   1.032   0.647   7.856  0.6118 -1.4573  1.1234
 1431SOL     OW15928   1.513   4.333   6.494  0.2378 -0.1093  0.3039
 1431SOL    HW115929   1.599   4.306   6.461 -0.7441 -1.1323 -1.4936
 1431SOL    HW215930   1.518   4.331   6.589  0.6574 -0.4545  0.2725
 1432SOL     OW15931   4.092   1.384   4.706  0.2478 -0.3171 -0.8877
 1432SOL    HW115932   4.089   1.450   4.775  0.3383 -0.1661 -1.0270
 1432SOL    HW215933   4.106   1.307   4.761 -3.4121 -0.4945 -0.1665
 1433SOL     OW15934   1.112   0.261   2.820 -0.0789  0.1836 -0.2995
 1433SOL    HW115935   1.197   0.224   2.796 -0.0864 -0.9971  1.4998
 1433SOL    HW215936   1.071   0.178   2.845 -2.1064  0.5125 -2.5892
 1434SOL     OW15937   1.583   4.062  12.004 -0.0667 -0.7562 -0.9624
 1434SOL    HW115938   1.578   4.058  12.100 -0.5076 -0.6461 -0.9802
 1434SOL    HW215939   1.612   4.153  12.007 -1.5501 -0.2901 -0.7412
 1435SOL     OW15940   3.288   3.062   4.381 -0.0823 -0.5544 -0.1742
 1435SOL    HW115941   3.249   2.977   4.364  2.4143 -2.1299  2.0406
 1435SOL    HW215942   3.307   3.067   4.475  0.7799 -0.8511 -0.3272
 1436SOL     OW15943   2.862   4.371   2.484  0.1813  0.2796  0.3579
 1436SOL    HW115944   2.922   4.396   2.554  2.4174 -0.3637 -1.3133
 1436SOL    HW215945   2.918   4.307   2.439 -0.8526  0.2134 -0.8300
 1437SOL     OW15946   2.815   2.125   4.861 -0.0796  0.6593 -0.5549
 1437SOL    HW115947   2.817   2.083   4.947  1.4212  0.4974 -0.6747
 1437SOL    HW215948   2.837   2.218   4.873  3.3116 -0.1262 -0.7459
 1438SOL     OW15949   0.747   2.742  13.520 -0.3068 -0.0984 -0.4125
 1438SOL    HW115950   0.819   2.679  13.520 -0.9560 -0.8303 -0.8254
 1438SOL    HW215951   0.789   2.817  13.562 -1.5256 -0.8648  2.1669
 1439SOL     OW15952   2.363   3.504   6.431  0.5666  0.0009 -1.0748
 1439SOL    HW115953   2.418   3.567   6.476 -0.0838  0.9568 -1.6056
 1439SOL    HW215954   2.320   3.457   6.502  0.5807 -2.9842 -3.0392
 1440SOL     OW15955   3.754   3.351  13.312 -0.0012  0.3983  0.2107
 1440SOL    HW115956   3.758   3.382  13.221  0.4575  0.4822  0.2560
 1440SOL    HW215957   3.839   3.378  13.347 -0.2793  0.4059  0.8775
 1441SOL     OW15958   2.497   0.038   2.293 -0.3282 -0.1460  0.5426
 1441SOL    HW115959   2.517   0.119   2.245  0.0215  0.0393  0.9928
 1441SOL    HW215960   2.413   0.006   2.263 -0.0544  0.7419 -1.1600
 1442SOL     OW15961   4.348   4.555  11.444  0.6114 -0.6590 -0.2870
 1442SOL    HW115962   4.359   4.650  11.448  2.3204 -0.8281 -0.8330
 1442SOL    HW215963   4.442   4.538  11.441  1.1629  2.0339  2.0327
 1443SOL     OW15964   2.114   1.379   2.822  0.0826  0.3048 -0.1963
 1443SOL    HW115965   2.079   1.406   2.737 -2.5211  2.6847  1.6271
 1443SOL    HW215966   2.038   1.392   2.879 -0.3892 -0.4737 -0.6469
 1444SOL     OW15967   3.287   0.838   6.441 -0.4861  0.3606  0.1969
 1444SOL    HW115968   3.376   0.837   6.475 -0.7895 -1.3225  0.9679
 1444SOL    HW215969   3.306   0.780   6.367  1.4628  1.3084 -0.0433
 1445SOL     OW15970   1.464   0.535   8.142 -0.2580 -0.3942  0.0905
 1445SOL    HW115971   1.500   0.619   8.113 -3.2236  0.7508 -0.1919
 1445SOL    HW215972   1.408   0.508   8.070  1.2448 -0.1319 -1.1947
 1446SOL     OW15973   1.893   3.147   6.777 -0.3858  0.2315  0.2194
 1446SOL    HW115974   1.817   3.100   6.743  1.3415 -3.3485  1.2550
 1446SOL    HW215975   1.854   3.207   6.840 -2.3456  1.2709 -1.9883
 1447SOL     OW15976   3.469   3.964   5.217  0.1308 -0.3129 -0.0691
 1447SOL    HW115977   3.565   3.958   5.210  0.2463  1.8974 -0.4412
 1447SOL    HW215978   3.455   4.056   5.195 -3.0984 -1.3573 -2.3483
 1448SOL     OW15979   2.754   3.133   1.738 -0.5354 -0.0024 -0.1792
 1448SOL    HW115980   2.772   3.039   1.744  2.3805  0.3934 -2.1627
 1448SOL    HW215981   2.810   3.175   1.804  0.9256 -0.7496 -0.9371
 1449SOL     OW15982   3.366   2.754   4.917  0.0690 -0.1981  0.0150
 1449SOL    HW115983   3.419   2.785   4.843  1.2392 -0.6027  0.6820
 1449SOL    HW215984   3.436   2.747   4.982 -1.5577 -0.7394  1.6951
 1450SOL     OW15985   2.946   2.363   2.790  0.0327 -0.2919 -0.0598
 1450SOL    HW115986   3.021   2.347   2.733  0.6754  2.4669  0.0262
 1450SOL    HW215987   2.873   2.354   2.729 -0.4359 -0.1631  0.4854
 1451SOL     OW15988   4.268   3.666   0.516  0.3097 -0.7989  0.1849
 1451SOL    HW115989   4.357   3.633   0.506  1.7323  3.3396 -0.7367
 1451SOL    HW215990   4.211   3.626   0.450  0.6626  0.1392 -0.6853
 1452SOL     OW15991   4.621   4.542   6.466 -0.3492  0.2358 -0.1468
 1452SOL    HW115992   4.653   4.469   6.520  1.7266  1.9725  1.0045
 1452SOL    HW215993   4.620   4.609   6.535 -1.4724  0.1050 -0.0508
 1453SOL     OW15994   1.107   3.167  17.610  0.3301  0.0218  0.1306
 1453SOL    HW115995   1.145   3.216  17.682 -1.3409  2.0539 -0.3867
 1453SOL    HW215996   1.068   3.096  17.661 -1.0104  1.7080  1.4506
 1454SOL     OW15997   1.969   2.336   6.782  0.2508 -0.0268  0.7860
 1454SOL    HW115998   2.026   2.331   6.859  0.1285  1.3750  0.9765
 1454SOL    HW215999   2.025   2.285   6.724  0.0088 -1.2381  1.6239
 1455SOL     OW16000   1.151   1.279  10.171  0.8218  0.1466  0.3464
 1455SOL    HW116001   1.072   1.291  10.224  1.7979 -0.0198  1.8251
 1455SOL    HW216002   1.123   1.194  10.136 -0.7759  0.5357  0.6657
 1456SOL     OW16003   1.390   1.500   3.201  0.1507  0.3104  0.0176
 1456SOL    HW116004   1.452   1.459   3.141  0.5314 -1.8801  1.8993
 1456SOL    HW216005   1.356   1.563   3.138 -1.8888  0.8416  1.6600
 1457SOL     OW16006   2.512   2.147   2.049  0.2897  0.1170  0.0557
 1457SOL    HW116007   2.425   2.115   2.022  0.8047  1.0057 -2.6588
 1457SOL    HW216008   2.531   2.215   1.985  1.3416 -0.8240 -0.6412
 1458SOL     OW16009   4.072   1.268   5.217  0.3508  0.3312  0.0591
 1458SOL    HW116010   3.998   1.323   5.243  1.0567  0.3243  2.1120
 1458SOL    HW216011   4.149   1.323   5.229 -1.1341  2.4323 -0.0209
 1459SOL     OW16012   3.560   3.989  11.857  0.0248  0.5038 -0.4009
 1459SOL    HW116013   3.545   4.049  11.930 -0.9977  0.9657 -0.9920
 1459SOL    HW216014   3.655   3.980  11.869 -0.2374 -0.5350  0.9239
 1460SOL     OW16015   1.988   0.963   8.790 -0.6954  0.3495  0.8592
 1460SOL    HW116016   2.059   1.004   8.741 -0.9120  0.7865  0.9152
 1460SOL    HW216017   1.948   0.914   8.717  1.2915  0.1748 -0.1047
 1461SOL     OW16018   0.137   0.917   3.120  0.0624  0.1306  0.0013
 1461SOL    HW116019   0.069   0.911   3.187  0.0805 -0.7353 -0.0600
 1461SOL    HW216020   0.202   0.860   3.162  0.9974  1.6027  0.5475
 1462SOL     OW16021   3.245   0.128  17.486 -0.2708 -0.2735  0.2711
 1462SOL    HW116022   3.287   0.211  17.508  2.7740 -1.8184  0.3947
 1462SOL    HW216023   3.230   0.140  17.392 -0.7612  0.6721  0.4675
 1463SOL     OW16024   3.499   0.145  17.227 -0.5628  0.2525 -0.4824
 1463SOL    HW116025   3.409   0.178  17.238 -0.5869 -0.7290  2.2381
 1463SOL    HW216026   3.465   0.057  17.213 -3.0491  0.9105  1.2973
 1464SOL     OW16027   1.472   4.276   1.773  0.3817  0.8195 -0.5566
 1464SOL    HW116028   1.386   4.244   1.747  1.7953 -0.8842 -3.0960
 1464SOL    HW216029   1.486   4.217   1.848 -2.0265 -2.8593 -3.0252
 1465SOL     OW16030   1.113   1.280  13.432 -0.0410 -0.1612 -0.3931
 1465SOL    HW116031   1.203   1.314  13.433 -0.4188  0.8551 -0.3844
 1465SOL    HW216032   1.124   1.194  13.391 -0.7858 -2.3941  4.1398
 1466SOL     OW16033   1.228   3.380   4.437  0.4355 -0.4875 -0.2454
 1466SOL    HW116034   1.235   3.400   4.344 -1.1804  1.3342  0.0380
 1466SOL    HW216035   1.142   3.410   4.466  0.3494  1.6563 -2.7209
 1467SOL     OW16036   4.502   4.620   2.284  0.1499  0.0189 -0.4952
 1467SOL    HW116037   4.540   4.695   2.238  1.1429 -0.0725  0.1874
 1467SOL    HW216038   4.464   4.555   2.226 -0.0474 -0.9592  0.7346
 1468SOL     OW16039   1.006   1.890   4.168 -0.3030 -0.7093 -0.5802
 1468SOL    HW116040   0.915   1.891   4.136 -0.3176  2.2340 -0.4591
 1468SOL    HW216041   0.996   1.834   4.245  0.5533  0.9830  0.7641
 1469SOL     OW16042   4.015   3.563  17.558  0.2438  0.6028 -0.1553
 1469SOL    HW116043   4.022   3.470  17.578 -1.5311  0.8903  1.8539
 1469SOL    HW216044   4.019   3.566  17.463  0.0771 -3.0611 -0.2797
 1470SOL     OW16045   2.407   4.517   2.848 -0.1918  0.3825 -0.0617
 1470SOL    HW116046   2.389   4.604   2.812 -1.0030  0.4104  0.3960
 1470SOL    HW216047   2.501   4.509   2.837 -0.2415 -0.3937  0.0785
 1471SOL     OW16048   0.390   4.240   5.869 -0.2926 -0.0420  0.4001
 1471SOL    HW116049   0.365   4.224   5.778 -1.4937 -3.5633  1.3176
 1471SOL    HW216050   0.428   4.327   5.863  1.6813 -0.9560 -0.4646
 1472SOL     OW16051   1.976   2.717   4.306 -0.4757  0.6499  0.6556
 1472SOL    HW116052   1.972   2.629   4.342 -0.8003  0.2822 -0.2670
 1472SOL    HW216053   2.029   2.761   4.372 -0.2846  1.0953  0.2041
 1473SOL     OW16054   4.499   1.700   5.208 -0.4192  0.4272 -0.2591
 1473SOL    HW116055   4.551   1.756   5.266 -0.5935 -1.6714  1.8812
 1473SOL    HW216056   4.415   1.744   5.221 -1.2387 -0.9778 -0.8760
 1474SOL     OW16057   2.092   2.441   8.002 -0.1072 -0.0768 -0.6009
 1474SOL    HW116058   2.173   2.390   8.001 -0.0652  0.0303 -2.6809
 1474SOL    HW216059   2.123   2.514   7.949 -2.1490 -0.6168 -2.5397
 1475SOL     OW16060   2.345   1.517   1.243  0.4423 -0.0002 -0.4864
 1475SOL    HW116061   2.272   1.574   1.264  0.1146 -0.9075  0.8166
 1475SOL    HW216062   2.310   1.506   1.155 -0.0495 -0.9584 -0.1736
 1476SOL     OW16063   2.424   3.067   4.850 -0.4080 -0.1548  0.6787
 1476SOL    HW116064   2.369   3.142   4.872  0.8058  1.3985 -1.5918
 1476SOL    HW216065   2.424   3.026   4.937  0.3111  0.9563  1.1976
 1477SOL     OW16066   1.029   0.992   3.173 -0.4607 -0.2304  0.1223
 1477SOL    HW116067   1.056   1.036   3.253 -0.5123 -0.9873  0.5527
 1477SOL    HW216068   0.952   0.943   3.204 -0.5050  0.1441  0.6124
 1478SOL     OW16069   1.567   2.702   8.868 -0.1482 -1.3314  0.1869
 1478SOL    HW116070   1.615   2.625   8.897  2.6441  0.2410 -0.2941
 1478SOL    HW216071   1.556   2.758   8.944 -3.3400 -0.7782 -0.6760
 1479SOL     OW16072   0.652   0.510   9.465 -0.3279  0.2553  0.1132
 1479SOL    HW116073   0.626   0.432   9.416  1.8392 -1.1023  1.1040
 1479SOL    HW216074   0.583   0.561   9.423 -0.4766  0.7999  1.0029
 1480SOL     OW16075   1.597   3.263  12.765 -0.1185 -0.1349 -0.3449
 1480SOL    HW116076   1.688   3.262  12.793 -0.9505 -1.9717  2.2045
 1480SOL    HW216077   1.549   3.252  12.846 -1.0377  1.0121 -0.7239
 1481SOL     OW16078   2.120   2.915   4.928  0.0821 -0.3869  0.6344
 1481SOL    HW116079   2.099   3.000   4.888 -0.2087 -0.3325  0.8995
 1481SOL    HW216080   2.029   2.887   4.940  1.0585 -3.0419  1.7469
 1482SOL     OW16081   1.781   0.044   7.137  0.0804 -0.1512 -0.2108
 1482SOL    HW116082   1.759   0.057   7.045  1.5934  1.1311 -0.4097
 1482SOL    HW216083   1.732   4.710   7.179 -1.7555  2.4600  2.0615
 1483SOL     OW16084   4.481   2.923   5.884 -0.2147  0.3330  0.0555
 1483SOL    HW116085   4.567   2.956   5.910 -0.5759 -0.8705  2.7446
 1483SOL    HW216086   4.419   2.986   5.920  1.9903  2.0916  0.8287
 1484SOL     OW16087   0.359   3.132   5.840 -0.7328  0.5589 -0.6832
 1484SOL    HW116088   0.354   3.133   5.744  0.0786  3.3660 -0.7032
 1484SOL    HW216089   0.345   3.039   5.858  1.5247  0.3023 -0.2763
 1485SOL     OW16090   4.051   0.095   2.205  0.3939 -0.1897  0.2152
 1485SOL    HW116091   4.078   0.120   2.293  1.0096 -0.4645  0.1066
 1485SOL    HW216092   3.956   0.094   2.203  0.3618  0.8949  1.7639
 1486SOL     OW16093   2.666   3.947   8.898 -0.0631  0.1696  0.0544
 1486SOL    HW116094   2.678   3.973   8.807  0.4432  0.1696  0.1221
 1486SOL    HW216095   2.722   4.005   8.949  0.1987 -1.1803  1.2981
 1487SOL     OW16096   2.820   4.550  14.554  0.8113  0.1495  0.3164
 1487SOL    HW116097   2.741   4.509  14.590  0.3837  1.8851  1.3541
 1487SOL    HW216098   2.790   4.641  14.559  0.0751 -0.1238  1.0153
 1488SOL     OW16099   2.105   3.705   2.014 -0.5055  0.2395  0.4955
 1488SOL    HW116100   2.127   3.797   2.002 -0.3608  0.1743  0.2584
 1488SOL    HW216101   2.042   3.724   2.083 -0.0551  0.3653  0.8684
 1489SOL     OW16102   2.572   3.596   6.981 -0.7372 -0.1630 -0.0634
 1489SOL    HW116103   2.653   3.646   6.979 -0.5022 -0.5540 -0.3366
 1489SOL    HW216104   2.522   3.636   7.053 -0.6579  0.3634 -0.3008
 1490SOL     OW16105   2.246   1.797   9.287 -0.2977 -0.3293  0.0885
 1490SOL    HW116106   2.171   1.752   9.246 -1.0281 -0.2105  1.2906
 1490SOL    HW216107   2.280   1.848   9.214 -2.5214  1.1628  0.0846
 1491SOL     OW16108   1.076   0.944   7.416  0.5457  0.4116  0.4010
 1491SOL    HW116109   1.138   1.005   7.377  1.0025 -1.3808 -1.7043
 1491SOL    HW216110   0.995   0.985   7.386  0.6491  0.6551  0.4590
 1492SOL     OW16111   1.732   1.981   2.045 -0.1565  0.0124  0.0784
 1492SOL    HW116112   1.664   1.983   2.113 -2.7742  0.7701 -2.5383
 1492SOL    HW216113   1.703   2.050   1.985 -1.6945  0.1884  1.0249
 1493SOL     OW16114   2.376   3.792   8.814 -0.1602 -0.1394 -0.6026
 1493SOL    HW116115   2.443   3.810   8.747 -1.6071 -3.4710 -2.9262
 1493SOL    HW216116   2.357   3.880   8.845  2.4211  1.1274 -2.5991
 1494SOL     OW16117   3.473   2.851   1.890  0.4508  0.4575  1.0836
 1494SOL    HW116118   3.493   2.767   1.932  0.0638  0.0601  0.4747
 1494SOL    HW216119   3.542   2.911   1.918  0.4317  0.8847  0.2154
 1495SOL     OW16120   1.537   3.239   4.823 -0.1760  0.3224  0.3485
 1495SOL    HW116121   1.561   3.324   4.785 -0.3690 -0.4238 -1.4130
 1495SOL    HW216122   1.472   3.219   4.756 -1.5205 -0.8121  1.9936
 1496SOL     OW16123   4.606   1.946  13.300  0.3393 -0.8296 -0.7727
 1496SOL    HW116124   4.567   1.953  13.213  0.2460 -1.9292 -0.8177
 1496SOL    HW216125   4.523   1.941  13.347  1.2901  0.5863  1.0490
 1497SOL     OW16126   2.212   4.697  14.146 -0.5756 -0.2637 -0.3482
 1497SOL    HW116127   2.171   0.042  14.175  0.8544  0.1970  0.3949
 1497SOL    HW216128   2.228   4.699  14.052 -1.0462  0.3827 -0.4099
 1498SOL     OW16129   1.766   2.008  11.924  0.0062  0.3221 -0.2036
 1498SOL    HW116130   1.782   1.953  11.847  1.1389  0.5845 -0.1642
 1498SOL    HW216131   1.851   2.048  11.943  0.1094 -1.0521  2.1142
 1499SOL     OW16132   2.064   1.813   4.705  0.4603  0.8231  0.0579
 1499SOL    HW116133   2.050   1.899   4.666  1.7364  1.9484  2.0566
 1499SOL    HW216134   2.151   1.794   4.670  1.1096  0.3959  1.8870
 1500SOL     OW16135   0.304   3.549   6.603  0.1514 -0.1319  0.1034
 1500SOL    HW116136   0.390   3.584   6.627  0.2373 -0.8109  0.8107
 1500SOL    HW216137   0.337   3.469   6.561  1.8207  1.5735 -1.7776
 1501SOL     OW16138   3.987   0.902   2.164 -0.1876  0.1823  0.1283
 1501SOL    HW116139   3.928   0.967   2.126 -0.2943 -1.5501 -2.7174
 1501SOL    HW216140   4.040   0.956   2.223 -1.2855  1.1873  0.1913
 1502SOL     OW16141   2.568   1.081  17.102 -0.1827 -0.3147  0.1803
 1502SOL    HW116142   2.628   1.154  17.090 -0.3520 -0.0585  0.9373
 1502SOL    HW216143   2.577   1.046  17.191  1.3903  1.5057  0.7287
 1503SOL     OW16144   4.159   3.867   9.289  0.0001  0.2139  0.2071
 1503SOL    HW116145   4.097   3.835   9.355  0.9844 -0.0214  1.0267
 1503SOL    HW216146   4.195   3.789   9.246 -3.0717 -2.3384  2.2890
 1504SOL     OW16147   4.047   3.987   6.487 -0.6610 -0.3255 -0.1433
 1504SOL    HW116148   3.991   4.060   6.511 -1.9193 -1.6412  0.9635
 1504SOL    HW216149   4.091   3.965   6.569 -2.1351 -1.3186  0.3812
 1505SOL     OW16150   4.609   0.774   1.678  0.5421 -0.4866  0.5254
 1505SOL    HW116151   4.689   0.781   1.730  1.0562 -0.1541 -0.3233
 1505SOL    HW216152   4.656   0.772   1.595  2.6901 -1.4415  1.7510
 1506SOL     OW16153   2.848   1.594   5.311 -0.3700 -0.4802 -0.3898
 1506SOL    HW116154   2.810   1.661   5.254 -1.1343  0.6241  1.4291
 1506SOL    HW216155   2.916   1.640   5.360 -1.3547  0.1477  0.3808
 1507SOL     OW16156   3.585   3.103   5.190 -0.6684 -0.5323 -0.9622
 1507SOL    HW116157   3.678   3.109   5.210 -0.8485  0.2185 -0.3688
 1507SOL    HW216158   3.545   3.134   5.271 -1.1725 -4.1742  0.1700
 1508SOL     OW16159   1.357   1.011   4.945  1.0028  0.3831 -0.1055
 1508SOL    HW116160   1.419   0.943   4.918  1.2562 -0.0277  1.4899
 1508SOL    HW216161   1.347   0.987   5.037 -2.2163 -1.4012 -0.8926
 1509SOL     OW16162   3.221   3.691   7.065  0.1559 -0.8079  0.0785
 1509SOL    HW116163   3.141   3.665   7.109 -0.4260 -0.7656 -0.9473
 1509SOL    HW216164   3.232   3.779   7.103 -1.1674 -0.5024 -0.2487
 1510SOL     OW16165   1.386   2.792   6.023  0.3076 -0.0383  0.0153
 1510SOL    HW116166   1.333   2.851   5.969 -1.8140 -0.9072  1.1287
 1510SOL    HW216167   1.470   2.777   5.980  0.3358  1.0274 -0.2927
 1511SOL     OW16168   0.372   2.898   2.279 -0.5787 -0.7956 -0.7461
 1511SOL    HW116169   0.437   2.967   2.265 -2.4920  1.3601  0.8806
 1511SOL    HW216170   0.422   2.820   2.255  0.3200 -0.5002  0.1245
 1512SOL     OW16171   3.834   4.008  15.631  0.0068 -0.3734 -0.4114
 1512SOL    HW116172   3.796   4.028  15.717 -0.3107  1.3499 -0.9514
 1512SOL    HW216173   3.863   3.918  15.643 -0.5901 -0.4470  0.5070
 1513SOL     OW16174   1.398   0.764   3.920  0.0306 -0.2877 -0.4411
 1513SOL    HW116175   1.453   0.819   3.864 -0.1997  0.2554 -0.1258
 1513SOL    HW216176   1.438   0.677   3.920  1.6017  0.4285  2.8602
 1514SOL     OW16177   2.002   1.565   1.618  0.3249  0.6181 -0.2999
 1514SOL    HW116178   2.022   1.476   1.588  0.3888  0.7585 -0.6719
 1514SOL    HW216179   2.089   1.595   1.645 -0.6942  1.3382  2.2351
 1515SOL     OW16180   2.490   0.541   5.763  0.2606  0.0729  0.0240
 1515SOL    HW116181   2.464   0.589   5.842  0.4352 -0.8911  0.6792
 1515SOL    HW216182   2.440   0.463   5.789  0.2597  0.4481  1.1277
 1516SOL     OW16183   2.494   4.639   1.844 -0.0162  0.1079 -0.1016
 1516SOL    HW116184   2.584   4.615   1.864  0.6072  0.2712 -2.7920
 1516SOL    HW216185   2.455   4.626   1.931 -1.5540 -0.9895 -0.9433
 1517SOL     OW16186   4.608   3.632   4.938  0.4587 -0.6125 -0.4112
 1517SOL    HW116187   4.691   3.594   4.909 -0.1158 -1.4891 -0.9279
 1517SOL    HW216188   4.632   3.678   5.018 -1.7677  0.5567 -0.4237
 1518SOL     OW16189   2.797   4.092   7.793  0.1265  0.2940 -0.2504
 1518SOL    HW116190   2.712   4.059   7.823  0.0392  2.0116  1.3718
 1518SOL    HW216191   2.810   4.147   7.870 -1.4885  0.0207  0.2127
 1519SOL     OW16192   3.596   3.691   3.146 -0.5060  0.1152  1.6416
 1519SOL    HW116193   3.588   3.606   3.188 -2.8879 -0.9999 -1.1303
 1519SOL    HW216194   3.501   3.703   3.147 -0.2083  2.5638  1.4720
 1520SOL     OW16195   4.679   3.592  11.615 -0.2100  0.7759 -0.5303
 1520SOL    HW116196   4.711   3.599  11.705  1.8892 -0.5598 -1.1725
 1520SOL    HW216197   0.020   3.545  11.585 -0.2198  0.7640 -0.5371
 1521SOL     OW16198   1.317   3.662   2.156 -0.7879  0.1190 -0.2595
 1521SOL    HW116199   1.242   3.638   2.210 -0.3197 -1.2645 -0.2139
 1521SOL    HW216200   1.378   3.592   2.180  2.1106  2.4823 -0.7564
 1522SOL     OW16201   0.850   2.360   1.340  0.1467 -0.2994 -0.1533
 1522SOL    HW116202   0.805   2.428   1.391  0.7277 -0.9366  1.2047
 1522SOL    HW216203   0.870   2.409   1.261  2.0233 -2.0038 -0.7372
 1523SOL     OW16204   2.070   0.418   2.306 -0.1137 -0.1411 -0.1920
 1523SOL    HW116205   2.127   0.466   2.246  0.1094 -1.9875 -1.4989
 1523SOL    HW216206   2.117   0.418   2.389 -0.0002 -0.2583 -0.2547
 1524SOL     OW16207   2.152   1.053   2.794  0.1756  0.6864  0.8316
 1524SOL    HW116208   2.170   1.142   2.826  2.5558  0.3669  0.2974
 1524SOL    HW216209   2.208   0.994   2.844 -0.0481 -2.8480 -3.0782
 1525SOL     OW16210   4.647   3.265   8.695  0.2001  0.3077  0.1811
 1525SOL    HW116211   4.590   3.205   8.648 -1.0016 -1.6854  4.1857
 1525SOL    HW216212   4.653   3.342   8.638  0.4659  0.5238  0.4963
 1526SOL     OW16213   4.644   3.511   3.059 -0.0531  0.2886 -0.3106
 1526SOL    HW116214   4.712   3.552   3.112 -1.7984  0.6773  1.6178
 1526SOL    HW216215   4.564   3.547   3.096 -0.9944 -1.2635 -0.8309
 1527SOL     OW16216   4.538   0.639  16.070  0.4697 -0.0578  0.3451
 1527SOL    HW116217   4.496   0.639  15.984  1.1086 -0.0750  0.0358
 1527SOL    HW216218   4.558   0.547  16.083 -5.0533 -1.2506  0.4455
 1528SOL     OW16219   4.298   0.975   6.009 -0.4000  0.4660 -0.2814
 1528SOL    HW116220   4.367   1.015   5.957 -0.0292 -0.5188 -0.5407
 1528SOL    HW216221   4.240   0.960   5.935 -0.8360  0.2544  0.0996
 1529SOL     OW16222   4.093   1.389   3.606 -0.4952 -0.0931  0.1976
 1529SOL    HW116223   4.108   1.413   3.698 -2.6048 -0.9805  0.7699
 1529SOL    HW216224   4.006   1.428   3.596 -0.7753 -1.0843 -1.2092
 1530SOL     OW16225   1.923   2.475   4.795  0.6305 -0.2999 -0.9504
 1530SOL    HW116226   1.949   2.561   4.763 -1.3549  0.7479  0.2871
 1530SOL    HW216227   1.868   2.442   4.724 -0.3386 -1.1462  0.1898
 1531SOL     OW16228   3.901   3.126  14.639 -0.1406 -0.7902  0.2695
 1531SOL    HW116229   3.977   3.156  14.589 -0.1368  0.4162  1.0229
 1531SOL    HW216230   3.925   3.033  14.633  0.9994 -0.5395  0.8518
 1532SOL     OW16231   4.374   4.006   6.648 -0.2536 -0.5067  0.2680
 1532SOL    HW116232   4.449   3.981   6.703  1.2962 -2.6602 -2.8179
 1532SOL    HW216233   4.412   4.090   6.622 -0.3053 -0.7446 -0.5737
 1533SOL     OW16234   1.979   2.289   4.220  0.0529 -0.1933  0.0528
 1533SOL    HW116235   1.992   2.316   4.310  0.0049  0.0444 -0.0119
 1533SOL    HW216236   2.032   2.210   4.227  0.2781  0.0669  1.2812
 1534SOL     OW16237   4.013   1.067   7.575 -0.1508 -0.0903 -0.0652
 1534SOL    HW116238   4.025   0.983   7.532  2.1670  1.1513 -1.8844
 1534SOL    HW216239   3.979   1.127   7.509 -0.3701 -1.8850 -1.5646
 1535SOL     OW16240   0.110   0.589   1.976  0.6376  0.4148  0.4403
 1535SOL    HW116241   0.027   0.548   2.001  0.9140  1.1224  2.4967
 1535SOL    HW216242   0.166   0.517   1.950 -0.7037  0.3079 -2.1932
 1536SOL     OW16243   2.012   2.566   8.315  0.4932 -0.6528 -0.0374
 1536SOL    HW116244   1.969   2.500   8.261  1.2318  0.0986 -1.5475
 1536SOL    HW216245   2.094   2.518   8.331  2.2984  1.6543 -2.3753
 1537SOL     OW16246   3.918   1.988   5.340  0.5107  0.5317  0.2378
 1537SOL    HW116247   3.979   2.046   5.295 -0.9288  2.1623  0.3463
 1537SOL    HW216248   3.936   2.000   5.433 -1.2516  1.1483  0.5037
 1538SOL     OW16249   4.240   2.495   6.414 -0.6034 -0.0865 -0.3607
 1538SOL    HW116250   4.282   2.561   6.359  2.0095  0.1013  1.9072
 1538SOL    HW216251   4.275   2.538   6.492 -2.1670 -1.6640  1.2280
 1539SOL     OW16252   4.010   0.216   5.217 -0.0598 -0.7204 -0.0923
 1539SOL    HW116253   4.096   0.196   5.180 -0.3169 -0.3702 -0.8896
 1539SOL    HW216254   4.024   0.309   5.235 -0.2023 -0.6230 -0.4879
 1540SOL     OW16255   1.330   1.954   6.552  0.2010 -0.0102  0.2960
 1540SOL    HW116256   1.337   1.999   6.637 -2.1338  0.5387  0.1943
 1540SOL    HW216257   1.311   1.861   6.563 -0.8395  0.5161  3.0862
 1541SOL     OW16258   3.095   3.857   1.508 -0.2161  0.2240 -0.0173
 1541SOL    HW116259   3.023   3.849   1.446 -1.2359 -1.0011  1.3145
 1541SOL    HW216260   3.056   3.911   1.576 -2.4198 -0.9094 -0.3706
 1542SOL     OW16261   2.941   1.715   1.519  0.0119  0.3681  0.2745
 1542SOL    HW116262   2.991   1.678   1.447 -1.3961  1.8872 -1.4735
 1542SOL    HW216263   2.881   1.641   1.531 -0.2359  0.6506  0.7817
 1543SOL     OW16264   1.546   3.323   5.584  0.7243  0.1538 -0.1727
 1543SOL    HW116265   1.617   3.381   5.611 -1.8730  3.1007  0.3728
 1543SOL    HW216266   1.507   3.309   5.671  0.0248 -1.1190 -0.6963
 1544SOL     OW16267   1.209   1.088   9.300  0.8613  0.1100 -0.0335
 1544SOL    HW116268   1.266   1.128   9.365 -0.3131  0.6793  0.6553
 1544SOL    HW216269   1.125   1.134   9.299 -0.0668 -1.5501  0.8185
 1545SOL     OW16270   0.298   2.037   0.911  0.0293 -0.1702  0.6987
 1545SOL    HW116271   0.373   2.096   0.901 -2.0111  1.9359 -2.2354
 1545SOL    HW216272   0.232   2.098   0.944  0.7091  0.7558  0.3524
 1546SOL     OW16273   1.654   4.078  11.617  0.4796 -0.1045  0.5618
 1546SOL    HW116274   1.730   4.089  11.674  0.0794 -0.3612  1.1505
 1546SOL    HW216275   1.680   4.132  11.542 -1.0509  0.1884  0.2480
 1547SOL     OW16276   0.309   1.366  16.882 -0.0862  0.0602  0.3771
 1547SOL    HW116277   0.342   1.365  16.972 -1.0427 -0.8006  0.7265
 1547SOL    HW216278   0.378   1.311  16.845 -0.3695 -0.6122  0.8446
 1548SOL     OW16279   2.230   1.385   1.892 -0.2734 -0.3100  0.4435
 1548SOL    HW116280   2.239   1.291   1.907 -2.1633 -0.7115 -0.8869
 1548SOL    HW216281   2.138   1.388   1.866 -0.9162  0.3300  2.7916
 1549SOL     OW16282   3.333   2.245   4.665  0.4961  0.1393 -0.0706
 1549SOL    HW116283   3.378   2.273   4.585 -1.4439 -1.1713 -1.6223
 1549SOL    HW216284   3.332   2.327   4.715  0.6498  1.1425 -1.7214
 1550SOL     OW16285   0.121   0.986   4.484 -0.4528  0.2677 -0.7790
 1550SOL    HW116286   0.136   0.930   4.408 -2.1005 -2.0196  0.5843
 1550SOL    HW216287   0.207   1.021   4.506 -0.6500  1.3361 -1.6749
 1551SOL     OW16288   4.533   4.104  12.009  0.5607 -0.2395 -0.2332
 1551SOL    HW116289   4.531   4.185  12.059  1.1838 -1.2320  1.3769
 1551SOL    HW216290   4.613   4.057  12.031  0.4111 -0.1830  0.4206
 1552SOL     OW16291   2.584   4.689   6.166 -0.1293  0.1033 -0.2013
 1552SOL    HW116292   2.654   4.703   6.229  1.7369 -0.9547 -2.0634
 1552SOL    HW216293   2.576   4.594   6.164  0.6645 -0.0038  1.9904
 1553SOL     OW16294   1.129   1.573   1.616 -0.5442 -0.5890 -0.4214
 1553SOL    HW116295   1.211   1.616   1.640 -0.5539 -0.3965 -0.7413
 1553SOL    HW216296   1.125   1.520   1.696  1.3464  0.7072  0.5381
 1554SOL     OW16297   1.064   1.232   7.677 -0.1198  0.9830 -0.1205
 1554SOL    HW116298   1.053   1.276   7.761  1.7895 -0.2576  0.8146
 1554SOL    HW216299   1.055   1.140   7.703  2.2587  1.6534  3.1208
 1555SOL     OW16300   2.362   1.235   6.169 -0.1235  0.1597 -0.3867
 1555SOL    HW116301   2.307   1.313   6.175 -0.1833 -0.1487  2.9789
 1555SOL    HW216302   2.417   1.252   6.092  1.5607 -0.3929  0.6851
 1556SOL     OW16303   2.457   0.610   2.279  0.2686 -0.1519 -0.1919
 1556SOL    HW116304   2.420   0.651   2.357  0.5991  0.8340 -0.5520
 1556SOL    HW216305   2.408   0.658   2.212  0.8037  1.3150  0.4762
 1557SOL     OW16306   2.198   2.175   2.967 -0.1402 -0.3043  0.0836
 1557SOL    HW116307   2.289   2.174   2.938  0.1248  0.7928  0.8938
 1557SOL    HW216308   2.206   2.208   3.056  1.2374  0.6251 -0.3789
 1558SOL     OW16309   0.498   1.764   4.019  0.3990 -0.0649  0.0208
 1558SOL    HW116310   0.476   1.672   4.002  2.1420 -0.5386  0.3744
 1558SOL    HW216311   0.552   1.781   3.942  0.6072 -0.5263  0.0647
 1559SOL     OW16312   2.024   3.154  12.472  0.2277  0.5747  1.0280
 1559SOL    HW116313   2.028   3.228  12.533  1.4335  1.3306  0.0181
 1559SOL    HW216314   2.107   3.108  12.484 -0.6804 -1.5118 -0.8374
 1560SOL     OW16315   0.146   1.931   2.966 -0.2191 -0.6913 -0.2966
 1560SOL    HW116316   0.169   1.990   2.895 -0.4640 -0.5557 -0.2641
 1560SOL    HW216317   0.069   1.883   2.933 -0.6859  0.7914 -1.3591
 1561SOL     OW16318   0.234   4.076  13.273 -0.7880 -1.0046  0.0684
 1561SOL    HW116319   0.172   4.059  13.201 -1.0187 -1.3516  0.3478
 1561SOL    HW216320   0.213   4.168  13.292 -0.8583 -0.8492 -0.7617
 1562SOL     OW16321   2.021   0.698   7.494 -0.7148  0.1026  0.2028
 1562SOL    HW116322   2.074   0.768   7.532  0.3502 -0.4810 -0.2028
 1562SOL    HW216323   2.089   0.644   7.452  1.8100  1.8616  1.9809
 1563SOL     OW16324   2.387   0.655   1.286 -1.0003 -0.0451 -0.0379
 1563SOL    HW116325   2.409   0.601   1.210  0.0474  0.7904 -0.3289
 1563SOL    HW216326   2.462   0.636   1.342 -1.6912  1.6715  1.4792
 1564SOL     OW16327   1.086   2.042  17.078  0.2225  0.3361  0.5945
 1564SOL    HW116328   1.014   2.035  17.141  0.1873 -0.3049  0.4880
 1564SOL    HW216329   1.061   2.095  17.002 -1.7817  2.8524  3.0092
 1565SOL     OW16330   1.157   1.864   8.070 -0.4411 -0.0822  0.3814
 1565SOL    HW116331   1.090   1.804   8.102  0.2715  0.0612  2.1087
 1565SOL    HW216332   1.107   1.909   8.002 -1.2017  0.9419  1.6244
 1566SOL     OW16333   2.847   2.208   4.142 -0.0679 -0.4654 -0.4407
 1566SOL    HW116334   2.889   2.195   4.057  0.1963 -0.7569 -0.2683
 1566SOL    HW216335   2.841   2.118   4.175 -1.6527  0.6472  2.3080
 1567SOL     OW16336   3.532   0.432  10.132  0.0933 -0.5164  0.6678
 1567SOL    HW116337   3.623   0.406  10.116 -0.2598 -0.4070 -1.4220
 1567SOL    HW216338   3.502   0.379  10.206 -1.0476  0.5502  0.9812
 1568SOL     OW16339   0.038   2.684   2.552  0.0241 -0.2776  0.6919
 1568SOL    HW116340   4.690   2.643   2.535  0.0120  0.1387 -0.2029
 1568SOL    HW216341   0.040   2.761   2.496 -3.4669 -0.6900  0.0068
 1569SOL     OW16342   3.422   4.592  17.437 -0.5529  0.1217  0.5477
 1569SOL    HW116343   3.478   4.558  17.507 -0.6847 -0.8462  0.1778
 1569SOL    HW216344   3.373   4.663  17.479 -2.4810 -0.0328 -1.4442
 1570SOL     OW16345   2.079   2.340   6.250  0.2203  0.5625 -0.1783
 1570SOL    HW116346   2.109   2.278   6.317  0.0257  0.3678 -0.2702
 1570SOL    HW216347   2.020   2.404   6.292 -0.0238  0.5668 -0.5277
 1571SOL     OW16348   3.835   4.011   8.806  0.4941  0.6015  0.1917
 1571SOL    HW116349   3.803   4.053   8.726 -0.5793 -2.6761 -1.0788
 1571SOL    HW216350   3.881   4.086   8.845  0.1861  1.1428 -0.4857
 1572SOL     OW16351   3.665   3.517  11.814  0.2534 -0.4759 -0.3036
 1572SOL    HW116352   3.756   3.527  11.841 -0.3705 -0.8272  1.9414
 1572SOL    HW216353   3.632   3.475  11.893  0.3232 -2.2905 -1.2153
 1573SOL     OW16354   2.482   1.254  11.245 -0.4507  0.6520 -0.1609
 1573SOL    HW116355   2.467   1.249  11.339 -2.2182  0.0437 -0.4842
 1573SOL    HW216356   2.528   1.171  11.232 -1.2285  0.0847  0.6952
 1574SOL     OW16357   4.313   1.721   3.918  0.4267 -0.1991  0.6415
 1574SOL    HW116358   4.313   1.816   3.929 -1.2509 -0.1236  0.0521
 1574SOL    HW216359   4.220   1.706   3.934  0.0982 -0.1160 -1.2003
 1575SOL     OW16360   2.264   4.089   5.685  0.2520 -0.5715 -0.2383
 1575SOL    HW116361   2.292   4.152   5.753 -0.8245  1.0966 -1.3542
 1575SOL    HW216362   2.343   4.035   5.680  1.2570  0.8108  0.4755
 1576SOL     OW16363   1.123   0.435  10.040 -0.0028  0.2261 -0.1194
 1576SOL    HW116364   1.152   0.524  10.020 -2.2664  1.1035  0.4089
 1576SOL    HW216365   1.049   0.465  10.093 -1.8946 -0.7244 -2.1896
 1577SOL     OW16366   1.485   1.804   7.756  0.0154 -0.3156 -0.3140
 1577SOL    HW116367   1.499   1.896   7.735 -1.5469 -0.0174 -0.0473
 1577SOL    HW216368   1.460   1.816   7.847  0.8165 -0.7231 -0.0419
 1578SOL     OW16369   3.241   0.168   9.456 -0.3675  0.4737  0.2178
 1578SOL    HW116370   3.252   0.079   9.489  2.3976  0.0122 -1.9187
 1578SOL    HW216371   3.290   0.159   9.374  1.7517 -0.0790  1.5494
 1579SOL     OW16372   3.835   0.930  15.785 -0.2957  0.1494  0.6614
 1579SOL    HW116373   3.905   0.866  15.777 -0.8059 -0.7165  3.2639
 1579SOL    HW216374   3.883   1.005  15.750 -0.7004 -0.0111 -0.2456
 1580SOL     OW16375   1.756   2.725   7.039 -0.0497 -0.3143 -0.0451
 1580SOL    HW116376   1.723   2.806   7.000  0.6183  0.4876  1.0548
 1580SOL    HW216377   1.729   2.736   7.130  0.5130  2.2350 -0.1665
 1581SOL     OW16378   0.685   4.045   2.138 -0.5905 -0.2797 -0.4189
 1581SOL    HW116379   0.627   4.027   2.211  0.4801  1.4907  0.8846
 1581SOL    HW216380   0.656   4.131   2.107  1.2396  0.7955  0.8108
 1582SOL     OW16381   1.939   0.911   2.286 -0.2715  0.3607  0.5874
 1582SOL    HW116382   2.007   0.849   2.312 -3.0688 -3.2084 -0.6126
 1582SOL    HW216383   1.865   0.872   2.333  0.5353 -0.6443  1.0266
 1583SOL     OW16384   0.275   2.434   3.390 -0.2499  0.1425  0.1198
 1583SOL    HW116385   0.249   2.490   3.317 -1.8892  0.7473  1.1735
 1583SOL    HW216386   0.366   2.415   3.369  0.2672  0.6235  1.9455
 1584SOL     OW16387   1.394   3.344   7.466  0.1490  0.6023 -0.9356
 1584SOL    HW116388   1.344   3.381   7.539  0.9884 -1.4564  0.7037
 1584SOL    HW216389   1.472   3.397   7.453 -0.0734  1.0837 -0.2946
 1585SOL     OW16390   0.021   4.407   6.667 -0.2515 -0.2023  0.1032
 1585SOL    HW116391   0.042   4.370   6.753  0.0594 -1.4530 -0.5023
 1585SOL    HW216392   0.101   4.412   6.615  0.5356 -0.9935  1.2379
 1586SOL     OW16393   1.727   0.057   8.068 -0.0091  0.0253  0.3629
 1586SOL    HW116394   1.790   0.127   8.082 -1.1856  1.2558 -0.5592
 1586SOL    HW216395   1.667   0.095   8.005  0.5713 -1.7304 -1.2461
 1587SOL     OW16396   0.112   0.378   3.694  0.2043 -0.5912 -0.2280
 1587SOL    HW116397   0.040   0.442   3.692  1.0048  0.2181 -3.0275
 1587SOL    HW216398   0.187   0.437   3.692 -1.7524  1.9656  1.2951
 1588SOL     OW16399   0.576   2.386  12.399  0.0689  0.2137 -0.0678
 1588SOL    HW116400   0.480   2.390  12.393  0.0107  2.0233  2.1058
 1588SOL    HW216401   0.602   2.476  12.418  0.4591  0.2300 -0.6561
 1589SOL     OW16402   4.663   0.745   6.360  0.2823  0.3522 -0.0878
 1589SOL    HW116403   4.593   0.736   6.296 -0.6482  1.9423  0.7065
 1589SOL    HW216404   4.682   0.836   6.338  1.0224  0.2082 -0.0523
 1590SOL     OW16405   3.711   2.784   9.225  0.6669  0.1989 -0.6657
 1590SOL    HW116406   3.782   2.758   9.283 -0.4748 -0.8083  0.2861
 1590SOL    HW216407   3.635   2.740   9.263 -0.0288  0.5132 -1.7000
 1591SOL     OW16408   3.709   0.091   7.976  0.2051 -0.2678  0.0513
 1591SOL    HW116409   3.789   0.041   7.991  1.4342  0.9313 -2.4390
 1591SOL    HW216410   3.682   0.056   7.891  0.9569 -1.8123  0.4505
 1592SOL     OW16411   4.573   4.390  16.490  0.0680 -0.7735  0.3479
 1592SOL    HW116412   4.600   4.299  16.497  1.1745 -0.4323  0.4293
 1592SOL    HW216413   4.638   4.423  16.552 -0.8360  0.1802  0.7839
 1593SOL     OW16414   3.245   1.700   3.724 -0.0932  0.0229 -0.4132
 1593SOL    HW116415   3.161   1.659   3.746  0.1828  0.4477  1.4570
 1593SOL    HW216416   3.222   1.761   3.654  1.8519  0.9933 -0.1960
 1594SOL     OW16417   1.222   1.482   9.991  0.2096 -0.3004  0.4076
 1594SOL    HW116418   1.187   1.438  10.068 -0.5436 -1.1119 -0.3888
 1594SOL    HW216419   1.249   1.404   9.942  2.1669  0.8683 -0.3588
 1595SOL     OW16420   2.979   4.500   0.164 -0.5500  0.2750  0.2549
 1595SOL    HW116421   2.921   4.426   0.145 -2.5378  1.5588  1.4942
 1595SOL    HW216422   2.949   4.567   0.102  0.5724  0.0373 -0.5635
 1596SOL     OW16423   2.573   3.409  13.078 -0.0941  0.1653  0.1484
 1596SOL    HW116424   2.492   3.358  13.073  1.2249 -2.0706  1.5847
 1596SOL    HW216425   2.546   3.466  13.149 -0.1984 -1.4571  1.4225
 1597SOL     OW16426   4.021   3.785   3.765  0.6408 -0.5008 -0.0001
 1597SOL    HW116427   4.000   3.732   3.842 -1.2131 -1.1377 -0.9392
 1597SOL    HW216428   4.110   3.815   3.785  0.9337 -1.4153  0.0475
 1598SOL     OW16429   0.065   2.926   0.599 -0.5869 -0.4075 -0.1378
 1598SOL    HW116430   4.711   2.936   0.626 -0.6682  1.4213 -1.0927
 1598SOL    HW216431   0.070   2.858   0.532 -0.3784  1.1333 -1.6961
 1599SOL     OW16432   3.260   3.397  14.990  0.0209 -0.2696  0.2135
 1599SOL    HW116433   3.196   3.399  14.920 -0.5665  0.3988  0.7631
 1599SOL    HW216434   3.327   3.456  14.955 -1.2467  1.2205  0.2688
 1600SOL     OW16435   3.441   0.385  17.693  0.2118  0.6606 -0.4070
 1600SOL    HW116436   3.395   0.389  17.610  2.8437  1.5101 -1.8159
 1600SOL    HW216437   3.389   0.324  17.744  1.7320 -0.3167 -0.0102
 1601SOL     OW16438   3.527   2.240  13.711  0.4316  0.2409 -0.2044
 1601SOL    HW116439   3.462   2.170  13.712  1.5033 -0.7668 -1.0179
 1601SOL    HW216440   3.517   2.276  13.623  2.7094  0.3627 -0.4193
 1602SOL     OW16441   0.563   3.095   7.540 -0.5668  0.1074 -0.0637
 1602SOL    HW116442   0.479   3.125   7.508 -1.0382 -2.0188 -0.8404
 1602SOL    HW216443   0.616   3.074   7.463  1.3708  2.3727  0.6246
 1603SOL     OW16444   4.306   0.571   7.342  0.1167  0.0742 -0.2071
 1603SOL    HW116445   4.330   0.615   7.424 -2.4823  1.6380 -0.2788
 1603SOL    HW216446   4.280   0.653   7.300  0.0343  0.3431  0.3709
 1604SOL     OW16447   4.217   2.940   7.042 -0.1418 -0.2643  0.6694
 1604SOL    HW116448   4.172   2.949   6.958 -1.5592  0.0075  1.4617
 1604SOL    HW216449   4.166   2.876   7.091 -3.3582 -0.3751 -2.8807
 1605SOL     OW16450   4.689   3.617  17.363 -0.2960 -0.8009  0.2030
 1605SOL    HW116451   0.000   3.656  17.291  0.7412 -0.4796  1.0654
 1605SOL    HW216452   4.607   3.667  17.369  1.3371  1.4375  3.6095
 1606SOL     OW16453   2.657   2.589   2.121  0.2134 -0.1906  0.0052
 1606SOL    HW116454   2.581   2.621   2.072  0.0021 -1.3128 -0.4112
 1606SOL    HW216455   2.603   2.544   2.186 -0.5303  1.9103  0.8415
 1607SOL     OW16456   1.287   2.298   1.057  0.1269 -0.4072  0.0069
 1607SOL    HW116457   1.225   2.354   1.010 -1.1005 -1.4506  0.3610
 1607SOL    HW216458   1.340   2.372   1.083 -1.2941  0.6323 -0.0551
 1608SOL     OW16459   1.327   3.764   7.620  0.3266 -0.1237 -0.5363
 1608SOL    HW116460   1.374   3.681   7.611 -1.5514 -1.2835  0.2931
 1608SOL    HW216461   1.237   3.744   7.596 -0.4672  1.2726  1.3394
 1609SOL     OW16462   0.031   0.905   6.837  0.9337 -0.7816  0.7326
 1609SOL    HW116463   0.109   0.868   6.796 -0.1160 -1.7685 -0.3855
 1609SOL    HW216464   0.011   0.851   6.914 -0.0916 -0.4020  0.7311
 1610SOL     OW16465   4.050   2.383   6.993 -0.0625 -0.2967 -0.1842
 1610SOL    HW116466   4.078   2.474   6.983  0.6869 -0.6697 -1.4503
 1610SOL    HW216467   3.990   2.388   7.067 -1.7631 -2.9694 -1.3519
 1611SOL     OW16468   4.182   2.170   3.495  0.6221 -0.3701 -0.3129
 1611SOL    HW116469   4.204   2.176   3.588 -0.3462  0.4900 -0.1300
 1611SOL    HW216470   4.203   2.259   3.466 -4.1597  1.8421  2.8841
 1612SOL     OW16471   2.100   1.674   4.979 -0.1263 -0.1318  0.0077
 1612SOL    HW116472   2.089   1.732   4.903 -0.6816  0.7808  0.7776
 1612SOL    HW216473   2.088   1.593   4.929  0.7945  0.0633 -0.5345
 1613SOL     OW16474   3.675   0.561   3.557  0.0608  0.9671 -0.1690
 1613SOL    HW116475   3.622   0.509   3.497  0.2251 -1.1414  1.4858
 1613SOL    HW216476   3.635   0.559   3.644 -0.1364 -0.5968 -0.2978
 1614SOL     OW16477   3.058   1.526   2.374 -0.2821  0.3389 -0.0405
 1614SOL    HW116478   2.993   1.521   2.443  2.3915 -2.3905  2.2989
 1614SOL    HW216479   3.034   1.603   2.323 -0.7999 -0.2615 -0.7131
 1615SOL     OW16480   1.462   2.376  16.261 -0.1427  0.4004 -0.1196
 1615SOL    HW116481   1.375   2.345  16.288 -0.5549 -0.2221 -2.1967
 1615SOL    HW216482   1.455   2.464  16.299 -1.8664 -0.4650  1.5888
 1616SOL     OW16483   3.568   0.729  15.372  0.0785 -0.3371  0.4090
 1616SOL    HW116484   3.590   0.784  15.297 -1.6017  0.3841  0.4603
 1616SOL    HW216485   3.581   0.796  15.439  1.2685  1.2437 -1.4149
 1617SOL     OW16486   0.212   4.721   8.560 -0.1173  0.0978 -0.2335
 1617SOL    HW116487   0.178   0.025   8.480 -0.3213  0.1247 -0.1337
 1617SOL    HW216488   0.288   0.039   8.579 -1.3352  1.2213  1.3957
 1618SOL     OW16489   0.067   2.361   9.398 -0.0522 -0.3551 -0.2450
 1618SOL    HW116490   0.051   2.374   9.304 -0.7177 -0.5794 -0.1634
 1618SOL    HW216491   0.106   2.274   9.396  3.1941  1.1107 -2.6132
 1619SOL     OW16492   2.049   2.020   4.211 -0.6216 -0.1240 -0.0738
 1619SOL    HW116493   2.073   1.945   4.267  1.0542 -1.0908 -2.1037
 1619SOL    HW216494   2.109   2.015   4.137  0.2731  0.1034  0.6302
 1620SOL     OW16495   1.929   4.018   8.110 -0.1550 -0.5827 -0.1800
 1620SOL    HW116496   1.958   3.989   8.023  2.7496  1.1915  0.1849
 1620SOL    HW216497   1.846   3.971   8.112 -0.3343 -0.1871  2.0980
 1621SOL     OW16498   4.476   1.847   9.176 -1.0652 -0.5105 -0.0405
 1621SOL    HW116499   4.499   1.840   9.269 -2.1961  1.4931  0.3802
 1621SOL    HW216500   4.392   1.803   9.163 -1.8758  1.3090 -0.9839
 1622SOL     OW16501   0.496   3.412   2.250 -0.0624 -0.5987  0.4550
 1622SOL    HW116502   0.569   3.392   2.308  0.2166  0.5013  0.4970
 1622SOL    HW216503   0.449   3.330   2.241  2.7824 -2.1024 -0.6486
 1623SOL     OW16504   3.907   0.178  15.762  0.1274  0.0424 -0.6764
 1623SOL    HW116505   3.966   0.119  15.809  0.2173 -0.4740 -1.4269
 1623SOL    HW216506   3.949   0.264  15.769 -0.0057  0.0448  0.0139
 1624SOL     OW16507   2.310   0.048   3.947  0.3379 -0.3331 -0.7500
 1624SOL    HW116508   2.282   0.094   3.869 -0.0036  0.0445 -0.4068
 1624SOL    HW216509   2.342   4.703   3.907 -0.9499  0.2313 -2.9052
 1625SOL     OW16510   0.162   1.112   6.139 -0.3522 -0.1395  0.1306
 1625SOL    HW116511   0.119   1.190   6.104  1.0549 -0.5728 -2.5707
 1625SOL    HW216512   0.122   1.109   6.226 -0.4803  0.3704  0.0911
 1626SOL     OW16513   3.526   3.953   1.578 -0.1975 -0.2886 -0.0191
 1626SOL    HW116514   3.512   4.014   1.650 -2.6035 -0.9000  0.0443
 1626SOL    HW216515   3.484   3.871   1.604 -1.9743  0.4208 -0.6633
 1627SOL     OW16516   1.284   3.006   6.989 -0.3750  0.4347  0.2079
 1627SOL    HW116517   1.308   3.011   6.896 -1.3203 -0.1521 -0.0662
 1627SOL    HW216518   1.364   3.014   7.041 -0.8902  1.6618  0.8075
 1628SOL     OW16519   2.525   1.928   2.505  0.9458  0.1023  0.0024
 1628SOL    HW116520   2.589   1.896   2.442  2.0473  0.0107  1.1756
 1628SOL    HW216521   2.444   1.912   2.457  1.3714  0.3618 -0.8070
 1629SOL     OW16522   3.390   1.563   5.124 -0.0113  0.2052 -0.1532
 1629SOL    HW116523   3.330   1.520   5.063  1.9985 -0.4322 -1.6703
 1629SOL    HW216524   3.467   1.563   5.068  0.8301 -1.4610  1.0285
 1630SOL     OW16525   3.769   3.406   6.327  0.2099 -0.2105  0.7605
 1630SOL    HW116526   3.786   3.460   6.249  0.9472  0.3520  1.3101
 1630SOL    HW216527   3.714   3.337   6.290  1.0594 -0.4596 -0.0201
 1631SOL     OW16528   0.040   3.134   2.484  0.6314 -0.3987  0.1504
 1631SOL    HW116529   0.080   3.114   2.399 -1.1824  1.1007 -1.0369
 1631SOL    HW216530   4.708   3.196   2.464  0.1968 -0.7484  0.5708
 1632SOL     OW16531   3.245   2.540   6.796 -0.4447 -0.3152 -0.2819
 1632SOL    HW116532   3.267   2.482   6.724  1.4729  0.4336 -0.2937
 1632SOL    HW216533   3.314   2.522   6.860  0.0918  0.7329 -0.5795
 1633SOL     OW16534   3.494   3.330  13.881  0.0974 -0.5178 -0.0253
 1633SOL    HW116535   3.423   3.277  13.843 -1.1727  1.9438 -1.0837
 1633SOL    HW216536   3.444   3.411  13.892  0.2055 -0.4492 -0.0372
 1634SOL     OW16537   2.331   1.981   6.599  0.2391 -0.0022  0.2756
 1634SOL    HW116538   2.419   1.987   6.563  1.6740 -2.2003  3.4287
 1634SOL    HW216539   2.341   2.030   6.680 -0.2957  1.4056 -0.4972
 1635SOL     OW16540   0.304   1.386  13.281 -0.1723 -0.4369 -0.0349
 1635SOL    HW116541   0.365   1.430  13.341 -1.2263 -0.5802  1.1211
 1635SOL    HW216542   0.330   1.294  13.290 -2.0951 -0.7306  2.4567
 1636SOL     OW16543   0.389   1.351  15.835 -0.0972 -0.4287 -0.0382
 1636SOL    HW116544   0.389   1.441  15.801  0.7726  0.5822  2.6230
 1636SOL    HW216545   0.391   1.296  15.757 -0.7560 -1.1553  0.4584
 1637SOL     OW16546   2.499   1.934  10.854 -0.3993  0.2055  0.1304
 1637SOL    HW116547   2.592   1.949  10.868  0.0645 -1.2918 -1.3099
 1637SOL    HW216548   2.478   1.887  10.935 -0.4090  1.9790  1.1498
 1638SOL     OW16549   2.738   0.246   7.917  0.6694 -0.3416 -0.0578
 1638SOL    HW116550   2.710   0.170   7.865  0.4214  0.2560 -0.8071
 1638SOL    HW216551   2.823   0.262   7.876  0.2938  1.2788 -0.2301
 1639SOL     OW16552   2.689   3.144   9.346  0.3389  0.5343 -0.3384
 1639SOL    HW116553   2.605   3.182   9.371 -0.1966  0.5281 -2.1800
 1639SOL    HW216554   2.745   3.215   9.377  0.2618  0.8632 -0.9581
 1640SOL     OW16555   0.711   1.216  11.528 -0.9509 -0.5319 -0.4455
 1640SOL    HW116556   0.790   1.269  11.539 -3.2983  2.8446  0.1396
 1640SOL    HW216557   0.743   1.132  11.563  0.5032 -0.1702 -0.9019
 1641SOL     OW16558   1.903   4.712  12.849 -0.6675 -0.1543 -0.7174
 1641SOL    HW116559   1.944   0.030  12.916  0.0241 -1.1820 -0.2908
 1641SOL    HW216560   1.966   4.642  12.834  0.9178  1.1598 -0.1676
 1642SOL     OW16561   1.467   0.605   2.267 -0.6848  0.4406 -0.2614
 1642SOL    HW116562   1.373   0.590   2.274 -0.7809  1.0516 -0.2736
 1642SOL    HW216563   1.479   0.537   2.200  1.9116  0.7469 -0.0982
 1643SOL     OW16564   2.410   0.554   5.227 -0.3805 -0.0964 -0.4849
 1643SOL    HW116565   2.378   0.542   5.138  1.2732  0.9109 -1.2182
 1643SOL    HW216566   2.330   0.557   5.279  0.7391  0.2677  1.2240
 1644SOL     OW16567   0.694   3.940  12.208  0.4476 -0.5357  0.5319
 1644SOL    HW116568   0.732   4.027  12.202 -0.8062  0.1166  1.8362
 1644SOL    HW216569   0.634   3.937  12.134  0.1866 -2.2374  0.8021
 1645SOL     OW16570   2.491   1.969  14.251 -0.2910  0.5028 -0.4022
 1645SOL    HW116571   2.533   1.999  14.331 -0.3347 -1.1077  0.2097
 1645SOL    HW216572   2.539   1.889  14.230 -0.1757  0.2804  0.7218
 1646SOL     OW16573   1.508   4.680   5.508 -0.3754 -0.2091  0.2871
 1646SOL    HW116574   1.547   4.701   5.423 -0.0593 -3.0560 -0.2605
 1646SOL    HW216575   1.499   0.030   5.549  1.3528 -0.7696  1.8284
 1647SOL     OW16576   3.649   4.300   5.463  0.4983  0.3873  0.0376
 1647SOL    HW116577   3.618   4.382   5.425 -0.0713 -0.5640 -1.5275
 1647SOL    HW216578   3.576   4.242   5.442  1.3575 -1.0548  1.0795
 1648SOL     OW16579   2.248   0.618   6.634 -0.0976  0.6279  0.5513
 1648SOL    HW116580   2.207   0.632   6.719  1.7374  2.2690  1.1672
 1648SOL    HW216581   2.201   0.680   6.579 -0.6661  0.1716  0.5297
 1649SOL     OW16582   3.013   3.032  11.892 -0.5089  0.2530  0.6118
 1649SOL    HW116583   3.047   3.120  11.877  0.1188 -0.3244 -1.3131
 1649SOL    HW216584   2.976   3.035  11.980 -1.9200  1.1031 -0.0148
 1650SOL     OW16585   1.204   3.639  14.749 -0.2502  0.3437  0.6603
 1650SOL    HW116586   1.126   3.608  14.795  0.4478  1.8012  2.8339
 1650SOL    HW216587   1.247   3.687  14.820  2.3092 -0.0831 -0.5923
 1651SOL     OW16588   2.923   2.598   6.502 -0.3229 -0.1605  0.1966
 1651SOL    HW116589   2.878   2.639   6.428 -0.0492  2.0338  1.2379
 1651SOL    HW216590   3.005   2.647   6.500 -1.3280  1.5140 -0.3373
 1652SOL     OW16591   2.388   0.347   2.332 -0.0134 -0.1409  0.2884
 1652SOL    HW116592   2.424   0.419   2.280 -0.0588  0.7257  1.4504
 1652SOL    HW216593   2.348   0.394   2.405  1.3990  0.5484  0.6018
 1653SOL     OW16594   2.713   3.233   0.869 -0.4315 -0.5869 -0.5353
 1653SOL    HW116595   2.683   3.262   0.782 -0.3783 -1.7451 -0.9365
 1653SOL    HW216596   2.631   3.247   0.916 -1.0122 -1.1793 -1.3688
 1654SOL     OW16597   1.325   3.962  14.625 -0.0302  0.1359  0.3430
 1654SOL    HW116598   1.262   4.033  14.615  0.4150  0.3906 -0.7064
 1654SOL    HW216599   1.405   4.012  14.641 -0.2694  1.4935 -2.5507
 1655SOL     OW16600   0.367   0.659   1.414  0.6055 -0.3535 -0.3565
 1655SOL    HW116601   0.336   0.653   1.323  0.3123 -0.8457 -0.2277
 1655SOL    HW216602   0.284   0.683   1.454  0.6449 -0.1860 -0.3755
 1656SOL     OW16603   1.939   3.571   4.372 -0.0665  0.0322  0.6471
 1656SOL    HW116604   1.848   3.543   4.360  0.4925 -1.1578 -0.9168
 1656SOL    HW216605   1.960   3.582   4.279  0.0056  1.2023  0.8109
 1657SOL     OW16606   0.599   0.111   6.803  0.2992 -0.3084 -0.5873
 1657SOL    HW116607   0.579   0.024   6.837  1.4593 -0.4934 -0.3872
 1657SOL    HW216608   0.547   0.105   6.722  1.0549  0.0516 -1.0951
 1658SOL     OW16609   1.729   1.978  14.562 -0.0471  0.2010  0.0343
 1658SOL    HW116610   1.669   2.009  14.630  0.2544  2.7126 -0.8137
 1658SOL    HW216611   1.682   2.015  14.488 -1.7358  1.3310  1.6625
 1659SOL     OW16612   2.242   1.973   5.969 -0.0635 -0.6362 -0.5831
 1659SOL    HW116613   2.245   1.960   6.063  0.0028 -0.0337 -0.5002
 1659SOL    HW216614   2.163   2.026   5.964 -0.9906 -2.0009 -0.1525
 1660SOL     OW16615   3.670   3.381  16.660  0.1542  0.4787  0.5149
 1660SOL    HW116616   3.692   3.347  16.747  1.2544  1.4145  0.6045
 1660SOL    HW216617   3.692   3.308  16.602 -2.8931 -0.7192  0.8582
 1661SOL     OW16618   1.457   1.052   3.618 -0.0056  0.2754  0.2435
 1661SOL    HW116619   1.436   1.100   3.537  0.4391 -1.0784 -0.6795
 1661SOL    HW216620   1.427   1.115   3.683 -1.1573 -0.6022  0.5653
 1662SOL     OW16621   0.443   2.716   8.288  0.7407  0.0198 -0.0759
 1662SOL    HW116622   0.474   2.707   8.378 -1.5718  0.3096  0.7691
 1662SOL    HW216623   0.471   2.807   8.275 -0.1267  0.3984  0.6778
 1663SOL     OW16624   4.126   3.560  16.571  0.2921 -0.1827 -0.1486
 1663SOL    HW116625   4.049   3.531  16.522  0.7039 -0.1666 -0.8031
 1663SOL    HW216626   4.086   3.551  16.658 -0.3915 -2.0386 -0.6536
 1664SOL     OW16627   0.575   3.865   1.896  0.1093 -0.0122  0.0506
 1664SOL    HW116628   0.575   3.925   1.971  0.2952 -0.2750  0.2629
 1664SOL    HW216629   0.554   3.780   1.935 -0.8350 -0.1448 -0.7551
 1665SOL     OW16630   1.715   4.198   5.327  0.0035 -0.2325  0.2194
 1665SOL    HW116631   1.662   4.262   5.374  0.4390  0.6416 -0.4767
 1665SOL    HW216632   1.743   4.253   5.254 -1.7506  1.6230  0.9501
 1666SOL     OW16633   0.300   1.177   3.616  0.0418  0.5212  0.1243
 1666SOL    HW116634   0.385   1.215   3.640 -0.2160  1.0600  0.1711
 1666SOL    HW216635   0.259   1.235   3.679 -0.8107  0.1065 -0.0521
 1667SOL     OW16636   1.771   3.559   1.713 -0.6363  0.0986 -0.1936
 1667SOL    HW116637   1.819   3.541   1.794 -2.7093  2.0342  1.4441
 1667SOL    HW216638   1.776   3.654   1.718 -1.6189  0.1463 -0.2842
 1668SOL     OW16639   1.068   4.109   8.140 -0.5588 -0.4020  0.1786
 1668SOL    HW116640   1.081   4.116   8.045 -0.0810  0.3038  0.2956
 1668SOL    HW216641   1.103   4.024   8.163  0.3638 -0.2827 -0.7875
 1669SOL     OW16642   2.860   4.059   8.354  0.5836  0.5905 -0.0163
 1669SOL    HW116643   2.941   4.047   8.405  0.5485 -1.4070 -0.4443
 1669SOL    HW216644   2.810   4.122   8.406  0.1321  1.2510 -1.2697
 1670SOL     OW16645   4.677   1.620   8.958 -0.4472 -0.3671 -0.3338
 1670SOL    HW116646   0.027   1.587   8.982 -1.5924 -2.9549  0.2729
 1670SOL    HW216647   4.695   1.658   8.872 -2.4327  2.9054  0.6966
 1671SOL     OW16648   4.505   4.468  17.269  0.0209 -0.0429 -0.6171
 1671SOL    HW116649   4.485   4.402  17.203 -1.5287 -0.6507  0.4625
 1671SOL    HW216650   4.501   4.548  17.218  0.9314 -0.3592 -1.1838
 1672SOL     OW16651   4.229   0.707   5.440 -0.3846  0.4148 -0.0303
 1672SOL    HW116652   4.143   0.746   5.426 -0.7063 -0.0950  0.5187
 1672SOL    HW216653   4.262   0.701   5.351  0.7769  0.1192  0.4209
 1673SOL     OW16654   3.356   1.431   2.647  0.1383  0.0175 -0.0727
 1673SOL    HW116655   3.359   1.527   2.649 -0.6112  0.0580 -1.3451
 1673SOL    HW216656   3.404   1.406   2.726  0.7931 -1.0991 -0.8306
 1674SOL     OW16657   4.496   3.951  10.070  0.1671 -0.0778 -0.4793
 1674SOL    HW116658   4.543   3.868  10.082 -1.6679 -0.7113  2.2343
 1674SOL    HW216659   4.412   3.920  10.037 -0.1956  1.2821 -0.8261
 1675SOL     OW16660   3.215   2.485   9.516  0.6374  0.0840  0.1043
 1675SOL    HW116661   3.135   2.442   9.485  1.6798 -3.7003  2.7677
 1675SOL    HW216662   3.228   2.561   9.459  0.1389 -0.0890 -0.2453
 1676SOL     OW16663   3.928   0.769   3.284  0.0472 -0.1067  0.3311
 1676SOL    HW116664   4.021   0.766   3.260  0.3793  1.1982  1.4280
 1676SOL    HW216665   3.894   0.689   3.244 -0.7060  0.8438 -0.9615
 1677SOL     OW16666   3.279   4.056   0.164 -0.1508 -0.0936 -0.2364
 1677SOL    HW116667   3.243   4.058   0.076  1.8762  0.4390 -1.0484
 1677SOL    HW216668   3.209   4.104   0.207 -0.0027  0.1107 -0.2236
 1678SOL     OW16669   4.029   1.655   6.545  0.1457 -0.4145  0.0854
 1678SOL    HW116670   4.113   1.691   6.574  0.6211 -1.3819 -0.0816
 1678SOL    HW216671   3.966   1.726   6.559  0.0041 -0.0973 -2.2099
 1679SOL     OW16672   1.745   3.281   8.471  0.0942  0.3674 -0.0378
 1679SOL    HW116673   1.740   3.204   8.528  0.9620  1.3598  1.4051
 1679SOL    HW216674   1.825   3.321   8.508  0.5396 -1.9564  1.5520
 1680SOL     OW16675   0.226   1.151   1.524 -0.0570 -0.4126 -0.2185
 1680SOL    HW116676   0.228   1.057   1.541 -0.7458  0.0823  2.5296
 1680SOL    HW216677   0.255   1.183   1.609  0.9819 -1.1078 -0.3136
 1681SOL     OW16678   2.270   4.386   7.017 -0.3774 -0.8768 -0.5358
 1681SOL    HW116679   2.329   4.312   7.035  2.8044  1.6788 -0.5714
 1681SOL    HW216680   2.189   4.365   7.063 -0.5340  0.7194 -0.0849
 1682SOL     OW16681   4.339   0.270   7.379 -0.1448 -0.0628 -0.0475
 1682SOL    HW116682   4.421   0.272   7.329 -0.1592  0.1046 -0.0625
 1682SOL    HW216683   4.275   0.292   7.312 -0.5026 -0.1105  0.2807
 1683SOL     OW16684   2.422   1.861  14.699  0.2003 -0.4059  0.0989
 1683SOL    HW116685   2.440   1.802  14.625  2.6992  0.4625  0.0291
 1683SOL    HW216686   2.512   1.894  14.705  0.2119 -0.4683  0.2607
 1684SOL     OW16687   1.733   4.602  15.784 -0.1853 -0.0819 -0.2179
 1684SOL    HW116688   1.743   4.609  15.689 -0.5393  1.4422 -0.1457
 1684SOL    HW216689   1.645   4.639  15.793  0.2387  1.0071 -0.6171
 1685SOL     OW16690   0.629   3.888   9.451 -0.0133  0.0567 -0.0950
 1685SOL    HW116691   0.609   3.981   9.463  0.7090  0.4279 -1.8856
 1685SOL    HW216692   0.540   3.854   9.458 -0.5381  1.3813 -0.3058
 1686SOL     OW16693   1.057   2.761   7.963  0.4020  0.3351  0.0799
 1686SOL    HW116694   1.007   2.822   7.909  0.5543  1.5552  1.3115
 1686SOL    HW216695   0.998   2.742   8.036  0.9101  1.3571  0.7636
 1687SOL     OW16696   4.313   4.625   9.904  0.2697 -0.1376 -0.5493
 1687SOL    HW116697   4.325   4.623   9.999  0.6619 -2.1700 -0.6589
 1687SOL    HW216698   4.393   4.667   9.873  1.4331 -1.1262  1.0993
 1688SOL     OW16699   0.541   2.479  11.741 -0.2286  0.5445  0.9117
 1688SOL    HW116700   0.533   2.388  11.713 -1.1511  0.5652  1.0837
 1688SOL    HW216701   0.598   2.465  11.817 -1.1275 -0.7736  1.3452
 1689SOL     OW16702   2.316   3.648   8.062  0.8738 -0.2488 -0.2947
 1689SOL    HW116703   2.277   3.652   7.975  1.5865  1.8254 -0.5131
 1689SOL    HW216704   2.262   3.585   8.110 -0.9538  1.6459  0.1345
 1690SOL     OW16705   3.416   0.203   5.559 -0.2930 -0.2998  0.0216
 1690SOL    HW116706   3.328   0.237   5.543 -0.7230 -0.3322  2.2507
 1690SOL    HW216707   3.410   0.111   5.535  1.9458 -0.1005 -1.2864
 1691SOL     OW16708   0.745   0.420   1.451  0.0767  0.0184  1.1607
 1691SOL    HW116709   0.735   0.336   1.496  4.4200 -1.2975 -0.2724
 1691SOL    HW216710   0.702   0.481   1.511 -1.0566  0.8378 -0.4896
 1692SOL     OW16711   2.042   3.301   3.368 -0.0312  0.4970  0.7426
 1692SOL    HW116712   1.996   3.343   3.441 -1.4730  0.7385 -0.3058
 1692SOL    HW216713   2.028   3.373   3.306 -4.2688  1.0354  2.2992
 1693SOL     OW16714   3.426   2.023   4.883  0.3022  0.3390  0.1383
 1693SOL    HW116715   3.392   2.013   4.972  1.2789 -3.5898  0.0889
 1693SOL    HW216716   3.353   2.037   4.822  0.1572  2.2059  0.7437
 1694SOL     OW16717   0.029   2.325   4.010 -0.5449 -0.1144  0.0765
 1694SOL    HW116718   0.094   2.354   3.946 -1.0432 -0.0236 -0.3890
 1694SOL    HW216719   4.727   2.249   3.967 -0.9185 -1.4231  2.7873
 1695SOL     OW16720   2.106   0.608   1.988  0.3921  0.0597  0.3362
 1695SOL    HW116721   2.061   0.527   1.966 -3.0562  2.1884 -0.4637
 1695SOL    HW216722   2.154   0.624   1.906  0.4098 -0.3813  0.2598
 1696SOL     OW16723   0.880   4.686   9.276  0.2650 -0.1144 -0.2362
 1696SOL    HW116724   0.957   4.680   9.333 -0.6721  1.8233  1.1867
 1696SOL    HW216725   0.812   0.006   9.312 -0.7571 -0.1867 -2.0119
 1697SOL     OW16726   2.571   1.190   3.395 -0.5323 -0.5969 -0.5306
 1697SOL    HW116727   2.528   1.159   3.315  1.6527 -0.2246 -1.8555
 1697SOL    HW216728   2.656   1.223   3.365 -0.3351 -0.4837  0.1586
 1698SOL     OW16729   1.698   0.072   6.892 -0.0307 -0.1890 -0.3335
 1698SOL    HW116730   1.662   0.031   6.814  3.0408 -3.9529  0.2253
 1698SOL    HW216731   1.667   0.162   6.883  1.5206  0.1246 -2.4229
 1699SOL     OW16732   2.777   0.594   7.066 -0.0003  0.4636  0.0267
 1699SOL    HW116733   2.862   0.627   7.094  0.1911 -0.7127  0.8086
 1699SOL    HW216734   2.735   0.678   7.044  2.2997  2.0487  1.6975
 1700SOL     OW16735   2.117   2.591   7.768 -0.1289 -0.7178  0.5381
 1700SOL    HW116736   2.139   2.679   7.799 -4.6771 -0.4201  2.9347
 1700SOL    HW216737   2.093   2.615   7.679 -0.9162 -1.6017  0.5027
 1701SOL     OW16738   0.938   2.230  12.409  0.1325  0.4880  0.1523
 1701SOL    HW116739   1.009   2.189  12.458 -0.4680  0.9285  1.3940
 1701SOL    HW216740   0.978   2.304  12.362 -1.3224  2.9652  2.8176
 1702SOL     OW16741   1.270   0.914  14.441  0.4456 -0.0361  0.0606
 1702SOL    HW116742   1.188   0.867  14.449 -0.6720  1.9733  0.4225
 1702SOL    HW216743   1.301   0.903  14.531  0.1953  1.8519  0.3765
 1703SOL     OW16744   1.972   4.583   8.072  0.0898  0.3954  0.3118
 1703SOL    HW116745   1.933   4.621   7.993 -0.7751  0.8117  0.9536
 1703SOL    HW216746   1.898   4.570   8.130  2.1855  0.3331  2.9747
 1704SOL     OW16747   0.118   4.593   3.725 -0.2120  0.5565  0.0462
 1704SOL    HW116748   0.185   4.559   3.667 -1.0811 -1.5228  0.2497
 1704SOL    HW216749   0.135   4.686   3.710 -0.6739  1.0853  2.7006
 1705SOL     OW16750   0.298   2.863   3.627  0.0348 -0.1530  0.1716
 1705SOL    HW116751   0.230   2.796   3.625  0.9521 -1.1340  1.8122
 1705SOL    HW216752   0.372   2.802   3.618 -0.1757 -0.9643  3.7305
 1706SOL     OW16753   0.499   0.952   3.680  0.2619  0.4911  0.0685
 1706SOL    HW116754   0.556   0.963   3.757  4.1564  0.6729 -2.8801
 1706SOL    HW216755   0.564   0.963   3.611  0.5171 -0.2863  0.1814
 1707SOL     OW16756   0.037   4.736   0.315 -0.2544  0.6471 -0.1245
 1707SOL    HW116757   0.087   4.693   0.385 -2.1220 -0.7021  0.3990
 1707SOL    HW216758   4.704   4.671   0.303 -0.0058  0.6510 -1.6180
 1708SOL     OW16759   4.631   0.291   5.627  0.4098 -0.1091 -0.0504
 1708SOL    HW116760   4.578   0.211   5.629 -3.3052  2.3641 -1.1494
 1708SOL    HW216761   4.588   0.339   5.557 -0.1936  1.5657  1.4824
 1709SOL     OW16762   3.261   4.216   5.789 -0.2325 -0.3079  0.1629
 1709SOL    HW116763   3.299   4.287   5.737  0.2787 -2.4428 -2.4165
 1709SOL    HW216764   3.333   4.195   5.848 -0.8653 -1.2221  0.6102
 1710SOL     OW16765   0.236   2.981  14.220  0.5550  0.1800  0.8381
 1710SOL    HW116766   0.197   3.005  14.136 -2.2580  0.7156  2.2896
 1710SOL    HW216767   0.174   3.032  14.273  0.3345 -1.9831  2.6926
 1711SOL     OW16768   0.765   1.237   9.042  0.1593 -0.3667  0.8517
 1711SOL    HW116769   0.720   1.176   8.983  0.4618 -1.1357  1.4039
 1711SOL    HW216770   0.754   1.325   9.006 -1.1059 -0.9468 -0.2141
 1712SOL     OW16771   3.052   3.396  16.209 -0.4057  0.3906 -0.8483
 1712SOL    HW116772   3.049   3.306  16.242 -2.8158  0.8014  0.0797
 1712SOL    HW216773   3.100   3.384  16.127 -0.1695 -1.1007 -0.5006
 1713SOL     OW16774   0.082   3.685   6.654 -0.0427  0.3556 -0.0723
 1713SOL    HW116775   0.162   3.636   6.636  0.8548  1.2636  1.4720
 1713SOL    HW216776   0.024   3.618   6.689  1.7067 -1.5544 -0.8203
 1714SOL     OW16777   2.913   2.171   2.515 -0.0808 -0.4780 -0.1187
 1714SOL    HW116778   2.935   2.206   2.429 -1.2416  0.8537  0.1274
 1714SOL    HW216779   2.952   2.084   2.513  0.2523 -0.2918 -1.5512
 1715SOL     OW16780   4.563   2.281  15.508  0.2754 -0.2911  0.2151
 1715SOL    HW116781   4.645   2.325  15.488  1.6318 -3.1909 -0.5729
 1715SOL    HW216782   4.600   2.206  15.555 -0.7014  0.4266  2.1679
 1716SOL     OW16783   1.099   3.669   7.522  0.2059 -0.0484  0.0576
 1716SOL    HW116784   1.011   3.672   7.486  1.1109  1.2094 -2.0221
 1716SOL    HW216785   1.078   3.608   7.593 -0.8007 -0.9001 -0.9756
 1717SOL     OW16786   0.902   0.425  10.522  0.3720 -0.3756 -0.6581
 1717SOL    HW116787   0.851   0.344  10.529 -0.3412  0.0804 -0.5318
 1717SOL    HW216788   0.980   0.416  10.577 -0.6097  1.6358  1.0816
 1718SOL     OW16789   1.983   4.363   3.891 -0.2354  0.1519 -0.1549
 1718SOL    HW116790   2.057   4.399   3.841  1.2477  0.3089  2.1584
 1718SOL    HW216791   1.932   4.439   3.918 -2.1482 -1.5213  0.9512
 1719SOL     OW16792   2.295   0.865  11.130  0.1103 -0.0233  0.2217
 1719SOL    HW116793   2.322   0.774  11.122 -0.9546 -0.3505  0.3673
 1719SOL    HW216794   2.200   0.855  11.125  0.1154  0.6281 -1.0982
 1720SOL     OW16795   0.553   0.928  13.576  0.3472 -0.0100 -0.1093
 1720SOL    HW116796   0.536   0.951  13.667 -1.3675  2.1927 -1.0037
 1720SOL    HW216797   0.485   0.861  13.567  1.0897 -0.7864  0.0861
 1721SOL     OW16798   1.945   4.013  12.026  0.0607 -0.2735 -0.0528
 1721SOL    HW116799   1.985   4.100  12.022 -0.8245  0.1589  0.4522
 1721SOL    HW216800   1.908   4.004  12.114 -0.9029 -0.7926 -0.5126
 1722SOL     OW16801   0.569   3.055  15.067  0.0841  0.1553 -0.4015
 1722SOL    HW116802   0.661   3.078  15.081 -0.7805  2.6371  1.2843
 1722SOL    HW216803   0.536   3.105  14.993 -0.3307  0.0609 -0.2831
 1723SOL     OW16804   4.581   4.045   4.144 -0.1716 -0.0829  0.6084
 1723SOL    HW116805   4.675   4.046   4.162 -0.2715 -1.3350  1.2328
 1723SOL    HW216806   4.567   4.134   4.113 -1.1264  0.3130  2.1518
 1724SOL     OW16807   2.284   0.305   6.697  0.1052  0.4291  0.1077
 1724SOL    HW116808   2.276   0.398   6.677  3.9262  0.7005 -0.0705
 1724SOL    HW216809   2.250   0.298   6.787 -1.2473  0.3825 -0.4076
 1725SOL     OW16810   1.262   2.654   3.326  0.1400 -0.6477 -0.0321
 1725SOL    HW116811   1.296   2.618   3.244 -0.4530 -0.5118 -0.3389
 1725SOL    HW216812   1.176   2.673   3.287  0.1599 -0.8042 -0.1520
 1726SOL     OW16813   4.152   0.083   4.603 -0.1533 -1.1782  0.1849
 1726SOL    HW116814   4.199   0.000   4.591  0.1804 -1.0085  0.3320
 1726SOL    HW216815   4.064   0.050   4.587 -0.9623  1.8658 -1.6820
 1727SOL     OW16816   1.998   0.976   3.435  0.1712  0.3285 -0.3315
 1727SOL    HW116817   1.908   0.997   3.410 -0.6406 -1.9717  0.6442
 1727SOL    HW216818   1.981   0.902   3.494 -1.1083  1.1947  0.3751
 1728SOL     OW16819   3.906   3.475   2.937 -0.2807 -0.7170 -0.4600
 1728SOL    HW116820   3.827   3.425   2.958 -1.7268  1.5861 -0.4989
 1728SOL    HW216821   3.916   3.452   2.845  1.5738  1.9696 -0.9015
 1729SOL     OW16822   3.151   3.062  13.624  0.1992 -0.3461 -0.3671
 1729SOL    HW116823   3.141   3.051  13.529 -0.2360  0.1106 -0.3717
 1729SOL    HW216824   3.074   3.014  13.654 -0.6521  0.9028 -0.5458
 1730SOL     OW16825   4.445   0.508  13.399  1.0764  0.5298 -0.3520
 1730SOL    HW116826   4.540   0.515  13.387  0.8398  2.2757 -1.1194
 1730SOL    HW216827   4.424   0.431  13.346 -1.3954  1.0020 -0.0782
 1731SOL     OW16828   4.362   2.928  10.027 -0.1416 -0.6820 -0.1656
 1731SOL    HW116829   4.349   3.006   9.974  2.0299  0.4482  0.9706
 1731SOL    HW216830   4.275   2.888  10.022  0.4410 -2.0316  0.3785
 1732SOL     OW16831   4.554   2.538   2.432  0.0240  0.0677  0.5643
 1732SOL    HW116832   4.592   2.565   2.348 -0.1377  1.3669  0.9034
 1732SOL    HW216833   4.466   2.576   2.422 -0.5904 -1.9618 -1.5650
 1733SOL     OW16834   0.791   0.642   2.285  0.0809  0.5153 -0.2463
 1733SOL    HW116835   0.731   0.661   2.358  0.3447  0.0956  0.0758
 1733SOL    HW216836   0.866   0.693   2.314  0.4587  0.1785 -0.6368
 1734SOL     OW16837   2.899   4.220  10.560 -0.1870 -0.6326  1.0185
 1734SOL    HW116838   2.901   4.315  10.568  1.1955 -0.5328 -0.4572
 1734SOL    HW216839   2.806   4.198  10.560 -1.0993  3.1068 -0.3170
 1735SOL     OW16840   2.025   3.958   7.214 -0.1519 -0.2144 -0.4890
 1735SOL    HW116841   1.969   4.017   7.264 -0.8685 -1.1216 -0.2382
 1735SOL    HW216842   2.083   4.014   7.161  1.2356 -0.4534  0.7933
 1736SOL     OW16843   2.302   4.123   8.007 -0.0394 -0.3563  0.0364
 1736SOL    HW116844   2.256   4.197   8.048  1.6887  0.7530 -0.0326
 1736SOL    HW216845   2.352   4.087   8.080 -1.2355  2.1011  2.0806
 1737SOL     OW16846   2.999   2.041   1.903 -0.2169  0.0890  0.3774
 1737SOL    HW116847   3.057   2.066   1.831  0.8694 -0.8590  0.9158
 1737SOL    HW216848   2.932   2.106   1.883  1.1898  1.1176 -1.0799
 1738SOL     OW16849   4.553   3.560   8.784  0.5630 -0.2992  0.2303
 1738SOL    HW116850   4.648   3.550   8.779  0.5406 -0.6491  0.5676
 1738SOL    HW216851   4.525   3.536   8.696  1.2215  3.1097 -0.9283
 1739SOL     OW16852   0.181   4.379   5.046  0.0134  0.0003  0.2289
 1739SOL    HW116853   0.210   4.469   5.060 -1.3946  0.9566 -3.0726
 1739SOL    HW216854   0.215   4.364   4.958 -2.7673 -0.2675 -0.7967
 1740SOL     OW16855   1.283   0.987   4.495 -0.2838 -0.5137  0.1672
 1740SOL    HW116856   1.239   1.065   4.529 -0.1720  0.5504 -2.1979
 1740SOL    HW216857   1.321   1.023   4.416 -0.6145  0.4763  0.4543
 1741SOL     OW16858   0.360   0.305   4.823  0.0851 -0.2331  0.0049
 1741SOL    HW116859   0.418   0.331   4.895  0.5246 -1.2601  0.0232
 1741SOL    HW216860   0.281   0.347   4.855  0.9202  1.0821  0.3603
 1742SOL     OW16861   3.803   1.297   7.483  0.4147  0.1053 -0.7355
 1742SOL    HW116862   3.812   1.297   7.579  1.1802 -1.2183 -0.8098
 1742SOL    HW216863   3.776   1.388   7.471  1.0472  0.3802 -0.1038
 1743SOL     OW16864   0.305   3.611   4.283 -0.0534  0.8650  0.6523
 1743SOL    HW116865   0.395   3.640   4.274 -0.6392  2.6933  0.5836
 1743SOL    HW216866   0.309   3.544   4.351 -0.4677 -0.7551 -0.9247
 1744SOL     OW16867   0.939   0.358   2.047 -0.3062 -0.3439 -0.1520
 1744SOL    HW116868   0.922   0.281   2.102  1.9565  0.2952  1.4605
 1744SOL    HW216869   1.033   0.366   2.060 -0.4811 -1.2856  1.6737
 1745SOL     OW16870   3.176   3.748   4.652 -0.2249  0.0145  0.4590
 1745SOL    HW116871   3.148   3.663   4.684  3.5941 -1.5708 -0.3767
 1745SOL    HW216872   3.154   3.811   4.721  0.3209 -0.7915  1.3763
 1746SOL     OW16873   2.361   0.186   8.679 -0.1464  0.0845  0.7212
 1746SOL    HW116874   2.385   0.210   8.589 -0.0055 -1.2774  0.3898
 1746SOL    HW216875   2.387   0.264   8.727 -0.7072  1.6971 -1.5821
 1747SOL     OW16876   4.585   1.452   7.426 -0.3600 -0.0029 -0.3335
 1747SOL    HW116877   4.497   1.459   7.463 -0.7879 -2.4875 -0.8494
 1747SOL    HW216878   4.618   1.538   7.452  2.1257 -1.4503  1.2745
 1748SOL     OW16879   2.232   1.287   0.687 -0.5007 -0.2344  0.0932
 1748SOL    HW116880   2.151   1.262   0.642  0.0898 -1.5058 -0.2375
 1748SOL    HW216881   2.193   1.355   0.743 -0.3787 -1.0471  1.1653
 1749SOL     OW16882   4.060   0.088  16.787  0.2050 -0.0346  0.2627
 1749SOL    HW116883   4.150   0.115  16.803  1.0734 -3.0134  0.3177
 1749SOL    HW216884   4.005   0.166  16.792 -0.8166 -0.6513 -1.2437
 1750SOL     OW16885   1.169   2.725   5.554 -0.5127  0.3628 -0.1698
 1750SOL    HW116886   1.178   2.666   5.629 -2.6574  0.5180  0.2026
 1750SOL    HW216887   1.148   2.653   5.493  0.6421 -0.9030  0.9407
 1751SOL     OW16888   0.711   2.234   4.871  0.4876  0.6977 -0.8484
 1751SOL    HW116889   0.794   2.276   4.849 -0.2537  1.6835 -1.7983
 1751SOL    HW216890   0.726   2.196   4.958 -1.5986  1.4609 -0.1554
 1752SOL     OW16891   3.654   4.514   9.312  1.1786  0.3275 -0.4743
 1752SOL    HW116892   3.686   4.571   9.382  2.2031  0.1810 -0.8158
 1752SOL    HW216893   3.657   4.431   9.359  2.1539  0.2251 -0.7020
 1753SOL     OW16894   3.076   2.882   5.561 -0.3672 -0.0278 -0.1814
 1753SOL    HW116895   3.079   2.791   5.590 -1.0078  0.0530  0.1381
 1753SOL    HW216896   3.044   2.918   5.644  3.3040  0.7157  0.8705
 1754SOL     OW16897   0.319   2.011  11.613  0.2881  0.2283 -0.0376
 1754SOL    HW116898   0.364   1.968  11.540  1.9281  0.1547  1.0095
 1754SOL    HW216899   0.322   1.943  11.680 -3.8683  0.4989  0.4055
 1755SOL     OW16900   2.620   2.625   7.763 -0.1349 -0.0127  0.4489
 1755SOL    HW116901   2.704   2.630   7.717 -0.1617  0.8198  0.4866
 1755SOL    HW216902   2.573   2.698   7.722 -3.1635 -0.9476  2.2361
 1756SOL     OW16903   2.596   2.889   6.958  0.9077  0.5921  0.2049
 1756SOL    HW116904   2.592   2.922   6.868 -1.1909  1.4572  0.6206
 1756SOL    HW216905   2.508   2.876   6.992  0.2353 -0.4713 -1.9113
 1757SOL     OW16906   1.322   2.501  12.824  0.3171 -0.0214  0.0487
 1757SOL    HW116907   1.261   2.564  12.785  0.1168 -0.6492 -0.6380
 1757SOL    HW216908   1.340   2.534  12.913 -1.0998 -0.2454  0.4198
 1758SOL     OW16909   2.601   2.921   1.349 -0.3929 -0.3470  0.1908
 1758SOL    HW116910   2.605   2.973   1.269 -3.3979  0.7965  0.7826
 1758SOL    HW216911   2.638   2.982   1.412 -1.6884 -0.7616  1.3554
 1759SOL     OW16912   2.061   4.033   2.295  0.4471  0.1283  0.4008
 1759SOL    HW116913   1.966   4.031   2.294  0.4598 -0.1975 -0.0191
 1759SOL    HW216914   2.086   4.114   2.341 -0.6191 -0.3375  1.7905
 1760SOL     OW16915   2.793   4.199   6.224  0.1545 -0.2102  0.2634
 1760SOL    HW116916   2.736   4.166   6.294 -0.1582  1.4899  0.7903
 1760SOL    HW216917   2.879   4.166   6.250 -0.3392 -0.8942  1.0577
 1761SOL     OW16918   1.408   1.212  12.741 -0.6075 -0.0302  0.0725
 1761SOL    HW116919   1.356   1.222  12.662 -0.3059 -1.6530 -0.3181
 1761SOL    HW216920   1.382   1.293  12.786 -0.9172  0.2101 -0.5457
 1762SOL     OW16921   2.719   0.463   1.380 -0.7102 -0.0018 -0.4557
 1762SOL    HW116922   2.801   0.427   1.348 -0.7144  0.0027 -0.4715
 1762SOL    HW216923   2.664   0.452   1.302 -0.5331  2.4927 -0.9340
 1763SOL     OW16924   1.082   1.713  12.734 -0.0858  0.2055 -0.3068
 1763SOL    HW116925   1.137   1.655  12.681 -0.6120  1.8236 -2.5744
 1763SOL    HW216926   1.021   1.731  12.663 -1.5435  1.0571  1.1790
 1764SOL     OW16927   1.263   1.338   3.753  0.0246 -0.2549 -0.0371
 1764SOL    HW116928   1.336   1.324   3.814  0.2750 -0.5020 -0.3961
 1764SOL    HW216929   1.198   1.304   3.815 -1.7845  2.9637 -0.1730
 1765SOL     OW16930   1.871   4.085  11.741 -0.0348  0.7547  0.2096
 1765SOL    HW116931   1.944   4.036  11.704  2.3999  2.7318  2.3671
 1765SOL    HW216932   1.866   4.065  11.835 -0.0793 -1.7346 -0.3091
 1766SOL     OW16933   0.122   3.585   9.585 -0.8314 -0.3595  0.0299
 1766SOL    HW116934   0.056   3.617   9.523 -1.0950  0.6646  0.8564
 1766SOL    HW216935   0.104   3.491   9.584 -1.7586 -0.1863  0.0701
 1767SOL     OW16936   2.557   0.612   1.524 -1.0811  0.5079 -0.3500
 1767SOL    HW116937   2.548   0.559   1.603 -0.6368 -0.4119 -0.9008
 1767SOL    HW216938   2.624   0.560   1.480 -0.6815  0.0514  0.8032
 1768SOL     OW16939   1.986   4.557   2.717 -0.5737 -0.1821 -1.0744
 1768SOL    HW116940   1.974   4.506   2.797  1.2131  1.6289  0.3571
 1768SOL    HW216941   2.081   4.554   2.705 -0.0835 -2.8744  3.6216
 1769SOL     OW16942   3.157   4.566  16.811 -0.4095  0.3634 -0.2542
 1769SOL    HW116943   3.228   4.628  16.791 -0.2310  0.0447 -0.5982
 1769SOL    HW216944   3.126   4.534  16.726 -2.0956  0.9550  0.1264
 1770SOL     OW16945   0.175   2.728   7.476 -0.3713 -0.0306 -0.0122
 1770SOL    HW116946   0.220   2.704   7.557  0.2658  3.2719  0.6011
 1770SOL    HW216947   0.249   2.733   7.416  0.4997  0.7220  1.1294
 1771SOL     OW16948   1.099   0.797   8.903 -0.2394  0.1573 -0.1686
 1771SOL    HW116949   1.030   0.734   8.884 -0.6068  0.7316 -0.7263
 1771SOL    HW216950   1.091   0.804   8.998  1.4444 -1.3333  0.0758
 1772SOL     OW16951   4.689   0.959   3.479  0.2956 -0.4402 -0.0695
 1772SOL    HW116952   4.701   1.052   3.458  0.2557 -0.0998  1.3852
 1772SOL    HW216953   4.598   0.941   3.455 -0.4423  1.9168  0.9397
 1773SOL     OW16954   1.976   0.311   7.589 -0.1826  0.4755 -0.1746
 1773SOL    HW116955   1.968   0.263   7.507  2.6001  0.0756 -0.1903
 1773SOL    HW216956   2.040   0.252   7.628 -0.5652  0.3310  0.2370
 1774SOL     OW16957   4.501   2.252  10.104 -0.2107 -0.2651  0.3233
 1774SOL    HW116958   4.538   2.188  10.043  1.0100 -0.1260  0.9176
 1774SOL    HW216959   4.423   2.282  10.056 -0.3470 -1.3818 -0.1525
 1775SOL     OW16960   1.057   1.258   3.915  0.2946  0.1406 -0.1036
 1775SOL    HW116961   0.989   1.204   3.874  0.3257 -0.5863  0.8090
 1775SOL    HW216962   1.049   1.238   4.008  1.6513 -0.2596 -0.0638
 1776SOL     OW16963   2.590   4.023  11.347  0.1128 -0.5498  0.3702
 1776SOL    HW116964   2.581   4.058  11.436 -0.1306  1.6137 -0.4960
 1776SOL    HW216965   2.542   4.087  11.294  0.2327 -0.6282  0.1687
 1777SOL     OW16966   3.541   2.129   3.484  0.0982 -0.0368  0.0587
 1777SOL    HW116967   3.494   2.046   3.472 -0.8758  0.8139 -2.0025
 1777SOL    HW216968   3.633   2.103   3.490  0.5080  1.6045  0.9580
 1778SOL     OW16969   2.427   0.185  15.458 -0.5838 -0.0086 -0.6694
 1778SOL    HW116970   2.482   0.106  15.458  1.1587  1.2025 -0.9224
 1778SOL    HW216971   2.431   0.220  15.547  1.1835 -1.6674 -0.0926
 1779SOL     OW16972   2.081   3.182   4.859 -0.4109 -0.3537 -0.5881
 1779SOL    HW116973   2.052   3.217   4.775  1.2803  0.3007 -0.8911
 1779SOL    HW216974   2.171   3.209   4.873 -0.8036  0.2824  0.7099
 1780SOL     OW16975   0.317   4.614  10.835  0.2153 -0.0328 -0.2112
 1780SOL    HW116976   0.352   4.543  10.781 -0.9589 -0.2475 -0.7021
 1780SOL    HW216977   0.289   4.570  10.915  1.6866 -1.4641 -0.4967
 1781SOL     OW16978   0.815   0.401   5.354  0.6132  0.3359 -0.4036
 1781SOL    HW116979   0.828   0.336   5.285  0.7781 -0.6243  0.5345
 1781SOL    HW216980   0.776   0.341   5.418  0.7149  2.1092  1.3048
 1782SOL     OW16981   2.228   3.792   1.259  0.3696 -0.1451  0.1413
 1782SOL    HW116982   2.319   3.822   1.256 -0.3378  1.7673 -1.8692
 1782SOL    HW216983   2.176   3.852   1.311  0.6958  1.5868 -1.5192
 1783SOL     OW16984   3.896   3.857   0.159 -0.6391  0.0096 -0.0607
 1783SOL    HW116985   3.964   3.820   0.103 -1.5235 -1.6773 -0.0139
 1783SOL    HW216986   3.833   3.887   0.093 -0.4854  2.2304  0.8187
 1784SOL     OW16987   1.878   2.885   7.764 -0.4332 -0.0963 -0.4116
 1784SOL    HW116988   1.864   2.808   7.818  2.4781 -0.1995  0.1944
 1784SOL    HW216989   1.973   2.891   7.766 -0.1317 -4.5450 -2.2230
 1785SOL     OW16990   0.891   2.455   0.731 -0.0376  0.0208  0.5834
 1785SOL    HW116991   0.810   2.499   0.759 -0.3671  0.9092 -1.7725
 1785SOL    HW216992   0.902   2.520   0.661 -0.5092 -1.3174 -0.7374
 1786SOL     OW16993   3.017   2.630   1.900  0.4598  0.0853  0.1109
 1786SOL    HW116994   3.009   2.712   1.948 -0.6825  0.1953 -0.2656
 1786SOL    HW216995   3.081   2.652   1.832  0.9874 -1.0041  0.2427
 1787SOL     OW16996   4.291   2.873   2.469  0.1722 -0.4506 -0.6301
 1787SOL    HW116997   4.283   2.899   2.377  1.8936 -2.6489 -1.4196
 1787SOL    HW216998   4.267   2.956   2.510 -1.5621 -1.9531  1.3994
 1788SOL     OW16999   0.468   0.371   1.567  0.1077  0.5286  0.3624
 1788SOL    HW117000   0.462   0.395   1.475 -1.8848 -1.6582 -0.0832
 1788SOL    HW217001   0.405   0.299   1.570  1.7882 -0.9662 -0.0612
 1789SOL     OW17002   1.983   0.253   5.121 -0.1130 -0.8675  0.1150
 1789SOL    HW117003   1.974   0.343   5.090  2.8270 -0.7555 -0.4199
 1789SOL    HW217004   1.900   0.209   5.103  0.1346 -2.2432  2.3328
 1790SOL     OW17005   2.120   1.767   5.232  0.0116  0.3623 -0.2180
 1790SOL    HW117006   2.121   1.737   5.141  0.2881  3.9171 -1.3766
 1790SOL    HW217007   2.031   1.794   5.254  0.3873  1.9450 -0.6330
 1791SOL     OW17008   3.287   0.013  16.686 -0.2818 -0.2086  0.1113
 1791SOL    HW117009   3.324   0.101  16.674  2.3656 -1.2171  0.8988
 1791SOL    HW217010   3.324   4.700  16.614  3.1518  2.5772 -0.0520
 1792SOL     OW17011   3.508   4.022   5.621 -0.3230 -0.4232  0.4511
 1792SOL    HW117012   3.469   4.087   5.562 -1.8254 -1.9583 -0.2488
 1792SOL    HW217013   3.596   4.009   5.586 -0.5828  0.3852 -0.5012
 1793SOL     OW17014   4.586   4.410  10.081 -0.0897 -0.1596  0.8993
 1793SOL    HW117015   4.668   4.444  10.118  0.6819  0.1089 -1.0202
 1793SOL    HW217016   4.524   4.469  10.123  1.4278  0.7825  1.8183
 1794SOL     OW17017   1.431   3.986   4.723 -0.3042  0.1387 -0.3279
 1794SOL    HW117018   1.356   3.930   4.701  0.1817 -1.3926  1.9210
 1794SOL    HW217019   1.498   3.918   4.732  1.5788  2.0550  0.0523
 1795SOL     OW17020   0.200   2.349   5.453 -0.3731 -0.5342  0.3903
 1795SOL    HW117021   0.254   2.411   5.503 -1.4657  0.4752  0.3329
 1795SOL    HW217022   0.169   2.411   5.387 -1.2218 -1.9928 -0.5670
 1796SOL     OW17023   4.651   3.168   9.398 -0.0708 -0.2321  0.0599
 1796SOL    HW117024   4.608   3.244   9.437  2.3889  1.6572 -0.9377
 1796SOL    HW217025   4.602   3.158   9.316 -0.7579  0.4485  0.3851
 1797SOL     OW17026   0.856   3.056   4.182  0.1951 -0.0604 -0.4997
 1797SOL    HW117027   0.898   3.116   4.243 -2.5338  0.2852  1.0375
 1797SOL    HW217028   0.928   3.030   4.124  0.9467 -0.0603  0.4287
 1798SOL     OW17029   1.649   4.728   5.283  0.0728 -0.0872 -0.2233
 1798SOL    HW117030   1.739   4.706   5.258  0.0312 -1.4930  0.8419
 1798SOL    HW217031   1.649   0.086   5.294  0.6076 -0.1319  0.1732
 1799SOL     OW17032   2.206   2.139  10.915  0.3689 -0.9872 -0.2081
 1799SOL    HW117033   2.255   2.074  10.965  0.7161 -0.2976  0.3434
 1799SOL    HW217034   2.177   2.192  10.989  0.3609 -0.9586 -0.2317
 1800SOL     OW17035   2.041   4.334   2.878  0.0191  0.5182 -0.0593
 1800SOL    HW117036   2.092   4.256   2.856  1.5263  1.2859  0.6379
 1800SOL    HW217037   2.046   4.329   2.974  2.5320  0.4008 -0.1874
 1801SOL     OW17038   1.193   1.592  17.120 -0.2540  0.3570  0.2239
 1801SOL    HW117039   1.145   1.560  17.196 -3.8413 -0.0081 -2.2086
 1801SOL    HW217040   1.249   1.523  17.083  0.4468 -0.2620  2.4236
 1802SOL     OW17041   3.331   1.305   1.939 -0.1047  0.0058  0.1470
 1802SOL    HW117042   3.243   1.275   1.960 -0.2939 -0.3688 -1.2093
 1802SOL    HW217043   3.307   1.347   1.857  0.2484  1.8236  0.9725
 1803SOL     OW17044   4.209   0.789   2.930  0.8855 -0.4869 -0.3325
 1803SOL    HW117045   4.146   0.720   2.911  1.9902 -0.9401 -2.3435
 1803SOL    HW217046   4.292   0.753   2.900  1.5937  1.1172 -0.2751
 1804SOL     OW17047   1.811   4.329  10.725 -0.5889  0.3981  0.0374
 1804SOL    HW117048   1.892   4.319  10.777 -0.4765 -0.2478 -0.2625
 1804SOL    HW217049   1.801   4.424  10.728  1.5944  0.6476 -0.4890
 1805SOL     OW17050   3.460   3.513   5.520 -0.5168  0.0655  0.1038
 1805SOL    HW117051   3.446   3.568   5.442 -4.1501 -0.5558  0.3032
 1805SOL    HW217052   3.399   3.553   5.581 -0.7276  0.2631 -0.2322
 1806SOL     OW17053   4.437   2.319   1.879 -0.2541 -0.3391  0.2166
 1806SOL    HW117054   4.462   2.262   1.805 -3.2443 -1.4376  0.0417
 1806SOL    HW217055   4.527   2.345   1.898 -0.1001 -2.7202  2.6629
 1807SOL     OW17056   3.721   2.237  13.427 -0.4818  0.7183  0.3810
 1807SOL    HW117057   3.664   2.313  13.439  1.0621  2.1003 -0.9588
 1807SOL    HW217058   3.680   2.162  13.469 -0.2144 -1.2971 -2.9031
 1808SOL     OW17059   3.843   2.497  17.194  0.1447 -0.8364  0.0349
 1808SOL    HW117060   3.863   2.570  17.253  0.9260  0.2746 -1.6248
 1808SOL    HW217061   3.862   2.423  17.251  2.0060 -0.7222 -0.4571
 1809SOL     OW17062   0.102   0.239  17.394  0.0200  0.2136  0.3865
 1809SOL    HW117063   0.070   0.254  17.483 -0.4379 -0.9859  0.4214
 1809SOL    HW217064   0.191   0.208  17.406 -0.0052  0.3827  1.0117
 1810SOL     OW17065   3.722   2.218   9.236 -0.0347 -0.7782 -0.2523
 1810SOL    HW117066   3.690   2.150   9.176  0.3836 -2.9217  1.9285
 1810SOL    HW217067   3.775   2.275   9.181 -0.4387 -0.9448 -0.8166
 1811SOL     OW17068   1.779   4.730   0.631  0.4760  0.6554 -0.0196
 1811SOL    HW117069   1.875   4.722   0.633  0.4187  0.9440  3.1073
 1811SOL    HW217070   1.749   4.643   0.656  0.9529  0.8621  1.2472
 1812SOL     OW17071   4.496   2.664   4.722  0.6706  0.0362  0.4755
 1812SOL    HW117072   4.575   2.683   4.671 -1.0933  0.0882 -2.1838
 1812SOL    HW217073   4.439   2.740   4.715  2.5293  0.9840 -4.2579
 1813SOL     OW17074   3.997   4.216   8.215  0.2967  0.2927  0.2944
 1813SOL    HW117075   4.073   4.171   8.251  1.2499  1.2326 -0.5142
 1813SOL    HW217076   3.929   4.171   8.264 -0.9831  1.3425 -0.5159
 1814SOL     OW17077   2.601   2.209  14.793 -0.0431 -0.2254  0.5689
 1814SOL    HW117078   2.617   2.295  14.832 -0.3728  1.1430 -2.2898
 1814SOL    HW217079   2.539   2.173  14.856 -0.9716  1.0624  0.4007
 1815SOL     OW17080   0.548   1.512  15.176  0.3352 -0.2840  0.1874
 1815SOL    HW117081   0.615   1.477  15.118 -1.1908 -0.4743 -1.4304
 1815SOL    HW217082   0.466   1.519  15.127 -0.7284 -1.1887  1.8369
 1816SOL     OW17083   1.935   2.143   7.258 -0.1226 -0.0891 -0.2616
 1816SOL    HW117084   1.890   2.177   7.334 -1.0401 -1.9237  0.0139
 1816SOL    HW217085   1.890   2.059   7.255 -0.6669  0.2716 -2.5908
 1817SOL     OW17086   3.821   3.378  10.487  0.0606  0.2868 -0.4516
 1817SOL    HW117087   3.804   3.300  10.433 -3.1539  0.8874 -0.3149
 1817SOL    HW217088   3.784   3.449  10.435 -0.5753  1.6216  1.8421
 1818SOL     OW17089   3.441   2.671   3.575 -0.1725  0.4916  0.0119
 1818SOL    HW117090   3.347   2.658   3.573 -0.0900 -0.3726  2.2144
 1818SOL    HW217091   3.461   2.587   3.535  0.3126  1.4387 -1.7451
 1819SOL     OW17092   3.062   0.386   3.381  0.6220  0.5019 -0.1935
 1819SOL    HW117093   3.067   0.476   3.411 -0.0892  0.9329 -1.3567
 1819SOL    HW217094   3.033   0.337   3.458  0.2923  1.8234  0.5111
 1820SOL     OW17095   2.823   1.817   4.867  0.4541  0.5664 -0.1800
 1820SOL    HW117096   2.757   1.762   4.824 -0.4854 -0.8093  3.0041
 1820SOL    HW217097   2.879   1.847   4.796  0.9221 -1.2063 -0.5711
 1821SOL     OW17098   4.689   3.782  16.196 -0.9713 -0.2236 -0.5534
 1821SOL    HW117099   0.000   3.741  16.269  0.2023 -0.4751 -1.4632
 1821SOL    HW217100   4.613   3.824  16.235 -0.1134 -0.1485  1.0268
 1822SOL     OW17101   1.003   2.018   1.859 -0.1031 -0.4060  0.2911
 1822SOL    HW117102   1.062   2.091   1.841 -1.5937  0.7730  0.2436
 1822SOL    HW217103   1.062   1.943   1.868  0.7585  0.1500 -0.7558
 1823SOL     OW17104   3.792   2.277  12.160  0.3981  0.4031 -0.0247
 1823SOL    HW117105   3.765   2.348  12.219  0.9216  1.8782 -1.5698
 1823SOL    HW217106   3.740   2.292  12.081  0.9266 -1.4077 -0.7251
 1824SOL     OW17107   4.303   2.227   5.586 -0.3339 -0.2642  0.6709
 1824SOL    HW117108   4.269   2.313   5.561  1.0438 -0.0058 -0.3042
 1824SOL    HW217109   4.304   2.177   5.505  0.0017  1.1632 -0.2082
 1825SOL     OW17110   1.693   0.628   1.980  0.0679 -0.9281  0.1211
 1825SOL    HW117111   1.770   0.674   1.947 -0.3029  0.2122  0.8354
 1825SOL    HW217112   1.664   0.690   2.047  1.3482 -2.0861  1.7628
 1826SOL     OW17113   3.077   1.003   6.460  0.4346 -0.0309 -0.1054
 1826SOL    HW117114   3.162   0.962   6.449  1.1950  1.3330  0.7587
 1826SOL    HW217115   3.026   0.934   6.418 -0.8190  0.9072 -0.1239
 1827SOL     OW17116   4.253   1.268   3.873 -0.4952  0.1367 -0.3520
 1827SOL    HW117117   4.322   1.332   3.855  1.0641 -1.8927 -1.5842
 1827SOL    HW217118   4.245   1.284   3.967  0.0928  0.9011 -0.4326
 1828SOL     OW17119   1.837   2.274  11.457  1.0987 -0.1420 -0.1269
 1828SOL    HW117120   1.805   2.209  11.394 -0.1716  0.1324  0.2348
 1828SOL    HW217121   1.797   2.236  11.537  1.5630  0.4943  0.4020
 1829SOL     OW17122   0.289   0.401   9.159  0.7232  0.0959  0.4127
 1829SOL    HW117123   0.237   0.353   9.224  0.9616 -1.6197 -0.6459
 1829SOL    HW217124   0.230   0.472   9.134 -0.2397 -0.0724  2.2156
 1830SOL     OW17125   2.341   0.849   4.911 -0.0724  0.0673  1.0128
 1830SOL    HW117126   2.278   0.905   4.865 -1.7988 -3.1800 -0.5416
 1830SOL    HW217127   2.421   0.901   4.905 -0.5472  0.7790  0.7564
 1831SOL     OW17128   2.298   0.637  10.114  0.3391  0.1119  0.1459
 1831SOL    HW117129   2.360   0.584  10.063 -0.2108 -0.5733  0.1787
 1831SOL    HW217130   2.298   0.581  10.191  0.1463  1.3255  1.0216
 1832SOL     OW17131   0.656   4.614   3.639  0.0413 -0.4573  0.3917
 1832SOL    HW117132   0.578   4.650   3.596  0.3113 -0.5756 -0.2024
 1832SOL    HW217133   0.662   4.524   3.605 -1.6475 -0.2148 -0.5971
 1833SOL     OW17134   0.205   2.933   3.280  0.3240  0.6709  0.6587
 1833SOL    HW117135   0.198   3.022   3.244  0.7258  0.3977 -0.0967
 1833SOL    HW217136   0.198   2.871   3.208  1.3471  0.9384  0.3279
 1834SOL     OW17137   3.878   2.872   4.627 -0.0396 -0.8600 -0.2381
 1834SOL    HW117138   3.957   2.913   4.592 -0.3704 -0.2975 -0.3281
 1834SOL    HW217139   3.823   2.949   4.641  0.8452 -0.2512 -0.1365
 1835SOL     OW17140   2.968   4.452  14.356 -0.1720 -0.3085  0.0425
 1835SOL    HW117141   2.932   4.364  14.352 -1.5629  0.2126  1.0317
 1835SOL    HW217142   2.920   4.491  14.429  0.9704  3.5887 -1.2409
 1836SOL     OW17143   2.451   3.075  12.114  0.5177  0.3875 -1.0337
 1836SOL    HW117144   2.478   3.150  12.061 -0.1412  3.0364  2.3465
 1836SOL    HW217145   2.362   3.074  12.078 -0.1249  3.6605  0.4327
 1837SOL     OW17146   2.481   4.193  16.607 -0.2871 -0.3843 -0.0093
 1837SOL    HW117147   2.561   4.153  16.641 -0.2928 -1.3697 -1.1249
 1837SOL    HW217148   2.514   4.260  16.547  1.0513  0.4820  1.7061
 1838SOL     OW17149   2.999   2.630  11.869  0.4364  0.5584  0.0414
 1838SOL    HW117150   2.942   2.555  11.855  0.0397  1.1383 -1.4681
 1838SOL    HW217151   2.981   2.656  11.959  0.1062 -1.0138  0.4240
 1839SOL     OW17152   0.641   0.525  10.565 -0.0676  0.1956  0.0235
 1839SOL    HW117153   0.732   0.505  10.589  0.8104  3.9341 -0.1654
 1839SOL    HW217154   0.639   0.474  10.484 -0.9640  1.2466 -0.6087
 1840SOL     OW17155   1.583   4.644   2.780 -0.1739  0.1345 -0.1002
 1840SOL    HW117156   1.647   4.710   2.806 -1.0961  0.8153  0.4698
 1840SOL    HW217157   1.537   4.642   2.864 -1.4378 -1.1305 -0.8097
 1841SOL     OW17158   3.613   1.243  12.131  0.8089  0.1026 -0.1143
 1841SOL    HW117159   3.559   1.173  12.096  0.9878  0.1543 -0.4909
 1841SOL    HW217160   3.704   1.229  12.103  0.4638 -1.0567 -0.6259
 1842SOL     OW17161   0.366   1.599  17.257  0.2185 -0.6111  0.8526
 1842SOL    HW117162   0.383   1.518  17.208  0.7656  0.0468 -0.0551
 1842SOL    HW217163   0.390   1.572  17.345 -0.6030 -1.2015  0.8963
 1843SOL     OW17164   1.708   3.865   8.043 -0.7551  0.0279 -0.2261
 1843SOL    HW117165   1.625   3.882   8.088 -1.2389 -1.0450 -0.7127
 1843SOL    HW217166   1.726   3.779   8.082 -2.4990 -0.6220 -0.8471
 1844SOL     OW17167   4.119   4.277   0.560 -0.3874 -0.0584  0.6115
 1844SOL    HW117168   4.057   4.338   0.522  1.1769  0.9846 -0.2638
 1844SOL    HW217169   4.171   4.331   0.620  1.9568 -2.7412  1.0208
 1845SOL     OW17170   3.364   2.745   5.418  0.5712 -0.1836  0.0956
 1845SOL    HW117171   3.315   2.665   5.398 -0.2386 -0.1962  2.0460
 1845SOL    HW217172   3.393   2.734   5.509  0.8588 -1.9908 -0.2202
 1846SOL     OW17173   0.438   4.282  13.135  0.1175  0.2048 -0.0041
 1846SOL    HW117174   0.509   4.226  13.168 -0.4796 -1.5905 -1.7729
 1846SOL    HW217175   0.454   4.273  13.041 -0.5333 -0.0179 -0.0902
 1847SOL     OW17176   1.603   1.560   7.714  0.2309 -0.0233 -0.7049
 1847SOL    HW117177   1.576   1.651   7.714 -1.6760 -0.5744  2.0283
 1847SOL    HW217178   1.593   1.536   7.807 -1.7776  0.4877 -0.7773
 1848SOL     OW17179   2.570   3.036   7.230 -0.0653  0.7535  0.2836
 1848SOL    HW117180   2.628   2.988   7.290 -0.6666  0.1792  0.3965
 1848SOL    HW217181   2.623   3.021   7.152 -0.7410 -0.4677  0.0607
 1849SOL     OW17182   3.600   0.566   7.454 -0.2207 -0.1434 -0.0686
 1849SOL    HW117183   3.602   0.481   7.409  0.8692 -0.2622  0.2217
 1849SOL    HW217184   3.604   0.530   7.543  1.5120  1.1295  0.3665
 1850SOL     OW17185   2.557   3.655   9.227 -0.0021 -0.5282 -0.5496
 1850SOL    HW117186   2.620   3.664   9.298  2.1991  0.3005 -2.5979
 1850SOL    HW217187   2.543   3.745   9.197  0.0912 -0.4958 -0.4952
 1851SOL     OW17188   0.635   2.584   6.912  0.6196  0.2532  0.2426
 1851SOL    HW117189   0.596   2.666   6.883 -0.3264 -0.1490  0.3830
 1851SOL    HW217190   0.710   2.621   6.959  0.5908 -1.0832  1.3503
 1852SOL     OW17191   3.464   3.904  17.039  0.2222  0.1971 -0.6636
 1852SOL    HW117192   3.426   3.976  16.990 -1.8110 -0.4075  0.0052
 1852SOL    HW217193   3.411   3.880  17.115  1.7358 -1.9814 -0.2882
 1853SOL     OW17194   1.112   0.757   7.020  0.1634 -0.3755  0.1236
 1853SOL    HW117195   1.062   0.783   6.942  1.0622 -0.9273 -0.6441
 1853SOL    HW217196   1.131   0.845   7.052 -0.6513  0.0444 -0.5713
 1854SOL     OW17197   0.489   4.059  13.321 -0.2285  0.0120  0.0266
 1854SOL    HW117198   0.399   4.061  13.290 -0.5376 -0.2567  0.9131
 1854SOL    HW217199   0.472   4.081  13.412 -0.8415 -1.2410  0.2112
 1855SOL     OW17200   0.333   2.901   4.556 -0.4195 -0.5522 -0.2968
 1855SOL    HW117201   0.320   2.887   4.650 -0.9943  1.7467 -0.0352
 1855SOL    HW217202   0.423   2.930   4.545 -0.9880  1.7111  1.0275
 1856SOL     OW17203   2.087   0.639   4.760 -0.9225 -0.2471 -0.5605
 1856SOL    HW117204   2.102   0.597   4.844  3.0971  2.5130  0.1119
 1856SOL    HW217205   2.039   0.718   4.785 -0.7287  0.5661 -2.6790
 1857SOL     OW17206   2.472   3.981  17.568  0.3304  0.3524 -0.5716
 1857SOL    HW117207   2.421   3.921  17.623  0.7550 -0.5614 -1.1785
 1857SOL    HW217208   2.505   3.925  17.498  0.0330  1.2662 -1.4437
 1858SOL     OW17209   3.894   2.816   5.988 -0.3251 -0.5071 -0.4008
 1858SOL    HW117210   3.971   2.854   6.030  0.8380 -0.3925 -2.6626
 1858SOL    HW217211   3.866   2.890   5.935  1.1790 -0.8353 -1.6500
 1859SOL     OW17212   2.569   4.211   9.207 -0.1479  0.2468 -0.2045
 1859SOL    HW117213   2.534   4.262   9.134  0.6794 -0.0013 -0.7750
 1859SOL    HW217214   2.505   4.230   9.275 -1.0810  2.3431 -1.6656
 1860SOL     OW17215   1.130   2.322   2.786  0.2768 -0.0459 -0.2081
 1860SOL    HW117216   1.048   2.370   2.779  0.0004 -0.5548 -0.4161
 1860SOL    HW217217   1.143   2.282   2.701  1.6754 -2.6865  1.2618
 1861SOL     OW17218   4.230   4.407  14.622  0.1891  0.0786  0.0621
 1861SOL    HW117219   4.281   4.488  14.616  2.2832 -1.0578  2.2931
 1861SOL    HW217220   4.254   4.357  14.544 -1.3710  2.0797 -1.6969
 1862SOL     OW17221   1.960   3.398   3.701  0.1714 -0.3332  0.4653
 1862SOL    HW117222   1.895   3.331   3.680  0.4265  0.3406 -2.4895
 1862SOL    HW217223   2.017   3.362   3.768 -2.3385 -1.9446  1.7010
 1863SOL     OW17224   2.970   0.081   5.398 -0.0390 -0.1164  0.4506
 1863SOL    HW117225   2.974   0.165   5.351  1.3063 -0.3448  0.1540
 1863SOL    HW217226   2.878   0.063   5.420  0.2788 -0.3994  1.5653
 1864SOL     OW17227   1.096   3.545  17.220 -0.2499 -0.4711  0.2550
 1864SOL    HW117228   1.059   3.632  17.206  0.7067 -0.1135 -0.0895
 1864SOL    HW217229   1.101   3.535  17.315  0.0105  1.5266  0.4580
 1865SOL     OW17230   3.981   2.232   2.189  0.0416 -0.2126 -0.5139
 1865SOL    HW117231   3.891   2.204   2.174  0.5934 -2.2988  0.0685
 1865SOL    HW217232   4.021   2.196   2.110 -1.6925  0.7041 -1.7761
 1866SOL     OW17233   3.018   4.735   3.507  0.3520  0.0456 -0.3254
 1866SOL    HW117234   2.957   4.666   3.533 -0.1841  1.2595  1.6727
 1866SOL    HW217235   2.961   0.074   3.523 -2.6772 -1.8809 -2.0121
 1867SOL     OW17236   0.622   0.922   8.373 -0.0835 -0.3814  0.1576
 1867SOL    HW117237   0.549   0.939   8.433 -1.6160  1.5740 -2.2319
 1867SOL    HW217238   0.664   0.855   8.426  2.3996  0.8549 -0.2467
 1868SOL     OW17239   3.003   2.728   2.572 -0.3792 -0.4550  0.1195
 1868SOL    HW117240   3.019   2.814   2.612  0.7749 -0.1905 -0.9461
 1868SOL    HW217241   2.930   2.703   2.629 -0.6268  2.2938  1.0175
 1869SOL     OW17242   1.424   1.446   8.162  0.3761  0.4244 -0.0295
 1869SOL    HW117243   1.450   1.376   8.102  0.4233  0.8255 -0.4765
 1869SOL    HW217244   1.386   1.494   8.088  0.3817  2.0469  1.0243
 1870SOL     OW17245   4.540   0.378  15.956 -0.1482  0.6671 -0.2567
 1870SOL    HW117246   4.487   0.303  15.928  0.4592  0.5310 -1.0559
 1870SOL    HW217247   4.601   0.377  15.883 -0.0842  2.7708 -0.2434
 1871SOL     OW17248   1.592   1.173   6.111 -0.4569 -0.0836  0.0221
 1871SOL    HW117249   1.599   1.266   6.091 -0.8915  0.0245  0.3696
 1871SOL    HW217250   1.512   1.158   6.060  0.5284 -0.5344 -1.3852
 1872SOL     OW17251   1.480   3.373   7.127 -0.3667  0.0357  0.2438
 1872SOL    HW117252   1.402   3.418   7.094 -1.9568 -2.0389  1.1593
 1872SOL    HW217253   1.532   3.448   7.154  0.4946  0.2960 -2.1435
 1873SOL     OW17254   3.758   4.519   4.870  0.0163  0.8573 -0.5750
 1873SOL    HW117255   3.750   4.612   4.891  1.5615  0.5121  1.4517
 1873SOL    HW217256   3.824   4.526   4.801  1.5072 -0.3720  0.7468
 1874SOL     OW17257   4.271   0.273   5.386  0.3981 -0.0351 -0.2996
 1874SOL    HW117258   4.345   0.332   5.401  0.1795 -0.1776  1.4122
 1874SOL    HW217259   4.316   0.216   5.325  1.5033  1.1711 -0.5989
 1875SOL     OW17260   2.979   3.262   5.741 -0.0177 -0.2217 -0.6907
 1875SOL    HW117261   3.009   3.334   5.687 -1.3500  0.4518 -0.5408
 1875SOL    HW217262   2.946   3.295   5.825  0.4874 -0.6922 -0.3084
 1876SOL     OW17263   1.203   3.981  17.442 -0.2482  0.7777  0.0001
 1876SOL    HW117264   1.219   3.958  17.534 -0.1566  2.5344  0.4223
 1876SOL    HW217265   1.287   3.942  17.419 -0.7469 -0.7328  0.7211
 1877SOL     OW17266   4.376   2.143   4.325 -0.0742 -0.3743 -0.0421
 1877SOL    HW117267   4.350   2.235   4.330 -0.7084 -0.5889  0.6088
 1877SOL    HW217268   4.291   2.111   4.295 -0.2144  0.7400 -0.8358
 1878SOL     OW17269   3.956   2.825   6.286 -0.4052  0.0186 -0.4368
 1878SOL    HW117270   3.897   2.762   6.245 -1.8235  1.3100 -0.3694
 1878SOL    HW217271   3.891   2.882   6.326  2.0254  1.6102  1.2493
 1879SOL     OW17272   2.655   4.491  16.824  0.0393 -0.2470  0.1758
 1879SOL    HW117273   2.697   4.561  16.774 -0.8662 -1.1026 -1.7627
 1879SOL    HW217274   2.712   4.416  16.807 -0.7852 -0.7753 -0.2439
 1880SOL     OW17275   2.934   3.720   3.813  0.2733  0.3007  0.0329
 1880SOL    HW117276   2.956   3.646   3.757  0.4102  0.0430  0.4235
 1880SOL    HW217277   2.950   3.785   3.744  0.7774  0.9511  0.7563
 1881SOL     OW17278   1.673   4.590  15.512  0.2103 -0.7802 -0.3505
 1881SOL    HW117279   1.644   4.611  15.423  1.3938 -0.1072 -0.5761
 1881SOL    HW217280   1.595   4.553  15.553  0.5873 -3.4802 -2.0873
 1882SOL     OW17281   1.210   2.681   8.802  0.0817  0.2973  0.2710
 1882SOL    HW117282   1.265   2.621   8.751 -3.0416 -2.5861  0.2985
 1882SOL    HW217283   1.251   2.672   8.888 -3.3435  1.7121  2.0319
 1883SOL     OW17284   4.322   1.459   5.222 -0.1900 -0.0774  0.5901
 1883SOL    HW117285   4.406   1.499   5.202 -0.2304 -0.1616  0.2551
 1883SOL    HW217286   4.352   1.371   5.246 -0.0332 -0.2885 -0.3731
 1884SOL     OW17287   2.172   4.194   9.975  0.3424  0.1452 -0.4383
 1884SOL    HW117288   2.204   4.280  10.003 -0.1105  0.0926  0.2562
 1884SOL    HW217289   2.081   4.224   9.971  0.5698  0.8651 -0.2179
 1885SOL     OW17290   2.993   4.322   8.852  0.0518 -1.1087  0.3741
 1885SOL    HW117291   2.943   4.401   8.872  1.8428  0.4036 -1.1101
 1885SOL    HW217292   3.032   4.346   8.768 -0.7535  1.9391  0.8699
 1886SOL     OW17293   2.215   1.338   5.762  0.0566 -0.1409  0.4821
 1886SOL    HW117294   2.169   1.257   5.742  0.6335 -0.6470  1.2192
 1886SOL    HW217295   2.149   1.396   5.799  0.4673 -0.1651  1.2438
 1887SOL     OW17296   0.557   2.602   6.469 -0.0268  0.2853  0.0148
 1887SOL    HW117297   0.622   2.576   6.403  0.8307  1.9102  0.2191
 1887SOL    HW217298   0.539   2.518   6.510  0.7595 -0.3933 -1.0183
 1888SOL     OW17299   4.552   4.393   8.382  0.9559 -0.6910 -0.2746
 1888SOL    HW117300   4.634   4.417   8.338  1.5663  3.4551  3.2418
 1888SOL    HW217301   4.593   4.315   8.421  0.3297 -1.4161 -1.0504
 1889SOL     OW17302   0.257   4.277   8.747 -0.1567  0.4530 -0.2920
 1889SOL    HW117303   0.289   4.337   8.679  0.2086  1.9989  1.2473
 1889SOL    HW217304   0.180   4.324   8.781 -1.0129 -0.5079 -0.9006
 1890SOL     OW17305   1.729   0.744   0.682 -0.1038 -0.1105  0.4531
 1890SOL    HW117306   1.687   0.822   0.718 -1.7982 -0.3943 -0.9005
 1890SOL    HW217307   1.723   0.689   0.761 -0.0462 -0.6244  0.1017
 1891SOL     OW17308   3.368   0.073   6.963  0.4368 -0.0335  0.1223
 1891SOL    HW117309   3.333   0.077   7.051  0.7594  0.2605  0.2377
 1891SOL    HW217310   3.437   0.140   6.957  0.0148  0.4812  1.0636
 1892SOL     OW17311   1.029   1.834   8.896  0.0744  0.7454  0.2800
 1892SOL    HW117312   1.108   1.785   8.872 -1.0910 -0.8524 -0.3253
 1892SOL    HW217313   1.042   1.815   8.989 -0.8246 -0.2555  0.2138
 1893SOL     OW17314   2.160   3.155   5.165 -0.1474  0.4297 -0.0592
 1893SOL    HW117315   2.206   3.177   5.246 -1.7044 -1.7290  1.3717
 1893SOL    HW217316   2.209   3.084   5.123 -0.7338  0.4874 -0.8344
 1894SOL     OW17317   3.262   0.738   2.104  0.1716  0.3514 -0.2613
 1894SOL    HW117318   3.221   0.652   2.093  1.0029  0.0113 -0.7478
 1894SOL    HW217319   3.186   0.788   2.073  1.0220  0.9232 -1.4342
 1895SOL     OW17320   3.410   4.668   5.513 -0.5602 -0.6578  0.0307
 1895SOL    HW117321   3.338   4.607   5.527 -0.9067  0.3164  2.6535
 1895SOL    HW217322   3.454   4.626   5.439  1.8262 -0.3251  1.2418
 1896SOL     OW17323   2.051   4.512   2.064 -0.1697  0.1932 -0.1605
 1896SOL    HW117324   2.047   4.523   2.159 -0.0989 -1.5938  0.0505
 1896SOL    HW217325   1.973   4.561   2.039 -1.3839 -1.1786  0.9443
 1897SOL     OW17326   3.366   4.672   6.570  0.3514 -0.0848  0.6502
 1897SOL    HW117327   3.273   4.662   6.547  1.0152  0.0498 -2.1800
 1897SOL    HW217328   3.404   4.695   6.485 -2.1906  1.7621 -0.0005
 1898SOL     OW17329   0.818   3.136   4.760  0.0461  0.1280  0.1072
 1898SOL    HW117330   0.904   3.106   4.729 -0.9743  0.0077 -2.6315
 1898SOL    HW217331   0.827   3.231   4.770  0.1206  0.0290  0.9567
 1899SOL     OW17332   4.562   1.231   7.745 -0.1332 -0.1788  0.2736
 1899SOL    HW117333   4.543   1.249   7.837  1.6524  0.3115  0.5465
 1899SOL    HW217334   4.582   1.319   7.713 -0.4066  0.5276  2.0641
 1900SOL     OW17335   4.473   2.536  14.016 -0.0845  0.0639  0.0253
 1900SOL    HW117336   4.448   2.469  14.079  0.9557 -0.9930 -0.6849
 1900SOL    HW217337   4.393   2.561  13.970  0.4890  1.4987 -0.2158
 1901SOL     OW17338   0.888   2.666   6.732 -0.1716  0.6410 -0.4640
 1901SOL    HW117339   0.935   2.583   6.722 -1.6340 -0.2700  0.2327
 1901SOL    HW217340   0.910   2.683   6.824 -0.6915  0.5214 -0.3137
 1902SOL     OW17341   4.268   3.080   8.990 -0.0645 -0.1977 -0.1017
 1902SOL    HW117342   4.183   3.052   8.955  0.2568  0.3878 -1.3321
 1902SOL    HW217343   4.280   3.169   8.958  0.5578 -0.0268  0.6009
 1903SOL     OW17344   0.811   1.242  17.400  0.2117  0.5281 -0.7364
 1903SOL    HW117345   0.852   1.310  17.454 -0.1667  1.1611 -1.2392
 1903SOL    HW217346   0.720   1.248  17.429 -0.1234  1.2719 -1.9564
 1904SOL     OW17347   0.884   1.373   8.478 -0.2437  0.2263 -0.8070
 1904SOL    HW117348   0.978   1.358   8.468 -0.1428  2.1155 -2.7296
 1904SOL    HW217349   0.870   1.310   8.549 -1.3289  0.3370 -0.9162
 1905SOL     OW17350   4.378   0.181   4.352 -0.2763  0.3395 -0.1086
 1905SOL    HW117351   4.422   0.255   4.393  0.3646 -0.5264  0.7847
 1905SOL    HW217352   4.319   0.165   4.425 -0.0814 -0.3613 -0.1054
 1906SOL     OW17353   3.993   1.364   2.044 -0.8258 -0.1420  0.0622
 1906SOL    HW117354   4.017   1.340   2.134  1.2884  0.1654 -0.4271
 1906SOL    HW217355   3.928   1.433   2.058  1.1266  1.4553  1.1940
 1907SOL     OW17356   1.408   3.165   4.593  0.2931 -0.0844 -0.7851
 1907SOL    HW117357   1.352   3.094   4.562  1.1629 -0.8342 -0.6133
 1907SOL    HW217358   1.366   3.240   4.550 -1.6303 -1.4685 -1.3131
 1908SOL     OW17359   0.941   1.370  10.311 -0.0819  0.8252  0.1822
 1908SOL    HW117360   0.968   1.460  10.292 -2.6914  1.2220 -1.5822
 1908SOL    HW217361   0.849   1.374  10.337  0.3245 -0.4899  1.8667
 1909SOL     OW17362   0.868   0.237   0.455  0.2052  0.3045  0.3166
 1909SOL    HW117363   0.855   0.298   0.528  0.5954  0.3929  0.3153
 1909SOL    HW217364   0.781   0.229   0.416  0.3905 -2.2016  0.4602
 1910SOL     OW17365   2.898   4.583   1.515 -0.0899  0.2267 -0.3946
 1910SOL    HW117366   2.925   4.585   1.423  1.5580 -0.8191  0.0620
 1910SOL    HW217367   2.803   4.585   1.520 -0.0623 -0.7272  0.4940
 1911SOL     OW17368   4.290   3.912   0.621 -0.3705 -1.1845  0.5909
 1911SOL    HW117369   4.263   3.830   0.581  0.3115  0.1907 -2.6870
 1911SOL    HW217370   4.290   3.965   0.541  1.2060  0.2357  1.5342
 1912SOL     OW17371   1.070   2.301  14.828  0.6334 -0.4436 -0.5054
 1912SOL    HW117372   1.048   2.293  14.735  0.7655  3.3335 -0.8538
 1912SOL    HW217373   0.982   2.313  14.863  2.4894 -0.4819  4.1047
 1913SOL     OW17374   2.530   1.258   1.067  0.5081 -0.3932 -0.1953
 1913SOL    HW117375   2.440   1.287   1.079  0.5140  0.3474 -1.8617
 1913SOL    HW217376   2.519   1.163   1.065 -1.3660 -0.1730 -0.2955
 1914SOL     OW17377   2.122   2.305   2.258  0.0423  0.3108  0.5503
 1914SOL    HW117378   2.063   2.380   2.259 -1.7997 -1.1461  1.3674
 1914SOL    HW217379   2.095   2.268   2.342  0.6254 -1.1342  0.1112
 1915SOL     OW17380   4.198   2.194   6.872  0.4408  0.1913 -0.7532
 1915SOL    HW117381   4.152   2.268   6.912  1.9024  0.6131  0.1656
 1915SOL    HW217382   4.150   2.127   6.921 -1.1538  2.2052  0.3901
 1916SOL     OW17383   2.224   0.735   3.955  0.4799  0.6417 -0.1031
 1916SOL    HW117384   2.291   0.714   4.020  0.5800 -0.3699 -0.5376
 1916SOL    HW217385   2.277   0.764   3.881  0.4870 -1.6443 -0.9910
 1917SOL     OW17386   1.720   2.537   2.266 -0.0261  0.0216 -0.1572
 1917SOL    HW117387   1.652   2.471   2.275  0.2418 -0.1474  0.5928
 1917SOL    HW217388   1.693   2.572   2.181  1.4401 -0.7104 -0.9182
 1918SOL     OW17389   1.420   1.764   1.372 -0.5796  0.4844 -0.3226
 1918SOL    HW117390   1.357   1.824   1.411 -0.7880  0.7540 -1.0695
 1918SOL    HW217391   1.485   1.766   1.441 -0.9140 -1.2690  0.0438
 1919SOL     OW17392   2.382   4.000   3.277  0.0609 -0.1871  0.0219
 1919SOL    HW117393   2.458   3.993   3.334  0.1928 -1.3454 -0.2851
 1919SOL    HW217394   2.334   3.920   3.301 -0.5943 -0.1845 -1.2953
 1920SOL     OW17395   1.994   0.318   1.996 -0.1412 -1.2589  0.5867
 1920SOL    HW117396   2.004   0.300   2.090 -0.8818 -0.2289  0.8563
 1920SOL    HW217397   1.985   0.223   1.990 -2.9464 -0.9210 -0.7515
 1921SOL     OW17398   4.710   1.468   5.210  0.5303  0.5891  0.3648
 1921SOL    HW117399   0.060   1.442   5.239  0.5587  0.9865  0.6479
 1921SOL    HW217400   0.002   1.521   5.136  2.4456 -0.4176  0.4138
 1922SOL     OW17401   1.851   2.705  15.555 -0.4484 -0.2032  0.1795
 1922SOL    HW117402   1.921   2.655  15.513 -1.3606  0.1857 -1.8021
 1922SOL    HW217403   1.819   2.762  15.485 -1.2435  0.7736  1.3334
 1923SOL     OW17404   2.290   0.911   5.951  0.2169 -0.0171  0.3847
 1923SOL    HW117405   2.210   0.883   5.907  0.1667  0.1846  0.3482
 1923SOL    HW217406   2.234   0.942   6.022 -2.0320  0.0782 -1.4379
 1924SOL     OW17407   3.332   3.948   3.653  0.6272  0.2857 -0.1510
 1924SOL    HW117408   3.340   4.043   3.659  1.0849  0.0809  2.3931
 1924SOL    HW217409   3.421   3.925   3.626  0.5418 -0.1243 -0.0862
 1925SOL     OW17410   4.139   1.644  13.476  0.0367 -0.0592 -0.0493
 1925SOL    HW117411   4.122   1.604  13.391 -2.3981  0.6877  0.0861
 1925SOL    HW217412   4.118   1.737  13.467  1.5507  0.1276 -1.5271
 1926SOL     OW17413   2.655   1.018   5.088  0.1503  0.5125 -0.5508
 1926SOL    HW117414   2.603   1.058   5.019  0.8333  2.1930 -0.0954
 1926SOL    HW217415   2.652   1.093   5.148  0.6370  0.1444 -0.0708
 1927SOL     OW17416   0.556   0.632   6.643 -0.2850 -0.1534 -0.2123
 1927SOL    HW117417   0.570   0.718   6.684  1.1287  0.7236 -2.5264
 1927SOL    HW217418   0.642   0.612   6.605 -0.2961 -0.1778 -0.2240
 1928SOL     OW17419   3.119   3.430  11.046  0.0410  0.1281 -0.2243
 1928SOL    HW117420   3.054   3.381  11.096  0.7677 -1.8274 -1.2318
 1928SOL    HW217421   3.120   3.519  11.082  2.6911 -0.0790  0.2335
 1929SOL     OW17422   1.072   4.574   7.578  0.0598 -0.6964 -0.0693
 1929SOL    HW117423   1.013   4.499   7.574  1.4312 -1.9164  2.8520
 1929SOL    HW217424   1.105   4.579   7.488  0.2603 -0.0394  0.0418
 1930SOL     OW17425   4.235   4.314  13.524  0.5483  0.0711 -0.0377
 1930SOL    HW117426   4.329   4.300  13.516  0.1138 -3.4246  0.8992
 1930SOL    HW217427   4.235   4.403  13.490  1.8935 -0.1341 -0.5769
 1931SOL     OW17428   4.425   1.663   0.349  0.6586 -0.1711  0.4637
 1931SOL    HW117429   4.404   1.585   0.400  1.2609 -0.6119  0.0266
 1931SOL    HW217430   4.519   1.651   0.357  0.0858 -3.0098  3.0339
 1932SOL     OW17431   4.420   0.807   5.617  0.5640 -0.5354 -0.1551
 1932SOL    HW117432   4.339   0.831   5.572 -0.2663 -0.4839  1.3608
 1932SOL    HW217433   4.418   0.716   5.586 -0.1400 -1.0070  1.2724
 1933SOL     OW17434   4.110   0.273  10.508 -0.1035  0.2544  0.2363
 1933SOL    HW117435   4.142   0.183  10.503  0.4556  0.4199  0.9227
 1933SOL    HW217436   4.184   0.314  10.553 -0.5786  1.3420  0.0098
 1934SOL     OW17437   3.568   2.039  14.534  0.0287  0.3423  0.1034
 1934SOL    HW117438   3.498   2.016  14.595  0.6227 -3.1202 -0.5263
 1934SOL    HW217439   3.554   2.131  14.515 -2.2832 -0.1928 -0.7154
 1935SOL     OW17440   2.079   2.072  14.224 -0.4180  0.0207 -0.1765
 1935SOL    HW117441   1.990   2.108  14.225  0.0104  1.0533 -0.1402
 1935SOL    HW217442   2.073   1.987  14.268 -2.9379 -0.7159 -1.8938
 1936SOL     OW17443   0.962   3.564   2.138 -0.0718 -0.2872 -0.4019
 1936SOL    HW117444   0.978   3.470   2.131 -0.5575 -0.3791 -0.2447
 1936SOL    HW217445   1.009   3.599   2.062 -0.3119  0.1488 -0.3449
 1937SOL     OW17446   0.096   1.043   4.914  0.5180 -0.1693 -0.6238
 1937SOL    HW117447   0.058   1.100   4.982  0.9796 -1.0544  0.3697
 1937SOL    HW217448   0.129   1.104   4.847  0.2852  1.1605  0.4642
 1938SOL     OW17449   4.395   4.296   6.548  0.3466 -0.0572  0.5720
 1938SOL    HW117450   4.342   4.344   6.485 -2.2010 -2.7162  0.7064
 1938SOL    HW217451   4.480   4.281   6.509 -0.6554 -0.8569 -1.2852
 1939SOL     OW17452   4.642   2.650   8.191 -0.0425 -0.3952  0.5978
 1939SOL    HW117453   4.701   2.576   8.177  1.0118  1.1115 -2.8971
 1939SOL    HW217454   4.631   2.634   8.284  1.7749  1.0836  1.0686
 1940SOL     OW17455   2.885   2.196   4.565  0.0454 -0.5751  0.5049
 1940SOL    HW117456   2.952   2.207   4.498 -3.0238  1.9899 -2.1692
 1940SOL    HW217457   2.840   2.280   4.565 -0.7476 -1.0011  1.3787
 1941SOL     OW17458   2.407   3.369  10.771  0.6765  0.0383  0.3992
 1941SOL    HW117459   2.493   3.336  10.797  1.1432  0.1076 -1.0215
 1941SOL    HW217460   2.419   3.359  10.676  1.6350 -0.3840  0.5586
 1942SOL     OW17461   1.429   2.283  13.733 -0.7895  0.4033 -0.0178
 1942SOL    HW117462   1.367   2.254  13.667 -0.1249 -0.7795 -0.1237
 1942SOL    HW217463   1.478   2.338  13.672  3.0218 -2.3836  0.5468
 1943SOL     OW17464   3.182   4.439   5.168 -0.3136  0.1789  0.3202
 1943SOL    HW117465   3.122   4.478   5.104 -3.4507 -2.0016  1.9144
 1943SOL    HW217466   3.231   4.518   5.187  0.5847  0.2603 -2.2130
 1944SOL     OW17467   2.420   1.313   6.657  0.3403  0.3845 -0.3921
 1944SOL    HW117468   2.382   1.400   6.658  2.6779  1.4336 -1.0060
 1944SOL    HW217469   2.506   1.341   6.624 -0.2067  4.0804  1.4018
 1945SOL     OW17470   4.635   4.127  16.508 -0.0727 -0.4059 -0.4988
 1945SOL    HW117471   4.629   4.035  16.481  0.8912 -0.9298  1.0872
 1945SOL    HW217472   4.730   4.134  16.518 -0.5806  1.7956  2.6248
 1946SOL     OW17473   0.701   0.730   3.983  0.1552  0.2501  0.3359
 1946SOL    HW117474   0.783   0.748   3.937  1.6234  1.7060  3.5218
 1946SOL    HW217475   0.644   0.703   3.911 -1.0290  2.0082  0.6021
 1947SOL     OW17476   3.615   1.731   4.299  0.4305 -0.1878 -0.5751
 1947SOL    HW117477   3.548   1.728   4.230  0.3385 -0.7163 -0.4646
 1947SOL    HW217478   3.596   1.652   4.350  0.7713  0.4192  0.4960
 1948SOL     OW17479   1.239   2.468   6.337  0.4165  0.0063 -0.6825
 1948SOL    HW117480   1.187   2.545   6.359  1.2406  0.1526  0.7401
 1948SOL    HW217481   1.242   2.463   6.242  2.4441  0.4740 -0.6239
 1949SOL     OW17482   4.119   0.260  15.487 -0.0688 -0.0822  0.7504
 1949SOL    HW117483   4.048   0.310  15.446  2.0664  1.8351 -0.5852
 1949SOL    HW217484   4.104   0.299  15.573  1.8237 -0.8732  1.4463
 1950SOL     OW17485   1.401   1.095  10.307  0.3198  0.0559 -0.2001
 1950SOL    HW117486   1.371   1.173  10.353 -1.1237 -0.3776 -0.4330
 1950SOL    HW217487   1.315   1.063  10.281 -0.3855  0.6407  1.4042
 1951SOL     OW17488   0.720   4.462  16.575  0.2415  0.5863 -0.1195
 1951SOL    HW117489   0.704   4.486  16.484  1.9223 -1.4593 -0.9460
 1951SOL    HW217490   0.774   4.531  16.613  0.4251  0.2186  0.2898
 1952SOL     OW17491   0.187   1.458  16.638  0.0009  0.1630 -0.6545
 1952SOL    HW117492   0.199   1.433  16.730  0.2232 -0.3284 -0.8151
 1952SOL    HW217493   0.161   1.549  16.645 -0.7239 -0.3299  3.0579
 1953SOL     OW17494   2.919   3.511  14.603 -0.1199 -0.3304  0.1154
 1953SOL    HW117495   2.837   3.503  14.653  0.7148  1.4827  1.7416
 1953SOL    HW217496   2.948   3.597  14.633 -0.2025  0.6201 -2.4834
 1954SOL     OW17497   1.665   4.124   3.049 -0.0223 -0.1653  0.3142
 1954SOL    HW117498   1.617   4.148   3.128 -0.0210 -0.4948  0.4135
 1954SOL    HW217499   1.679   4.210   3.010 -2.6612 -0.5723 -1.4890
 1955SOL     OW17500   4.032   1.353   0.755 -0.5221  0.2781  0.0099
 1955SOL    HW117501   4.004   1.407   0.829 -2.0239 -2.5832  1.5290
 1955SOL    HW217502   3.970   1.375   0.685 -0.5340 -0.3019 -0.1680
 1956SOL     OW17503   4.151   2.190   9.498 -0.0053  0.1670 -0.2301
 1956SOL    HW117504   4.149   2.121   9.564 -1.5136 -0.6831 -1.1702
 1956SOL    HW217505   4.057   2.210   9.488  0.6286  3.3442  0.1425
 1957SOL     OW17506   1.956   3.470   5.719  0.1552  0.5292 -0.0989
 1957SOL    HW117507   1.915   3.431   5.796  1.3207  1.0375  0.7747
 1957SOL    HW217508   2.032   3.521   5.746  2.0977 -2.1476 -0.5282
 1958SOL     OW17509   0.856   4.402   7.552  0.5188 -0.4118 -0.0934
 1958SOL    HW117510   0.781   4.451   7.583  0.8078 -0.1200  0.1463
 1958SOL    HW217511   0.824   4.384   7.464 -0.0286  1.2026 -0.2297
 1959SOL     OW17512   2.835   2.424   3.021  0.4930  0.0597 -0.3374
 1959SOL    HW117513   2.871   2.377   2.946  1.2998  0.3251 -0.1094
 1959SOL    HW217514   2.755   2.373   3.033 -1.2510  2.5341 -1.5560
 1960SOL     OW17515   1.339   1.889   0.880  0.2109  0.0134 -0.4546
 1960SOL    HW117516   1.354   1.950   0.952 -1.1022 -2.5770  2.0057
 1960SOL    HW217517   1.417   1.834   0.883 -0.0384 -0.4620 -2.3478
 1961SOL     OW17518   0.035   1.868   4.502  0.7318  0.0420 -0.0804
 1961SOL    HW117519   0.057   1.850   4.410 -0.0681 -0.7740 -0.1218
 1961SOL    HW217520   0.098   1.937   4.521 -0.8688  1.3740  0.3433
 1962SOL     OW17521   3.294   3.055   7.918  0.3056  0.3425  0.5574
 1962SOL    HW117522   3.281   2.996   7.993 -0.5038  0.8395  0.8135
 1962SOL    HW217523   3.332   3.134   7.955  1.5769  0.2561 -0.5862
 1963SOL     OW17524   0.525   3.519   8.802  0.4104 -0.0729 -0.2989
 1963SOL    HW117525   0.544   3.594   8.746  1.9648  0.4388  0.9231
 1963SOL    HW217526   0.524   3.557   8.890 -1.2653  0.0523 -0.3719
 1964SOL     OW17527   3.842   0.050  12.843 -0.2699  0.0884 -0.2199
 1964SOL    HW117528   3.847   4.730  12.766  0.1927 -0.5915  0.3074
 1964SOL    HW217529   3.781   0.011  12.906 -0.0271 -1.1921 -0.7702
 1965SOL     OW17530   0.845   3.890   2.506 -0.0668 -0.1861 -0.4779
 1965SOL    HW117531   0.904   3.833   2.555 -0.5304  0.0876  0.3979
 1965SOL    HW217532   0.812   3.839   2.432  0.6300  1.0449 -1.6388
 1966SOL     OW17533   1.317   0.059  15.648  0.0492 -0.2586  0.2064
 1966SOL    HW117534   1.325   0.037  15.555 -1.6891 -2.5257  0.5749
 1966SOL    HW217535   1.403   0.088  15.676  0.1489  0.7684 -1.1593
 1967SOL     OW17536   1.688   0.486  17.449  0.0854 -0.4774  0.1784
 1967SOL    HW117537   1.726   0.400  17.431 -1.5879 -1.0838 -0.4999
 1967SOL    HW217538   1.720   0.504  17.537 -0.0988 -1.5350  0.4644
 1968SOL     OW17539   3.890   4.657  15.536  0.2852 -0.1826  0.5324
 1968SOL    HW117540   3.893   4.706  15.618 -0.5786  1.9323 -0.7040
 1968SOL    HW217541   3.875   4.569  15.569  0.6414 -0.0727  0.9903
 1969SOL     OW17542   3.968   1.257  16.852  0.0013 -0.2391 -0.1584
 1969SOL    HW117543   4.032   1.187  16.842  0.0442 -0.1068 -0.8276
 1969SOL    HW217544   3.897   1.230  16.794  1.3529 -3.0050 -0.5371
 1970SOL     OW17545   3.210   3.587   5.074 -0.0648  0.7740  0.0586
 1970SOL    HW117546   3.135   3.538   5.108 -0.6026  0.7133 -1.2128
 1970SOL    HW217547   3.213   3.672   5.118 -1.7332  0.4081  0.8989
 1971SOL     OW17548   3.733   2.050   1.486  0.6419  0.1659 -0.3943
 1971SOL    HW117549   3.762   2.124   1.540  0.2641  0.2541 -0.3128
 1971SOL    HW217550   3.659   2.018   1.537  0.1452  1.7088 -0.1537
 1972SOL     OW17551   1.351   4.119   2.833 -0.4736 -0.0207  0.4782
 1972SOL    HW117552   1.396   4.039   2.807 -2.0495 -0.0210 -2.2310
 1972SOL    HW217553   1.412   4.187   2.803 -2.4632  1.5205 -0.1007
 1973SOL     OW17554   3.654   4.011  10.387 -0.2233 -0.1198 -0.3099
 1973SOL    HW117555   3.722   3.974  10.443 -0.2581 -0.9966 -0.8461
 1973SOL    HW217556   3.578   3.968  10.426  0.0607 -1.9913 -1.8388
 1974SOL     OW17557   4.192   4.464   7.086 -0.4255  0.2084  0.3185
 1974SOL    HW117558   4.130   4.500   7.149 -0.8612 -1.7659  1.0374
 1974SOL    HW217559   4.168   4.372   7.070  0.5505  0.1446 -0.7732
 1975SOL     OW17560   3.389   0.477   4.338 -0.0124  0.0896 -0.5314
 1975SOL    HW117561   3.358   0.398   4.295  0.2175  0.2862 -1.0571
 1975SOL    HW217562   3.465   0.447   4.389  0.7857 -0.7473 -2.2166
 1976SOL     OW17563   4.566   4.136  15.569 -0.0399 -0.2357 -0.0030
 1976SOL    HW117564   4.528   4.134  15.656 -1.8319 -0.2373 -0.7880
 1976SOL    HW217565   4.648   4.088  15.576 -1.5347 -2.8081 -0.2055
 1977SOL     OW17566   4.399   2.825   4.454  0.5120 -0.3150 -0.4702
 1977SOL    HW117567   4.426   2.762   4.388 -1.0749 -0.1943 -1.2426
 1977SOL    HW217568   4.308   2.793   4.458  0.1188  1.0799  1.6930
 1978SOL     OW17569   0.873   3.394   4.682  0.3529  0.0142 -0.2967
 1978SOL    HW117570   0.899   3.419   4.594  1.1683  1.0407  0.2399
 1978SOL    HW217571   0.831   3.475   4.709 -1.0000 -0.8384  0.1638
 1979SOL     OW17572   0.780   2.174   3.935 -0.3911 -0.3903  0.3763
 1979SOL    HW117573   0.779   2.080   3.954 -2.2426 -0.3897  0.3219
 1979SOL    HW217574   0.802   2.206   4.022  0.2991  0.7937 -0.2359
 1980SOL     OW17575   2.881   1.200   1.650  0.4255 -0.4392  0.4362
 1980SOL    HW117576   2.922   1.131   1.599 -1.2691 -0.7303 -0.5190
 1980SOL    HW217577   2.791   1.189   1.619 -0.0586  2.2581  0.7974
 1981SOL     OW17578   2.455   3.728   3.095 -0.6046 -0.0437  0.4051
 1981SOL    HW117579   2.404   3.735   3.175 -2.1650  1.5846 -0.7273
 1981SOL    HW217580   2.387   3.688   3.041 -0.7051  1.4315 -0.5521
 1982SOL     OW17581   0.807   2.034   6.487 -0.1361  0.1819  0.1929
 1982SOL    HW117582   0.711   2.030   6.487 -0.1552  0.6943  0.1339
 1982SOL    HW217583   0.826   1.944   6.514  0.5456  0.3885  0.3815
 1983SOL     OW17584   0.655   0.847  10.312 -0.1767 -0.0157  0.5294
 1983SOL    HW117585   0.721   0.784  10.281 -0.2585 -0.9891  2.3092
 1983SOL    HW217586   0.682   0.925  10.263 -0.2962 -0.4390 -0.2176
 1984SOL     OW17587   3.356   3.713  11.492 -0.0117 -0.0114  0.6333
 1984SOL    HW117588   3.364   3.803  11.462  1.1361  0.0146  1.0155
 1984SOL    HW217589   3.420   3.712  11.564  1.7787 -2.5047 -0.9884
 1985SOL     OW17590   0.367   2.526  17.633  0.1751 -0.2419  0.0617
 1985SOL    HW117591   0.355   2.440  17.594 -1.0825 -0.2892  0.5658
 1985SOL    HW217592   0.315   2.575  17.570 -2.6547 -3.8108 -0.3652
 1986SOL     OW17593   2.949   4.256   7.318  0.4471  0.6210 -0.4551
 1986SOL    HW117594   2.969   4.205   7.240 -1.5228 -1.0229  0.0984
 1986SOL    HW217595   2.856   4.276   7.306  0.5026  1.8241  1.1874
 1987SOL     OW17596   3.671   3.938   6.371 -0.2664  0.3146 -0.1275
 1987SOL    HW117597   3.710   3.864   6.417  2.9963  2.2991  0.2940
 1987SOL    HW217598   3.636   3.983   6.448 -1.8263 -1.3857  0.1545
 1988SOL     OW17599   0.556   2.565   9.998 -0.2346  0.8486 -0.0335
 1988SOL    HW117600   0.490   2.628  10.028 -0.6763 -0.3077  1.4475
 1988SOL    HW217601   0.523   2.542   9.911  1.6967  0.0075 -0.5262
 1989SOL     OW17602   0.144   3.317   9.370  0.1756 -0.2422  0.4327
 1989SOL    HW117603   0.111   3.352   9.288  1.4696  1.4697  0.6389
 1989SOL    HW217604   0.067   3.263   9.387  0.0335 -0.5005 -1.0347
 1990SOL     OW17605   0.551   2.802   7.924 -0.0786 -0.3100 -0.4536
 1990SOL    HW117606   0.575   2.806   7.831  1.0275 -0.7943 -0.1928
 1990SOL    HW217607   0.506   2.886   7.938  0.6695  0.5532 -3.2290
 1991SOL     OW17608   1.274   2.884   2.764 -0.6282  0.5757  0.2947
 1991SOL    HW117609   1.250   2.899   2.673  1.0945  0.2915 -0.2042
 1991SOL    HW217610   1.202   2.934   2.804  0.3836  0.7087  1.9657
 1992SOL     OW17611   2.199   1.588   8.514 -0.1959  0.1312  0.3260
 1992SOL    HW117612   2.141   1.654   8.476  0.0491 -0.2174 -0.6598
 1992SOL    HW217613   2.279   1.641   8.517  0.5675 -0.9103 -1.3958
 1993SOL     OW17614   4.487   1.259  11.353  0.0070 -0.0765  0.1445
 1993SOL    HW117615   4.446   1.346  11.358 -1.2806 -0.7539  1.2809
 1993SOL    HW217616   4.422   1.207  11.399  1.0032 -0.8733  0.6434
 1994SOL     OW17617   3.325   1.696   4.389  0.0463 -0.4877  0.2864
 1994SOL    HW117618   3.254   1.632   4.391  0.6403 -1.1261  0.9164
 1994SOL    HW217619   3.313   1.741   4.306 -0.7385 -1.1759  0.0194
 1995SOL     OW17620   2.839   3.361   9.499 -0.1390  0.1043 -0.3271
 1995SOL    HW117621   2.835   3.387   9.591  0.6003  1.7171 -0.7436
 1995SOL    HW217622   2.797   3.439   9.464  0.0819 -0.2147 -1.2998
 1996SOL     OW17623   2.149   0.735  15.269 -0.3499 -0.2599  0.1298
 1996SOL    HW117624   2.059   0.738  15.299 -0.1073 -0.0193  0.8376
 1996SOL    HW217625   2.192   0.685  15.338 -0.2908 -1.0638 -0.4873
 1997SOL     OW17626   3.784   4.436   0.086 -0.0775  0.0180 -0.3615
 1997SOL    HW117627   3.790   4.407   0.177 -2.1288 -0.0667 -0.2585
 1997SOL    HW217628   3.711   4.497   0.080 -0.7988 -1.0601 -2.9409
 1998SOL     OW17629   2.400   3.475  17.245  0.3732 -0.0776 -0.0195
 1998SOL    HW117630   2.441   3.409  17.190  1.4421  0.5901 -0.0184
 1998SOL    HW217631   2.414   3.560  17.202 -0.1792 -0.4902 -1.0069
 1999SOL     OW17632   3.363   2.770   1.356 -0.2172 -0.3527  0.3157
 1999SOL    HW117633   3.361   2.839   1.290 -2.2668  2.1247  2.9607
 1999SOL    HW217634   3.434   2.799   1.413  1.0460  0.5065 -1.6798
 2000SOL     OW17635   0.742   1.980  12.145 -1.2699 -0.0713  0.3427
 2000SOL    HW117636   0.747   2.075  12.137  3.2638 -0.3520 -0.5528
 2000SOL    HW217637   0.814   1.963  12.206 -1.2379 -1.8214 -0.1840
 2001SOL     OW17638   1.643   1.968   3.628 -0.0747  0.2377 -0.1784
 2001SOL    HW117639   1.614   2.059   3.641  0.8263  0.5106 -0.0634
 2001SOL    HW217640   1.561   1.920   3.642 -0.4828  1.0840  0.3760
 2002SOL     OW17641   0.721   3.759   4.498 -0.0888 -0.4089  0.0261
 2002SOL    HW117642   0.768   3.834   4.462 -0.6971 -0.7508 -1.5076
 2002SOL    HW217643   0.718   3.699   4.423  2.7872  0.7395 -0.9908
 2003SOL     OW17644   3.348   4.003  12.104 -0.1899 -0.2292  0.9250
 2003SOL    HW117645   3.259   3.971  12.118 -0.0616 -0.9341  0.1536
 2003SOL    HW217646   3.362   4.064  12.176 -0.8874  1.3676 -0.2901
 2004SOL     OW17647   3.767   1.706   2.287 -0.1364 -0.3641  0.4052
 2004SOL    HW117648   3.789   1.698   2.194 -0.9187 -0.1108  0.2048
 2004SOL    HW217649   3.840   1.763   2.310  0.1800 -0.5389 -0.1517
 2005SOL     OW17650   3.193   1.924   8.685 -0.3565 -0.7624  0.1077
 2005SOL    HW117651   3.284   1.942   8.705 -0.7507  2.9030 -1.3703
 2005SOL    HW217652   3.201   1.855   8.620 -1.0592 -1.2171  0.4994
 2006SOL     OW17653   2.933   1.413   6.353 -0.3897  0.6377 -0.1860
 2006SOL    HW117654   3.006   1.414   6.291  0.8437  1.3772  1.2901
 2006SOL    HW217655   2.961   1.489   6.404  0.2452  0.4206 -0.2102
 2007SOL     OW17656   4.603   1.422   3.613  0.4416 -0.3478  0.8237
 2007SOL    HW117657   4.526   1.442   3.666 -0.6372  0.2612 -1.0017
 2007SOL    HW217658   4.632   1.513   3.613 -0.9477  0.0897  0.6115
 2008SOL     OW17659   1.946   1.218   8.406 -0.3870 -0.0966 -0.7584
 2008SOL    HW117660   2.039   1.199   8.415 -0.2695  0.6929 -0.2971
 2008SOL    HW217661   1.909   1.191   8.490  0.9128  0.7228  0.0826
 2009SOL     OW17662   2.240   3.542   3.702 -0.3010  0.1939 -0.1148
 2009SOL    HW117663   2.236   3.523   3.608  0.7241  0.2677 -0.1675
 2009SOL    HW217664   2.229   3.457   3.746  2.6994  1.2252  2.5691
 2010SOL     OW17665   0.501   1.898   5.663  0.0439 -0.2949 -0.0880
 2010SOL    HW117666   0.418   1.895   5.614  0.6202 -0.5317 -1.0565
 2010SOL    HW217667   0.556   1.868   5.590 -0.5660  1.1271 -1.1368
 2011SOL     OW17668   1.474   2.076  12.398  0.4407 -0.0092  0.2716
 2011SOL    HW117669   1.506   2.033  12.318 -0.2338 -4.9280  2.6419
 2011SOL    HW217670   1.443   2.160  12.363 -2.4111 -0.8778  0.6629
 2012SOL     OW17671   1.983   3.179   2.121 -0.3683 -0.2397  0.5640
 2012SOL    HW117672   2.003   3.271   2.104  0.1600 -0.5839 -0.6685
 2012SOL    HW217673   2.040   3.134   2.059 -0.0470  0.9145  0.0144
 2013SOL     OW17674   3.013   3.004  13.356  0.4061  0.4380 -0.2294
 2013SOL    HW117675   3.023   2.970  13.267  2.2923  1.9299 -0.5868
 2013SOL    HW217676   2.984   2.924  13.399  0.9413  0.3460 -0.0401
 2014SOL     OW17677   2.076   2.104   4.657  0.1349  0.1471 -0.5187
 2014SOL    HW117678   2.119   2.147   4.583 -2.2775 -0.9528 -2.5495
 2014SOL    HW217679   1.985   2.127   4.641  0.2278  0.2005 -0.9659
 2015SOL     OW17680   3.446   2.937   7.263 -0.3373  0.4444 -0.4090
 2015SOL    HW117681   3.386   2.979   7.201  2.2922  2.0148 -1.8618
 2015SOL    HW217682   3.396   2.858   7.286 -3.0016  1.7445 -1.7700
 2016SOL     OW17683   1.003   0.284   7.708 -0.1743  0.1147  0.4037
 2016SOL    HW117684   1.073   0.329   7.660 -0.6908  0.0405 -0.4166
 2016SOL    HW217685   1.050   0.204   7.729  1.1719  0.6753 -0.4579
 2017SOL     OW17686   0.051   2.448  15.468  0.2274 -0.0466  0.0103
 2017SOL    HW117687   0.134   2.439  15.514 -1.9352 -1.0556  3.7086
 2017SOL    HW217688   0.015   2.520  15.519  2.3356  0.4578  0.7490
 2018SOL     OW17689   1.839   0.711   1.056 -0.1129  0.0494 -0.2728
 2018SOL    HW117690   1.840   0.803   1.028 -0.2883 -0.1056 -0.7763
 2018SOL    HW217691   1.929   0.689   1.033 -0.2291  1.2366 -1.8534
 2019SOL     OW17692   2.910   2.140   7.218  0.5149 -0.0411  0.1576
 2019SOL    HW117693   2.867   2.088   7.285 -0.0519  0.2735  0.0329
 2019SOL    HW217694   2.861   2.221   7.233  0.8921  0.7945 -3.1717
 2020SOL     OW17695   3.537   1.921   8.170  0.5761  0.7983  0.5936
 2020SOL    HW117696   3.557   1.901   8.079 -1.4720  2.2396 -0.1783
 2020SOL    HW217697   3.490   1.839   8.191  4.5516 -1.2204  1.5714
 2021SOL     OW17698   4.669   3.488   8.146 -0.1169  0.3103 -0.1499
 2021SOL    HW117699   4.658   3.396   8.171 -0.3412  1.1013  2.6092
 2021SOL    HW217700   4.601   3.543   8.184 -0.5476 -0.2228 -0.1414
 2022SOL     OW17701   1.135   1.751   1.906 -1.0659  0.0097 -0.1020
 2022SOL    HW117702   1.167   1.677   1.957  0.6416  1.0786  0.3692
 2022SOL    HW217703   1.141   1.707   1.821 -0.0385  1.0175 -0.5567
 2023SOL     OW17704   1.783   2.894   1.124  0.2101 -0.6984 -0.2658
 2023SOL    HW117705   1.803   2.970   1.180 -1.6564  0.1309 -0.7153
 2023SOL    HW217706   1.801   2.829   1.191  0.6897 -1.0054 -0.6842
 2024SOL     OW17707   3.681   1.751  12.958 -0.4314 -0.1103 -0.2012
 2024SOL    HW117708   3.715   1.765  12.870 -1.3873 -0.1681 -0.5804
 2024SOL    HW217709   3.755   1.771  13.015 -2.1755 -1.1737  2.4369
 2025SOL     OW17710   4.276   3.610   6.526 -0.1483 -0.6736  0.2526
 2025SOL    HW117711   4.295   3.692   6.481 -1.6963  0.0049  0.8355
 2025SOL    HW217712   4.213   3.633   6.594  1.0750 -0.0736  1.1891
 2026SOL     OW17713   1.195   0.146   3.719  0.1894 -0.3472 -0.4686
 2026SOL    HW117714   1.285   0.159   3.749 -0.3283 -1.2367  1.4755
 2026SOL    HW217715   1.199   0.054   3.695 -1.1192 -1.4099  3.3756
 2027SOL     OW17716   1.954   4.576  16.672  0.2938  0.1542  0.6197
 2027SOL    HW117717   1.899   4.651  16.694 -1.8626 -1.3844  0.5587
 2027SOL    HW217718   1.919   4.573  16.583  1.9308 -0.5960 -0.0005
 2028SOL     OW17719   3.838   0.648   4.612  0.1006  0.2268 -0.4121
 2028SOL    HW117720   3.757   0.689   4.641 -1.6245 -1.5229 -2.6984
 2028SOL    HW217721   3.810   0.626   4.523  1.6306  0.8629 -1.0579
 2029SOL     OW17722   2.985   3.005   8.351 -0.0311  0.0251 -0.3634
 2029SOL    HW117723   2.899   3.012   8.392 -0.2481 -1.3519 -0.5904
 2029SOL    HW217724   3.022   2.930   8.398  0.8243  0.3879 -0.4570
 2030SOL     OW17725   3.615   3.354   4.875  0.1770  1.0445  0.0802
 2030SOL    HW117726   3.579   3.417   4.938  1.3492  2.2706 -0.4697
 2030SOL    HW217727   3.609   3.401   4.792 -1.5538 -0.9857 -0.9158
 2031SOL     OW17728   3.374   4.212   3.674 -0.0759 -0.3468  0.5634
 2031SOL    HW117729   3.434   4.282   3.650  0.7423 -1.3385 -0.2504
 2031SOL    HW217730   3.349   4.235   3.764  1.8375  1.8789  0.5253
 2032SOL     OW17731   2.616   1.570   5.006 -0.0802  0.2818  0.0429
 2032SOL    HW117732   2.684   1.567   5.073  0.9269 -0.3190 -1.0061
 2032SOL    HW217733   2.553   1.627   5.050 -1.2330 -1.8042  1.1075
 2033SOL     OW17734   3.600   3.288   6.501 -0.5475  0.2530 -0.2529
 2033SOL    HW117735   3.687   3.320   6.478 -0.7330  0.1444 -1.1188
 2033SOL    HW217736   3.570   3.340   6.575  1.2621 -0.0707  0.6941
 2034SOL     OW17737   4.707   0.023   8.686 -0.0648  0.1064  0.0265
 2034SOL    HW117738   0.057   0.010   8.647 -0.6167 -1.1065 -0.8012
 2034SOL    HW217739   4.702   0.117   8.706  1.6361  0.2130 -0.0028
 2035SOL     OW17740   0.231   3.507   8.175 -0.4325 -0.0181 -0.2117
 2035SOL    HW117741   0.143   3.504   8.139  0.8393  2.0066 -3.4983
 2035SOL    HW217742   0.232   3.598   8.203 -0.5667 -0.0274 -0.1757
 2036SOL     OW17743   1.060   1.268   5.740  0.0991  0.3202 -0.0416
 2036SOL    HW117744   1.096   1.315   5.815 -0.2543  1.0433 -0.3255
 2036SOL    HW217745   1.028   1.184   5.774 -1.6149  1.5255  1.3293
 2037SOL     OW17746   1.401   1.907   8.776  0.0483 -0.1129  0.3018
 2037SOL    HW117747   1.382   1.841   8.843 -1.5155  2.9547  2.8882
 2037SOL    HW217748   1.495   1.920   8.791 -0.0497  1.1194 -0.1241
 2038SOL     OW17749   4.599   3.666   6.989  0.2991  0.1849  0.1106
 2038SOL    HW117750   4.597   3.728   6.916 -0.8626 -1.8520 -1.5884
 2038SOL    HW217751   4.540   3.606   6.944 -2.1641  1.7699  1.2661
 2039SOL     OW17752   0.729   0.004   4.129  0.3078 -0.0066  0.6063
 2039SOL    HW117753   0.672   0.070   4.089  0.6596 -0.6978 -1.0390
 2039SOL    HW217754   0.690   4.657   4.102 -1.4156  1.6767 -2.0989
 2040SOL     OW17755   4.246   2.105   9.961  0.3615 -0.3767 -0.1518
 2040SOL    HW117756   4.254   2.197   9.987 -0.4821  0.2718 -2.1905
 2040SOL    HW217757   4.251   2.060  10.045  0.7698 -0.5871 -0.2917
 2041SOL     OW17758   1.082   1.267   1.388 -0.3113 -0.1643  0.0627
 2041SOL    HW117759   1.156   1.325   1.407 -0.7529 -0.0816  1.5948
 2041SOL    HW217760   1.008   1.327   1.377 -1.3811 -1.9237 -2.2916
 2042SOL     OW17761   2.701   3.556   6.631  0.4731 -0.3902 -0.9867
 2042SOL    HW117762   2.625   3.602   6.594  0.5621  0.1590 -0.4907
 2042SOL    HW217763   2.712   3.590   6.720  1.5656 -1.3173 -0.7680
 2043SOL     OW17764   2.614   4.517   1.590 -0.1035 -0.3864  0.2951
 2043SOL    HW117765   2.552   4.584   1.620 -0.9697  0.1379 -2.7526
 2043SOL    HW217766   2.651   4.496   1.676  4.9092 -0.7332 -1.9900
 2044SOL     OW17767   3.827   4.088   5.316 -0.3886  0.2330 -0.1250
 2044SOL    HW117768   3.750   4.133   5.282  0.1055  2.5198  1.7989
 2044SOL    HW217769   3.791   4.025   5.379 -0.7695 -0.0925 -0.6618
 2045SOL     OW17770   0.397   2.041   3.059 -0.5948  0.1727  0.2957
 2045SOL    HW117771   0.410   2.088   2.976  1.3531 -1.8533 -0.5621
 2045SOL    HW217772   0.316   1.993   3.046  1.7721 -2.9761 -2.8392
 2046SOL     OW17773   1.821   1.268   6.976 -0.0958 -0.7693  0.0387
 2046SOL    HW117774   1.730   1.239   6.965 -0.7194  0.7645  1.2486
 2046SOL    HW217775   1.864   1.183   6.978  2.7017  0.6054 -1.6693
 2047SOL     OW17776   1.385   1.231  10.749 -0.0160  0.4083 -0.1790
 2047SOL    HW117777   1.400   1.252  10.657  1.7722  0.0575  0.0391
 2047SOL    HW217778   1.399   1.316  10.790 -1.6088  0.8661 -0.5593
 2048SOL     OW17779   0.932   2.701   6.074  0.0329  0.3752 -0.0380
 2048SOL    HW117780   0.965   2.680   5.987  1.5263 -0.4711  0.7320
 2048SOL    HW217781   0.917   2.794   6.053 -0.7845 -0.0373 -1.3018
 2049SOL     OW17782   3.627   2.367   5.884 -0.4682  0.3587  0.6752
 2049SOL    HW117783   3.684   2.366   5.962  0.0819 -1.4948  0.2522
 2049SOL    HW217784   3.683   2.321   5.821 -1.0544  0.8187 -0.1767
 2050SOL     OW17785   1.745   1.406  16.420 -0.6681  0.0499  0.0979
 2050SOL    HW117786   1.737   1.430  16.328  1.9749  1.4019  0.2245
 2050SOL    HW217787   1.768   1.313  16.420  2.6812  0.8860  0.6885
 2051SOL     OW17788   1.891   2.176   3.230 -0.3204  0.1929 -0.2320
 2051SOL    HW117789   1.970   2.180   3.283 -1.3377  3.5503  1.0190
 2051SOL    HW217790   1.938   2.205   3.152 -0.1626 -0.6120 -0.4363
 2052SOL     OW17791   0.824   1.713   0.492  0.6668  0.3953 -0.4603
 2052SOL    HW117792   0.861   1.680   0.574  1.5587 -1.1666 -1.4883
 2052SOL    HW217793   0.907   1.747   0.460  0.1723  1.6370 -0.4013
 2053SOL     OW17794   0.642   3.311  17.629  0.1992  0.2867  0.1879
 2053SOL    HW117795   0.655   3.252  17.555  1.6157  1.1948 -0.2659
 2053SOL    HW217796   0.667   3.391  17.584  0.8360 -0.4768 -0.8213
 2054SOL     OW17797   3.429   4.169   4.178  0.4620 -0.1739  0.2654
 2054SOL    HW117798   3.417   4.264   4.179  2.3980  0.0775  0.6370
 2054SOL    HW217799   3.522   4.171   4.154  0.5814  0.0514  0.7434
 2055SOL     OW17800   3.725   3.413   5.641 -0.4307 -0.0367 -0.3019
 2055SOL    HW117801   3.685   3.412   5.728 -2.8812  2.4091 -1.4326
 2055SOL    HW217802   3.692   3.497   5.610 -0.9321 -0.0887  0.0773
 2056SOL     OW17803   1.834   2.378   8.064 -0.2277  0.1623 -0.1809
 2056SOL    HW117804   1.776   2.454   8.056  0.6814  1.2099  3.2882
 2056SOL    HW217805   1.911   2.401   8.012  0.4511 -2.4175 -0.3198
 2057SOL     OW17806   4.608   3.748   0.268 -0.3982  0.3574  0.0810
 2057SOL    HW117807   4.582   3.796   0.190  0.5418  1.5257  0.4981
 2057SOL    HW217808   4.651   3.670   0.231  0.5211  0.0665  1.7285
 2058SOL     OW17809   0.373   4.287   4.253 -0.0452  0.4680  0.1005
 2058SOL    HW117810   0.341   4.333   4.175  1.1942 -1.0988 -1.3319
 2058SOL    HW217811   0.301   4.225   4.262  1.0454 -0.8516 -0.2364
 2059SOL     OW17812   2.439   1.136   6.410  0.0649  0.2723  0.1582
 2059SOL    HW117813   2.407   1.171   6.326 -0.7507 -0.9288 -0.0389
 2059SOL    HW217814   2.407   1.199   6.475 -0.2644  0.9333 -0.6424
 2060SOL     OW17815   1.702   3.234  16.372  0.0592 -0.4412  0.4489
 2060SOL    HW117816   1.789   3.261  16.400  0.3906 -2.8666  1.7219
 2060SOL    HW217817   1.716   3.140  16.380 -0.4553 -0.5693 -0.1865
 2061SOL     OW17818   0.697   1.046   4.390 -0.0772 -0.1062  0.0570
 2061SOL    HW117819   0.671   0.960   4.425  0.0929 -0.5631 -0.9617
 2061SOL    HW217820   0.762   1.066   4.458 -1.3590  0.0867  1.2470
 2062SOL     OW17821   0.312   4.553   2.783  0.2953 -0.0341  0.8665
 2062SOL    HW117822   0.228   4.523   2.747 -0.5005 -0.8637  3.3923
 2062SOL    HW217823   0.359   4.470   2.774  0.0747  0.0057 -0.6107
 2063SOL     OW17824   4.030   3.049  13.143  0.4889 -0.2062  0.2755
 2063SOL    HW117825   4.095   3.073  13.210 -0.0835  1.1581  0.3303
 2063SOL    HW217826   4.096   3.035  13.074  0.8021 -0.5717  0.6432
 2064SOL     OW17827   2.888   0.043  14.385  0.2608 -0.3433  0.2648
 2064SOL    HW117828   2.922   0.001  14.306  0.4734  1.1351 -0.4305
 2064SOL    HW217829   2.794   0.039  14.370  0.2440  0.1724  0.2430
 2065SOL     OW17830   0.840   1.291   7.523 -0.5730  0.2064  0.3610
 2065SOL    HW117831   0.769   1.244   7.566 -0.1998 -0.6196  0.0694
 2065SOL    HW217832   0.918   1.265   7.572 -1.2817 -0.8086  0.9429
 2066SOL     OW17833   2.186   1.277   1.369 -0.4490  0.2877 -0.0368
 2066SOL    HW117834   2.196   1.371   1.381 -2.2077  0.5580 -0.5761
 2066SOL    HW217835   2.153   1.270   1.279 -1.1589  2.3369  0.0573
 2067SOL     OW17836   2.826   2.284   5.771  0.1640  0.3716  0.2831
 2067SOL    HW117837   2.904   2.316   5.724  0.7317  1.3088  1.8566
 2067SOL    HW217838   2.760   2.273   5.703  0.1209 -0.5004  0.4731
 2068SOL     OW17839   1.412   0.352   1.435  0.1201  0.1171  0.0921
 2068SOL    HW117840   1.506   0.351   1.420  0.4650  1.0843  2.1983
 2068SOL    HW217841   1.393   0.404   1.513  0.8850 -0.3366  0.5777
 2069SOL     OW17842   2.326   2.530   3.150  0.0144 -0.3023  0.2005
 2069SOL    HW117843   2.303   2.536   3.057  1.0259 -0.3169 -0.0525
 2069SOL    HW217844   2.384   2.606   3.150 -0.9520  0.4322 -3.9045
 2070SOL     OW17845   3.932   3.728  13.913  0.3301 -0.0288 -0.3259
 2070SOL    HW117846   3.892   3.680  13.841 -0.6956  1.1582 -0.5575
 2070SOL    HW217847   3.856   3.757  13.964  1.0938 -1.0778  1.3813
 2071SOL     OW17848   0.496   1.539  13.426  0.0051 -0.0145 -0.1093
 2071SOL    HW117849   0.585   1.527  13.460 -1.2033 -0.8353  2.8147
 2071SOL    HW217850   0.521   1.604  13.360 -2.0518  0.3661 -0.4981
 2072SOL     OW17851   2.677   4.513  14.239 -0.1442  0.0408 -0.4317
 2072SOL    HW117852   2.681   4.530  14.333 -2.8126  0.7535 -0.4346
 2072SOL    HW217853   2.588   4.478  14.233 -0.3054  0.7253 -2.1745
 2073SOL     OW17854   4.590   2.447   1.219 -0.3192 -0.7961 -0.0961
 2073SOL    HW117855   4.609   2.355   1.239 -1.5809 -1.0485 -0.0835
 2073SOL    HW217856   4.626   2.448   1.131  3.6141 -1.9841  1.4551
 2074SOL     OW17857   1.958   2.060   6.284 -0.4995  0.0984  0.0059
 2074SOL    HW117858   1.878   2.038   6.237 -0.0957  1.2603 -1.2334
 2074SOL    HW217859   1.964   2.151   6.255 -1.1779  0.0069 -0.4127
 2075SOL     OW17860   1.685   1.968   8.832  0.0552 -0.4140 -0.8633
 2075SOL    HW117861   1.775   1.947   8.810  0.5286 -0.3265  1.0508
 2075SOL    HW217862   1.681   2.050   8.782 -0.7297 -0.1408 -0.3560
 2076SOL     OW17863   1.807   1.274   4.257 -0.3306  0.1168  0.3430
 2076SOL    HW117864   1.879   1.249   4.315 -0.0465  0.5984  0.2035
 2076SOL    HW217865   1.735   1.231   4.303  0.5365 -0.6843  0.9540
 2077SOL     OW17866   4.253   0.400   7.614 -0.5982  0.3516  0.0031
 2077SOL    HW117867   4.279   0.488   7.588  2.5420  0.5435  3.7529
 2077SOL    HW217868   4.288   0.344   7.545 -0.4410  2.2861 -1.4685
 2078SOL     OW17869   3.209   4.136  12.984 -0.2508 -0.2479 -0.1056
 2078SOL    HW117870   3.162   4.205  12.936 -1.8753 -1.3809 -0.1566
 2078SOL    HW217871   3.136   4.074  12.983 -0.6995  0.2789 -0.2950
 2079SOL     OW17872   2.444   3.639   5.034  0.0942  0.0940  0.1946
 2079SOL    HW117873   2.456   3.702   5.105  0.7364 -0.4794  0.5946
 2079SOL    HW217874   2.401   3.566   5.078 -0.4783 -1.8582 -3.5701
 2080SOL     OW17875   4.132   3.962   5.412  0.1909  0.1256 -0.3833
 2080SOL    HW117876   4.173   3.913   5.483 -2.7207  0.3482  1.4527
 2080SOL    HW217877   4.046   3.960   5.454  0.4188 -0.4829  0.0484
 2081SOL     OW17878   1.280   4.103  16.110  0.1654 -0.0455  0.8488
 2081SOL    HW117879   1.276   4.197  16.092 -3.7114 -0.1985  0.8337
 2081SOL    HW217880   1.279   4.069  16.020 -2.9497 -0.1470  0.9207
 2082SOL     OW17881   1.075   2.447   5.227 -0.1757  0.4014 -0.8104
 2082SOL    HW117882   1.048   2.377   5.168  0.7850  0.3580 -1.2127
 2082SOL    HW217883   0.993   2.488   5.253 -0.9294 -1.9542  0.4292
 2083SOL     OW17884   4.242   3.507  14.164  0.2138 -0.5297  0.3584
 2083SOL    HW117885   4.271   3.419  14.143 -1.6300 -0.1979 -3.4745
 2083SOL    HW217886   4.223   3.499  14.258  2.4767 -1.0938  0.7550
 2084SOL     OW17887   2.800   4.011   5.663  0.4824  0.1431  0.2791
 2084SOL    HW117888   2.796   4.079   5.596  0.7507  0.5069  0.6315
 2084SOL    HW217889   2.857   4.059   5.723  0.7787 -2.0144  1.7022
 2085SOL     OW17890   0.899   1.635   8.406 -0.3783 -0.4054  0.3009
 2085SOL    HW117891   0.961   1.656   8.475 -0.7806 -0.0532  0.5629
 2085SOL    HW217892   0.890   1.540   8.415 -0.5408 -0.5990 -1.8158
 2086SOL     OW17893   3.837   2.086   6.829 -0.4283 -0.6975 -0.2334
 2086SOL    HW117894   3.835   2.176   6.796  1.2836 -0.1406  1.1511
 2086SOL    HW217895   3.835   2.096   6.924 -1.1822  3.2440 -0.6675
 2087SOL     OW17896   4.716   2.343  11.480  0.2804  0.2640 -0.0221
 2087SOL    HW117897   4.707   2.352  11.385 -1.1082  0.5713  0.1390
 2087SOL    HW217898   0.019   2.257  11.494  0.3494 -0.0835 -2.4339
 2088SOL     OW17899   2.935   4.142   4.382  0.1821  0.5520  0.4014
 2088SOL    HW117900   3.015   4.191   4.362  1.4535 -1.0145  1.6361
 2088SOL    HW217901   2.928   4.093   4.300  0.2178  0.7261  0.2955
 2089SOL     OW17902   0.889   0.619   3.551  0.3799  0.2489 -0.0498
 2089SOL    HW117903   0.883   0.688   3.616  0.6045 -0.0368  0.2715
 2089SOL    HW217904   0.835   0.548   3.587 -0.7085  0.5507 -1.0636
 2090SOL     OW17905   4.654   1.900   5.379 -0.1622  0.0458 -0.1421
 2090SOL    HW117906   4.590   1.965   5.350  1.8304  0.5162 -3.3941
 2090SOL    HW217907   4.657   1.924   5.472  0.1855  2.4524 -0.7550
 2091SOL     OW17908   3.885   0.912   6.094  0.1962 -0.4785  0.3712
 2091SOL    HW117909   3.940   0.905   6.016 -0.1737  1.9549 -0.1094
 2091SOL    HW217910   3.802   0.874   6.064 -0.9799  2.1995  0.2592
 2092SOL     OW17911   0.774   1.454   4.636  0.3526  0.3070 -0.0932
 2092SOL    HW117912   0.851   1.481   4.687 -0.7112  0.1095  1.6253
 2092SOL    HW217913   0.730   1.408   4.708  1.7127 -2.5501 -1.0714
 2093SOL     OW17914   0.710   3.993   0.148  0.6813  0.1816  0.1203
 2093SOL    HW117915   0.746   3.905   0.161  1.5751  0.6269  0.6590
 2093SOL    HW217916   0.666   3.973   0.065 -1.7928  0.0342  1.4828
 2094SOL     OW17917   1.116   1.194   3.386 -0.2959 -0.9131 -0.7753
 2094SOL    HW117918   1.203   1.229   3.407  0.1639 -1.7910 -1.2195
 2094SOL    HW217919   1.082   1.270   3.338  0.2440 -0.0062  0.2797
 2095SOL     OW17920   3.647   4.183   2.410  0.2386  0.1595  0.1004
 2095SOL    HW117921   3.739   4.192   2.383 -0.0620  1.3670 -0.5132
 2095SOL    HW217922   3.660   4.098   2.453  2.0469 -0.2174 -1.1753
 2096SOL     OW17923   2.983   2.360   9.355 -0.7824 -0.1957 -0.5225
 2096SOL    HW117924   2.988   2.391   9.265  0.8690 -0.5528 -0.5571
 2096SOL    HW217925   3.056   2.299   9.349 -2.6743 -2.2972 -1.8662
 2097SOL     OW17926   3.252   2.050   6.546 -0.4670  0.1197  0.4097
 2097SOL    HW117927   3.284   2.119   6.489  2.1982  0.1009  1.9007
 2097SOL    HW217928   3.269   2.099   6.627 -0.7258  0.5358  0.2087
 2098SOL     OW17929   4.316   1.132  15.947  0.3405  0.3820 -0.0491
 2098SOL    HW117930   4.401   1.150  15.908 -0.1740  0.0259 -1.3185
 2098SOL    HW217931   4.340   1.089  16.029  1.6245  2.9203  0.9015
 2099SOL     OW17932   2.596   0.386  10.316  0.0181 -0.2016 -0.1855
 2099SOL    HW117933   2.642   0.445  10.376  0.5772 -1.3118  0.4769
 2099SOL    HW217934   2.656   0.312  10.322  1.6275  1.0689 -0.6328
 2100SOL     OW17935   0.390   0.137  14.803  0.0732 -0.2878  0.6405
 2100SOL    HW117936   0.430   0.111  14.886 -0.7880 -3.4153  0.0762
 2100SOL    HW217937   0.419   0.066  14.746 -0.5664 -1.0724  1.3075
 2101SOL     OW17938   1.869   1.447   7.646  0.6740  0.2393  0.3197
 2101SOL    HW117939   1.793   1.500   7.672 -1.2802 -3.0926  1.3590
 2101SOL    HW217940   1.936   1.515   7.656 -0.2730  1.5207 -1.9950
 2102SOL     OW17941   4.057   3.079   0.743 -0.5263 -0.3075 -0.2576
 2102SOL    HW117942   4.113   3.154   0.721  1.6763 -1.5008  1.4066
 2102SOL    HW217943   3.972   3.116   0.719  0.7221  1.6853 -1.6195
 2103SOL     OW17944   0.759   0.801  15.450  0.2364  0.1927  0.2267
 2103SOL    HW117945   0.748   0.708  15.472  0.8743 -0.3095 -1.5932
 2103SOL    HW217946   0.669   0.835  15.449 -0.3228 -1.3016 -2.1059
 2104SOL     OW17947   2.512   2.911   3.539 -0.2533  0.3499  0.5617
 2104SOL    HW117948   2.509   2.840   3.474  3.1129  3.4982 -3.0488
 2104SOL    HW217949   2.551   2.874   3.618  1.7728  0.1791 -0.5041
 2105SOL     OW17950   0.276   2.616   6.898 -0.2493  0.1276  0.6246
 2105SOL    HW117951   0.308   2.539   6.852 -1.4697  0.4165 -0.7077
 2105SOL    HW217952   0.333   2.677   6.851  1.0890 -0.0225  2.0601
 2106SOL     OW17953   4.412   4.657   5.012  0.4654  0.5567  0.0244
 2106SOL    HW117954   4.428   4.633   4.920  0.3135  0.6446 -0.0260
 2106SOL    HW217955   4.335   4.713   5.001  1.2391  1.4984 -0.5755
 2107SOL     OW17956   0.709   2.194   6.850 -0.2263 -0.1806 -0.1677
 2107SOL    HW117957   0.640   2.126   6.854  0.4375 -0.6690  3.2985
 2107SOL    HW217958   0.790   2.148   6.872 -1.3932 -1.0928  2.2155
 2108SOL     OW17959   0.731   4.301   6.590 -0.7520 -0.3222 -0.6393
 2108SOL    HW117960   0.720   4.207   6.577 -1.7461 -0.1601 -1.0414
 2108SOL    HW217961   0.642   4.325   6.616 -0.6605  0.8534 -1.3726
 2109SOL     OW17962   2.862   1.496  15.081  0.2334 -0.0229  0.2899
 2109SOL    HW117963   2.846   1.589  15.066 -1.6667 -0.2258  1.1466
 2109SOL    HW217964   2.845   1.486  15.174 -3.1527  0.5996 -0.2790
 2110SOL     OW17965   4.281   4.570   2.717 -0.6448 -0.1880 -1.1162
 2110SOL    HW117966   4.302   4.593   2.626  0.6395 -3.0701 -1.5599
 2110SOL    HW217967   4.353   4.613   2.763 -0.7186 -0.7298 -0.5025
 2111SOL     OW17968   1.736   3.950   4.271 -0.1343 -0.5109  0.4634
 2111SOL    HW117969   1.829   3.965   4.286 -0.2990 -0.6337  1.6501
 2111SOL    HW217970   1.722   4.032   4.225  1.2484 -1.8469 -2.3419
 2112SOL     OW17971   1.087   4.042   7.039  0.0251 -0.1183  0.2343
 2112SOL    HW117972   1.022   4.045   6.968 -1.6624  0.1833  1.7715
 2112SOL    HW217973   1.162   4.015   6.986 -1.0806  0.8464 -1.8430
 2113SOL     OW17974   1.691   4.478  16.289  0.1909  0.4509  0.1041
 2113SOL    HW117975   1.730   4.474  16.201  0.8315  0.0330  0.4095
 2113SOL    HW217976   1.605   4.440  16.270  0.0853  1.2553 -1.0818
 2114SOL     OW17977   3.704   4.555   2.381 -0.1553 -0.4300  0.0373
 2114SOL    HW117978   3.792   4.566   2.417 -0.2983 -0.0734  0.2781
 2114SOL    HW217979   3.693   4.637   2.334  0.5227  1.0023  2.3711
 2115SOL     OW17980   0.137   4.382  14.739 -0.1796 -0.1286 -0.7440
 2115SOL    HW117981   0.154   4.307  14.796  3.1790  0.2975 -1.1514
 2115SOL    HW217982   0.228   4.388  14.710  0.3281  1.6133  1.1916
 2116SOL     OW17983   0.168   1.702   5.681 -0.0807  0.9131 -0.2135
 2116SOL    HW117984   0.178   1.633   5.616 -0.2128  1.7710 -1.1432
 2116SOL    HW217985   0.200   1.773   5.626  0.5381  3.3492  3.2777
 2117SOL     OW17986   1.388   0.480  11.563 -0.4367 -0.0288 -0.1287
 2117SOL    HW117987   1.353   0.399  11.599 -3.0142  1.7060  1.3876
 2117SOL    HW217988   1.453   0.508  11.627 -0.8142  3.1895 -1.1123
 2118SOL     OW17989   0.778   3.191   5.693 -0.0606  0.8660 -0.6281
 2118SOL    HW117990   0.841   3.237   5.638  1.1750 -0.9379 -0.7256
 2118SOL    HW217991   0.724   3.263   5.725 -0.3844 -0.0915  0.9431
 2119SOL     OW17992   0.298   1.868   6.308 -0.2348 -0.4818 -0.1586
 2119SOL    HW117993   0.279   1.779   6.279  0.5994 -1.0758  1.1081
 2119SOL    HW217994   0.213   1.890   6.345  1.4746  1.4801  2.6474
 2120SOL     OW17995   1.037   4.122   1.560 -0.3044  0.0421  0.0919
 2120SOL    HW117996   1.079   4.043   1.526 -1.8585 -0.4355 -0.7069
 2120SOL    HW217997   1.027   4.095   1.652  0.7960 -1.2099 -0.1516
 2121SOL     OW17998   1.193   2.085   7.027  0.4367  0.4225 -0.3066
 2121SOL    HW117999   1.099   2.102   7.030  0.5704  1.2335 -0.7139
 2121SOL    HW218000   1.235   2.167   6.999  0.6089 -0.0511 -1.4277
 2122SOL     OW18001   0.979   0.593   7.370 -0.2981  0.5164  0.3505
 2122SOL    HW118002   0.903   0.614   7.424 -0.6463  0.6272 -0.1792
 2122SOL    HW218003   1.024   0.677   7.361  0.5429  0.0651  0.3638
 2123SOL     OW18004   2.797   3.851   6.430  0.0147  0.4209  0.0023
 2123SOL    HW118005   2.706   3.878   6.418 -0.3505 -1.1019 -0.7420
 2123SOL    HW218006   2.793   3.768   6.381 -0.1094 -0.6536  1.8325
 2124SOL     OW18007   3.085   3.161   3.972 -0.4614  0.0341 -0.2105
 2124SOL    HW118008   3.014   3.171   4.035 -0.9743 -0.6705 -0.6871
 2124SOL    HW218009   3.159   3.207   4.012 -0.6765  0.7604 -0.6423
 2125SOL     OW18010   1.208   0.008  15.884  0.4517  0.5787  0.0893
 2125SOL    HW118011   1.247   0.054  15.810  0.5099 -0.2545 -0.3903
 2125SOL    HW218012   1.117   0.028  15.863  1.3429  2.4050 -2.0539
 2126SOL     OW18013   0.552   0.286   5.857  0.0763 -0.3054  0.1258
 2126SOL    HW118014   0.459   0.307   5.861  0.3202  1.3072 -2.9082
 2126SOL    HW218015   0.576   0.353   5.794 -0.6659 -0.1227  0.0401
 2127SOL     OW18016   2.869   4.244   1.924  0.3273  0.3078  0.0234
 2127SOL    HW118017   2.783   4.204   1.937  1.0014 -0.9899  0.4548
 2127SOL    HW218018   2.925   4.167   1.912 -0.7151 -0.3670 -0.5597
 2128SOL     OW18019   3.342   2.254   5.826 -0.2021  0.4903 -0.4136
 2128SOL    HW118020   3.392   2.183   5.865 -1.3929 -1.0095 -1.6280
 2128SOL    HW218021   3.389   2.332   5.856 -0.4086  0.7803 -0.8450
 2129SOL     OW18022   0.071   2.937   8.766 -0.1724 -0.0630  0.5723
 2129SOL    HW118023   0.163   2.961   8.760 -0.5257  1.1037 -0.1863
 2129SOL    HW218024   0.030   3.023   8.775  1.8040  1.0030 -0.6898
 2130SOL     OW18025   1.432   0.630   4.236  0.1188  0.2031 -0.3701
 2130SOL    HW118026   1.402   0.650   4.147 -0.1257  0.6639 -0.1805
 2130SOL    HW218027   1.501   0.574   4.200  0.8534  0.3372  0.8415
 2131SOL     OW18028   0.597   1.793   2.109 -0.0272  0.0495  0.3460
 2131SOL    HW118029   0.691   1.793   2.094  0.2006  2.6369  1.6884
 2131SOL    HW218030   0.574   1.871   2.058  0.6626  1.5615  2.3601
 2132SOL     OW18031   2.628   0.164  16.518 -0.7907  0.5281  0.5122
 2132SOL    HW118032   2.681   0.206  16.451  0.5206  0.5059  1.5374
 2132SOL    HW218033   2.601   0.240  16.569  0.9592  2.5867 -1.6131
 2133SOL     OW18034   0.447   4.735   3.460 -0.4716 -0.5213 -0.1320
 2133SOL    HW118035   0.527   0.028   3.417 -1.6153  1.6449 -0.8006
 2133SOL    HW218036   0.382   0.065   3.437 -1.8989 -2.2187 -0.9762
 2134SOL     OW18037   3.094   1.710  15.471  0.9182 -0.2201 -0.0618
 2134SOL    HW118038   2.999   1.717  15.469  0.9647  0.3995 -0.2146
 2134SOL    HW218039   3.104   1.681  15.380 -0.2011 -0.2825 -0.1586
 2135SOL     OW18040   4.207   2.030   2.848 -0.4069  1.0795 -0.3049
 2135SOL    HW118041   4.144   2.070   2.789  1.4670  0.0334 -2.9973
 2135SOL    HW218042   4.289   2.078   2.832  0.0313 -0.2485 -2.0554
 2136SOL     OW18043   3.878   0.290  16.821 -0.4643 -0.0590  0.0879
 2136SOL    HW118044   3.847   0.273  16.732 -1.4544 -1.6751  0.7507
 2136SOL    HW218045   3.798   0.275  16.873 -0.2729  0.8392  0.6340
 2137SOL     OW18046   3.849   1.100   8.415 -0.0260  0.2044  0.1341
 2137SOL    HW118047   3.883   1.012   8.396  3.0584  0.5468  4.1604
 2137SOL    HW218048   3.829   1.123   8.324 -1.7452 -1.2963  0.1194
 2138SOL     OW18049   4.253   4.682  17.054 -0.0273 -0.5952  0.1266
 2138SOL    HW118050   4.236   0.021  16.997  0.4656 -1.5289 -1.2686
 2138SOL    HW218051   4.233   4.718  17.140 -1.8935 -0.7670 -0.2442
 2139SOL     OW18052   0.099   2.123   4.562 -0.5293  0.2149  0.1222
 2139SOL    HW118053   0.176   2.119   4.618 -0.7656  1.0826  0.5171
 2139SOL    HW218054   0.065   2.210   4.586 -1.3618 -0.1696  0.3394
 2140SOL     OW18055   4.082   4.347  17.576 -0.3813  0.2867 -0.6891
 2140SOL    HW118056   4.104   4.314  17.663  1.4627  1.0056 -0.9003
 2140SOL    HW218057   4.158   4.401  17.558  0.3192 -0.4302  0.1238
 2141SOL     OW18058   4.364   0.572   3.298  0.0710 -1.0043  0.0217
 2141SOL    HW118059   4.296   0.622   3.252  0.0313  0.5254  1.7559
 2141SOL    HW218060   4.309   0.497   3.320 -0.5318 -0.1818  1.3275
 2142SOL     OW18061   0.016   0.752   3.320  0.3638 -0.1453  0.1604
 2142SOL    HW118062   0.023   0.816   3.390  2.5780  0.5306 -0.7101
 2142SOL    HW218063   4.676   0.702   3.348  0.0755 -0.3950 -1.0338
 2143SOL     OW18064   2.999   0.048  16.609  0.1197 -0.1818 -0.3122
 2143SOL    HW118065   2.996   0.141  16.632 -2.4668 -0.9422  2.4810
 2143SOL    HW218066   3.086   0.053  16.570  0.6284 -0.2483  0.8050
 2144SOL     OW18067   1.371   4.250   7.613  0.0786  0.6065  0.1954
 2144SOL    HW118068   1.280   4.231   7.594  0.3605 -0.0062 -0.5251
 2144SOL    HW218069   1.396   4.199   7.690  0.3189  0.6326  0.1342
 2145SOL     OW18070   3.668   4.605   4.113  0.0455 -0.1737 -0.0154
 2145SOL    HW118071   3.743   4.620   4.171  0.6858 -2.3278 -0.2777
 2145SOL    HW218072   3.718   4.564   4.043  2.0126  0.5300  0.9856
 2146SOL     OW18073   1.551   4.348   4.290  0.8113 -0.0013  0.5786
 2146SOL    HW118074   1.510   4.433   4.309 -0.3396  0.0239 -1.8737
 2146SOL    HW218075   1.551   4.306   4.376  1.1063  1.3065  1.2191
 2147SOL     OW18076   1.909   4.708  15.447  0.3993 -0.5745  0.9476
 2147SOL    HW118077   1.818   4.685  15.464  0.2098 -1.2277 -1.0529
 2147SOL    HW218078   1.956   4.624  15.454 -0.8589 -1.2772  0.8598
 2148SOL     OW18079   2.618   4.491   4.640 -0.1340 -0.3135  0.7446
 2148SOL    HW118080   2.606   4.436   4.717  0.5091  0.6370  1.5329
 2148SOL    HW218081   2.668   4.428   4.588 -0.2809  1.8143 -1.9460
 2149SOL     OW18082   4.450   3.126   3.232  0.5237  0.0047  0.5707
 2149SOL    HW118083   4.483   3.137   3.143 -0.9270  0.0287  0.0510
 2149SOL    HW218084   4.500   3.050   3.260 -0.4788 -0.7177  0.3831
 2150SOL     OW18085   2.068   0.371   3.821  0.4025 -1.2808  0.4962
 2150SOL    HW118086   2.066   0.347   3.729 -0.6055 -1.6690  0.6260
 2150SOL    HW218087   2.017   0.306   3.869 -1.8358 -1.8960 -2.7880
 2151SOL     OW18088   1.574   1.649   9.210  0.0473  0.3393  0.4154
 2151SOL    HW118089   1.654   1.598   9.217  1.0537  1.7582 -0.8756
 2151SOL    HW218090   1.565   1.653   9.115  0.4887 -0.0622  0.3547
 2152SOL     OW18091   1.185   0.077  17.234 -0.1470  0.3524 -0.4094
 2152SOL    HW118092   1.140   0.079  17.149 -1.3259  0.4445  0.2252
 2152SOL    HW218093   1.195   0.170  17.254  0.0632 -0.1450  1.7727
 2153SOL     OW18094   0.657   4.507   4.009 -0.1366 -0.2833 -0.3770
 2153SOL    HW118095   0.717   4.441   4.043 -0.0996 -0.4958 -0.8628
 2153SOL    HW218096   0.576   4.468   3.975  1.3386 -1.5121 -2.4076
 2154SOL     OW18097   0.570   1.948   6.880 -0.4651 -0.1017  0.0187
 2154SOL    HW118098   0.496   1.890   6.895 -1.3219  1.4385  1.7978
 2154SOL    HW218099   0.630   1.890   6.834 -0.3099 -0.3357  0.5155
 2155SOL     OW18100   0.061   0.330   2.825 -0.1631  0.1316  0.2483
 2155SOL    HW118101   0.032   0.354   2.737 -2.9954  2.4468  1.7931
 2155SOL    HW218102   0.155   0.348   2.830 -0.0336 -0.4695 -0.0731
 2156SOL     OW18103   1.412   1.463  17.326  0.1247  0.0707  0.1655
 2156SOL    HW118104   1.351   1.389  17.324  1.6204 -1.1657  0.2363
 2156SOL    HW218105   1.363   1.522  17.383  1.9974  2.1217 -0.3609
 2157SOL     OW18106   0.622   1.581   8.416 -0.6331 -0.0158 -0.1166
 2157SOL    HW118107   0.713   1.601   8.397  0.3959 -3.8778  0.8371
 2157SOL    HW218108   0.587   1.581   8.327  1.2679  0.9354 -0.8651
 2158SOL     OW18109   2.999   1.691   5.966  0.3674  0.1031 -0.0199
 2158SOL    HW118110   2.908   1.713   5.983  1.2236  3.9292 -0.5556
 2158SOL    HW218111   3.005   1.760   5.900 -0.7133 -1.4709 -1.7778
 2159SOL     OW18112   1.151   1.018   7.114 -0.4426 -0.1323 -0.1833
 2159SOL    HW118113   1.201   1.065   7.181  0.4687 -1.2652 -0.0634
 2159SOL    HW218114   1.217   1.031   7.047  0.1325  0.6537  0.5372
 2160SOL     OW18115   0.923   2.739   6.982  0.1447  0.6639 -0.0353
 2160SOL    HW118116   0.867   2.758   7.057  1.8633 -1.7682  1.9042
 2160SOL    HW218117   1.005   2.779   7.009  0.1819  2.2965 -2.6349
 2161SOL     OW18118   3.718   1.972   1.891  0.2682 -0.2098  0.2733
 2161SOL    HW118119   3.725   2.014   1.977 -3.1950 -0.9816  0.9331
 2161SOL    HW218120   3.808   1.940   1.880  0.4582 -0.0600  1.3522
 2162SOL     OW18121   4.260   4.222   3.847  0.0081  0.0899 -0.3550
 2162SOL    HW118122   4.185   4.214   3.906  0.8824 -1.3515  0.5627
 2162SOL    HW218123   4.218   4.220   3.761  1.5140  1.4033 -1.1187
 2163SOL     OW18124   1.450   0.869   5.439 -0.3845 -0.6339  0.5479
 2163SOL    HW118125   1.544   0.883   5.424 -0.3011 -0.1922  1.4807
 2163SOL    HW218126   1.440   0.930   5.512  0.7273  0.5715 -0.2954
 2164SOL     OW18127   1.492   2.062  11.567  0.1436 -0.1664 -0.1622
 2164SOL    HW118128   1.573   2.065  11.515  0.9412 -4.7307  0.7935
 2164SOL    HW218129   1.497   2.137  11.626 -1.4101 -0.7149  0.6493
 2165SOL     OW18130   3.972   3.296  16.263 -0.1535 -0.0609  0.0853
 2165SOL    HW118131   4.043   3.238  16.290  0.0666 -0.4125 -1.2391
 2165SOL    HW218132   3.982   3.274  16.170  3.3101  1.0748  0.2091
 2166SOL     OW18133   3.047   1.283   3.190  0.0203  0.1953 -0.2513
 2166SOL    HW118134   3.137   1.299   3.218  0.3122 -0.1582 -0.9883
 2166SOL    HW218135   3.039   1.343   3.116  1.4163  1.2980  0.4843
 2167SOL     OW18136   1.539   4.547  17.187  0.1694  0.4808  0.4803
 2167SOL    HW118137   1.460   4.493  17.183 -0.3197  1.0910  2.0172
 2167SOL    HW218138   1.508   4.629  17.149 -0.2222 -0.4975 -1.3219
 2168SOL     OW18139   1.074   4.286   2.422 -0.2655  0.0570  0.1690
 2168SOL    HW118140   1.092   4.332   2.340  2.0834 -4.2289 -1.6872
 2168SOL    HW218141   1.030   4.354   2.473  0.5132 -0.6461  1.7580
 2169SOL     OW18142   0.971   2.207   5.031  0.0524 -0.0744  0.3941
 2169SOL    HW118143   0.979   2.276   4.965  0.7746 -0.5580 -0.0293
 2169SOL    HW218144   0.974   2.132   4.971 -0.4564  1.4427 -1.5098
 2170SOL     OW18145   1.682   4.298   8.668  0.5017  0.1580 -0.4320
 2170SOL    HW118146   1.670   4.221   8.614 -0.9499  0.8353 -1.0654
 2170SOL    HW218147   1.605   4.350   8.648 -0.2270 -0.1312  1.6211
 2171SOL     OW18148   2.484   3.698   7.496  0.2672 -0.5213  0.2200
 2171SOL    HW118149   2.544   3.640   7.542  1.5284  0.5744 -0.0394
 2171SOL    HW218150   2.438   3.644   7.432  0.3497  0.8001 -0.9648
 2172SOL     OW18151   3.320   3.519   6.173 -0.6984  0.0185  0.5017
 2172SOL    HW118152   3.336   3.427   6.153  1.5008  0.5932 -0.4083
 2172SOL    HW218153   3.235   3.517   6.216 -0.8331 -0.1883  0.2253
 2173SOL     OW18154   0.204   0.684  13.037  0.1858 -0.4694 -0.3461
 2173SOL    HW118155   0.112   0.681  13.065 -0.6326 -0.4879 -3.0256
 2173SOL    HW218156   0.239   0.639  13.114 -1.1068 -0.4761  0.2391
 2174SOL     OW18157   4.136   1.315   1.628  0.7346  0.1197 -0.0863
 2174SOL    HW118158   4.181   1.239   1.666  0.7332 -0.4344 -1.2078
 2174SOL    HW218159   4.202   1.347   1.567 -0.8385 -1.6032 -2.6755
 2175SOL     OW18160   3.035   0.612   9.875  0.5104 -0.2091  0.1020
 2175SOL    HW118161   2.948   0.577   9.897  0.3527  0.4325  0.4916
 2175SOL    HW218162   3.025   0.606   9.780 -3.1614  2.3908  0.2958
 2176SOL     OW18163   0.468   0.454  11.900 -0.0053  0.3704  0.0394
 2176SOL    HW118164   0.386   0.429  11.944 -0.8208  2.0977 -0.5128
 2176SOL    HW218165   0.484   0.536  11.946  1.5488 -0.0145  0.1894
 2177SOL     OW18166   0.801   0.053   3.449  0.1228  0.5154 -0.2427
 2177SOL    HW118167   0.770   4.699   3.445  0.2116  0.3835  1.9784
 2177SOL    HW218168   0.763   0.090   3.369 -1.7971 -0.3958  0.2355
 2178SOL     OW18169   4.688   0.946  12.571 -0.2567  0.1612 -0.0438
 2178SOL    HW118170   4.671   1.040  12.571  1.5053  0.4768 -4.9438
 2178SOL    HW218171   4.610   0.909  12.529 -0.5671  0.7457  0.0171
 2179SOL     OW18172   2.014   4.470   2.328  0.5551  0.6672  0.2467
 2179SOL    HW118173   1.969   4.537   2.379 -0.0435  1.3907 -1.2281
 2179SOL    HW218174   2.103   4.473   2.362 -0.2044 -1.6295  2.4499
 2180SOL     OW18175   1.704   2.196  11.719 -0.1814  0.0410 -0.1238
 2180SOL    HW118176   1.737   2.146  11.794 -2.0702 -0.2967  0.4685
 2180SOL    HW218177   1.664   2.272  11.760  0.8694 -0.0515  1.0724
 2181SOL     OW18178   2.577   2.130   1.565  0.1343 -0.3857 -0.2902
 2181SOL    HW118179   2.661   2.088   1.545  0.3963 -0.8829  1.9181
 2181SOL    HW218180   2.607   2.221   1.558  2.9497 -1.3460 -0.8950
 2182SOL     OW18181   2.779   1.658   8.187  0.6968 -0.2773  0.3612
 2182SOL    HW118182   2.817   1.638   8.272 -1.3927  0.4308  1.4414
 2182SOL    HW218183   2.701   1.603   8.199  0.5545  0.5364  3.0368
 2183SOL     OW18184   2.168   0.173   7.715 -0.3192  0.6681  0.0995
 2183SOL    HW118185   2.238   0.189   7.777  0.9852 -1.4832 -0.8134
 2183SOL    HW218186   2.219   0.117   7.655 -1.3987  0.5233 -0.6830
 2184SOL     OW18187   3.724   3.988  16.552 -0.1102 -0.1199  0.3984
 2184SOL    HW118188   3.751   3.996  16.644 -0.0818 -1.7910  0.5326
 2184SOL    HW218189   3.763   3.907  16.519  0.9111  0.2439  0.7068
 2185SOL     OW18190   2.478   1.810  12.577  0.3016  0.3809  0.3270
 2185SOL    HW118191   2.451   1.718  12.586 -0.4057  0.7043  1.5196
 2185SOL    HW218192   2.501   1.812  12.484  2.0490  0.4415  0.7703
 2186SOL     OW18193   2.361   1.843  16.359  0.0469  0.2100 -0.0999
 2186SOL    HW118194   2.292   1.834  16.424  0.0211 -0.1582 -0.1736
 2186SOL    HW218195   2.405   1.919  16.397  2.2687 -0.3873 -1.4760
 2187SOL     OW18196   0.114   2.753   5.393 -0.1959 -0.6361  0.0448
 2187SOL    HW118197   0.056   2.699   5.340 -2.0799 -0.7195  2.1622
 2187SOL    HW218198   0.204   2.742   5.363 -1.0941 -3.0060 -1.7459
 2188SOL     OW18199   1.324   0.330   9.158 -0.1427  0.1462 -0.5131
 2188SOL    HW118200   1.331   0.403   9.097  4.7806  0.3765  0.3067
 2188SOL    HW218201   1.327   0.262   9.089 -2.3584 -0.9928  0.5440
 2189SOL     OW18202   1.665   2.657  14.647  0.5599 -0.0581  0.2533
 2189SOL    HW118203   1.617   2.719  14.592 -1.7229 -1.8397  0.2455
 2189SOL    HW218204   1.744   2.708  14.667  0.9132  0.0457 -1.4434
 2190SOL     OW18205   4.167   2.023   8.568 -0.6295  0.0425  0.1495
 2190SOL    HW118206   4.221   1.996   8.642  0.7179 -1.3702 -1.3360
 2190SOL    HW218207   4.105   1.950   8.565  0.9197 -1.3455  2.7611
 2191SOL     OW18208   1.000   3.603   2.474  0.0365  0.1396  0.6610
 2191SOL    HW118209   1.017   3.516   2.439  0.1786  0.3431  0.2256
 2191SOL    HW218210   0.934   3.582   2.540  1.7833 -0.1615  2.3170
 2192SOL     OW18211   1.507   1.901  13.724 -0.1057  0.4858 -0.2563
 2192SOL    HW118212   1.417   1.932  13.715  0.8765  2.5242 -2.8651
 2192SOL    HW218213   1.509   1.824  13.668  1.0645 -0.6573  1.3645
 2193SOL     OW18214   4.208   3.352   6.583  0.0061  0.0876 -0.4629
 2193SOL    HW118215   4.227   3.441   6.554  0.4286 -0.1881 -1.0288
 2193SOL    HW218216   4.121   3.335   6.548 -1.3114  0.1010  2.8168
 2194SOL     OW18217   4.022   1.044   3.519  0.2283  0.2060  0.3244
 2194SOL    HW118218   3.986   1.114   3.464  0.7784  0.1177 -0.1409
 2194SOL    HW218219   3.968   1.045   3.598  0.8003 -0.7812  0.7213
 2195SOL     OW18220   0.649   2.132   6.013 -0.3283 -0.3409  0.4279
 2195SOL    HW118221   0.635   2.050   6.061 -0.4435 -0.1765  0.6744
 2195SOL    HW218222   0.593   2.187   6.068 -0.3855  0.7800 -0.7640
 2196SOL     OW18223   0.617   3.410   9.377  0.0100  0.9724  0.3256
 2196SOL    HW118224   0.533   3.454   9.389 -0.8315  0.0626 -2.2718
 2196SOL    HW218225   0.677   3.484   9.369 -0.1409  0.7652 -2.9285
 2197SOL     OW18226   2.497   2.202   8.870 -0.3572  0.1360 -0.1103
 2197SOL    HW118227   2.483   2.212   8.964 -1.7772 -2.4714 -0.0211
 2197SOL    HW218228   2.593   2.190   8.871 -0.3448  0.4999  1.9418
 2198SOL     OW18229   0.074   0.343   7.033 -0.0814 -0.5420 -0.3681
 2198SOL    HW118230   0.043   0.427   6.999  1.0154  0.4330  1.0212
 2198SOL    HW218231   0.137   0.368   7.100 -0.6538  0.6016 -0.2573
 2199SOL     OW18232   3.967   4.523   4.682 -0.2043 -0.5826  0.4400
 2199SOL    HW118233   3.985   4.575   4.604 -0.7531 -0.8267  0.1531
 2199SOL    HW218234   4.016   4.442   4.666  2.2695  1.0504 -0.3415
 2200SOL     OW18235   2.410   2.393   7.507  0.5606  0.1348 -0.0939
 2200SOL    HW118236   2.424   2.395   7.412 -0.8075  0.7309 -0.2852
 2200SOL    HW218237   2.348   2.465   7.515 -0.8027 -0.9812 -0.5413
 2201SOL     OW18238   1.730   0.378   7.109  0.6315 -0.3475 -0.4421
 2201SOL    HW118239   1.682   0.327   7.175  0.9039 -2.5741 -1.9671
 2201SOL    HW218240   1.661   0.369   7.043 -0.6007 -0.2623  0.8252
 2202SOL     OW18241   0.627   0.385  11.322 -0.1942 -0.7404  0.5122
 2202SOL    HW118242   0.685   0.344  11.257  0.3756 -1.0879  1.2475
 2202SOL    HW218243   0.653   0.338  11.401 -0.5629  1.1289  1.7282
 2203SOL     OW18244   4.172   3.066   5.951  0.0233 -0.4853 -0.1842
 2203SOL    HW118245   4.176   2.985   6.002  2.6382  0.0638  0.4869
 2203SOL    HW218246   4.214   3.128   6.011  0.6216 -0.6120 -0.4716
 2204SOL     OW18247   2.644   2.972   7.792  0.3003 -0.4580 -0.2513
 2204SOL    HW118248   2.667   2.985   7.884  0.6786 -1.1398 -0.2504
 2204SOL    HW218249   2.729   2.947   7.757  1.0077  1.0068  0.3986
 2205SOL     OW18250   2.852   4.519   8.204  0.3073 -0.2677  0.3607
 2205SOL    HW118251   2.925   4.460   8.182  0.6270 -0.5025  2.0085
 2205SOL    HW218252   2.903   4.599   8.217 -0.4316  0.0766  1.1165
 2206SOL     OW18253   2.513   0.593   6.495 -0.1384  0.0108  0.7670
 2206SOL    HW118254   2.510   0.513   6.443  1.2464  0.9707 -0.7725
 2206SOL    HW218255   2.420   0.611   6.510  0.0584  0.1561  1.8472
 2207SOL     OW18256   3.777   3.828   7.352 -0.1543  0.4707  0.0927
 2207SOL    HW118257   3.727   3.815   7.432  0.6418 -0.4438  0.4408
 2207SOL    HW218258   3.853   3.770   7.355 -0.3807  0.2202  0.9436
 2208SOL     OW18259   0.673   2.045   8.223 -0.5256  0.1940 -0.2065
 2208SOL    HW118260   0.668   2.075   8.313  1.2538  2.0889 -0.7409
 2208SOL    HW218261   0.591   2.070   8.181 -1.2455 -1.7790 -0.0189
 2209SOL     OW18262   1.414   3.800  12.625 -0.4805 -0.0426 -0.6545
 2209SOL    HW118263   1.477   3.861  12.664 -1.0392  1.1422 -1.5978
 2209SOL    HW218264   1.433   3.815  12.532  0.6160 -0.6667 -0.5414
 2210SOL     OW18265   4.728   4.485   3.468  0.2192 -0.1236 -0.3187
 2210SOL    HW118266   0.052   4.482   3.394  0.6137  1.3428 -0.0564
 2210SOL    HW218267   0.020   4.411   3.521 -0.5655  0.1389  0.4678
 2211SOL     OW18268   2.716   1.203   5.760  0.1461  0.0257  0.2853
 2211SOL    HW118269   2.689   1.117   5.791  0.9522 -0.6050 -0.7559
 2211SOL    HW218270   2.798   1.211   5.809  0.4042  0.0955 -0.1566
 2212SOL     OW18271   4.380   2.441   9.714  0.8047  0.0421 -0.5544
 2212SOL    HW118272   4.383   2.400   9.627  0.9594  0.4325 -0.7355
 2212SOL    HW218273   4.443   2.512   9.705  0.4539  0.2871 -1.0517
 2213SOL     OW18274   1.745   3.105   3.998 -0.5716 -0.4609 -0.1350
 2213SOL    HW118275   1.681   3.131   3.932  0.7608  3.1104 -0.0271
 2213SOL    HW218276   1.823   3.088   3.945 -0.3050  3.3325 -0.9623
 2214SOL     OW18277   2.220   2.797   7.968  0.3534 -0.1203 -0.3129
 2214SOL    HW118278   2.161   2.757   8.031 -0.6557  0.1096 -1.1178
 2214SOL    HW218279   2.299   2.804   8.021  0.6378 -3.1761 -0.2976
 2215SOL     OW18280   3.915   1.015   7.046 -0.3517  0.2760  0.5622
 2215SOL    HW118281   3.894   0.921   7.053  0.9160 -0.0961 -0.6958
 2215SOL    HW218282   3.951   1.034   7.133 -3.0582  1.1936  1.4940
 2216SOL     OW18283   1.077   2.488  16.766 -0.3069  0.2993  0.2632
 2216SOL    HW118284   1.153   2.485  16.709 -0.2360  2.2372  0.2451
 2216SOL    HW218285   1.054   2.581  16.756 -1.9753 -0.2208 -0.7483
 2217SOL     OW18286   0.673   3.902  11.144  0.2488  0.5182  0.1952
 2217SOL    HW118287   0.660   3.926  11.235 -1.2020  1.2657 -0.2000
 2217SOL    HW218288   0.768   3.906  11.133  0.6053  1.4406  3.8109
 2218SOL     OW18289   4.242   1.818   7.120  0.4459 -0.4694  0.3263
 2218SOL    HW118290   4.257   1.761   7.044  1.3745 -0.8175  0.7668
 2218SOL    HW218291   4.308   1.789   7.184  1.6110  1.4643  0.0026
 2219SOL     OW18292   3.972   0.039   8.071 -0.1294  0.0271 -0.0962
 2219SOL    HW118293   3.968   0.133   8.085  0.5062  0.0324  0.0539
 2219SOL    HW218294   4.008   0.025   8.159 -0.5283 -2.1451 -0.2808
 2220SOL     OW18295   1.152   4.228   9.738  0.3726  0.1734  0.1086
 2220SOL    HW118296   1.241   4.202   9.761  1.0373  1.5242 -0.9309
 2220SOL    HW218297   1.138   4.312   9.781 -0.8550  0.0043  0.0281
 2221SOL     OW18298   0.061   3.681  16.431  0.1239 -0.8233 -0.4422
 2221SOL    HW118299   0.062   3.585  16.429  1.0350 -0.8170  0.0664
 2221SOL    HW218300   0.153   3.702  16.448 -0.3483  3.1326 -2.8121
 2222SOL     OW18301   4.400   4.084  13.725 -0.0612 -0.9341  0.6862
 2222SOL    HW118302   4.337   4.149  13.695  2.7475  1.1003 -0.8539
 2222SOL    HW218303   4.347   4.038  13.790 -2.3637  0.9471  0.1312
 2223SOL     OW18304   4.061   1.990   3.983  0.0528 -0.1810 -0.0026
 2223SOL    HW118305   4.077   1.924   4.050  0.7097  1.7125  1.6977
 2223SOL    HW218306   3.969   2.004   4.005 -0.1286 -0.8785 -0.3149
 2224SOL     OW18307   3.569   0.197  13.376 -0.2221  0.0395  0.4364
 2224SOL    HW118308   3.598   0.158  13.458  1.0806  0.9119  0.3898
 2224SOL    HW218309   3.477   0.189  13.402 -0.2492  1.1885  0.7219
 2225SOL     OW18310   0.221   3.020   4.989  0.2198  0.4800 -0.6961
 2225SOL    HW118311   0.171   2.975   5.057 -1.3809  0.5933 -1.8161
 2225SOL    HW218312   0.184   3.108   4.992  1.0170  0.7493  1.4174
 2226SOL     OW18313   4.639   2.312   5.960 -0.0000 -0.2368  0.3757
 2226SOL    HW118314   4.583   2.267   5.897  1.4186  0.0346 -1.0851
 2226SOL    HW218315   4.674   2.381   5.903 -2.5016  1.7629  1.2595
 2227SOL     OW18316   3.331   1.725  16.539  0.8822  0.1177 -0.6073
 2227SOL    HW118317   3.401   1.663  16.560  0.1058 -0.5630 -0.0178
 2227SOL    HW218318   3.253   1.683  16.576  0.4950  0.3232 -1.2037
 2228SOL     OW18319   1.339   1.892   8.508 -0.0790 -0.5009  0.3419
 2228SOL    HW118320   1.350   1.899   8.603 -0.8889  1.2409  0.3175
 2228SOL    HW218321   1.425   1.925   8.483 -0.2688 -1.2671 -1.3156
 2229SOL     OW18322   4.326   2.495   7.695 -0.1571  0.2934 -0.7298
 2229SOL    HW118323   4.381   2.472   7.770 -0.5950 -0.3268 -0.6026
 2229SOL    HW218324   4.381   2.472   7.620  0.8170 -1.7614  0.6086
 2230SOL     OW18325   0.618   1.315   2.750  0.2215 -0.5240 -0.5144
 2230SOL    HW118326   0.685   1.373   2.716  0.0688 -0.3390 -0.4951
 2230SOL    HW218327   0.635   1.242   2.690  1.0083 -0.5990 -0.2119
 2231SOL     OW18328   4.658   2.943  15.047 -0.5493 -0.1021 -0.6661
 2231SOL    HW118329   4.686   2.961  14.957  2.2173 -1.6187 -0.1221
 2231SOL    HW218330   4.567   2.970  15.046 -0.5607 -0.0561  1.6875
 2232SOL     OW18331   3.753   4.251   6.007 -0.4703 -0.8425  0.1055
 2232SOL    HW118332   3.824   4.192   6.035 -0.2727  0.1568  1.7148
 2232SOL    HW218333   3.711   4.275   6.090  0.2321 -1.0277  0.5160
 2233SOL     OW18334   4.056   2.135  16.513 -0.5095  0.0271 -0.1400
 2233SOL    HW118335   3.995   2.137  16.586 -2.5291  0.2262 -1.8285
 2233SOL    HW218336   4.039   2.051  16.471 -0.6364  0.0730 -0.1809
 2234SOL     OW18337   1.634   2.941  16.254 -0.9299 -0.1869  0.1059
 2234SOL    HW118338   1.573   2.959  16.326  0.0567  2.4163  0.2803
 2234SOL    HW218339   1.591   2.978  16.177 -1.2115  1.0053  0.8306
 2235SOL     OW18340   1.690   1.688  11.745 -0.1002  0.3048  0.0775
 2235SOL    HW118341   1.717   1.680  11.653 -0.9864  0.4071 -0.1907
 2235SOL    HW218342   1.627   1.760  11.747 -0.9771 -0.4651  0.5746
 2236SOL     OW18343   0.713   1.983   2.844  0.4390  0.4795  0.3581
 2236SOL    HW118344   0.701   1.891   2.822  2.8116  0.2928 -0.0946
 2236SOL    HW218345   0.803   1.975   2.873  0.0061 -0.4896  1.4315
 2237SOL     OW18346   3.758   1.318   4.920 -0.0324  0.2164  0.1458
 2237SOL    HW118347   3.739   1.311   5.014  2.1507  0.8304  0.6273
 2237SOL    HW218348   3.684   1.263   4.893  0.1964 -0.7737  1.5343
 2238SOL     OW18349   4.455   0.973  12.394  0.0609  0.4085 -0.1957
 2238SOL    HW118350   4.421   1.002  12.309 -0.0103 -0.4499 -0.4641
 2238SOL    HW218351   4.515   1.042  12.422 -0.1568  0.3456  0.4286
 2239SOL     OW18352   0.302   1.924   8.993 -0.4470 -0.0340  0.0432
 2239SOL    HW118353   0.349   1.947   9.074  0.0500  0.2470 -0.3277
 2239SOL    HW218354   0.378   1.927   8.935 -0.9476  0.8654 -0.5576
 2240SOL     OW18355   2.063   1.266   5.059 -0.1230  0.2094  0.0266
 2240SOL    HW118356   2.146   1.309   5.080 -0.6714  0.6127  1.3661
 2240SOL    HW218357   2.093   1.206   4.991 -0.3820  0.6494 -0.4685
 2241SOL     OW18358   1.547   1.872   0.667  0.0835 -0.1218 -0.3710
 2241SOL    HW118359   1.456   1.904   0.660  0.6833  1.9303  1.1212
 2241SOL    HW218360   1.540   1.792   0.718 -1.5705 -0.2317 -0.7572
 2242SOL     OW18361   4.009   3.500   3.366 -0.0257 -0.2871  0.1744
 2242SOL    HW118362   3.994   3.577   3.311 -0.8689  1.7146  3.2485
 2242SOL    HW218363   4.098   3.525   3.390  0.5587  0.6178 -2.8816
 2243SOL     OW18364   2.306   0.619   3.330  0.1724  0.1764 -0.7936
 2243SOL    HW118365   2.269   0.567   3.401 -1.4396  0.4533 -1.4302
 2243SOL    HW218366   2.234   0.679   3.313 -1.0518 -1.7764 -2.5233
 2244SOL     OW18367   1.745   3.758  12.482 -0.0224  0.2186  0.1861
 2244SOL    HW118368   1.805   3.821  12.522  1.8950 -1.5567  0.0296
 2244SOL    HW218369   1.668   3.811  12.459 -0.7163 -0.8731 -0.0330
 2245SOL     OW18370   0.231   3.836   9.564  0.3768  0.1558 -0.0734
 2245SOL    HW118371   0.204   3.746   9.580 -0.5093  0.5494  0.5915
 2245SOL    HW218372   0.176   3.857   9.489  0.6464  2.7708  0.4826
 2246SOL     OW18373   2.655   1.122   1.522  0.0183  0.8710  0.0225
 2246SOL    HW118374   2.640   1.163   1.437 -2.0446  2.2015  1.0066
 2246SOL    HW218375   2.606   1.040   1.513  0.1698  0.6864  0.8377
 2247SOL     OW18376   2.883   2.833   3.667 -0.1393 -0.1147  0.2561
 2247SOL    HW118377   2.923   2.774   3.603  0.6338  0.6941 -0.0073
 2247SOL    HW218378   2.932   2.915   3.670  0.7493 -0.6576  0.8913
 2248SOL     OW18379   2.947   4.365   3.268 -0.4423  0.3945  0.3658
 2248SOL    HW118380   2.920   4.420   3.341  1.3439 -0.7110  1.8572
 2248SOL    HW218381   3.021   4.320   3.308  0.8227  0.4823 -1.8452
 2249SOL     OW18382   3.652   3.898   2.636  0.2662  0.5281 -0.3805
 2249SOL    HW118383   3.736   3.867   2.671 -0.4656  1.5682  2.2286
 2249SOL    HW218384   3.632   3.965   2.701 -0.8837 -1.3114  1.1535
 2250SOL     OW18385   4.008   3.640   4.019 -0.0030 -0.1225  0.3151
 2250SOL    HW118386   3.951   3.717   4.029 -3.1036 -1.8856 -3.4397
 2250SOL    HW218387   3.974   3.593   4.094 -0.2557  2.5002  1.8395
 2251SOL     OW18388   4.070   2.415   1.692  0.2165  0.6269  0.2119
 2251SOL    HW118389   4.063   2.346   1.758  0.7236 -0.5023 -0.9329
 2251SOL    HW218390   4.136   2.467   1.738  1.3083  1.9733 -2.9210
 2252SOL     OW18391   0.206   0.901   5.127 -0.2815 -0.7133 -0.0007
 2252SOL    HW118392   0.183   0.941   5.043 -2.1449  0.2379  0.9832
 2252SOL    HW218393   0.298   0.877   5.114  0.0350  0.5593 -0.0605
 2253SOL     OW18394   1.999   3.255   2.664  0.4294  0.0175  0.5518
 2253SOL    HW118395   1.995   3.276   2.571 -0.9064  1.1795  0.8824
 2253SOL    HW218396   1.975   3.335   2.711  2.1349  0.1105  1.2837
 2254SOL     OW18397   3.545   4.507  16.150  0.0699  0.2210  0.3694
 2254SOL    HW118398   3.547   4.583  16.092  1.0900  0.0739  0.2057
 2254SOL    HW218399   3.606   4.538  16.217  1.8404  0.3243 -1.2918
 2255SOL     OW18400   0.087   0.116   6.311 -0.8901  0.5446  0.3262
 2255SOL    HW118401   0.017   0.119   6.377 -2.2624  0.5863 -1.1517
 2255SOL    HW218402   0.140   0.041   6.341 -0.8795 -0.8627 -3.2315
 2256SOL     OW18403   3.234   2.505   3.526  0.0764 -0.5258  0.7060
 2256SOL    HW118404   3.247   2.411   3.514  0.3693 -0.2774 -0.9466
 2256SOL    HW218405   3.179   2.515   3.604 -0.5737 -0.1196  0.1998
 2257SOL     OW18406   2.043   1.796   0.642  0.3194 -0.2167 -0.2689
 2257SOL    HW118407   2.052   1.728   0.575  0.4041 -1.4517  0.9885
 2257SOL    HW218408   1.969   1.760   0.692 -0.4627 -0.3694 -1.5259
 2258SOL     OW18409   4.291   2.106   8.340 -0.4883 -0.2965 -0.3459
 2258SOL    HW118410   4.240   2.082   8.418 -0.2581  0.1612 -0.0600
 2258SOL    HW218411   4.240   2.182   8.313 -0.7729 -0.6403 -0.7951
 2259SOL     OW18412   0.143   0.635   8.850 -0.1215  1.0701 -0.0256
 2259SOL    HW118413   0.064   0.639   8.796 -0.5803 -3.6554  0.3061
 2259SOL    HW218414   0.119   0.576   8.921 -0.2826  3.6336  2.0638
 2260SOL     OW18415   1.639   2.949   7.658 -0.4887 -0.2234 -0.1288
 2260SOL    HW118416   1.585   2.968   7.735  0.1230  3.5718 -0.6363
 2260SOL    HW218417   1.717   2.904   7.690  1.0175  2.7961  0.5207
 2261SOL     OW18418   0.779   3.670   3.962  0.0166  0.2087 -0.6640
 2261SOL    HW118419   0.796   3.753   3.918  0.7514 -0.6854 -2.0973
 2261SOL    HW218420   0.775   3.622   3.878  1.7046  0.5553 -0.9504
 2262SOL     OW18421   0.822   3.163   9.001 -0.2197 -0.0606 -0.0303
 2262SOL    HW118422   0.764   3.179   9.076 -1.8821 -0.1971 -1.2955
 2262SOL    HW218423   0.802   3.244   8.955  0.8841 -0.5389 -1.3242
 2263SOL     OW18424   2.438   1.164   3.109  0.6676  0.0367  0.3009
 2263SOL    HW118425   2.418   1.195   3.021 -0.1096  1.7887  1.0938
 2263SOL    HW218426   2.351   1.163   3.148  0.7591  0.7253  0.5294
 2264SOL     OW18427   0.881   3.732   2.977 -0.1874 -0.6110 -0.4571
 2264SOL    HW118428   0.934   3.800   3.019 -1.0043  0.6481 -1.4548
 2264SOL    HW218429   0.816   3.776   2.922 -0.8865 -1.8772 -0.6508
 2265SOL     OW18430   3.874   3.693   3.518 -0.1208  0.1699 -0.0786
 2265SOL    HW118431   3.914   3.675   3.603  0.0768  0.7771 -0.0425
 2265SOL    HW218432   3.881   3.605   3.482 -0.6121  0.6026 -1.2393
 2266SOL     OW18433   1.665   2.612  12.638 -0.2848  0.2005  0.4184
 2266SOL    HW118434   1.614   2.692  12.629  0.8231  0.9022  0.4007
 2266SOL    HW218435   1.627   2.565  12.564  0.4151  2.3321 -1.2811
 2267SOL     OW18436   0.378   1.504   5.549  0.4426 -0.3064  0.1393
 2267SOL    HW118437   0.467   1.509   5.515  0.8562 -2.1796  0.9480
 2267SOL    HW218438   0.395   1.445   5.623 -0.7053  2.3021  2.4640
 2268SOL     OW18439   0.089   4.481   2.679 -0.7179 -0.0288 -0.3595
 2268SOL    HW118440   0.061   4.519   2.596 -2.0425 -0.2958 -0.0319
 2268SOL    HW218441   0.009   4.432   2.701 -0.0176 -0.4467  1.2924
 2269SOL     OW18442   3.208   0.577   7.638  0.0550  0.4524  0.5241
 2269SOL    HW118443   3.262   0.655   7.624 -2.9140  2.1743 -1.3370
 2269SOL    HW218444   3.122   0.606   7.669 -0.3899 -2.7184  2.2375
 2270SOL     OW18445   0.620   3.721   7.549  0.1852  0.4683 -0.1618
 2270SOL    HW118446   0.617   3.805   7.503  0.3484  0.3222 -0.4385
 2270SOL    HW218447   0.590   3.658   7.483 -0.9787  0.7073  0.1281
 2271SOL     OW18448   2.608   0.719  13.919  0.2745 -0.0838 -0.9660
 2271SOL    HW118449   2.657   0.774  13.858  1.1796 -0.0181 -0.1732
 2271SOL    HW218450   2.532   0.701  13.864  1.0808 -4.0763 -0.7920
 2272SOL     OW18451   1.816   3.183   4.971 -0.1268 -0.6448 -0.0557
 2272SOL    HW118452   1.903   3.192   4.934  1.5587 -0.3752  3.9289
 2272SOL    HW218453   1.814   3.090   4.991 -1.0879 -0.5481  0.3311
 2273SOL     OW18454   2.648   2.639   1.564 -0.2591 -0.3158 -0.0660
 2273SOL    HW118455   2.576   2.689   1.524 -0.2797  0.5837  1.0984
 2273SOL    HW218456   2.604   2.583   1.628  1.7843  2.4245  3.7766
 2274SOL     OW18457   4.109   4.042  17.670 -0.3221 -0.0495  0.4864
 2274SOL    HW118458   4.137   4.111  17.730 -0.5659  0.5524 -0.0920
 2274SOL    HW218459   4.172   4.051  17.598 -0.1688 -1.0370  0.4968
 2275SOL     OW18460   0.940   3.709   3.549  0.0286  0.1116 -0.2817
 2275SOL    HW118461   0.978   3.796   3.566  2.1535 -0.9415  0.3218
 2275SOL    HW218462   1.017   3.666   3.513 -0.4116 -0.3696 -0.6368
 2276SOL     OW18463   2.351   0.045   7.572  0.1020 -0.0396 -0.7696
 2276SOL    HW118464   2.377   0.002   7.490 -0.0946 -0.9880 -0.3311
 2276SOL    HW218465   2.410   0.001   7.632 -0.9059  2.4749  2.0630
 2277SOL     OW18466   2.593   1.804   8.926 -0.1079  0.3244 -0.2420
 2277SOL    HW118467   2.564   1.858   8.999 -1.3476  0.7552 -1.0518
 2277SOL    HW218468   2.673   1.768   8.964 -2.2157  0.1603  3.9365
 2278SOL     OW18469   3.280   3.106   8.737 -0.3926  0.2367  0.1879
 2278SOL    HW118470   3.284   3.096   8.832 -1.5382 -0.9760  0.1185
 2278SOL    HW218471   3.186   3.121   8.729 -0.6313 -0.7098  1.1983
 2279SOL     OW18472   0.335   2.307   7.585 -0.1793 -0.3188  0.5060
 2279SOL    HW118473   0.403   2.375   7.580  0.0303 -0.6901 -1.5997
 2279SOL    HW218474   0.388   2.228   7.594 -0.7988 -0.2660  4.6751
 2280SOL     OW18475   1.526   3.773   5.378 -0.1964 -0.1356 -0.4229
 2280SOL    HW118476   1.609   3.782   5.331 -1.4386 -0.1600 -2.5927
 2280SOL    HW218477   1.465   3.801   5.310 -1.6849  0.6829  1.2258
 2281SOL     OW18478   2.154   1.274  14.086 -0.6244  0.6222 -0.0571
 2281SOL    HW118479   2.077   1.245  14.037  0.6164 -0.3402 -1.4197
 2281SOL    HW218480   2.190   1.337  14.025  0.3763  0.0248 -0.0895
 2282SOL     OW18481   2.687   3.079   2.144  0.0412  0.1530  0.3219
 2282SOL    HW118482   2.746   3.119   2.208  0.2927  0.2982 -0.0009
 2282SOL    HW218483   2.755   3.030   2.099  1.4778  0.2223  2.3938
 2283SOL     OW18484   3.013   0.053   0.435  0.1825 -0.2415  0.4095
 2283SOL    HW118485   3.058   0.114   0.494  1.9426 -1.4675  0.2982
 2283SOL    HW218486   3.070   4.714   0.431  0.2162 -0.3200  2.2868
 2284SOL     OW18487   3.233   2.093   3.247  0.4003 -0.1882  0.7385
 2284SOL    HW118488   3.260   2.028   3.183  0.5861 -0.1893  0.8190
 2284SOL    HW218489   3.245   2.165   3.184 -1.2419  0.2465  0.9060
 2285SOL     OW18490   0.349   4.704   3.979  0.1697  0.1987  0.4714
 2285SOL    HW118491   0.313   0.047   3.942 -0.6155  0.6156  2.1511
 2285SOL    HW218492   0.436   4.731   4.010  0.7894 -1.0259 -0.1972
 2286SOL     OW18493   1.750   3.065   8.662  0.3698 -0.0212  0.4886
 2286SOL    HW118494   1.704   3.001   8.607 -0.2536 -1.1580  2.3334
 2286SOL    HW218495   1.807   3.009   8.714  1.1948  0.7673  0.4353
 2287SOL     OW18496   2.198   2.177   4.429 -0.3769  0.2487 -0.0638
 2287SOL    HW118497   2.275   2.131   4.395  1.3388  0.2217  3.8476
 2287SOL    HW218498   2.204   2.269   4.404  2.6013  0.3827  1.1620
 2288SOL     OW18499   0.369   2.938  12.509  0.1227 -0.3916  0.0080
 2288SOL    HW118500   0.301   2.909  12.449 -0.9063 -2.5224  2.1825
 2288SOL    HW218501   0.364   3.032  12.495  2.3381 -0.0347  1.6036
 2289SOL     OW18502   2.211   0.154  13.420 -0.1393  0.1759  0.2409
 2289SOL    HW118503   2.293   0.135  13.374 -1.4322 -2.0358 -1.1524
 2289SOL    HW218504   2.204   0.249  13.412  0.1965  0.1504 -0.3179
 2290SOL     OW18505   2.628   4.295   8.271  0.1376  0.1327  0.3727
 2290SOL    HW118506   2.707   4.348   8.271  0.1090  0.1737 -0.0501
 2290SOL    HW218507   2.575   4.344   8.334 -1.2925 -0.1576 -0.5948
 2291SOL     OW18508   2.676   3.225   6.848 -0.3423  0.5334  0.4263
 2291SOL    HW118509   2.661   3.307   6.802  2.3788  2.0874  2.3093
 2291SOL    HW218510   2.584   3.200   6.853 -1.0438  2.7495 -1.5966
 2292SOL     OW18511   3.086   4.066  10.426 -0.3607  0.1556  0.0803
 2292SOL    HW118512   3.162   4.042  10.479 -1.0099 -1.5591  0.2105
 2292SOL    HW218513   3.035   4.122  10.484 -0.0837 -1.6279  2.0272
 2293SOL     OW18514   3.411   0.476   2.965 -0.3629 -0.3633  0.2000
 2293SOL    HW118515   3.429   0.570   2.971  1.3462 -0.6999  0.4263
 2293SOL    HW218516   3.372   0.470   2.878 -2.1315  1.0181  0.9099
 2294SOL     OW18517   2.985   2.663  12.148  0.1069 -0.5654 -0.7102
 2294SOL    HW118518   2.952   2.714  12.222 -0.2452 -2.6632  0.5815
 2294SOL    HW218519   2.940   2.581  12.169 -0.7129  0.3953  1.2751
 2295SOL     OW18520   1.683   0.093   7.516 -0.7507 -0.2088  0.1465
 2295SOL    HW118521   1.601   0.051   7.493 -1.2049  1.2490 -0.8613
 2295SOL    HW218522   1.710   0.047   7.596  1.9380  0.6389 -0.2654
 2296SOL     OW18523   0.333   1.371   6.360  0.7838  0.2131 -0.1696
 2296SOL    HW118524   0.428   1.360   6.362  0.3511 -3.3379  0.2213
 2296SOL    HW218525   0.322   1.436   6.291  3.4719  1.9686  1.0354
 2297SOL     OW18526   4.066   4.404  16.283 -0.5520 -0.1919 -0.0197
 2297SOL    HW118527   4.043   4.448  16.364 -0.7889  0.2197 -0.3114
 2297SOL    HW218528   4.025   4.319  16.302 -0.4605 -0.2020  0.1337
 2298SOL     OW18529   0.476   2.859   2.977 -0.1357 -0.0873 -0.1019
 2298SOL    HW118530   0.441   2.948   2.988 -2.4591 -1.0091  0.0708
 2298SOL    HW218531   0.399   2.815   2.941 -0.3524  0.6027 -0.4918
 2299SOL     OW18532   4.259   3.919   4.828 -0.2831 -0.2198  0.0444
 2299SOL    HW118533   4.234   4.008   4.805  1.1085  0.6061  1.7438
 2299SOL    HW218534   4.261   3.919   4.924 -0.4492  0.9219  0.0398
 2300SOL     OW18535   0.830   4.174   3.000  0.1743 -0.3627  0.7559
 2300SOL    HW118536   0.775   4.164   2.922 -1.6175  1.5298  1.7766
 2300SOL    HW218537   0.915   4.157   2.960  0.8424 -0.0010  2.0448
 2301SOL     OW18538   1.738   2.590   6.508 -0.3007  0.8145  0.3034
 2301SOL    HW118539   1.753   2.578   6.601 -1.5337 -0.2965  0.3626
 2301SOL    HW218540   1.643   2.595   6.519  0.1214 -1.5327  5.0086
 2302SOL     OW18541   4.356   1.385   4.886 -0.3626 -0.6797 -0.3465
 2302SOL    HW118542   4.399   1.460   4.926  0.7502 -0.3530 -2.1865
 2302SOL    HW218543   4.264   1.395   4.914 -0.3978  0.8190 -1.0020
 2303SOL     OW18544   3.449   4.117   3.257  0.3702 -0.2059 -0.4629
 2303SOL    HW118545   3.455   4.050   3.325  0.6234 -0.1021 -0.3827
 2303SOL    HW218546   3.540   4.140   3.241  0.1575  1.8579  1.3588
 2304SOL     OW18547   2.623   0.563   5.366  0.5469 -0.2583 -0.0634
 2304SOL    HW118548   2.531   0.547   5.345  0.3919  1.9407 -1.0819
 2304SOL    HW218549   2.629   0.657   5.350 -0.5629 -0.1780  0.0156
 2305SOL     OW18550   3.434   3.901  10.781  0.4146 -0.4706 -0.1951
 2305SOL    HW118551   3.422   3.810  10.752 -0.6787 -0.1985 -0.6159
 2305SOL    HW218552   3.370   3.914  10.851 -0.9745 -1.0396 -1.3559
 2306SOL     OW18553   3.264   0.136  10.141 -0.6130  0.1264  0.3296
 2306SOL    HW118554   3.239   0.118  10.231  0.5525 -0.1955  0.5885
 2306SOL    HW218555   3.257   0.232  10.139 -1.7376  0.0251 -0.7842
 2307SOL     OW18556   2.132   2.257   5.147  0.0001 -0.4005 -0.3212
 2307SOL    HW118557   2.140   2.341   5.101 -1.5664 -0.3762 -0.5540
 2307SOL    HW218558   2.154   2.206   5.069  0.8692 -2.0925  1.0570
 2308SOL     OW18559   1.293   2.185   4.018 -0.8351 -0.5908 -0.6471
 2308SOL    HW118560   1.384   2.214   4.029 -0.2994 -2.6242  0.2313
 2308SOL    HW218561   1.300   2.096   3.984 -0.3305 -0.0177 -2.0372
 2309SOL     OW18562   0.006   0.025   3.436  0.1017  0.6001 -0.2966
 2309SOL    HW118563   0.043   0.056   3.519 -1.8635  1.8743  0.0940
 2309SOL    HW218564   4.736   4.667   3.449  0.1234  1.0646  3.0221
 2310SOL     OW18565   0.770   4.486  13.994 -0.3178 -0.0019  0.5717
 2310SOL    HW118566   0.853   4.505  13.949 -0.4775  2.1378  1.1849
 2310SOL    HW218567   0.710   4.524  13.930  1.4615  1.5519 -0.1616
 2311SOL     OW18568   0.681   1.528  10.614 -0.3233  0.4992 -0.0285
 2311SOL    HW118569   0.607   1.589  10.610 -1.8677 -1.3588  0.1118
 2311SOL    HW218570   0.669   1.492  10.526  2.0445  1.4381 -0.7369
 2312SOL     OW18571   2.380   2.448   8.517 -0.0063 -0.0495  0.8082
 2312SOL    HW118572   2.357   2.524   8.464 -0.2942 -0.2823  0.5990
 2312SOL    HW218573   2.313   2.393   8.478 -1.9864 -0.5852  4.8798
 2313SOL     OW18574   2.353   2.953   7.373 -0.1652 -0.0981 -0.2990
 2313SOL    HW118575   2.406   2.982   7.299 -0.3632  2.9406  0.7914
 2313SOL    HW218576   2.262   2.972   7.348 -0.0276 -0.3533 -1.0171
 2314SOL     OW18577   4.154   2.043  13.169  0.7845 -0.0361 -0.3021
 2314SOL    HW118578   4.089   2.076  13.231  2.3154 -0.3803  1.4958
 2314SOL    HW218579   4.097   1.990  13.113 -0.1639  1.6284 -0.9012
 2315SOL     OW18580   1.603   3.915  16.517  0.6069  0.0121  0.4509
 2315SOL    HW118581   1.631   3.995  16.561 -0.5553  0.9374 -0.4991
 2315SOL    HW218582   1.545   3.948  16.448 -0.2623 -2.3705  0.0558
 2316SOL     OW18583   1.741   1.303   8.729 -0.3282  0.6669  0.1076
 2316SOL    HW118584   1.755   1.222   8.778 -0.2376  0.7926  0.2916
 2316SOL    HW218585   1.743   1.362   8.805  3.3155  0.2715  0.3125
 2317SOL     OW18586   3.414   3.306  10.512  0.4693 -0.0172  0.1270
 2317SOL    HW118587   3.407   3.401  10.518  0.4568 -0.0482  0.6215
 2317SOL    HW218588   3.388   3.295  10.421 -0.5470  1.5365  0.2386
 2318SOL     OW18589   1.795   1.804  10.809  0.7849  0.1119 -0.0220
 2318SOL    HW118590   1.878   1.795  10.763  1.4989  2.1745  0.8506
 2318SOL    HW218591   1.817   1.869  10.876 -2.4685  0.3637  0.8076
 2319SOL     OW18592   1.279   3.083   1.935  0.0282  0.3935  0.5952
 2319SOL    HW118593   1.189   3.069   1.965  1.0941 -2.8118  2.3626
 2319SOL    HW218594   1.266   3.093   1.841 -4.4909 -1.5103  1.0086
 2320SOL     OW18595   0.762   4.692  16.412  0.0541 -0.3607 -0.2692
 2320SOL    HW118596   0.670   4.720  16.416  1.1234  3.2358 -0.1447
 2320SOL    HW218597   0.778   4.678  16.319 -0.1583 -2.9866  0.0886
 2321SOL     OW18598   0.406   4.400  16.268 -0.0259 -0.4019 -0.7011
 2321SOL    HW118599   0.365   4.377  16.352 -1.0474 -0.6081 -1.2599
 2321SOL    HW218600   0.364   4.482  16.244  1.4413  0.2511 -1.0471
 2322SOL     OW18601   4.212   3.579  11.446 -0.0219  0.2292  0.1092
 2322SOL    HW118602   4.195   3.631  11.524  1.7930  0.3035  0.4507
 2322SOL    HW218603   4.293   3.534  11.471  0.9903  1.5807 -0.7675
 2323SOL     OW18604   4.538   3.442   3.695 -0.2027 -0.1753  0.2126
 2323SOL    HW118605   4.512   3.412   3.608  2.7074 -0.8530 -0.4065
 2323SOL    HW218606   4.628   3.409   3.694  0.2243  0.9076  2.7081
 2324SOL     OW18607   2.890   2.098  13.831 -0.1662 -0.2155  0.3346
 2324SOL    HW118608   2.837   2.160  13.780 -0.5960  0.4236  1.5607
 2324SOL    HW218609   2.918   2.156  13.902 -0.0711 -1.8879  1.6405
 2325SOL     OW18610   1.252   3.198   7.951 -0.3492 -0.1973 -0.3508
 2325SOL    HW118611   1.165   3.169   7.978  0.8275 -0.6770  2.8195
 2325SOL    HW218612   1.229   3.220   7.860 -2.1828 -2.8624 -0.5375
 2326SOL     OW18613   0.751   1.537  13.132 -0.1641 -0.0470 -0.0561
 2326SOL    HW118614   0.813   1.541  13.058  0.7018 -3.6796  0.4371
 2326SOL    HW218615   0.679   1.492  13.089 -0.5067 -0.2382  0.7189
 2327SOL     OW18616   3.514   4.112  16.443  0.6850 -0.3838 -0.4714
 2327SOL    HW118617   3.588   4.062  16.476  0.6290  0.0737  0.3481
 2327SOL    HW218618   3.476   4.041  16.390  0.0621 -0.4933  0.1147
 2328SOL     OW18619   1.637   3.636  15.148  0.1282  0.3880  0.4014
 2328SOL    HW118620   1.706   3.579  15.182 -0.1019  0.7275  1.4365
 2328SOL    HW218621   1.594   3.664  15.229 -0.6089 -0.2140  0.2151
 2329SOL     OW18622   1.734   3.172   2.905 -0.8144 -0.7970 -0.0249
 2329SOL    HW118623   1.830   3.169   2.910 -0.8024  0.5063  0.4533
 2329SOL    HW218624   1.719   3.178   2.999 -1.9059  1.0703 -0.3358
 2330SOL     OW18625   1.907   1.862  17.488 -0.5837 -0.2746  0.0593
 2330SOL    HW118626   1.991   1.883  17.446 -1.5787  1.0396 -1.2611
 2330SOL    HW218627   1.853   1.822  17.420  2.4096 -1.8804 -1.3813
 2331SOL     OW18628   1.720   2.184   0.069  0.3524  0.5652  0.2018
 2331SOL    HW118629   1.798   2.143   0.031 -0.5884  0.1818 -1.3190
 2331SOL    HW218630   1.699   2.113   0.129 -0.6336  1.3279  0.7471
 2332SOL     OW18631   0.877   2.458  16.960 -0.1066 -0.1484  0.0314
 2332SOL    HW118632   0.908   2.525  17.022  0.3275  0.5182 -0.9187
 2332SOL    HW218633   0.947   2.461  16.896  1.2953  0.9923  1.6237
 2333SOL     OW18634   3.622   1.318   0.313  0.1174 -0.2373 -0.1462
 2333SOL    HW118635   3.561   1.258   0.270  0.5849  1.0826 -2.6491
 2333SOL    HW218636   3.639   1.382   0.243 -1.1199  2.1010  1.6938
 2334SOL     OW18637   1.099   2.126  12.593 -0.8094 -0.0087 -0.3355
 2334SOL    HW118638   1.181   2.174  12.605  0.9977 -3.3879  0.7816
 2334SOL    HW218639   1.104   2.071  12.671  1.4274  2.5896  1.3692
 2335SOL     OW18640   3.800   1.631   5.918  0.4918  0.1256  0.3558
 2335SOL    HW118641   3.830   1.572   5.987  2.1970  0.6198  0.0588
 2335SOL    HW218642   3.838   1.714   5.947  1.2943 -0.3224  0.5727
 2336SOL     OW18643   3.933   0.039  14.918 -0.3195 -0.2728  0.2725
 2336SOL    HW118644   3.884   4.725  14.853  1.9099 -0.6268 -1.1359
 2336SOL    HW218645   4.020   0.001  14.908 -0.1259  0.1731  0.3006
 2337SOL     OW18646   4.435   3.292  13.263  0.4089  0.4403  0.3114
 2337SOL    HW118647   4.520   3.252  13.244 -0.6032 -1.8351  0.6999
 2337SOL    HW218648   4.451   3.383  13.237  0.4095 -0.0928 -1.5560
 2338SOL     OW18649   1.763   2.115   5.743 -0.0746 -0.4262 -0.6309
 2338SOL    HW118650   1.794   2.126   5.653  0.4712 -0.0227 -0.3925
 2338SOL    HW218651   1.669   2.131   5.731  0.1698  2.4578  1.3937
 2339SOL     OW18652   1.238   1.174   1.795 -0.1894  0.4389 -0.7638
 2339SOL    HW118653   1.148   1.145   1.804 -0.2287  0.6064 -0.6176
 2339SOL    HW218654   1.280   1.090   1.815 -0.0229  0.9654  1.0997
 2340SOL     OW18655   2.230   2.818   1.144 -0.1662 -0.5593  0.2122
 2340SOL    HW118656   2.162   2.779   1.090  0.8761 -0.4439 -1.1897
 2340SOL    HW218657   2.204   2.781   1.229  0.5535 -1.1159  0.1894
 2341SOL     OW18658   3.203   2.300   7.555  0.1822  0.1851 -0.4441
 2341SOL    HW118659   3.111   2.276   7.564 -0.3891  2.3250 -0.5673
 2341SOL    HW218660   3.210   2.360   7.629 -1.5651 -1.7343  1.2824
 2342SOL     OW18661   3.691   2.388   2.874 -0.3822 -0.4595  0.1517
 2342SOL    HW118662   3.645   2.442   2.809  0.6402  2.7472  2.0949
 2342SOL    HW218663   3.773   2.369   2.829  1.8000  1.9626  3.0775
 2343SOL     OW18664   0.183   4.193  17.466 -0.8622 -0.3683 -0.1609
 2343SOL    HW118665   0.094   4.220  17.442 -0.7920 -2.3915 -2.6529
 2343SOL    HW218666   0.202   4.236  17.549  0.7862  0.8872 -1.1812
 2344SOL     OW18667   3.688   2.573  11.637 -0.4718  0.4183 -0.1262
 2344SOL    HW118668   3.669   2.660  11.601 -0.2142  0.5458  0.0455
 2344SOL    HW218669   3.784   2.570  11.638 -0.4877  0.1016  0.7262
 2345SOL     OW18670   0.438   1.826  10.330 -0.2486  0.3871  0.2212
 2345SOL    HW118671   0.400   1.740  10.309  2.4480 -0.7679  0.1559
 2345SOL    HW218672   0.528   1.809  10.302 -0.2533  1.3503 -0.3862
 2346SOL     OW18673   0.538   1.960   4.491 -0.1760  0.3485  0.2391
 2346SOL    HW118674   0.567   1.937   4.402  0.3833  2.3030 -0.0961
 2346SOL    HW218675   0.560   2.053   4.497  0.1710  0.2182  0.9643
 2347SOL     OW18676   1.636   3.957   7.086 -0.3533  0.7022 -0.2432
 2347SOL    HW118677   1.632   3.992   7.175 -1.0877 -0.2002  0.0766
 2347SOL    HW218678   1.544   3.935   7.068 -0.8759 -0.8770  4.5805
 2348SOL     OW18679   3.488   0.878   0.085  0.7637  0.1607  0.7106
 2348SOL    HW118680   3.494   0.792   0.042  0.4087  1.5353 -2.0760
 2348SOL    HW218681   3.512   0.858   0.175  0.6255  2.0019  1.1535
 2349SOL     OW18682   2.675   1.798  16.173 -0.0529  0.3016 -0.3297
 2349SOL    HW118683   2.630   1.866  16.223  1.2314  1.7738 -1.1859
 2349SOL    HW218684   2.770   1.804  16.184 -0.0947  1.4159 -0.6334
 2350SOL     OW18685   1.961   2.340  13.956  0.1511  0.3197  0.2044
 2350SOL    HW118686   2.026   2.381  13.899 -2.1527  2.9982 -0.4794
 2350SOL    HW218687   1.990   2.384  14.036 -1.5035  0.3121  0.8038
 2351SOL     OW18688   0.752   1.799   8.912 -0.1887 -0.0910  0.1127
 2351SOL    HW118689   0.844   1.813   8.892 -1.4120  1.7304 -4.1568
 2351SOL    HW218690   0.741   1.848   8.993  2.1410  0.0379  0.3427
 2352SOL     OW18691   2.928   4.521   5.035 -0.3922 -0.4714 -0.5445
 2352SOL    HW118692   2.883   4.503   5.118 -0.5916 -0.9959 -0.7642
 2352SOL    HW218693   2.946   4.432   5.005  2.8236  0.3063 -0.8350
 2353SOL     OW18694   0.387   0.571   7.363  0.0040  0.5680 -0.1561
 2353SOL    HW118695   0.355   0.656   7.393 -1.2557  0.0868 -0.1453
 2353SOL    HW218696   0.336   0.505   7.409 -0.1434 -0.1321 -1.3381
 2354SOL     OW18697   3.978   2.093  10.792  0.7599  0.3426 -0.4341
 2354SOL    HW118698   4.064   2.073  10.830  0.7304 -0.1010 -0.5973
 2354SOL    HW218699   3.986   2.188  10.781 -1.8742  0.3796 -1.8557
 2355SOL     OW18700   4.069   0.479  16.778  0.3809  0.1600 -0.0109
 2355SOL    HW118701   4.122   0.477  16.858 -1.1767  1.5907  1.0673
 2355SOL    HW218702   3.997   0.417  16.792 -1.8093  2.1035 -2.6012
 2356SOL     OW18703   3.421   4.244   8.207 -0.1479 -0.0269 -0.1487
 2356SOL    HW118704   3.447   4.203   8.125  0.7312 -0.5265  0.3750
 2356SOL    HW218705   3.507   4.275   8.234  0.6020 -1.7742 -0.5488
 2357SOL     OW18706   0.404   4.023   8.170 -0.7015 -0.1735 -0.3294
 2357SOL    HW118707   0.482   3.972   8.150 -0.8771 -0.9974  1.0702
 2357SOL    HW218708   0.402   4.097   8.109  3.5501  0.2586  0.0847
 2358SOL     OW18709   4.561   2.776   9.201  0.3674  0.5314  0.1512
 2358SOL    HW118710   4.637   2.794   9.145 -1.5228  1.9676 -2.0189
 2358SOL    HW218711   4.604   2.738   9.277 -1.9356 -0.9514  0.6798
 2359SOL     OW18712   0.861   0.184   3.980  0.2623 -0.0245  0.2984
 2359SOL    HW118713   0.840   0.102   4.024 -0.3396  0.0897  0.2304
 2359SOL    HW218714   0.838   0.175   3.888  0.1138  0.1481  0.3168
 2360SOL     OW18715   3.995   2.849  14.681 -0.6061  0.5230 -0.2285
 2360SOL    HW118716   3.994   2.825  14.588  0.6013  1.3338 -0.4502
 2360SOL    HW218717   3.944   2.776  14.717  2.1076 -1.0022  0.4541
 2361SOL     OW18718   3.618   1.163   6.616  0.0453 -0.5074  0.5429
 2361SOL    HW118719   3.533   1.147   6.657 -1.3533  1.9503 -1.4181
 2361SOL    HW218720   3.588   1.199   6.533 -0.9285 -2.0367  0.2321
 2362SOL     OW18721   4.279   0.952   1.367 -0.2654 -0.4381  0.2460
 2362SOL    HW118722   4.328   1.030   1.395 -1.5872 -0.3472  2.3151
 2362SOL    HW218723   4.352   0.893   1.350 -0.1597 -0.1527 -0.2892
 2363SOL     OW18724   1.143   0.251   2.309 -0.6655  0.4844  0.2531
 2363SOL    HW118725   1.129   0.170   2.261  1.2621  0.5227 -0.3876
 2363SOL    HW218726   1.168   0.306   2.234 -0.2932  0.5351  0.4135
 2364SOL     OW18727   0.207   4.102   8.355 -0.8825  0.4103 -0.0408
 2364SOL    HW118728   0.212   4.195   8.334  2.3828  0.2255 -0.0801
 2364SOL    HW218729   0.285   4.069   8.311 -2.0654 -1.1007 -0.9701
 2365SOL     OW18730   2.486   2.342   4.615  0.4376 -0.1315  0.1203
 2365SOL    HW118731   2.541   2.313   4.542 -1.7159 -0.3109 -1.4433
 2365SOL    HW218732   2.491   2.264   4.670  1.0672  0.4301  0.8489
 2366SOL     OW18733   0.732   4.530  12.837  0.1490 -0.0094  0.0815
 2366SOL    HW118734   0.714   4.521  12.743  0.5442  2.0936 -0.2118
 2366SOL    HW218735   0.772   4.444  12.850  3.0407  1.0803 -1.4110
 2367SOL     OW18736   3.783   1.933   4.257 -0.0740 -0.5015 -0.1292
 2367SOL    HW118737   3.712   1.869   4.262 -0.5938  0.1534  0.8113
 2367SOL    HW218738   3.766   1.964   4.168  1.7192 -0.6894 -0.5384
 2368SOL     OW18739   4.048   2.022   1.400  0.6810 -0.0595  0.2476
 2368SOL    HW118740   4.124   2.022   1.342  0.2193  0.5557 -0.3623
 2368SOL    HW218741   4.019   2.113   1.391 -0.1501 -0.5028 -1.6494
 2369SOL     OW18742   3.512   1.107   2.256 -0.3767 -0.0743 -0.5075
 2369SOL    HW118743   3.448   1.131   2.323 -0.0244 -0.7716  0.0821
 2369SOL    HW218744   3.556   1.189   2.236 -0.3212  0.1232  0.4557
 2370SOL     OW18745   4.037   4.504   0.407 -0.0413  0.0067  0.2984
 2370SOL    HW118746   4.082   4.497   0.323  1.4341 -3.1908  1.3837
 2370SOL    HW218747   3.977   4.577   0.389 -0.5240 -0.2757  0.7412
 2371SOL     OW18748   1.911   0.368   3.107  0.1496  0.1106 -0.2675
 2371SOL    HW118749   1.825   0.357   3.148  0.7729 -1.0535  0.7289
 2371SOL    HW218750   1.876   0.388   3.020 -0.3202  0.2848 -0.0352
 2372SOL     OW18751   3.698   2.422   7.411 -0.3425 -0.0733  0.4979
 2372SOL    HW118752   3.621   2.377   7.448 -0.3035  0.9791  1.8895
 2372SOL    HW218753   3.762   2.428   7.482 -0.1525 -1.0349  0.3936
 2373SOL     OW18754   0.426   3.600  14.578  0.4968 -0.2868 -0.1384
 2373SOL    HW118755   0.455   3.540  14.509  2.2382  0.6382 -0.2056
 2373SOL    HW218756   0.341   3.636  14.551  0.1605 -1.4360 -0.5887
 2374SOL     OW18757   2.551   4.384   6.531 -0.9119 -0.3562  0.5334
 2374SOL    HW118758   2.548   4.462   6.586  2.6248  0.7306 -0.8307
 2374SOL    HW218759   2.467   4.346   6.558 -1.2755  0.7912  1.0057
 2375SOL     OW18760   3.464   2.865   3.328  0.3752  0.1330 -0.8074
 2375SOL    HW118761   3.444   2.775   3.357  1.0698 -0.0529 -0.8916
 2375SOL    HW218762   3.547   2.837   3.289  1.8144  2.2653  0.7459
 2376SOL     OW18763   0.651   2.260   9.808 -0.2209 -0.7021 -0.3324
 2376SOL    HW118764   0.589   2.328   9.782  1.5244  0.7735 -0.6323
 2376SOL    HW218765   0.642   2.273   9.903 -0.9734  2.6338 -0.8647
 2377SOL     OW18766   0.458   3.518   1.012 -0.1222 -0.0637  0.1737
 2377SOL    HW118767   0.380   3.499   0.961 -0.8169 -4.7798  3.0386
 2377SOL    HW218768   0.533   3.505   0.954 -0.7524  0.4928 -0.7625
 2378SOL     OW18769   2.107   2.038  13.077 -0.0852 -0.4754 -0.1276
 2378SOL    HW118770   2.021   2.012  13.044 -0.7395  0.6390  0.6436
 2378SOL    HW218771   2.162   2.026  13.000  1.3001  0.5385  0.7084
 2379SOL     OW18772   2.520   0.883   8.043  0.3386 -0.2934  0.1899
 2379SOL    HW118773   2.545   0.796   8.014 -0.0800 -0.6981  1.0632
 2379SOL    HW218774   2.438   0.893   7.993 -0.7581 -1.6106  1.7493
 2380SOL     OW18775   0.056   0.441   5.808 -0.3890 -0.2554 -0.2302
 2380SOL    HW118776   0.004   0.381   5.755 -1.4425  2.1673 -1.9437
 2380SOL    HW218777   4.720   0.499   5.829 -0.9511 -0.6884 -0.9790
 2381SOL     OW18778   3.169   1.722   2.532  0.2258 -0.1130  0.2333
 2381SOL    HW118779   3.142   1.631   2.539 -2.7622  1.0169  4.0066
 2381SOL    HW218780   3.242   1.708   2.473 -1.7374 -3.0608 -1.4798
 2382SOL     OW18781   3.718   4.614  14.779  0.2685  0.4612 -0.1311
 2382SOL    HW118782   3.690   4.525  14.801  2.1551 -0.2284 -0.5313
 2382SOL    HW218783   3.670   4.664  14.845  2.0936  3.0313 -0.7460
 2383SOL     OW18784   3.724   1.729   7.286  0.7373  0.0919  0.0832
 2383SOL    HW118785   3.762   1.646   7.257  0.3090 -0.6082  1.5089
 2383SOL    HW218786   3.640   1.733   7.242  0.6241  0.7039  0.3535
 2384SOL     OW18787   2.372   4.122   4.043 -0.2395  0.4039  0.4787
 2384SOL    HW118788   2.447   4.070   4.071  0.6526  1.1803 -0.4622
 2384SOL    HW218789   2.405   4.155   3.959 -1.7085 -2.3160 -1.1558
 2385SOL     OW18790   3.603   2.829   3.740 -0.4175 -0.0973 -0.7358
 2385SOL    HW118791   3.537   2.789   3.683 -1.3285 -0.1764  0.3712
 2385SOL    HW218792   3.668   2.841   3.671 -0.2032 -0.2632 -0.5626
 2386SOL     OW18793   3.732   2.794   2.687  0.7076  0.4577 -0.1247
 2386SOL    HW118794   3.701   2.739   2.615 -1.4604  0.8265  0.5422
 2386SOL    HW218795   3.666   2.863   2.695  0.1861 -0.0164 -0.3522
 2387SOL     OW18796   4.275   4.522  17.399 -0.2407  0.0852 -0.1749
 2387SOL    HW118797   4.354   4.479  17.365  0.8195  2.4048 -0.6030
 2387SOL    HW218798   4.274   4.608  17.358 -3.8607  0.0118 -0.2817
 2388SOL     OW18799   4.285   4.487   7.951  0.1449 -0.5083  0.1226
 2388SOL    HW118800   4.302   4.530   8.035 -2.0606 -0.0832  0.3536
 2388SOL    HW218801   4.236   4.411   7.982 -0.4006  0.2793  1.2186
 2389SOL     OW18802   1.180   3.863   4.718 -0.0739 -0.0936 -0.6773
 2389SOL    HW118803   1.100   3.837   4.672 -0.5846  1.5645 -0.7400
 2389SOL    HW218804   1.204   3.781   4.761  0.6426 -0.8132 -2.4917
 2390SOL     OW18805   3.700   0.806   7.467 -0.1346 -0.2294 -0.6807
 2390SOL    HW118806   3.693   0.835   7.558 -0.1325  1.6202 -1.2628
 2390SOL    HW218807   3.676   0.714   7.464  0.6376 -0.4098 -1.2223
 2391SOL     OW18808   3.920   0.462   6.436 -0.0978 -0.4863  0.2959
 2391SOL    HW118809   3.985   0.397   6.463 -0.3548  0.1025  2.3821
 2391SOL    HW218810   3.957   0.545   6.467 -0.1794  0.9348 -3.4483
 2392SOL     OW18811   4.467   2.811   7.853  0.1262 -0.0657 -0.3862
 2392SOL    HW118812   4.472   2.737   7.792 -0.7112 -1.4780  1.2623
 2392SOL    HW218813   4.431   2.758   7.925 -0.9181 -0.0273 -0.8763
 2393SOL     OW18814   0.322   1.441  11.761  0.4219  0.6966  0.0253
 2393SOL    HW118815   0.397   1.447  11.821  1.3585 -3.6471 -0.6905
 2393SOL    HW218816   0.355   1.387  11.689 -1.4032 -0.7281  0.2715
 2394SOL     OW18817   0.340   0.332   2.195  0.5870 -0.7599 -0.2438
 2394SOL    HW118818   0.416   0.276   2.178  0.9710  0.4248 -2.4846
 2394SOL    HW218819   0.299   0.350   2.110 -0.9783  1.2692  0.9414
 2395SOL     OW18820   1.705   3.795  11.934 -0.3430 -0.3708 -0.6260
 2395SOL    HW118821   1.669   3.884  11.944 -0.0377 -0.3744  0.5308
 2395SOL    HW218822   1.756   3.802  12.014  2.0306  0.2019 -2.1852
 2396SOL     OW18823   0.249   2.867   5.866 -0.1222  0.2295 -0.0768
 2396SOL    HW118824   0.319   2.816   5.907  0.7515  0.7141 -0.9436
 2396SOL    HW218825   0.215   2.805   5.801 -0.0920 -0.2446  0.3579
 2397SOL     OW18826   1.605   0.017   1.656  0.2197  0.3181  0.3864
 2397SOL    HW118827   1.612   4.702   1.576 -1.3469 -0.8865  1.0113
 2397SOL    HW218828   1.598   4.688   1.726  0.2360  0.4103  0.4745
 2398SOL     OW18829   1.498   2.257   3.736 -0.5138 -0.2620 -0.3701
 2398SOL    HW118830   1.587   2.241   3.768 -0.7048 -0.6465 -0.0360
 2398SOL    HW218831   1.448   2.179   3.759  0.2562  0.5062  3.8928
 2399SOL     OW18832   3.827   1.453   4.591 -0.7159 -0.4403  0.1827
 2399SOL    HW118833   3.866   1.470   4.505 -0.7043 -0.6797  0.1425
 2399SOL    HW218834   3.874   1.509   4.653 -0.9017  0.9044 -0.8789
 2400SOL     OW18835   3.839   0.361   4.850  0.4419 -0.5563 -0.1392
 2400SOL    HW118836   3.803   0.403   4.928  0.4394 -2.5290  0.9124
 2400SOL    HW218837   3.918   0.414   4.842  0.5234 -0.6159  0.3024
 2401SOL     OW18838   1.545   2.346   6.639 -0.1996 -0.1361  0.4148
 2401SOL    HW118839   1.458   2.358   6.602 -0.9678  0.2495  2.3967
 2401SOL    HW218840   1.568   2.435   6.665 -0.9488 -0.6078  2.6753
 2402SOL     OW18841   4.275   1.131  15.640  0.2547 -0.0199  0.5900
 2402SOL    HW118842   4.236   1.206  15.684 -0.7335  0.3941 -0.9587
 2402SOL    HW218843   4.368   1.150  15.643  0.0660  0.5247  2.9373
 2403SOL     OW18844   1.004   3.733   8.611  0.0396 -0.3554 -0.7431
 2403SOL    HW118845   1.078   3.676   8.588  0.6206 -0.1716  0.7011
 2403SOL    HW218846   0.969   3.684   8.685  0.6079 -0.9220 -0.8519
 2404SOL     OW18847   2.300   0.456  11.250  0.0342  0.2905 -0.0789
 2404SOL    HW118848   2.346   0.510  11.187 -0.2149  1.7123  0.9637
 2404SOL    HW218849   2.213   0.496  11.246 -0.6206 -1.2480 -1.4540
 2405SOL     OW18850   3.707   4.051  16.828  0.4217 -0.3480  0.8969
 2405SOL    HW118851   3.777   4.050  16.893 -0.6393 -1.8663  2.0427
 2405SOL    HW218852   3.638   4.101  16.872  3.1754  1.1533  3.4946
 2406SOL     OW18853   0.243   4.015   1.023 -0.6480 -0.2946  0.6398
 2406SOL    HW118854   0.224   3.997   0.930 -0.3539 -3.7862  1.2515
 2406SOL    HW218855   0.337   3.998   1.019 -0.4955  0.3556  1.5694
 2407SOL     OW18856   0.927   2.295  11.335 -0.1623 -0.3877  0.4044
 2407SOL    HW118857   0.892   2.349  11.265 -0.2924 -0.7756  0.1677
 2407SOL    HW218858   0.941   2.207  11.299  0.5199  0.7323 -2.0838
 2408SOL     OW18859   4.451   4.330  17.049 -0.4049  0.2184 -0.3645
 2408SOL    HW118860   4.485   4.324  16.959 -0.5717  0.4290 -0.4427
 2408SOL    HW218861   4.361   4.300  17.041 -0.6237  0.4656  1.1866
 2409SOL     OW18862   1.749   4.037   6.823  0.1834  0.0099 -0.0129
 2409SOL    HW118863   1.737   4.003   6.912 -1.6289  1.7313  0.4088
 2409SOL    HW218864   1.724   4.129   6.831 -0.3860 -0.2647  1.3926
 2410SOL     OW18865   2.150   4.145   3.236  0.5362  0.3380 -0.3457
 2410SOL    HW118866   2.104   4.089   3.298  0.1651 -0.6518 -1.4991
 2410SOL    HW218867   2.238   4.108   3.242  1.0322  1.7242  0.7635
 2411SOL     OW18868   1.116   2.494   9.169 -0.2332  0.4834 -0.5831
 2411SOL    HW118869   1.196   2.542   9.149  0.1920 -0.2394 -0.6420
 2411SOL    HW218870   1.072   2.480   9.085 -0.5970  1.4491 -0.5529
 2412SOL     OW18871   3.213   0.134   7.281  0.6708 -0.3230 -0.1869
 2412SOL    HW118872   3.201   0.183   7.362 -1.4534  1.7904 -1.7857
 2412SOL    HW218873   3.146   0.177   7.229 -0.2977 -0.7159  0.7357
 2413SOL     OW18874   4.150   2.253   4.002 -0.6159 -0.5863  0.4555
 2413SOL    HW118875   4.127   2.171   3.957  1.7232  0.1235 -2.0422
 2413SOL    HW218876   4.080   2.265   4.067 -0.1245 -2.4172  1.3450
 2414SOL     OW18877   3.197   2.852   7.754 -0.3388  0.6402  0.4523
 2414SOL    HW118878   3.216   2.938   7.791 -1.5311  1.2366 -0.2966
 2414SOL    HW218879   3.130   2.816   7.811 -0.0692 -0.8498 -0.1679
 2415SOL     OW18880   4.663   3.726  10.115 -0.3430  0.0303  0.0522
 2415SOL    HW118881   0.006   3.733  10.167  0.3317 -1.9453 -0.7207
 2415SOL    HW218882   4.606   3.675  10.174 -1.3631  0.1603 -0.8297
 2416SOL     OW18883   1.929   1.945   8.738  0.2231 -0.0497  0.3823
 2416SOL    HW118884   2.025   1.945   8.733  0.3013 -0.0061  1.9516
 2416SOL    HW218885   1.900   1.989   8.658 -0.0868 -2.0846 -0.6295
 2417SOL     OW18886   3.516   1.287  14.149 -0.3439  0.3241  0.7203
 2417SOL    HW118887   3.472   1.281  14.064  0.7188 -1.2917  0.2865
 2417SOL    HW218888   3.600   1.325  14.125 -0.4190  0.0964  0.0973
 2418SOL     OW18889   1.276   1.470   5.330 -0.3741 -0.3733 -0.6081
 2418SOL    HW118890   1.205   1.531   5.352 -0.0991  0.4161 -1.8608
 2418SOL    HW218891   1.267   1.397   5.390  1.6169  0.1953  0.3691
 2419SOL     OW18892   2.785   2.975   2.494  0.2424 -0.2442  1.0512
 2419SOL    HW118893   2.736   2.951   2.416 -1.4127 -1.4458  2.4698
 2419SOL    HW218894   2.870   2.932   2.485  0.3023  0.3886 -1.3963
 2420SOL     OW18895   0.813   0.163  17.292  0.3256  0.4250  0.1745
 2420SOL    HW118896   0.858   0.184  17.209  1.3509 -1.9212  0.1296
 2420SOL    HW218897   0.724   0.180  17.263 -0.4097  1.7812  3.2283
 2421SOL     OW18898   1.598   2.687   6.235  0.0440 -0.0239 -0.7346
 2421SOL    HW118899   1.640   2.665   6.152 -2.5256  0.1588 -2.0797
 2421SOL    HW218900   1.517   2.717   6.195 -0.2245  0.4052  0.1280
 2422SOL     OW18901   0.948   2.678  16.065 -0.0668  0.4439 -0.0374
 2422SOL    HW118902   0.987   2.603  16.020 -0.9506  0.2135 -0.4172
 2422SOL    HW218903   0.967   2.744  15.998 -1.7419  1.5892  0.6241
 2423SOL     OW18904   2.473   4.179   2.540 -0.0622 -0.1737  0.0184
 2423SOL    HW118905   2.419   4.234   2.597  0.9490  2.9860 -2.1176
 2423SOL    HW218906   2.520   4.242   2.487 -2.1388  1.0205 -0.3761
 2424SOL     OW18907   4.019   4.640   2.752 -0.2151 -0.5274 -0.0859
 2424SOL    HW118908   4.091   4.687   2.792 -0.0143 -1.7384  0.9876
 2424SOL    HW218909   4.023   4.554   2.794  0.5977 -0.8812 -0.9040
 2425SOL     OW18910   2.879   3.530   3.219  0.1552 -0.7302  0.1369
 2425SOL    HW118911   2.922   3.544   3.303  0.3069  0.0877 -0.0765
 2425SOL    HW218912   2.829   3.612   3.213  0.6961 -0.5340 -1.6983
 2426SOL     OW18913   4.043   3.209   1.024 -0.0866  0.6353 -0.3785
 2426SOL    HW118914   4.015   3.118   1.035 -0.1834  0.5636 -1.1926
 2426SOL    HW218915   3.996   3.254   1.094 -1.2093 -0.2178 -0.5743
 2427SOL     OW18916   1.615   0.680   5.698  0.8428 -0.1304  0.4782
 2427SOL    HW118917   1.623   0.736   5.775  1.3168 -0.5868  0.7553
 2427SOL    HW218918   1.520   0.669   5.695  0.7701  0.8427 -1.2791
 2428SOL     OW18919   3.425   1.987  16.341  0.1410  0.0786 -0.0827
 2428SOL    HW118920   3.365   2.049  16.300 -0.5179  0.9858  2.2492
 2428SOL    HW218921   3.404   1.988  16.434  4.0431  1.2803  0.7551
 2429SOL     OW18922   0.432   4.465   4.528 -0.1008 -0.1903  0.5172
 2429SOL    HW118923   0.386   4.543   4.495  1.8438  0.8300  0.1957
 2429SOL    HW218924   0.402   4.404   4.461 -2.9460  1.0561  0.6793
 2430SOL     OW18925   2.923   1.860   2.649  0.0840  0.5280 -0.4952
 2430SOL    HW118926   2.992   1.852   2.583 -0.2071  1.3519 -0.9038
 2430SOL    HW218927   2.959   1.935   2.697 -0.3562  0.2718  0.2290
 2431SOL     OW18928   4.499   4.705   5.276 -0.6423  0.0182 -0.2011
 2431SOL    HW118929   4.410   4.706   5.312  0.0672 -0.2492  1.5563
 2431SOL    HW218930   4.471   4.698   5.185 -0.2148 -1.4893 -0.2335
 2432SOL     OW18931   1.582   4.471  10.533 -0.1002  0.0227 -0.0129
 2432SOL    HW118932   1.502   4.440  10.575 -0.4092  0.9467  0.0683
 2432SOL    HW218933   1.611   4.389  10.492  0.0107  1.2153 -2.3364
 2433SOL     OW18934   4.553   1.073   5.422  0.0083 -0.3235  0.3651
 2433SOL    HW118935   4.646   1.063   5.402  0.0489  3.7022 -1.4279
 2433SOL    HW218936   4.554   1.162   5.460  1.4751 -0.2070  0.0631
 2434SOL     OW18937   1.552   1.900   4.166  0.1168 -0.3941  0.0346
 2434SOL    HW118938   1.601   1.963   4.114 -0.3521  1.8611  2.2995
 2434SOL    HW218939   1.554   1.825   4.106  0.1471  0.1232 -0.6073
 2435SOL     OW18940   1.049   4.445  16.512  0.7005  0.6172 -0.3955
 2435SOL    HW118941   1.058   4.443  16.608  1.2656  0.0103 -0.4637
 2435SOL    HW218942   1.038   4.353  16.488  1.1942  0.8526 -1.5161
 2436SOL     OW18943   1.765   2.005   4.007 -0.2181  0.0780  0.2720
 2436SOL    HW118944   1.842   1.997   4.063 -1.5795 -1.7347  1.8686
 2436SOL    HW218945   1.774   1.925   3.956 -2.7568 -0.0347  0.0035
 2437SOL     OW18946   4.556   1.766  11.424  0.8880  0.0681 -0.1032
 2437SOL    HW118947   4.489   1.806  11.481 -0.0826 -1.7238  0.0035
 2437SOL    HW218948   4.585   1.848  11.384  0.1582 -1.6712 -4.1363
 2438SOL     OW18949   4.334   4.548   0.947  0.3790 -0.1647 -0.5400
 2438SOL    HW118950   4.368   4.510   1.028  0.1596  2.3434  0.7233
 2438SOL    HW218951   4.326   4.638   0.976  0.6100 -0.5515  0.7578
 2439SOL     OW18952   2.915   2.852  10.276  0.1891 -0.3754 -0.1013
 2439SOL    HW118953   2.916   2.920  10.208  2.9632  0.7178  1.0426
 2439SOL    HW218954   2.927   2.771  10.227 -0.8205 -2.1699  2.6096
 2440SOL     OW18955   3.487   1.065   4.582 -0.3125  0.1202 -0.3905
 2440SOL    HW118956   3.462   1.101   4.497 -4.8130 -1.5937  0.2114
 2440SOL    HW218957   3.558   1.123   4.610 -0.9265 -0.8703  3.1413
 2441SOL     OW18958   0.549   0.502  16.097  0.2216 -0.5234 -0.1495
 2441SOL    HW118959   0.606   0.574  16.069  0.3723 -0.3603  0.5722
 2441SOL    HW218960   0.513   0.538  16.178  0.6757  0.9829 -0.6242
 2442SOL     OW18961   3.150   1.476  13.620  1.1202 -0.0029 -0.1620
 2442SOL    HW118962   3.117   1.472  13.531  1.9292 -1.5634 -0.3884
 2442SOL    HW218963   3.094   1.547  13.652 -1.4343 -1.5082 -1.2980
 2443SOL     OW18964   2.996   3.123   8.784 -0.0784 -0.3167  0.2358
 2443SOL    HW118965   2.938   3.053   8.813 -0.8375  0.8376  1.5148
 2443SOL    HW218966   2.937   3.168   8.723 -0.6211 -2.7337 -1.0228
 2444SOL     OW18967   1.052   3.828  13.366  0.0613  0.2214  0.0012
 2444SOL    HW118968   0.974   3.790  13.324 -0.5007  1.2371  0.1129
 2444SOL    HW218969   1.080   3.885  13.294 -2.2318  0.4791 -0.6846
 2445SOL     OW18970   1.253   4.145   6.193 -0.1627 -0.2467 -0.1647
 2445SOL    HW118971   1.261   4.241   6.189 -0.6003 -0.2847 -1.5693
 2445SOL    HW218972   1.336   4.118   6.234  0.4893  1.2546 -0.4656
 2446SOL     OW18973   3.753   0.260   3.386  0.2067  0.4140 -0.2858
 2446SOL    HW118974   3.731   0.231   3.474  0.1022  0.7275 -0.2083
 2446SOL    HW218975   3.670   0.281   3.343  0.1874  1.8257  0.4460
 2447SOL     OW18976   2.016   4.349   7.577  0.4815 -0.2323 -0.0325
 2447SOL    HW118977   1.972   4.336   7.661 -0.8533  0.2087 -0.6638
 2447SOL    HW218978   2.102   4.378   7.605  0.8572 -0.9530 -0.4274
 2448SOL     OW18979   0.611   1.812   7.881 -0.2431  0.1174  0.0939
 2448SOL    HW118980   0.669   1.738   7.863  0.0102  0.9565 -2.4920
 2448SOL    HW218981   0.652   1.829   7.966 -2.4405 -0.7717  1.3269
 2449SOL     OW18982   4.191   1.455   6.946  0.1752 -0.1261 -0.0103
 2449SOL    HW118983   4.110   1.443   6.897 -0.6215 -0.0815  1.2805
 2449SOL    HW218984   4.238   1.479   6.867  3.2038  0.3760  1.9393
 2450SOL     OW18985   0.779   1.397   0.092  0.3241  0.3854  0.5885
 2450SOL    HW118986   0.848   1.369   0.152 -1.3321  0.8938  2.7475
 2450SOL    HW218987   0.706   1.361   0.143  0.7706 -3.4177 -1.4996
 2451SOL     OW18988   1.917   0.090  12.501 -0.2830 -0.3272 -0.1012
 2451SOL    HW118989   1.894   0.120  12.589  1.7690  0.3725  0.1778
 2451SOL    HW218990   1.997   0.040  12.520 -1.9521 -1.8135  3.1614
 2452SOL     OW18991   4.729   0.827   0.214  0.1471  0.2171 -0.5427
 2452SOL    HW118992   4.707   0.786   0.131 -0.3579 -0.6122  0.0047
 2452SOL    HW218993   4.658   0.892   0.216 -1.3461 -1.4434  0.4424
 2453SOL     OW18994   1.327   2.622  13.071 -0.1983 -0.4955 -0.4316
 2453SOL    HW118995   1.332   2.566  13.148  0.3658 -0.4365 -0.4234
 2453SOL    HW218996   1.257   2.683  13.095 -0.1970 -1.0919  1.0933
 2454SOL     OW18997   0.743   4.022   8.296  0.2210 -0.0432  0.3503
 2454SOL    HW118998   0.761   4.100   8.244  0.4030 -1.1148 -1.2021
 2454SOL    HW218999   0.789   4.046   8.376 -0.6442 -0.6909  1.0348
 2455SOL     OW19000   0.331   0.329   2.846 -0.0148  0.8128 -0.1387
 2455SOL    HW119001   0.313   0.236   2.857 -0.7875  1.0271  0.5143
 2455SOL    HW219002   0.372   0.353   2.929  0.1425 -2.6161  0.7760
 2456SOL     OW19003   0.971   1.121   1.804 -0.2363 -0.3559 -0.2337
 2456SOL    HW119004   0.923   1.193   1.845  0.1165  1.1996 -2.5410
 2456SOL    HW219005   0.925   1.126   1.720 -0.2129  0.1446 -0.2209
 2457SOL     OW19006   1.771   0.339  10.980 -0.1344  0.0185  0.0830
 2457SOL    HW119007   1.677   0.326  10.988  0.3538 -1.9136  2.4120
 2457SOL    HW219008   1.790   0.376  11.066 -1.1318  1.4095 -0.2979
 2458SOL     OW19009   1.962   2.508  13.049  0.2347 -0.3605  0.0383
 2458SOL    HW119010   1.883   2.510  12.995 -0.3775  2.0550  1.0389
 2458SOL    HW219011   1.960   2.412  13.058 -1.0973 -0.0661  3.0016
 2459SOL     OW19012   2.104   1.249   7.229  0.2582 -0.1628  0.6168
 2459SOL    HW119013   2.037   1.255   7.296 -0.8687 -0.6495 -0.4718
 2459SOL    HW219014   2.104   1.337   7.191 -2.5437 -1.0538 -1.4350
 2460SOL     OW19015   4.732   1.125   2.249  0.1919 -0.2540 -0.4621
 2460SOL    HW119016   4.668   1.173   2.301  0.5334 -0.0620 -0.2210
 2460SOL    HW219017   4.691   1.038   2.239 -1.3606  0.5364 -1.0361
 2461SOL     OW19018   2.054   2.456  10.891 -0.5660  0.5669 -0.5491
 2461SOL    HW119019   2.122   2.437  10.956 -2.1817 -1.5390  0.5292
 2461SOL    HW219020   2.076   2.547  10.871 -0.3663 -0.1838 -3.5827
 2462SOL     OW19021   3.728   4.726   2.169  0.1408  0.6407 -0.3365
 2462SOL    HW119022   3.718   4.702   2.077  0.9508 -2.3982  0.3619
 2462SOL    HW219023   3.639   0.015   2.192  0.6353 -0.2636  2.6896
 2463SOL     OW19024   2.346   0.049   2.761 -0.2037 -0.0170  0.0527
 2463SOL    HW119025   2.257   0.066   2.730 -0.1010  0.3918 -0.0221
 2463SOL    HW219026   2.391   0.129   2.734 -0.4055 -0.5190 -1.7205
 2464SOL     OW19027   3.036   1.881  16.012 -0.4023  0.2811  0.0737
 2464SOL    HW119028   3.038   1.966  16.054  1.0167 -0.7841  2.1617
 2464SOL    HW219029   3.040   1.823  16.088  0.6181  0.3197  0.0500
 2465SOL     OW19030   3.794   2.068   4.006 -0.2643  0.4562 -0.0025
 2465SOL    HW119031   3.719   2.075   3.947 -0.8040 -1.0355  0.4932
 2465SOL    HW219032   3.777   2.153   4.046  2.1902  0.4509  1.0879
 2466SOL     OW19033   0.974   2.367   3.768 -0.5061 -0.4464 -0.1899
 2466SOL    HW119034   1.003   2.303   3.703  4.2005  0.6156  0.8687
 2466SOL    HW219035   0.938   2.442   3.720  0.6123  0.0120 -0.3179
 2467SOL     OW19036   3.993   0.319   7.684  0.8020  0.2241 -0.7682
 2467SOL    HW119037   4.084   0.345   7.673  1.2064 -0.3672  1.1610
 2467SOL    HW219038   3.952   0.395   7.642  2.3791  0.3838 -2.0121
 2468SOL     OW19039   3.938   2.343   3.219 -0.0342  0.4512 -0.1561
 2468SOL    HW119040   3.972   2.304   3.138 -0.6632 -0.7984  0.1765
 2468SOL    HW219041   3.843   2.338   3.207 -0.3170  3.0801  1.0656
 2469SOL     OW19042   2.629   1.424   6.515 -0.1235 -0.4779  0.1759
 2469SOL    HW119043   2.627   1.446   6.422 -2.2409 -2.3933 -0.2464
 2469SOL    HW219044   2.723   1.411   6.530 -0.0734 -1.2594 -0.8020
 2470SOL     OW19045   4.296   1.260   6.323  0.0865  0.4356  0.7931
 2470SOL    HW119046   4.250   1.342   6.344 -0.0114  0.5918 -0.0122
 2470SOL    HW219047   4.303   1.265   6.228  0.1273  0.5531  0.8021
 2471SOL     OW19048   0.869   2.326   2.478 -0.6501  0.6036 -0.0613
 2471SOL    HW119049   0.785   2.280   2.487  0.6496 -1.6644  0.4876
 2471SOL    HW219050   0.897   2.309   2.388  0.4993 -2.0012  0.7915
 2472SOL     OW19051   3.561   1.217   6.347 -0.5133 -0.2736 -0.4094
 2472SOL    HW119052   3.587   1.142   6.292  0.6969 -0.3848  0.3140
 2472SOL    HW219053   3.476   1.247   6.315 -0.0140  0.5180 -0.9869
 2473SOL     OW19054   2.911   3.113  12.528 -0.0172  0.2040  0.0778
 2473SOL    HW119055   2.929   3.140  12.438  0.6571  0.2637  0.2279
 2473SOL    HW219056   2.834   3.060  12.513  0.3387 -0.4025  0.3889
 2474SOL     OW19057   3.355   3.712   7.690  1.0555 -0.3482  0.1438
 2474SOL    HW119058   3.299   3.685   7.617  1.1791  0.9938 -0.4281
 2474SOL    HW219059   3.314   3.778   7.746  1.3194  0.5898 -0.7819
 2475SOL     OW19060   3.649   2.875  11.842 -0.1462  0.4472  0.0578
 2475SOL    HW119061   3.645   2.848  11.750 -0.7618  0.9626 -0.0640
 2475SOL    HW219062   3.584   2.946  11.844 -1.5057 -0.7715 -0.9710
 2476SOL     OW19063   1.245   4.036  16.452  0.3130 -0.2871  0.0608
 2476SOL    HW119064   1.309   3.991  16.397  0.8277  0.5388 -0.0066
 2476SOL    HW219065   1.301   4.080  16.515  0.3079 -2.6234  1.7038
 2477SOL     OW19066   0.434   1.264   6.975 -0.1410  0.0405 -0.3683
 2477SOL    HW119067   0.455   1.254   6.882 -2.0815 -0.7187 -0.7399
 2477SOL    HW219068   0.372   1.192   6.990 -0.1538  0.0803 -0.2312
 2478SOL     OW19069   2.038   0.353  17.592  0.3697  0.0440  0.0233
 2478SOL    HW119070   1.965   0.397  17.634 -0.6419 -1.4958 -0.1370
 2478SOL    HW219071   1.998   0.308  17.518 -0.2684  2.5877 -1.1597
 2479SOL     OW19072   3.692   0.410  12.746 -0.2447  0.3653 -0.7135
 2479SOL    HW119073   3.642   0.329  12.756 -1.4075  1.1089 -0.5136
 2479SOL    HW219074   3.684   0.421  12.651 -3.2220  0.6109 -0.4452
 2480SOL     OW19075   1.488   0.769   6.917 -0.2143  0.1384  0.0891
 2480SOL    HW119076   1.546   0.815   6.856 -0.0267  0.6007  0.6203
 2480SOL    HW219077   1.553   0.719   6.967  0.7758  2.4653  1.1146
 2481SOL     OW19078   2.368   0.654   8.129 -0.4599 -0.4046  0.0956
 2481SOL    HW119079   2.368   0.578   8.071 -0.8799 -0.3341  0.0046
 2481SOL    HW219080   2.293   0.702   8.093 -0.9106 -1.1120  0.1070
 2482SOL     OW19081   2.724   4.409   7.191 -0.0469 -0.0915  0.1245
 2482SOL    HW119082   2.780   4.387   7.116  0.6460 -1.8980  1.1771
 2482SOL    HW219083   2.725   4.505   7.183  1.1319 -0.3834 -3.0197
 2483SOL     OW19084   3.841   3.609   4.433 -0.3257  0.3056 -0.4176
 2483SOL    HW119085   3.792   3.581   4.356 -0.9758  0.2057  0.0345
 2483SOL    HW219086   3.862   3.698   4.405 -1.8703 -0.1279 -2.9652
 2484SOL     OW19087   3.079   1.635   6.836 -0.1388  0.0833  0.0289
 2484SOL    HW119088   2.993   1.613   6.872 -0.0425  1.0627  0.8665
 2484SOL    HW219089   3.081   1.566   6.771 -1.3481 -1.0170  1.1530
 2485SOL     OW19090   1.956   3.647   0.849  0.8463 -0.0025  0.4860
 2485SOL    HW119091   1.971   3.606   0.764  1.1637  1.7904 -0.3214
 2485SOL    HW219092   1.884   3.590   0.874 -1.2522  3.1692  1.6246
 2486SOL     OW19093   3.520   2.289  14.474 -0.0357 -0.5506 -0.0990
 2486SOL    HW119094   3.463   2.320  14.403  1.5517 -0.8417 -1.5014
 2486SOL    HW219095   3.607   2.295  14.435 -0.2294 -0.0234 -0.4552
 2487SOL     OW19096   1.740   0.931  12.920 -0.1194  0.4445  0.2844
 2487SOL    HW119097   1.760   0.916  12.827 -0.8146 -0.5236  0.2827
 2487SOL    HW219098   1.646   0.919  12.934  0.4101 -0.7012  2.8011
 2488SOL     OW19099   4.102   2.641   7.672  0.3071  0.4376 -0.0032
 2488SOL    HW119100   4.175   2.579   7.670 -0.3548 -0.3659  0.6685
 2488SOL    HW219101   4.122   2.713   7.731 -1.0364 -0.7975  1.9514
 2489SOL     OW19102   2.983   2.629  10.154  0.0444 -0.7515 -0.0440
 2489SOL    HW119103   2.974   2.586  10.069 -0.2622  0.4249 -0.6031
 2489SOL    HW219104   3.078   2.640  10.158 -0.0338  0.4752 -1.2622
 2490SOL     OW19105   4.180   2.633   2.630 -0.1878 -0.0350 -0.0497
 2490SOL    HW119106   4.239   2.707   2.619  0.3446 -0.7508 -1.9594
 2490SOL    HW219107   4.108   2.663   2.574  0.9083 -2.9695 -3.0566
 2491SOL     OW19108   3.779   0.412   1.048  0.0411 -1.0716 -0.3490
 2491SOL    HW119109   3.817   0.492   1.011 -1.0043  0.1947  1.2743
 2491SOL    HW219110   3.837   0.348   1.007 -1.9777 -3.1084 -0.0427
 2492SOL     OW19111   3.146   3.395   1.855  0.6980  0.3141  0.4905
 2492SOL    HW119112   3.133   3.480   1.813  0.0730  0.2755  0.6122
 2492SOL    HW219113   3.210   3.418   1.923  1.8994  0.4061 -0.6886
 2493SOL     OW19114   1.435   0.222   3.801 -0.2716  0.2398  0.5083
 2493SOL    HW119115   1.431   0.288   3.870 -1.6961 -0.2081  0.8638
 2493SOL    HW219116   1.530   0.210   3.804 -0.4434 -0.9159  1.1556
 2494SOL     OW19117   3.226   3.694   2.511 -0.3205 -0.3057 -0.1622
 2494SOL    HW119118   3.182   3.740   2.582 -1.0424 -2.1029  0.5543
 2494SOL    HW219119   3.310   3.741   2.510  0.9778 -2.6001 -0.6513
 2495SOL     OW19120   4.063   0.895  16.243 -0.0436  0.3694 -0.3136
 2495SOL    HW119121   4.115   0.817  16.227 -0.0895  0.3895 -0.5551
 2495SOL    HW219122   4.022   0.882  16.328 -0.4604  0.6518 -0.4687
 2496SOL     OW19123   3.566   0.795  13.958  0.0693  0.1985  0.2160
 2496SOL    HW119124   3.603   0.877  13.989  2.3390  0.0092 -1.9037
 2496SOL    HW219125   3.562   0.813  13.864 -1.4230 -0.9696  0.0572
 2497SOL     OW19126   4.244   1.058  14.874 -0.8245  0.4297 -0.6340
 2497SOL    HW119127   4.310   1.112  14.832 -0.7141  0.3366 -0.5785
 2497SOL    HW219128   4.292   0.976  14.879 -0.1562  0.8512 -0.1871
 2498SOL     OW19129   0.009   0.169  16.942  0.7083 -0.0915 -0.4365
 2498SOL    HW119130   0.043   0.231  16.879  0.0185  1.5753  0.8323
 2498SOL    HW219131   0.057   0.200  17.019  1.9814 -0.9045 -0.8891
 2499SOL     OW19132   0.570   1.724   9.733 -0.3904  0.1252 -0.4820
 2499SOL    HW119133   0.650   1.751   9.779  0.1626  2.0039 -2.5281
 2499SOL    HW219134   0.588   1.749   9.642  2.2274 -0.7883 -0.2178
 2500SOL     OW19135   4.251   2.097  15.772  0.6632 -0.2562  0.4339
 2500SOL    HW119136   4.276   2.006  15.792 -1.1923 -1.1509 -1.2854
 2500SOL    HW219137   4.256   2.139  15.858  1.7938  0.6821 -0.0863
 2501SOL     OW19138   3.318   4.670  14.045 -0.6932 -0.3972 -0.0046
 2501SOL    HW119139   3.297   4.637  13.958 -2.5219 -2.3891  1.1816
 2501SOL    HW219140   3.246   4.633  14.097 -0.7352  0.0702  0.2716
 2502SOL     OW19141   2.615   0.269   3.047 -0.2590  0.6736  0.3617
 2502SOL    HW119142   2.699   0.285   3.090 -0.3561  0.4251  0.6479
 2502SOL    HW219143   2.549   0.282   3.115  0.2772  0.6247  0.8889
 2503SOL     OW19144   0.185   1.535   2.197  0.4710  0.7816 -0.4061
 2503SOL    HW119145   0.254   1.558   2.135 -2.1275  1.4168 -3.0467
 2503SOL    HW219146   0.106   1.517   2.146 -0.3306 -0.4986  1.2474
 2504SOL     OW19147   0.516   0.898   1.748 -0.5954  0.0044 -0.2345
 2504SOL    HW119148   0.515   0.935   1.836 -0.0872  0.7159 -0.5311
 2504SOL    HW219149   0.532   0.974   1.692 -1.4768  0.0640 -0.4068
 2505SOL     OW19150   0.051   1.386   8.666  0.0596 -0.1234  0.8924
 2505SOL    HW119151   0.070   1.297   8.636 -0.9915  0.8421 -2.5679
 2505SOL    HW219152   0.070   1.444   8.592 -1.7385 -1.6005 -0.7109
 2506SOL     OW19153   3.533   3.560   6.959 -0.0803 -0.4454 -0.2610
 2506SOL    HW119154   3.449   3.533   6.996 -0.8376  0.3725 -1.3512
 2506SOL    HW219155   3.549   3.622   7.030 -3.3740  0.0457  0.0367
 2507SOL     OW19156   3.919   0.038   4.196 -0.1530  0.5357 -0.0142
 2507SOL    HW119157   3.846   0.076   4.146  1.8358  0.9991 -2.6053
 2507SOL    HW219158   3.984   0.106   4.178  1.7143 -2.1813 -3.6527
 2508SOL     OW19159   0.218   0.928   4.200  0.1086  0.1989 -0.4242
 2508SOL    HW119160   0.163   0.850   4.199  1.3244 -0.6609  0.1213
 2508SOL    HW219161   0.304   0.898   4.172  0.8555  0.9610  1.0199
 2509SOL     OW19162   1.762   4.589   3.816 -0.5073  0.3090 -0.7536
 2509SOL    HW119163   1.766   4.607   3.910 -0.4453 -0.3935 -0.6230
 2509SOL    HW219164   1.668   4.593   3.799 -0.4597 -0.4867 -1.2181
 2510SOL     OW19165   2.095   4.737   4.702  0.4037  0.1132 -0.1677
 2510SOL    HW119166   2.044   4.656   4.697  0.2898  0.2754 -1.5739
 2510SOL    HW219167   2.123   4.735   4.610 -1.0404  2.4581 -0.6499
 2511SOL     OW19168   4.423   4.062   6.075 -0.2011 -0.1666 -0.1981
 2511SOL    HW119169   4.466   4.136   6.032  1.1064 -0.8906 -0.1172
 2511SOL    HW219170   4.347   4.105   6.115  0.0410 -1.1375  1.3044
 2512SOL     OW19171   2.191   3.549   5.550 -0.2780  0.5666  0.6167
 2512SOL    HW119172   2.170   3.581   5.462 -0.5624 -0.8708  0.1533
 2512SOL    HW219173   2.284   3.536   5.533 -0.4322  0.3052 -0.0446
 2513SOL     OW19174   3.889   1.850   3.546  0.4292 -0.3930 -0.0983
 2513SOL    HW119175   3.814   1.808   3.503  0.4632  0.4803 -1.0100
 2513SOL    HW219176   3.849   1.937   3.539 -0.3356 -0.6754  0.6634
 2514SOL     OW19177   2.487   3.202   9.936 -0.5046  0.2775  0.3876
 2514SOL    HW119178   2.451   3.146  10.004  0.0485  0.6685  1.0031
 2514SOL    HW219179   2.424   3.273   9.949  0.2946  1.2387 -0.8917
 2515SOL     OW19180   0.682   3.781   8.208 -0.4094 -0.1820  0.1458
 2515SOL    HW119181   0.666   3.804   8.117 -1.6660 -1.6158  0.0064
 2515SOL    HW219182   0.697   3.868   8.245  0.6176 -0.0892 -0.4824
 2516SOL     OW19183   3.675   2.711   4.814  0.5951 -0.3810 -0.3592
 2516SOL    HW119184   3.757   2.751   4.784 -0.1510  1.2017 -0.3015
 2516SOL    HW219185   3.651   2.765   4.890  3.0015 -0.5947  0.5512
 2517SOL     OW19186   4.438   3.867   0.844 -0.9554  0.1411 -0.0053
 2517SOL    HW119187   4.525   3.906   0.835 -0.5313 -1.1084 -1.3477
 2517SOL    HW219188   4.409   3.868   0.752 -1.6760 -0.7958  0.2168
 2518SOL     OW19189   2.293   2.617  15.097  0.3909  0.1703  0.5556
 2518SOL    HW119190   2.279   2.673  15.174  1.9475 -2.1217  2.4811
 2518SOL    HW219191   2.218   2.559  15.110  0.1685 -0.4219 -3.5633
 2519SOL     OW19192   3.752   0.420   8.173 -0.5856 -0.5336  0.6410
 2519SOL    HW119193   3.770   0.402   8.081  2.2960  0.4453  1.0172
 2519SOL    HW219194   3.829   0.389   8.220 -0.2324  0.6377  0.8273
 2520SOL     OW19195   0.803   4.707  14.621 -0.3914 -0.0680 -0.1212
 2520SOL    HW119196   0.708   4.693  14.617 -0.5219 -0.0099  2.4690
 2520SOL    HW219197   0.825   4.670  14.536  0.4985 -0.4922  0.3015
 2521SOL     OW19198   0.468   1.187   8.206  0.1923 -0.4017 -0.0130
 2521SOL    HW119199   0.561   1.188   8.231 -0.3436 -0.4818  1.9828
 2521SOL    HW219200   0.440   1.099   8.233 -0.1468  1.0427  4.3879
 2522SOL     OW19201   3.912   3.748   0.566 -0.3043  0.0977  0.5325
 2522SOL    HW119202   3.962   3.830   0.560  1.4110 -0.9280  0.6662
 2522SOL    HW219203   3.855   3.747   0.490  0.8405 -1.0683 -0.3113
 2523SOL     OW19204   4.461   1.154  16.802  0.2186  0.0579  0.4098
 2523SOL    HW119205   4.531   1.217  16.817 -0.8867  1.1735  0.8991
 2523SOL    HW219206   4.451   1.170  16.708  1.8297 -0.1783  0.1924
 2524SOL     OW19207   3.181   2.138   0.519 -0.2162 -0.4468  0.1346
 2524SOL    HW119208   3.166   2.082   0.443  0.7634  0.6541 -0.8722
 2524SOL    HW219209   3.254   2.196   0.496 -0.9038  1.0542  1.7805
 2525SOL     OW19210   0.138   3.662   5.672 -0.3413  0.0050 -0.8190
 2525SOL    HW119211   0.189   3.734   5.634  0.6861  0.7133  1.9211
 2525SOL    HW219212   0.066   3.717   5.701 -0.1242 -0.5396  0.7245
 2526SOL     OW19213   3.194   4.253   4.338  0.3530  0.1961  0.0432
 2526SOL    HW119214   3.207   4.332   4.391 -0.3022 -0.3397  0.9941
 2526SOL    HW219215   3.284   4.219   4.339  1.0315  2.0043 -0.6498
 2527SOL     OW19216   4.322   0.555   8.004 -0.3577  0.3735  0.5005
 2527SOL    HW119217   4.299   0.600   7.922  0.0197  1.3605  0.9383
 2527SOL    HW219218   4.251   0.579   8.064 -1.0656 -0.6613  0.0703
 2528SOL     OW19219   0.996   4.376  16.762 -0.1770  0.1138  0.7721
 2528SOL    HW119220   1.037   4.354  16.846 -0.8354 -0.2925  0.9834
 2528SOL    HW219221   0.947   4.298  16.737  0.6981  0.4620 -1.9396
 2529SOL     OW19222   1.191   3.269  10.264 -0.8350  0.3595  0.2856
 2529SOL    HW119223   1.163   3.304  10.349  1.7527  1.9590  0.4675
 2529SOL    HW219224   1.244   3.197  10.299 -2.5919 -0.4625  1.2946
 2530SOL     OW19225   2.910   1.477  10.284 -0.1434 -0.2406 -0.3144
 2530SOL    HW119226   2.936   1.395  10.242  3.8166  0.7064  0.3041
 2530SOL    HW219227   2.995   1.517  10.266 -0.3345 -0.6325 -2.1276
 2531SOL     OW19228   3.454   3.587  14.146 -0.4670  0.1973  0.7750
 2531SOL    HW119229   3.379   3.595  14.206 -1.5536  3.0981 -0.9634
 2531SOL    HW219230   3.408   3.579  14.063  2.0710 -0.1737 -0.5620
 2532SOL     OW19231   0.026   4.388  15.606 -0.8121  0.0805 -0.3700
 2532SOL    HW119232   0.041   4.375  15.700 -0.2649 -2.7390 -0.8383
 2532SOL    HW219233   0.108   4.434  15.590 -0.1855 -0.7073  0.5454
 2533SOL     OW19234   4.432   0.681  11.637  0.1828 -0.5256  0.0566
 2533SOL    HW119235   4.469   0.741  11.572 -1.7301  0.0832 -0.4555
 2533SOL    HW219236   4.508   0.657  11.690 -0.2780  0.4842  1.1581
 2534SOL     OW19237   1.017   2.658   2.872 -0.1561  0.1019 -0.4378
 2534SOL    HW119238   0.988   2.591   2.933 -1.4794 -0.2427 -1.4361
 2534SOL    HW219239   1.062   2.720   2.929  1.4879 -2.5659  1.1417
 2535SOL     OW19240   1.028   1.769   5.045  0.1683 -0.3772 -0.8094
 2535SOL    HW119241   0.989   1.817   4.971  3.2133  2.7567 -0.3420
 2535SOL    HW219242   0.955   1.761   5.107  0.2435  2.6304 -0.3515
 2536SOL     OW19243   4.170   3.952   0.868 -0.8084  0.0232 -0.3740
 2536SOL    HW119244   4.093   3.990   0.825 -1.3577  0.8346  1.3000
 2536SOL    HW219245   4.223   3.934   0.791 -0.0605 -3.4124  0.9712
 2537SOL     OW19246   2.501   3.710  11.518 -0.3767 -0.2831 -0.1196
 2537SOL    HW119247   2.406   3.706  11.520 -0.4194  1.2582  0.6250
 2537SOL    HW219248   2.524   3.627  11.476  1.5226 -0.3179  0.9786
 2538SOL     OW19249   0.267   3.735   1.619 -0.0155  0.3265  0.1960
 2538SOL    HW119250   0.320   3.814   1.631 -1.4314  1.4646 -1.0719
 2538SOL    HW219251   0.323   3.691   1.555  0.4319 -0.2959  1.0211
 2539SOL     OW19252   3.870   3.545   3.731  0.4324 -0.4211  0.2364
 2539SOL    HW119253   3.893   3.455   3.707  0.2943 -0.5092  0.4423
 2539SOL    HW219254   3.809   3.527   3.802 -0.5593  1.3549 -0.1727
 2540SOL     OW19255   1.703   2.628   1.805 -0.0172  0.1155  0.2870
 2540SOL    HW119256   1.671   2.623   1.895 -0.2802  1.2169  0.2587
 2540SOL    HW219257   1.651   2.564   1.757  0.8143  0.6976 -1.3903
 2541SOL     OW19258   0.687   2.817   9.146  0.0194 -0.1150  0.5363
 2541SOL    HW119259   0.706   2.724   9.137 -3.5612 -0.9741  1.8648
 2541SOL    HW219260   0.772   2.849   9.116 -0.4523  0.4681 -0.1655
 2542SOL     OW19261   3.720   3.431  12.632  0.2085  0.2649 -0.7324
 2542SOL    HW119262   3.629   3.452  12.654  0.3758 -0.5521  0.7098
 2542SOL    HW219263   3.763   3.394  12.709  0.2085 -0.7257 -1.2150
 2543SOL     OW19264   1.706   0.108   2.348  0.2538 -0.4248 -0.2965
 2543SOL    HW119265   1.774   0.046   2.320 -0.7107 -0.7406 -1.9223
 2543SOL    HW219266   1.632   0.051   2.370  1.1540 -0.3703  2.8693
 2544SOL     OW19267   1.340   2.983   3.520 -0.3121  0.4044  0.0093
 2544SOL    HW119268   1.434   2.980   3.534 -0.6036  0.8043  1.9531
 2544SOL    HW219269   1.325   2.889   3.529 -1.7445  0.5915 -0.3004
 2545SOL     OW19270   2.597   1.318   2.511 -0.3846  0.2447  0.0249
 2545SOL    HW119271   2.586   1.412   2.521 -1.0598  0.4446 -2.5404
 2545SOL    HW219272   2.533   1.288   2.447 -2.7286 -0.3207  2.6415
 2546SOL     OW19273   3.332   2.828   6.778 -0.3152  0.0675  0.4658
 2546SOL    HW119274   3.294   2.898   6.725  0.7034 -1.3479 -2.0840
 2546SOL    HW219275   3.249   2.789   6.804  0.3114 -1.3068  0.3920
 2547SOL     OW19276   2.726   4.459   9.247 -0.0825 -0.5353 -0.3551
 2547SOL    HW119277   2.684   4.372   9.245 -0.6743 -0.1776 -2.7168
 2547SOL    HW219278   2.674   4.503   9.180 -0.0348  0.5637  0.3358
 2548SOL     OW19279   3.971   1.139  15.659 -0.0475 -0.2108  0.1837
 2548SOL    HW119280   4.015   1.167  15.739  1.0464  0.8654 -0.7909
 2548SOL    HW219281   4.047   1.152  15.602 -0.7448 -1.0861 -0.9408
 2549SOL     OW19282   2.603   1.330   3.738 -0.3457 -0.1135  0.2844
 2549SOL    HW119283   2.528   1.366   3.786 -0.9595  0.0694 -0.7899
 2549SOL    HW219284   2.570   1.324   3.648 -2.5775 -2.3766  1.2518
 2550SOL     OW19285   1.970   0.701   3.505 -0.4003 -0.0793  0.1483
 2550SOL    HW119286   2.018   0.618   3.513 -2.1117 -1.2547 -1.4877
 2550SOL    HW219287   1.899   0.672   3.448 -1.4911  0.4360  1.2529
 2551SOL     OW19288   3.724   1.135   3.514  0.2195 -0.0206 -0.0899
 2551SOL    HW119289   3.736   1.185   3.594  1.1924 -1.5107  0.7099
 2551SOL    HW219290   3.757   1.052   3.550  1.1537  0.5174  0.3121
 2552SOL     OW19291   0.506   1.841  17.140  0.2957 -0.0974 -0.1385
 2552SOL    HW119292   0.445   1.841  17.213 -0.0344  4.4288 -0.4106
 2552SOL    HW219293   0.583   1.802  17.182  1.9693  1.3688 -1.8280
 2553SOL     OW19294   2.638   1.869   8.038 -0.5735 -0.4822  0.0513
 2553SOL    HW119295   2.654   1.774   8.040 -0.6264 -0.5210 -1.9491
 2553SOL    HW219296   2.706   1.890   7.974  0.1468 -2.0917  0.2847
 2554SOL     OW19297   1.446   4.413   8.189  0.2160  0.1005 -0.3241
 2554SOL    HW119298   1.495   4.495   8.198 -0.2060  0.3622 -0.4229
 2554SOL    HW219299   1.375   4.435   8.129 -1.0032  3.1565  2.1804
 2555SOL     OW19300   1.851   4.405  17.041 -0.1791 -0.4547  0.3953
 2555SOL    HW119301   1.899   4.411  17.123 -0.5875  1.9838  0.4536
 2555SOL    HW219302   1.915   4.440  16.978  2.0861 -0.9357  2.4327
 2556SOL     OW19303   3.474   1.445  14.366 -0.2985 -0.0336  0.3133
 2556SOL    HW119304   3.505   1.395  14.291  0.9165  0.0320  0.7670
 2556SOL    HW219305   3.386   1.407  14.363 -0.9059  1.4326 -0.6938
 2557SOL     OW19306   1.247   2.633   8.314  0.4118  0.4709  0.2253
 2557SOL    HW119307   1.265   2.543   8.340  2.2737  1.3019  1.8035
 2557SOL    HW219308   1.161   2.618   8.275  0.3939 -0.6971  0.7125
 2558SOL     OW19309   2.541   3.581   3.512  0.2072 -0.2708 -0.0640
 2558SOL    HW119310   2.611   3.536   3.464  0.4966  0.6366 -0.4808
 2558SOL    HW219311   2.480   3.507   3.512  1.2239 -1.0958  0.7317
 2559SOL     OW19312   2.681   2.880  12.032  0.5176  0.3709 -0.1130
 2559SOL    HW119313   2.605   2.882  12.091  1.5696  1.6793  1.2112
 2559SOL    HW219314   2.739   2.950  12.062  0.8990 -0.6406  1.4759
 2560SOL     OW19315   3.058   1.065   2.890  0.8866  0.2928 -0.1825
 2560SOL    HW119316   3.078   1.158   2.878  0.3880  0.2891 -1.0903
 2560SOL    HW219317   3.123   1.042   2.955  1.6422  0.3623 -0.9144
 2561SOL     OW19318   1.836   1.682   5.386  0.1699 -0.3577  0.0248
 2561SOL    HW119319   1.745   1.655   5.400 -0.1883  0.1455 -1.3206
 2561SOL    HW219320   1.821   1.735   5.308 -2.3624  0.4912  1.0788
 2562SOL     OW19321   1.677   2.037   2.849 -0.2138  0.1372 -0.0480
 2562SOL    HW119322   1.616   2.056   2.777 -2.7717 -0.9678  1.8011
 2562SOL    HW219323   1.759   2.041   2.802 -1.7879  1.6467 -2.6602
 2563SOL     OW19324   3.572   0.152   4.662  0.3291 -0.5635 -0.3427
 2563SOL    HW119325   3.632   0.153   4.737  0.5798 -1.8964 -0.5157
 2563SOL    HW219326   3.496   0.105   4.697 -0.1790 -0.7450 -1.6838
 2564SOL     OW19327   1.995   0.272   6.199  0.1649  0.2617 -0.4411
 2564SOL    HW119328   1.900   0.267   6.199  0.2157 -0.7792 -1.8483
 2564SOL    HW219329   2.010   0.358   6.240 -2.5099  0.5045 -0.0201
 2565SOL     OW19330   0.594   2.183   3.193 -0.1584 -0.0209  0.5815
 2565SOL    HW119331   0.648   2.155   3.267 -1.0203 -3.8145 -0.2243
 2565SOL    HW219332   0.520   2.122   3.185  0.5230 -0.8557  0.5826
 2566SOL     OW19333   2.084   0.132   5.338  0.1872  0.1832 -0.5353
 2566SOL    HW119334   2.061   0.177   5.257  2.0696 -0.8300 -1.6304
 2566SOL    HW219335   2.058   0.191   5.409  1.4468  0.0650  0.0247
 2567SOL     OW19336   4.361   3.563   6.828  0.5500  0.3387 -0.1650
 2567SOL    HW119337   4.302   3.497   6.863  0.0853  0.6508 -0.3660
 2567SOL    HW219338   4.294   3.629   6.806 -0.3044 -0.9695 -1.4960
 2568SOL     OW19339   2.581   0.214   1.582 -0.5008  0.1216 -0.2860
 2568SOL    HW119340   2.498   0.234   1.538  0.1756  0.4730 -1.3974
 2568SOL    HW219341   2.598   0.295   1.629  2.0941  0.0834 -1.1285
 2569SOL     OW19342   3.689   0.343   6.735 -0.3214 -0.3643 -0.2223
 2569SOL    HW119343   3.690   0.252   6.704  0.3162 -0.7536  0.9455
 2569SOL    HW219344   3.784   0.355   6.736  0.0724 -3.4318 -0.3901
 2570SOL     OW19345   1.741   3.563   6.390 -0.2237 -0.0538 -0.0982
 2570SOL    HW119346   1.775   3.553   6.301 -0.9439 -1.1231 -0.2434
 2570SOL    HW219347   1.664   3.615   6.369 -0.7138 -1.0139 -0.6691
 2571SOL     OW19348   2.527   2.812  15.182 -0.3278  0.0035 -0.0340
 2571SOL    HW119349   2.557   2.869  15.252  0.4493  1.1488 -1.2921
 2571SOL    HW219350   2.444   2.773  15.210 -0.3747  0.0196 -0.1493
 2572SOL     OW19351   3.998   3.810   5.182  0.2053  0.2164 -0.0269
 2572SOL    HW119352   3.966   3.881   5.127 -0.1315  1.6224  1.9842
 2572SOL    HW219353   4.057   3.862   5.237 -0.6254  0.7910  0.3175
 2573SOL     OW19354   4.358   2.724  15.015  0.2147 -0.2526 -0.5753
 2573SOL    HW119355   4.303   2.671  14.958 -0.6149 -0.4575  0.4262
 2573SOL    HW219356   4.322   2.809  14.992  0.9958 -0.3343 -2.1662
 2574SOL     OW19357   3.886   0.805  12.493  0.0656 -0.5050 -0.1543
 2574SOL    HW119358   3.804   0.768  12.525 -0.5958  2.2256  1.3299
 2574SOL    HW219359   3.907   0.741  12.425 -0.6438 -1.9327  0.9943
 2575SOL     OW19360   0.563   0.302   4.303 -0.1237 -0.3751 -0.6570
 2575SOL    HW119361   0.489   0.360   4.321  1.6381  0.7265  3.0363
 2575SOL    HW219362   0.566   0.278   4.211 -0.7544  0.7737 -0.9739
 2576SOL     OW19363   4.052   1.573   7.154 -0.0622 -0.2123  0.3894
 2576SOL    HW119364   4.073   1.526   7.235 -0.9069  0.3872  0.9587
 2576SOL    HW219365   4.094   1.517   7.088  1.7688  1.3757  0.2272
 2577SOL     OW19366   4.578   1.808   8.163  0.1104 -0.4273  0.1234
 2577SOL    HW119367   4.507   1.795   8.226 -1.5298  1.1078 -1.4149
 2577SOL    HW219368   4.647   1.833   8.224 -0.1241  2.4022 -0.8044
 2578SOL     OW19369   3.656   4.276   0.332  0.2327 -0.5920 -0.7866
 2578SOL    HW119370   3.646   4.205   0.269 -0.3710 -1.0908 -0.1327
 2578SOL    HW219371   3.571   4.289   0.373 -0.3426  1.6662 -2.6651
 2579SOL     OW19372   2.815   0.307   1.782 -0.2905  0.5001  0.2177
 2579SOL    HW119373   2.882   0.277   1.721 -1.2519 -2.5661  0.6538
 2579SOL    HW219374   2.787   0.224   1.821  0.4518 -0.0791 -0.4736
 2580SOL     OW19375   1.389   4.095   7.834 -0.1588  0.6097 -0.0135
 2580SOL    HW119376   1.448   4.021   7.822  0.2966  0.9709 -0.0278
 2580SOL    HW219377   1.431   4.128   7.914  0.3381 -2.0221  0.8148
 2581SOL     OW19378   4.619   1.299   8.873 -0.1988  0.0950 -0.2893
 2581SOL    HW119379   4.685   1.344   8.820 -1.1347  0.6011 -1.0285
 2581SOL    HW219380   4.568   1.264   8.800 -0.8384  1.2999 -0.4329
 2582SOL     OW19381   3.831   1.738   2.020  0.5522 -0.8344  0.6146
 2582SOL    HW119382   3.875   1.714   1.938  0.3942 -0.8719  0.5418
 2582SOL    HW219383   3.743   1.737   1.983 -0.3146  2.3059  2.5750
 2583SOL     OW19384   2.006   4.304   6.627 -0.3642 -0.2657  0.4068
 2583SOL    HW119385   2.096   4.322   6.655 -0.9437  1.4170  1.2187
 2583SOL    HW219386   1.996   4.348   6.542  0.3892  1.3805  1.1644
 2584SOL     OW19387   3.945   2.555   4.100  0.3773  0.1188  0.0095
 2584SOL    HW119388   4.037   2.571   4.116  0.4061 -1.1931  1.1131
 2584SOL    HW219389   3.905   2.640   4.120 -0.4173 -0.6912  1.8651
 2585SOL     OW19390   1.297   2.318   6.548  0.3618  0.1636 -0.0928
 2585SOL    HW119391   1.272   2.353   6.462  0.1691 -0.8236 -0.4448
 2585SOL    HW219392   1.220   2.269   6.580  0.8673  0.3853  1.4383
 2586SOL     OW19393   1.926   2.309   5.383 -0.2283 -0.5165 -0.1770
 2586SOL    HW119394   1.992   2.248   5.350  0.4073  0.1976 -0.2133
 2586SOL    HW219395   1.947   2.328   5.474 -0.0800  1.7272 -0.6766
 2587SOL     OW19396   0.897   0.117   6.533  0.3501  0.2564 -0.1953
 2587SOL    HW119397   0.912   0.212   6.529  0.7742  0.2326  1.0140
 2587SOL    HW219398   0.815   0.109   6.581 -1.1652  2.1402 -2.4726
 2588SOL     OW19399   1.483   2.447   2.654  0.5662  0.0151 -0.2383
 2588SOL    HW119400   1.418   2.498   2.702  1.1883 -0.5910  1.2343
 2588SOL    HW219401   1.541   2.417   2.724  1.4236 -0.3943 -1.1216
 2589SOL     OW19402   3.184   0.183   1.201 -0.2084  0.3210 -0.4858
 2589SOL    HW119403   3.221   0.122   1.265 -1.8953  0.5477  0.6977
 2589SOL    HW219404   3.260   0.239   1.184  1.3155 -1.2385  1.1037
 2590SOL     OW19405   2.129   2.909   2.441 -0.2001  0.5634 -0.3337
 2590SOL    HW119406   2.062   2.903   2.509  2.4606 -3.0189  1.9488
 2590SOL    HW219407   2.195   2.848   2.473 -0.3276  0.1346 -0.8818
 2591SOL     OW19408   4.210   3.917  13.894 -0.4443  0.2049  0.6279
 2591SOL    HW119409   4.212   3.908  13.989 -1.7043  1.3205  0.7535
 2591SOL    HW219410   4.151   3.991  13.887 -2.2522 -1.0257  2.9236
 2592SOL     OW19411   0.971   2.200   7.309  0.2982  1.0928  0.5699
 2592SOL    HW119412   0.994   2.223   7.399 -2.3480  2.6045  0.8648
 2592SOL    HW219413   1.022   2.269   7.268  0.4020 -0.5018 -1.9770
 2593SOL     OW19414   2.767   4.285   3.852  0.2722 -0.2625  0.1607
 2593SOL    HW119415   2.803   4.366   3.816 -2.0066 -0.0187 -1.5831
 2593SOL    HW219416   2.836   4.220   3.839 -0.5777 -1.2163  0.4059
 2594SOL     OW19417   0.049   4.238   1.036  0.2649  0.1333 -0.5089
 2594SOL    HW119418   0.076   4.147   1.027  3.2174  1.0452 -0.6312
 2594SOL    HW219419   0.057   4.253   1.130  2.1284 -2.2078 -0.3073
 2595SOL     OW19420   0.360   4.351  12.071 -0.3481  0.1746 -0.1301
 2595SOL    HW119421   0.297   4.398  12.125 -1.2887  1.6478 -2.4942
 2595SOL    HW219422   0.359   4.270  12.123 -0.0091 -1.0216 -1.9828
 2596SOL     OW19423   4.373   2.040   2.384 -0.2966  0.2461 -0.2907
 2596SOL    HW119424   4.461   2.073   2.365  1.3431 -3.3712  1.1049
 2596SOL    HW219425   4.318   2.116   2.407  0.6530 -0.2747  3.7104
 2597SOL     OW19426   4.386   3.711  14.599  0.8173 -0.0212 -0.2864
 2597SOL    HW119427   4.340   3.764  14.663 -0.3504 -1.3179 -0.0403
 2597SOL    HW219428   4.333   3.705  14.519 -2.5380  0.5277  1.8980
 2598SOL     OW19429   3.432   4.169   2.240 -0.5326 -0.0941  0.5425
 2598SOL    HW119430   3.423   4.263   2.253 -1.9271  0.0879 -1.7209
 2598SOL    HW219431   3.505   4.143   2.295 -0.0104 -2.5421 -1.3131
 2599SOL     OW19432   3.962   0.554  12.403 -0.3206 -0.8713 -0.1942
 2599SOL    HW119433   3.957   0.528  12.311  1.8633 -0.5546 -0.4049
 2599SOL    HW219434   4.052   0.534  12.430  0.1148 -0.9122 -1.6499
 2600SOL     OW19435   2.617   4.034   4.123 -0.4304  0.6627 -0.4886
 2600SOL    HW119436   2.663   4.110   4.159  0.1610  0.2022 -0.2838
 2600SOL    HW219437   2.692   3.986   4.088 -0.9410 -0.8258  0.4639
 2601SOL     OW19438   4.390   2.679   8.079 -0.0588  0.2246  0.3585
 2601SOL    HW119439   4.476   2.682   8.120 -0.2547  1.9679  0.6313
 2601SOL    HW219440   4.371   2.585   8.075 -0.8969  0.3787  0.6270
 2602SOL     OW19441   0.573   1.921  14.375 -0.0343 -0.0503  0.2312
 2602SOL    HW119442   0.526   1.958  14.449 -0.7485  1.1690 -0.8361
 2602SOL    HW219443   0.607   1.998  14.331  1.9203 -2.3643 -2.3282
 2603SOL     OW19444   3.342   1.016   0.457  0.3606 -0.3506  0.5291
 2603SOL    HW119445   3.268   1.062   0.416 -0.7386 -0.5444  2.2999
 2603SOL    HW219446   3.303   0.939   0.498 -0.7367 -0.9210 -1.5914
 2604SOL     OW19447   1.497   4.038   2.206  0.0387  0.4188  0.1682
 2604SOL    HW119448   1.459   4.085   2.132 -0.9903 -2.4221 -1.0648
 2604SOL    HW219449   1.421   4.019   2.260  0.6979 -2.0462  0.2014
 2605SOL     OW19450   4.482   0.907  16.076 -0.3210 -0.6310 -0.0669
 2605SOL    HW119451   4.567   0.943  16.100 -0.2944 -1.2784  0.8193
 2605SOL    HW219452   4.490   0.811  16.078 -1.4747 -0.7371 -0.4341
 2606SOL     OW19453   0.639   3.280   6.171 -0.6133  0.3416  0.3982
 2606SOL    HW119454   0.674   3.205   6.220 -0.3072  0.2592  0.0458
 2606SOL    HW219455   0.567   3.310   6.228 -0.4329  0.5882  0.4965
 2607SOL     OW19456   4.650   2.633   8.463  0.6111 -0.4211  0.2676
 2607SOL    HW119457   4.693   2.622   8.548 -0.0965 -1.1808  0.5229
 2607SOL    HW219458   4.629   2.726   8.464  1.4607 -0.2258 -0.2356
 2608SOL     OW19459   1.988   1.906   3.755 -0.3351 -0.8696  0.0101
 2608SOL    HW119460   1.954   1.903   3.665 -0.0500 -0.6423 -0.1072
 2608SOL    HW219461   1.952   1.827   3.795 -1.1318 -0.7710 -0.4915
 2609SOL     OW19462   0.081   3.787   1.854  0.2661  0.5394  0.1241
 2609SOL    HW119463   0.132   3.857   1.896  1.0882  1.0840 -1.7965
 2609SOL    HW219464   0.129   3.779   1.772  1.3879 -1.6437  1.0027
 2610SOL     OW19465   2.566   3.059   8.917 -0.3997 -0.1009  0.0092
 2610SOL    HW119466   2.491   3.007   8.889 -0.6453  0.0250  0.4276
 2610SOL    HW219467   2.534   3.147   8.902 -3.0583 -0.8360  1.3279
 2611SOL     OW19468   1.575   3.908   7.805 -0.3416  0.2275  0.3963
 2611SOL    HW119469   1.634   3.868   7.869 -0.2142 -3.3192 -1.9411
 2611SOL    HW219470   1.545   3.834   7.754 -2.3631  1.0779  0.3532
 2612SOL     OW19471   3.860   1.304   0.440  0.4351 -0.7650  0.4672
 2612SOL    HW119472   3.881   1.339   0.354 -0.9763  0.6662  0.6918
 2612SOL    HW219473   3.767   1.290   0.418  0.3842 -0.3163  0.3986
 2613SOL     OW19474   0.946   1.007  15.449 -0.7105 -0.2237  0.4564
 2613SOL    HW119475   0.911   1.082  15.497 -1.8753 -0.4082 -0.1067
 2613SOL    HW219476   0.871   0.949  15.437 -1.4805  0.7588  0.5004
 2614SOL     OW19477   4.328   3.888  15.202 -0.0658 -0.7861 -0.2728
 2614SOL    HW119478   4.363   3.925  15.120 -1.7082 -1.3355 -1.2125
 2614SOL    HW219479   4.396   3.822  15.218 -0.1525 -0.2562  2.2438
 2615SOL     OW19480   1.223   4.658  12.013  0.1320  0.0006  0.0530
 2615SOL    HW119481   1.315   4.658  11.985 -0.0786 -1.2711 -0.6259
 2615SOL    HW219482   1.177   4.662  11.929 -0.8775  3.4970  0.7624
 2616SOL     OW19483   1.929   1.795   8.193  0.1995 -0.2782  0.2744
 2616SOL    HW119484   1.976   1.739   8.132 -0.8362 -2.4922  1.5033
 2616SOL    HW219485   1.860   1.833   8.137 -0.7642  0.3052  1.8586
 2617SOL     OW19486   4.370   1.293   6.042 -0.4360 -0.0765  0.1950
 2617SOL    HW119487   4.360   1.226   5.974  1.4942 -0.8214  0.6143
 2617SOL    HW219488   4.395   1.375   5.999  0.7440 -0.2766  0.4740
 2618SOL     OW19489   0.332   4.233   1.711 -0.4064  0.4793 -0.2574
 2618SOL    HW119490   0.246   4.228   1.752 -0.8432  0.5797 -1.1595
 2618SOL    HW219491   0.334   4.137   1.706  2.1164  0.4679  0.9940
 2619SOL     OW19492   1.116   3.399   3.094  0.2670 -0.6994 -0.1405
 2619SOL    HW119493   1.210   3.385   3.092  0.1772 -1.3770  0.3542
 2619SOL    HW219494   1.091   3.307   3.086 -2.3008  0.1864 -2.3263
 2620SOL     OW19495   2.211   3.437   2.076 -0.5409 -0.1521 -0.3456
 2620SOL    HW119496   2.232   3.531   2.078  0.2406 -0.3597  0.9682
 2620SOL    HW219497   2.283   3.408   2.132  0.3916  1.4319 -0.7046
 2621SOL     OW19498   2.337   0.462  14.064  0.2439 -0.5851  0.0692
 2621SOL    HW119499   2.262   0.407  14.043 -1.0391  1.1469  0.1529
 2621SOL    HW219500   2.310   0.552  14.044  0.8280 -0.6149 -0.8890
 2622SOL     OW19501   4.655   2.524   9.952 -0.4694  0.0305 -0.2934
 2622SOL    HW119502   4.580   2.506  10.007 -0.1635 -0.0651  0.0907
 2622SOL    HW219503   4.664   2.448   9.894  1.9764  2.3186 -2.9864
 2623SOL     OW19504   4.257   2.192   9.037  0.0896 -0.5375  0.8620
 2623SOL    HW119505   4.176   2.210   8.989 -1.0562 -3.0217  1.8610
 2623SOL    HW219506   4.292   2.279   9.058  0.5698 -0.3153 -0.8028
 2624SOL     OW19507   4.093   4.175   8.901  0.1129 -0.3032  0.5774
 2624SOL    HW119508   4.166   4.205   8.955 -1.5481  2.1993  1.4404
 2624SOL    HW219509   4.056   4.117   8.967  0.8634 -1.4066  0.0181
 2625SOL     OW19510   1.059   0.751   5.110 -0.2972  0.1923 -0.2503
 2625SOL    HW119511   1.122   0.731   5.179 -0.5672  0.8768  0.1964
 2625SOL    HW219512   1.019   0.830   5.146 -0.1056 -0.6088  1.7376
 2626SOL     OW19513   1.657   1.316   7.326  0.7022  0.5897 -0.1649
 2626SOL    HW119514   1.598   1.370   7.379 -1.0914 -2.6115  1.1164
 2626SOL    HW219515   1.726   1.378   7.304  0.5512  0.4032 -1.1432
 2627SOL     OW19516   2.560   2.759  12.672  0.1895  0.0933  0.0301
 2627SOL    HW119517   2.508   2.823  12.721  1.0317 -1.0333  2.4489
 2627SOL    HW219518   2.580   2.704  12.748  2.0453  0.7646  0.0342
 2628SOL     OW19519   1.951   0.132   1.580 -0.1851  0.2766  0.7663
 2628SOL    HW119520   1.944   0.173   1.493  0.2797 -0.1053  0.5428
 2628SOL    HW219521   1.860   0.120   1.606 -0.2191 -0.8853  0.1211
 2629SOL     OW19522   4.068   0.799   7.431  0.0861  0.4446 -0.0925
 2629SOL    HW119523   4.072   0.801   7.526  0.6858 -1.7430 -0.0587
 2629SOL    HW219524   3.974   0.779   7.429  0.3110 -0.2021 -4.2323
 2630SOL     OW19525   2.475   0.976   1.051 -0.3192  0.2939 -0.2436
 2630SOL    HW119526   2.390   1.015   1.071 -0.9315 -1.8779  1.3249
 2630SOL    HW219527   2.454   0.892   1.011  1.4214 -0.2951  0.0573
 2631SOL     OW19528   1.138   1.980  11.418 -0.3062 -0.2687 -0.1831
 2631SOL    HW119529   1.158   2.039  11.490  1.6268  2.2736 -2.8031
 2631SOL    HW219530   1.086   1.916  11.467  2.5562 -0.9375  2.0097
 2632SOL     OW19531   2.042   4.257   8.972 -0.4749  0.7802  0.4246
 2632SOL    HW119532   2.048   4.217   9.059  0.1844  0.3116  0.1649
 2632SOL    HW219533   1.952   4.236   8.949 -0.3415  0.0306  0.5782
 2633SOL     OW19534   2.717   0.834  11.415 -0.1530 -0.1246  0.0337
 2633SOL    HW119535   2.676   0.768  11.359  0.8947 -0.1955 -0.6517
 2633SOL    HW219536   2.809   0.815  11.396 -0.1653  0.6531 -0.7896
 2634SOL     OW19537   4.673   3.692   6.191 -0.2637  0.4077  0.2231
 2634SOL    HW119538   4.606   3.639   6.234 -1.5634  1.6571 -0.2649
 2634SOL    HW219539   4.647   3.693   6.099  1.3241 -0.3811 -0.2383
 2635SOL     OW19540   2.909   0.677   7.974  0.2478  0.3491 -0.0139
 2635SOL    HW119541   2.967   0.629   8.033  1.1026 -0.0819 -1.1968
 2635SOL    HW219542   2.901   0.764   8.013  0.9529 -0.4846  1.9493
 2636SOL     OW19543   4.555   2.487   3.318  0.0199  0.0678 -0.5151
 2636SOL    HW119544   4.572   2.548   3.390 -1.5743  0.4042 -0.4054
 2636SOL    HW219545   4.541   2.411   3.373 -0.3562  1.8297  1.8136
 2637SOL     OW19546   0.795   0.533  13.207 -0.4445  0.0024 -0.0249
 2637SOL    HW119547   0.783   0.468  13.138 -1.2340  3.4557 -3.1460
 2637SOL    HW219548   0.719   0.591  13.207 -0.4315  0.0241  0.7455
 2638SOL     OW19549   4.465   3.113   6.382 -0.0923  0.1268  0.3097
 2638SOL    HW119550   4.558   3.111   6.406  0.3263  2.8284 -1.0014
 2638SOL    HW219551   4.422   3.123   6.467  0.2436  0.5427  0.4366
 2639SOL     OW19552   4.340   3.944   2.501  0.2453  0.5202  0.1278
 2639SOL    HW119553   4.365   4.025   2.545  1.8730  0.2892 -0.3908
 2639SOL    HW219554   4.261   3.964   2.451 -0.6859  3.2453  2.7211
 2640SOL     OW19555   4.419   4.099   6.983 -0.3546  0.5433  0.0040
 2640SOL    HW119556   4.381   4.014   7.005  0.3577  0.2684  0.1642
 2640SOL    HW219557   4.384   4.110   6.894 -1.4762  1.9206  0.6036
 2641SOL     OW19558   1.636   1.690   8.909  0.4884 -0.2674  0.6152
 2641SOL    HW119559   1.653   1.778   8.876 -1.1381  0.1050  0.7479
 2641SOL    HW219560   1.681   1.641   8.841  0.4558 -0.3023  0.6189
 2642SOL     OW19561   3.495   2.435   6.971 -0.1947  0.0568  0.0505
 2642SOL    HW119562   3.540   2.506   7.017  0.9821 -0.8996  0.3418
 2642SOL    HW219563   3.508   2.360   7.028 -1.2977 -0.7444 -0.7644
 2643SOL     OW19564   4.408   3.915   5.130 -0.0734 -0.1414  0.4040
 2643SOL    HW119565   4.445   3.846   5.184  1.4832 -0.6529 -1.3631
 2643SOL    HW219566   4.476   3.931   5.065 -1.6704 -1.3321 -1.5425
 2644SOL     OW19567   1.256   3.861   5.867  0.6425  0.1893 -0.5275
 2644SOL    HW119568   1.176   3.874   5.816 -0.1099  1.5030  0.9909
 2644SOL    HW219569   1.299   3.802   5.805  3.5598  0.2538  1.4546
 2645SOL     OW19570   3.078   2.547  13.167 -0.3965 -0.2341 -0.3977
 2645SOL    HW119571   3.105   2.628  13.124  0.5452  1.0809  2.6661
 2645SOL    HW219572   3.020   2.505  13.103 -3.3202  0.4928  1.7662
 2646SOL     OW19573   4.296   1.786   5.399 -0.4780  0.3363  0.1005
 2646SOL    HW119574   4.342   1.776   5.482  1.0866  3.8743 -0.3590
 2646SOL    HW219575   4.214   1.740   5.418 -0.1886 -0.4000 -0.4184
 2647SOL     OW19576   0.980   0.843  14.416  0.1177  0.2012 -0.4651
 2647SOL    HW119577   0.907   0.895  14.383 -0.6089  0.9329  2.2993
 2647SOL    HW219578   0.954   0.760  14.379 -0.5108 -0.7512  2.1087
 2648SOL     OW19579   2.159   4.217  11.096  0.6471 -0.4474  0.7431
 2648SOL    HW119580   2.147   4.148  11.161  0.3651  0.6476  1.8648
 2648SOL    HW219581   2.127   4.293  11.145  0.8511  0.0450  0.1013
 2649SOL     OW19582   0.584   2.798  13.301  0.1264  0.2508  0.0570
 2649SOL    HW119583   0.615   2.887  13.286  0.0962 -0.0379 -1.7302
 2649SOL    HW219584   0.639   2.766  13.373  1.0520  0.8719 -0.3740
 2650SOL     OW19585   1.465   2.106   4.496  0.7125 -0.3494 -0.2287
 2650SOL    HW119586   1.413   2.042   4.446  1.8890 -2.4740  1.2788
 2650SOL    HW219587   1.506   2.154   4.425  1.0059  0.5714  0.5724
 2651SOL     OW19588   2.287   0.517  14.414 -0.1251 -0.2534 -0.1617
 2651SOL    HW119589   2.359   0.477  14.365 -0.7222 -1.5595  0.0197
 2651SOL    HW219590   2.285   0.606  14.379 -1.0171  0.1027  0.7936
 2652SOL     OW19591   2.779   1.467  14.402  0.1858 -0.4236 -0.3903
 2652SOL    HW119592   2.736   1.462  14.488  1.6119  1.1558  0.4045
 2652SOL    HW219593   2.782   1.375  14.377 -1.0740  0.1983 -2.7824
 2653SOL     OW19594   1.867   0.763   1.852 -0.0849 -0.0281 -0.0620
 2653SOL    HW119595   1.935   0.823   1.881  0.0895  1.7229 -4.1112
 2653SOL    HW219596   1.876   0.781   1.759 -0.2573 -1.1906 -0.3136
 2654SOL     OW19597   0.446   0.175   8.314  0.5502  0.5719  0.4077
 2654SOL    HW119598   0.524   0.229   8.303  1.7306 -0.9570  1.2160
 2654SOL    HW219599   0.383   0.227   8.265 -2.4224 -3.1219  0.3427
 2655SOL     OW19600   1.030   4.443   4.698 -0.2115 -0.0946  0.2035
 2655SOL    HW119601   1.091   4.426   4.626 -0.4650  2.2660 -0.5483
 2655SOL    HW219602   1.085   4.460   4.774  1.0663  1.2595 -1.0259
 2656SOL     OW19603   0.628   3.558  11.856  0.4234 -0.5562  0.5886
 2656SOL    HW119604   0.548   3.609  11.845  1.6108  1.4886  1.2389
 2656SOL    HW219605   0.700   3.621  11.852 -0.8173  0.7851 -0.5465
 2657SOL     OW19606   2.047   1.941   5.689  0.2855 -0.2098  0.2055
 2657SOL    HW119607   2.043   2.018   5.744  0.6573 -1.3707  1.8457
 2657SOL    HW219608   1.990   1.959   5.613 -0.5732 -0.8748  0.6896
 2658SOL     OW19609   4.572   1.560   4.349 -0.1077  0.0379  0.0669
 2658SOL    HW119610   4.546   1.469   4.340  0.2745 -0.1325  0.6523
 2658SOL    HW219611   4.533   1.575   4.435 -1.9552  0.5627 -0.8695
 2659SOL     OW19612   2.116   0.317  10.934 -0.2430 -0.4486 -0.3137
 2659SOL    HW119613   2.066   0.292  10.857  2.4176 -0.8782 -1.9279
 2659SOL    HW219614   2.105   0.412  10.931 -0.0588 -0.5092 -3.1695
 2660SOL     OW19615   2.034   2.152   5.948 -0.3566 -0.0712  0.1777
 2660SOL    HW119616   2.030   2.216   6.020 -1.5798  0.2141 -0.1429
 2660SOL    HW219617   1.948   2.170   5.911 -1.8985 -0.9668  3.4407
 2661SOL     OW19618   1.738   0.138   5.030 -0.0481  0.2637 -0.0884
 2661SOL    HW119619   1.751   0.043   5.023 -1.3200  0.1712 -1.4807
 2661SOL    HW219620   1.642   0.142   5.022 -0.1545 -2.4856 -0.2062
 2662SOL     OW19621   3.832   3.173   4.914  0.4504 -0.2610 -0.0413
 2662SOL    HW119622   3.795   3.260   4.931  0.6867  0.1256 -1.4238
 2662SOL    HW219623   3.820   3.138   5.002 -0.7111 -0.1319 -0.1388
 2663SOL     OW19624   3.108   3.439   5.570 -0.7848  0.4510 -0.4916
 2663SOL    HW119625   3.160   3.427   5.491 -2.2315  0.5801 -1.4749
 2663SOL    HW219626   3.167   3.479   5.634  0.5007 -1.3370 -0.5576
 2664SOL     OW19627   2.168   2.060   8.408  0.7775  0.4942  0.3259
 2664SOL    HW119628   2.177   1.965   8.405  2.2761  0.5966  1.8103
 2664SOL    HW219629   2.220   2.083   8.485  1.0526  1.5370 -0.1648
 2665SOL     OW19630   4.280   3.799   5.612  0.0206 -0.8385 -0.1355
 2665SOL    HW119631   4.291   3.849   5.693 -0.6318 -0.8393 -0.0456
 2665SOL    HW219632   4.367   3.800   5.574 -0.7580 -0.0444 -1.8900
 2666SOL     OW19633   3.443   0.089   9.708 -0.6512  0.3492  0.5349
 2666SOL    HW119634   3.404   0.059   9.626 -0.1449  1.4611 -0.1234
 2666SOL    HW219635   3.520   0.140   9.684  0.2473 -0.9733  0.6647
 2667SOL     OW19636   3.001   2.699   7.892  0.2040 -0.2457  0.5372
 2667SOL    HW119637   2.951   2.726   7.968 -1.3860 -0.4389 -0.4475
 2667SOL    HW219638   2.939   2.706   7.820  1.5286 -0.6941 -0.6585
 2668SOL     OW19639   0.933   0.120   4.752 -0.6537 -0.3493 -0.0781
 2668SOL    HW119640   0.894   0.084   4.672  1.2750  0.1005 -1.2207
 2668SOL    HW219641   0.891   0.071   4.822 -3.0153  0.1879 -1.1035
 2669SOL     OW19642   2.353   1.868  11.076 -0.3031  0.2058 -0.1929
 2669SOL    HW119643   2.323   1.929  11.144  1.3421 -1.9273  2.4806
 2669SOL    HW219644   2.364   1.786  11.125 -1.2203  0.2762  0.1288
 2670SOL     OW19645   0.584   1.210   7.607 -0.1617  0.5307 -0.3163
 2670SOL    HW119646   0.537   1.197   7.689 -1.5197  0.8558 -1.0542
 2670SOL    HW219647   0.509   1.222   7.549 -0.9571  0.9596  0.7955
 2671SOL     OW19648   2.488   2.694  16.073 -0.2560 -0.4340 -0.0841
 2671SOL    HW119649   2.475   2.735  16.158 -0.6679 -0.8526  0.0534
 2671SOL    HW219650   2.574   2.653  16.088  1.2835  2.7871 -0.0444
 2672SOL     OW19651   0.315   2.156  15.322  0.0051 -0.3370 -0.1322
 2672SOL    HW119652   0.384   2.099  15.355  0.4632  0.1276 -0.2790
 2672SOL    HW219653   0.237   2.110  15.351  0.0255 -0.8719 -0.9203
 2673SOL     OW19654   2.327   2.352  14.783  0.5310 -0.3056 -0.6197
 2673SOL    HW119655   2.249   2.299  14.797 -1.0385  2.9470  3.1782
 2673SOL    HW219656   2.331   2.374  14.690 -2.0573  0.0372 -0.6692
 2674SOL     OW19657   3.102   3.394  10.735 -0.0195 -0.9136  0.4524
 2674SOL    HW119658   3.066   3.384  10.647 -1.9350  0.1296  1.1140
 2674SOL    HW219659   3.019   3.385  10.782  0.1071  1.6691  1.1690
 2675SOL     OW19660   2.707   1.300   2.938  0.0928 -0.2291 -0.0531
 2675SOL    HW119661   2.710   1.223   2.995  0.8688 -0.4522 -0.3944
 2675SOL    HW219662   2.700   1.259   2.852 -1.4203 -0.8863  0.3840
 2676SOL     OW19663   1.679   2.407   8.613  0.0437 -0.3249  0.2399
 2676SOL    HW119664   1.691   2.430   8.705 -2.0147 -0.1513  0.4784
 2676SOL    HW219665   1.741   2.468   8.573 -0.2050 -0.5496 -0.4900
 2677SOL     OW19666   3.132   4.680   6.903  0.0313 -0.2241  0.4354
 2677SOL    HW119667   3.213   4.730   6.907 -1.8523  2.9120 -1.3501
 2677SOL    HW219668   3.059   0.005   6.895  1.1480  1.0151 -0.0334
 2678SOL     OW19669   1.675   2.148  16.370 -0.3592  0.2377  0.3453
 2678SOL    HW119670   1.616   2.216  16.340  0.8353  1.7568  1.4409
 2678SOL    HW219671   1.623   2.068  16.367  2.7220 -1.7609  0.4637
 2679SOL     OW19672   0.271   1.583  13.087 -0.2931 -0.2902  0.1334
 2679SOL    HW119673   0.218   1.650  13.131  1.3472  0.1564  1.4279
 2679SOL    HW219674   0.276   1.514  13.153  0.1154  0.3468  0.7671
 2680SOL     OW19675   2.169   0.113   7.040 -0.0701 -0.3412 -0.0040
 2680SOL    HW119676   2.251   0.164   7.045  0.0951 -0.5472 -0.6070
 2680SOL    HW219677   2.182   0.068   7.123 -1.2021 -2.4632 -0.9897
 2681SOL     OW19678   4.425   4.101   4.622  0.2150  0.2562  0.1783
 2681SOL    HW119679   4.401   4.052   4.701  0.2049  2.7561  1.6994
 2681SOL    HW219680   4.481   4.037   4.578 -0.2730 -0.6069  0.7916
 2682SOL     OW19681   4.394   1.456   7.817 -0.4200  0.5482  0.1596
 2682SOL    HW119682   4.378   1.508   7.896 -1.8098  2.8681 -1.6562
 2682SOL    HW219683   4.436   1.524   7.763 -1.2736  0.2389 -0.8802
 2683SOL     OW19684   4.339   2.069  15.499  0.4273 -0.1431  0.6581
 2683SOL    HW119685   4.340   2.162  15.477 -2.7866 -0.2857 -0.0517
 2683SOL    HW219686   4.319   2.063  15.593 -0.9486 -1.3683  0.2914
 2684SOL     OW19687   2.154   2.888   7.702  0.1445  0.8238  0.3292
 2684SOL    HW119688   2.240   2.921   7.676  0.5723 -0.5049  0.0827
 2684SOL    HW219689   2.176   2.898   7.795 -0.2402  0.6168  0.4428
 2685SOL     OW19690   4.482   3.649   8.318  0.2688  0.1313 -0.4642
 2685SOL    HW119691   4.455   3.701   8.243 -1.0463  1.2666  0.7941
 2685SOL    HW219692   4.506   3.717   8.382 -0.8324 -0.9743  1.1250
 2686SOL     OW19693   0.358   1.321  12.800 -0.1477  0.1473  0.4388
 2686SOL    HW119694   0.298   1.393  12.819 -0.0853 -0.2692  2.1731
 2686SOL    HW219695   0.293   1.256  12.774 -2.1138  2.4535 -0.4273
 2687SOL     OW19696   4.371   3.494   8.969  0.4470  0.3240 -0.2614
 2687SOL    HW119697   4.382   3.399   8.962 -0.1759  0.1299  1.4523
 2687SOL    HW219698   4.426   3.520   8.894  0.4784 -0.6237 -0.5641
 2688SOL     OW19699   0.682   1.484  10.346 -0.4802  0.1454 -0.2122
 2688SOL    HW119700   0.698   1.573  10.313  0.0638  0.5059  1.0134
 2688SOL    HW219701   0.637   1.439  10.275 -0.8735  1.0101 -0.5168
 2689SOL     OW19702   0.238   3.902   3.098 -0.4699 -0.0393 -0.2718
 2689SOL    HW119703   0.250   3.908   3.004  1.2960 -1.4716 -0.1457
 2689SOL    HW219704   0.146   3.926   3.108 -0.3012  1.0764 -1.5730
 2690SOL     OW19705   0.611   4.706   6.324  0.0261 -0.1363  0.5576
 2690SOL    HW119706   0.671   0.044   6.314  0.0508 -0.3289 -0.6852
 2690SOL    HW219707   0.561   0.007   6.397  0.3770  0.3626  0.5425
 2691SOL     OW19708   4.701   1.174  13.061  0.1773 -0.2385  0.0272
 2691SOL    HW119709   4.641   1.186  12.987  1.1293  0.1673 -0.6788
 2691SOL    HW219710   4.717   1.266  13.083 -2.3428  0.7576 -2.3740
 2692SOL     OW19711   0.860   1.715   6.898  0.1826  0.6498  0.2203
 2692SOL    HW119712   0.790   1.651   6.886 -0.6437  2.5345 -5.0810
 2692SOL    HW219713   0.929   1.652   6.920 -0.0978  0.3866  0.3437
 2693SOL     OW19714   4.542   3.896   9.468  0.2890 -0.0418  0.0307
 2693SOL    HW119715   4.627   3.919   9.506 -0.2493  1.1547  0.5151
 2693SOL    HW219716   4.567   3.818   9.418 -2.9069 -1.4872  0.6367
 2694SOL     OW19717   1.864   2.051  12.883  0.1593  0.1675 -0.6730
 2694SOL    HW119718   1.774   2.080  12.902  0.9597  0.9821  1.9094
 2694SOL    HW219719   1.896   2.114  12.820 -0.4165  0.0083 -1.1248
 2695SOL     OW19720   1.381   4.578  15.108 -0.4970 -0.0601  0.3045
 2695SOL    HW119721   1.461   4.627  15.130  0.3707 -2.3855  2.3590
 2695SOL    HW219722   1.415   4.491  15.130  0.4330 -0.2859 -2.0603
 2696SOL     OW19723   3.545   0.537   6.443 -0.2764  0.2697  0.3391
 2696SOL    HW119724   3.622   0.520   6.498  0.9066 -0.0511 -1.4157
 2696SOL    HW219725   3.476   0.522   6.508  0.0210  1.2347  0.8821
 2697SOL     OW19726   0.741   2.158  14.302  0.3797 -0.4121  0.9183
 2697SOL    HW119727   0.691   2.221  14.355  2.8303  0.0029  2.7098
 2697SOL    HW219728   0.808   2.132  14.364  0.2748 -0.0358  1.1895
 2698SOL     OW19729   4.491   4.636   2.566 -0.3303 -0.3863  0.1702
 2698SOL    HW119730   4.539   4.557   2.592  1.9318  1.5600  1.8805
 2698SOL    HW219731   4.486   4.628   2.470  1.7576 -3.2622  0.2824
 2699SOL     OW19732   4.679   0.622  13.111  0.1124 -0.3205 -0.0518
 2699SOL    HW119733   4.653   0.572  13.188 -1.5564  1.0036  0.2512
 2699SOL    HW219734   4.595   0.655  13.079 -0.0797  1.2599  2.0816
 2700SOL     OW19735   0.692   3.193   9.244  0.0047  0.5431  0.6416
 2700SOL    HW119736   0.762   3.147   9.292  0.5869  0.9203  0.1567
 2700SOL    HW219737   0.665   3.264   9.302  0.7656  0.5568  0.9779
 2701SOL     OW19738   0.529   1.231  16.797  0.4919 -0.7866  0.3983
 2701SOL    HW119739   0.619   1.202  16.780  0.7670  0.5909 -0.4541
 2701SOL    HW219740   0.515   1.288  16.722 -1.2593 -1.1740  0.4360
 2702SOL     OW19741   1.043   1.003   5.787 -0.2633  0.1447  0.0491
 2702SOL    HW119742   1.092   0.922   5.803 -3.3060 -1.9685 -1.2467
 2702SOL    HW219743   1.020   0.987   5.695  0.8697  1.0300 -0.3934
 2703SOL     OW19744   1.039   3.249  16.814  0.1985  0.0497 -0.0704
 2703SOL    HW119745   1.014   3.322  16.758 -0.4927  1.2359  1.7668
 2703SOL    HW219746   1.052   3.291  16.899  0.0118 -0.1702  0.0687
 2704SOL     OW19747   1.091   2.387  17.193 -0.5886 -0.0057  0.0311
 2704SOL    HW119748   1.064   2.475  17.168 -1.5457 -0.6617 -1.2446
 2704SOL    HW219749   1.009   2.344  17.217 -1.0920  0.8216 -0.2361
 2705SOL     OW19750   0.797   1.127  16.115 -0.0270  0.3627  0.4264
 2705SOL    HW119751   0.804   1.133  16.020  0.3397  0.6187  0.4683
 2705SOL    HW219752   0.745   1.206  16.131  2.1158  1.4148  2.3822
 2706SOL     OW19753   0.016   0.322   8.202  0.6683 -0.1406 -0.0292
 2706SOL    HW119754   0.002   0.397   8.260  0.8760 -0.1952  0.0944
 2706SOL    HW219755   4.672   0.317   8.152  0.9575 -0.7425 -0.4404
 2707SOL     OW19756   3.375   0.518   6.667  0.0171  0.4450 -0.6287
 2707SOL    HW119757   3.352   0.425   6.672 -1.4262  0.9920  2.8856
 2707SOL    HW219758   3.303   0.569   6.704  0.8206 -0.2522  1.8540
 2708SOL     OW19759   2.292   0.146   3.684 -0.0089 -0.2910 -0.0031
 2708SOL    HW119760   2.310   0.240   3.686 -1.7420  0.0453 -0.3901
 2708SOL    HW219761   2.276   0.125   3.592 -1.5118  0.2318  0.1347
 2709SOL     OW19762   2.819   3.412   8.040  0.1434  0.3580  0.2995
 2709SOL    HW119763   2.763   3.488   8.029  0.1993  0.7315  2.6069
 2709SOL    HW219764   2.786   3.345   7.980 -1.5169 -0.9061  2.5986
 2710SOL     OW19765   3.991   1.730   6.200  0.2905 -0.0057 -0.0017
 2710SOL    HW119766   3.912   1.759   6.245 -0.0969 -0.2698 -0.5082
 2710SOL    HW219767   3.971   1.637   6.190  2.0529 -0.3034 -0.8120
 2711SOL     OW19768   4.348   2.576   5.729 -0.1553 -0.8424  0.0379
 2711SOL    HW119769   4.403   2.545   5.657 -0.0889 -2.1989  0.6801
 2711SOL    HW219770   4.408   2.585   5.802 -0.0300 -1.1535 -0.0257
 2712SOL     OW19771   3.499   3.568   0.795 -0.3884  0.2627 -0.4658
 2712SOL    HW119772   3.435   3.616   0.848  1.5710  2.7221 -0.3460
 2712SOL    HW219773   3.575   3.626   0.786 -0.2670 -0.0461 -1.4315
 2713SOL     OW19774   4.560   2.467   5.424 -0.6696 -0.5362  0.1021
 2713SOL    HW119775   4.559   2.563   5.430 -0.0385 -0.3309 -3.3475
 2713SOL    HW219776   4.473   2.458   5.386 -0.9328  1.4453  0.2125
 2714SOL     OW19777   2.403   0.991   7.006 -0.4327  0.3826  0.1176
 2714SOL    HW119778   2.488   1.018   6.973  0.2204 -1.3523  0.4055
 2714SOL    HW219779   2.372   1.080   7.024  0.5446  0.4831  1.2654
 2715SOL     OW19780   1.875   1.293   6.269  0.5167  0.5508  0.2994
 2715SOL    HW119781   1.816   1.328   6.203  0.8931  0.4995 -0.0666
 2715SOL    HW219782   1.823   1.217   6.296 -1.9701  1.6776 -1.3990
 2716SOL     OW19783   4.228   2.893   6.645  0.5709 -0.0624  0.0414
 2716SOL    HW119784   4.302   2.953   6.653 -0.6868  1.6720 -1.3866
 2716SOL    HW219785   4.164   2.946   6.597 -1.1222 -1.6874  0.5146
 2717SOL     OW19786   4.656   3.935   1.114 -0.3510  0.3502 -0.0655
 2717SOL    HW119787   4.728   3.881   1.147 -0.1797 -0.4248 -1.7456
 2717SOL    HW219788   4.580   3.881   1.134 -0.3511  0.4880  0.3239
 2718SOL     OW19789   3.568   3.668  17.340  1.0837 -0.1234  0.0744
 2718SOL    HW119790   3.499   3.733  17.328  1.3415 -0.1361 -1.5023
 2718SOL    HW219791   3.603   3.689  17.427  0.5521  0.1966  0.2134
 2719SOL     OW19792   4.315   0.693   5.200 -0.0657 -0.2506  0.0680
 2719SOL    HW119793   4.313   0.776   5.152  2.0793  0.0646  0.4845
 2719SOL    HW219794   4.390   0.644   5.166  0.5440  0.7999 -0.1118
 2720SOL     OW19795   2.330   3.311   4.940  0.3724 -0.5226 -0.2071
 2720SOL    HW119796   2.365   3.376   4.879  2.0235 -1.1557  0.0503
 2720SOL    HW219797   2.328   3.359   5.023  0.7605  0.2521 -0.6502
 2721SOL     OW19798   0.710   1.026   6.639  0.3336  0.4108  0.1936
 2721SOL    HW119799   0.714   1.043   6.545  0.6986  1.7734  0.4492
 2721SOL    HW219800   0.783   1.079   6.671  0.9340 -1.7891  2.4230
 2722SOL     OW19801   4.266   2.986   5.192 -0.6281  0.5530  0.5701
 2722SOL    HW119802   4.262   3.037   5.273 -1.1257  2.8515 -0.9025
 2722SOL    HW219803   4.256   2.896   5.224 -0.1942 -0.0319 -0.9210
 2723SOL     OW19804   3.596   1.967   5.598 -0.5048  0.1101 -0.2019
 2723SOL    HW119805   3.517   1.967   5.543 -0.4753 -0.5099 -0.2531
 2723SOL    HW219806   3.660   1.933   5.535  1.0673  1.5111  0.6488
 2724SOL     OW19807   2.999   2.577  16.342  0.5920  0.4985  0.5756
 2724SOL    HW119808   3.044   2.508  16.390  1.1693  0.1833 -0.4216
 2724SOL    HW219809   2.983   2.546  16.252 -0.8218  1.0250  0.6345
 2725SOL     OW19810   3.211   0.401   2.041 -0.4965  0.4593 -0.0713
 2725SOL    HW119811   3.143   0.444   2.093  0.7646  0.7016  1.3582
 2725SOL    HW219812   3.148   0.332   2.019  0.2836 -0.3582  0.2446
 2726SOL     OW19813   3.233   1.232  13.401 -0.1071 -0.2391  0.0202
 2726SOL    HW119814   3.170   1.208  13.470  1.3712  2.3243  2.2745
 2726SOL    HW219815   3.217   1.153  13.349  0.2540 -1.6761  2.0917
 2727SOL     OW19816   1.875   1.743   1.030 -0.4651  0.1617 -0.0085
 2727SOL    HW119817   1.849   1.815   0.972  1.4618  1.0325  0.2223
 2727SOL    HW219818   1.793   1.748   1.080 -1.3288 -2.3147 -1.1440
 2728SOL     OW19819   2.679   0.183   4.813  0.3755 -0.2128  0.6369
 2728SOL    HW119820   2.758   0.235   4.825  0.3994  0.1111 -0.9600
 2728SOL    HW219821   2.730   0.102   4.815  1.0975  0.1890 -1.6651
 2729SOL     OW19822   3.827   3.237  11.037  0.0947  0.1536  0.2525
 2729SOL    HW119823   3.878   3.189  10.973  0.3547 -1.2311  1.5125
 2729SOL    HW219824   3.827   3.327  11.003  0.6575 -0.2399 -0.7606
 2730SOL     OW19825   0.633   1.948   3.706 -0.1321  0.2290  0.3577
 2730SOL    HW119826   0.553   1.998   3.686 -0.2109 -0.2753 -0.6107
 2730SOL    HW219827   0.608   1.862   3.673 -1.0797 -0.4717  2.9358
 2731SOL     OW19828   1.623   3.374   8.931 -0.0055  0.3675  0.6243
 2731SOL    HW119829   1.573   3.298   8.902  1.5095 -0.5787  0.4759
 2731SOL    HW219830   1.702   3.329   8.960  0.3063 -0.5392 -1.6273
 2732SOL     OW19831   2.548   3.202   8.204  0.3663 -0.3332 -0.1864
 2732SOL    HW119832   2.611   3.269   8.229  0.8279 -1.4224  1.6199
 2732SOL    HW219833   2.505   3.174   8.285 -1.7618  0.5759 -0.9967
 2733SOL     OW19834   2.513   1.098   1.769  0.4786 -0.1858  0.5412
 2733SOL    HW119835   2.523   1.137   1.856  1.1144 -0.7129  0.7085
 2733SOL    HW219836   2.595   1.121   1.725  0.9867 -2.0214  0.5233
 2734SOL     OW19837   1.852   1.105   4.790 -0.1606 -0.1038 -0.0760
 2734SOL    HW119838   1.785   1.173   4.799 -2.1514 -1.7761 -2.4211
 2734SOL    HW219839   1.811   1.063   4.715  0.7130 -2.5204  0.7922
 2735SOL     OW19840   2.002   3.266   8.258 -0.1420 -0.3952 -0.2994
 2735SOL    HW119841   2.032   3.182   8.225  1.2171  0.3900 -1.0439
 2735SOL    HW219842   1.912   3.261   8.224  0.0250 -3.3695 -0.3295
 2736SOL     OW19843   0.308   1.912   3.888 -0.1111 -0.0984  0.2350
 2736SOL    HW119844   0.380   1.862   3.928  1.9125  1.2169 -1.7275
 2736SOL    HW219845   0.233   1.865   3.923  1.1979 -1.8491  0.7210
 2737SOL     OW19846   3.291   2.735   2.487 -1.3079  0.0017  0.2654
 2737SOL    HW119847   3.262   2.733   2.579 -1.7563 -3.0352  0.0856
 2737SOL    HW219848   3.320   2.646   2.466 -1.6260 -0.2365  0.8249
 2738SOL     OW19849   2.546   3.929   7.783  0.2085 -0.2102 -0.8195
 2738SOL    HW119850   2.532   3.892   7.870  0.2908  1.1085 -0.2482
 2738SOL    HW219851   2.468   3.892   7.742  0.5628  1.9429 -3.3715
 2739SOL     OW19852   2.100   3.966   4.090 -0.0120 -0.4513  0.0351
 2739SOL    HW119853   2.026   4.025   4.074 -0.7537 -0.5202  3.2037
 2739SOL    HW219854   2.171   4.027   4.113 -0.4879  0.5426 -1.0677
 2740SOL     OW19855   4.470   1.034   2.352  0.2877 -0.4180  0.0701
 2740SOL    HW119856   4.418   1.097   2.403  2.0042  1.0582 -0.0307
 2740SOL    HW219857   4.418   0.955   2.369 -0.3034 -0.5284 -2.3806
 2741SOL     OW19858   4.272   3.722   4.281  0.3418 -0.6263 -0.6048
 2741SOL    HW119859   4.302   3.770   4.204  2.4879 -0.0167  0.6024
 2741SOL    HW219860   4.270   3.627   4.265 -0.7972 -0.4292 -1.5745
 2742SOL     OW19861   4.705   0.024  17.296 -0.4700 -0.2083  0.5035
 2742SOL    HW119862   4.727   0.100  17.351  0.5225 -1.7750  2.2873
 2742SOL    HW219863   0.054   4.722  17.284 -1.8217 -2.3827 -2.1074
 2743SOL     OW19864   0.482   3.886  15.875  0.2206  0.4011  0.0549
 2743SOL    HW119865   0.507   3.795  15.864  2.2487  1.2094 -1.9660
 2743SOL    HW219866   0.558   3.941  15.857  0.4363  0.2924  0.6208
 2744SOL     OW19867   3.523   2.670  10.773  0.4785  0.6588  0.2007
 2744SOL    HW119868   3.457   2.665  10.842 -0.1716 -2.2487 -0.6117
 2744SOL    HW219869   3.503   2.751  10.727 -2.5902  0.4488  1.1380
 2745SOL     OW19870   0.830   2.444  11.098 -0.0576 -0.1132 -0.1335
 2745SOL    HW119871   0.832   2.478  11.009  1.5801  0.6449  0.2002
 2745SOL    HW219872   0.761   2.378  11.088 -1.2810  1.0004  0.8117
 2746SOL     OW19873   0.467   0.989   1.101 -0.5999 -0.1567 -0.6097
 2746SOL    HW119874   0.532   1.001   1.169 -1.6562 -0.1582  0.4052
 2746SOL    HW219875   0.415   1.069   1.111  1.3075  0.6844  2.4672
 2747SOL     OW19876   0.436   2.307  17.406  0.2657 -0.4230 -0.1696
 2747SOL    HW119877   0.404   2.245  17.340  0.3996  1.0005 -1.5836
 2747SOL    HW219878   0.464   2.379  17.350  0.5108 -0.3079  0.1054
 2748SOL     OW19879   4.041   2.518   2.995 -0.5939  0.3559  0.4309
 2748SOL    HW119880   3.968   2.500   3.054 -2.5981 -0.7407 -2.3727
 2748SOL    HW219881   4.002   2.583   2.936  2.8480  1.8560 -0.1971
 2749SOL     OW19882   2.890   2.520   7.152 -0.0176  0.8514  0.1419
 2749SOL    HW119883   2.796   2.530   7.139 -0.0059  0.3960 -0.2848
 2749SOL    HW219884   2.927   2.575   7.082  0.1245 -0.1681 -0.5795
 2750SOL     OW19885   2.022   0.870  12.247  0.2554  0.3247  0.7265
 2750SOL    HW119886   2.025   0.962  12.223  2.6952 -0.1533 -0.8928
 2750SOL    HW219887   2.059   0.834  12.166  0.9676 -1.1765  1.7138
 2751SOL     OW19888   4.500   3.846   0.041 -0.4233 -0.2299  0.3751
 2751SOL    HW119889   4.455   3.767   0.013 -1.4238  0.6927 -0.6440
 2751SOL    HW219890   4.581   3.858  17.736 -0.4792 -3.0115 -0.3503
 2752SOL     OW19891   3.946   4.598   6.260  0.2547  0.1746  0.3492
 2752SOL    HW119892   3.871   4.636   6.306 -0.4993 -0.2384 -0.5403
 2752SOL    HW219893   3.990   4.533   6.314  2.0008  2.4608  1.6691
 2753SOL     OW19894   0.812   0.906   9.405  0.3579 -0.2303  0.6267
 2753SOL    HW119895   0.819   0.998   9.379  0.5609 -0.3098  0.4156
 2753SOL    HW219896   0.851   0.865   9.328 -0.4948  0.1865 -0.0281
 2754SOL     OW19897   3.034   1.869   5.760 -0.0524 -0.1858  0.0991
 2754SOL    HW119898   2.991   1.820   5.690 -0.9375  1.3433 -0.4146
 2754SOL    HW219899   3.050   1.952   5.717 -3.9558  0.5700  0.1158
 2755SOL     OW19900   4.308   2.254   6.330  0.0182  0.2302 -0.2037
 2755SOL    HW119901   4.389   2.264   6.379 -0.8281 -0.0421  1.2554
 2755SOL    HW219902   4.263   2.336   6.349 -0.5041 -0.4244  1.3677
 2756SOL     OW19903   0.400   2.095   3.698 -0.0546 -0.2440  0.5255
 2756SOL    HW119904   0.333   2.051   3.751 -1.4824  0.5579 -0.6296
 2756SOL    HW219905   0.334   2.142   3.646  0.4352 -1.2857 -1.0243
 2757SOL     OW19906   1.246   0.005   5.647 -0.0654  0.1834 -0.0608
 2757SOL    HW119907   1.236   0.082   5.703  0.2379 -0.1608  0.4703
 2757SOL    HW219908   1.160   4.700   5.645 -0.7335  1.7761 -3.7347
 2758SOL     OW19909   1.718   4.454  11.140 -0.8482  0.0434  0.5258
 2758SOL    HW119910   1.700   4.544  11.113  3.1043  0.4120 -0.8945
 2758SOL    HW219911   1.685   4.405  11.065  1.8685  0.8360 -1.1845
 2759SOL     OW19912   0.953   1.831   6.600 -0.3669  0.4628  0.4231
 2759SOL    HW119913   0.898   1.755   6.579  2.5627 -1.2874 -0.9101
 2759SOL    HW219914   1.034   1.784   6.619  1.6469  3.8118  0.0067
 2760SOL     OW19915   3.206   2.569   4.183  0.0086  0.1648 -0.0250
 2760SOL    HW119916   3.112   2.554   4.176  0.0319 -1.5499  3.0677
 2760SOL    HW219917   3.205   2.661   4.208 -1.7320  0.3104 -0.6967
 2761SOL     OW19918   1.288   4.615   3.627 -0.4166  0.1362  0.1512
 2761SOL    HW119919   1.380   4.618   3.652 -0.5498 -0.4862  0.7231
 2761SOL    HW219920   1.256   4.541   3.679  2.7780 -1.4928 -0.1715
 2762SOL     OW19921   0.188   3.770   8.806 -0.1687  0.1651  0.4689
 2762SOL    HW119922   0.231   3.837   8.753 -1.7108  0.2993 -0.6093
 2762SOL    HW219923   0.248   3.772   8.880 -0.3909  0.1576  0.6491
 2763SOL     OW19924   3.521   2.480   2.643  0.6512  0.4137 -0.0251
 2763SOL    HW119925   3.593   2.535   2.611 -0.4255  0.5336 -2.2790
 2763SOL    HW219926   3.467   2.481   2.563 -0.0856  1.0603  0.4791
 2764SOL     OW19927   3.278   4.252  13.284  0.1927 -0.3537 -0.3640
 2764SOL    HW119928   3.340   4.199  13.334 -0.5900  0.7234  1.7197
 2764SOL    HW219929   3.293   4.213  13.198 -0.0912 -1.4911  0.1002
 2765SOL     OW19930   4.280   4.411  16.077 -0.3374  0.2298 -0.0578
 2765SOL    HW119931   4.268   4.366  16.161 -2.4797  1.9167  0.5536
 2765SOL    HW219932   4.242   4.347  16.017 -0.6396 -0.9456  1.3633
 2766SOL     OW19933   3.600   4.389   4.466  0.4206 -0.0523  0.6218
 2766SOL    HW119934   3.549   4.447   4.522 -0.8186 -0.9445  0.4238
 2766SOL    HW219935   3.534   4.357   4.404 -0.0631  0.4493  0.8840
 2767SOL     OW19936   4.556   3.828   8.503 -0.2165  0.5867 -0.1965
 2767SOL    HW119937   4.649   3.849   8.493 -0.1165  0.3380  0.2119
 2767SOL    HW219938   4.527   3.895   8.565  0.1568 -0.0515  0.6761
 2768SOL     OW19939   3.514   1.937   9.406 -0.5618 -0.0898 -0.6785
 2768SOL    HW119940   3.484   2.022   9.374 -1.1639 -0.3539 -0.8111
 2768SOL    HW219941   3.496   1.942   9.500 -2.3933  1.0059 -1.0951
 2769SOL     OW19942   4.009   1.157   4.091  0.7622  0.5348 -0.6883
 2769SOL    HW119943   4.102   1.174   4.104  0.1426  2.5467  0.9113
 2769SOL    HW219944   3.956   1.216   4.144 -0.0104 -0.1688 -0.6694
 2770SOL     OW19945   1.593   2.704  13.013  0.2395  0.0027  0.0111
 2770SOL    HW119946   1.505   2.669  13.026  0.1909  0.3102  0.5061
 2770SOL    HW219947   1.597   2.773  13.079 -2.3353 -0.0206  0.1678
 2771SOL     OW19948   3.930   1.446  16.566 -0.6260 -0.4854  0.2635
 2771SOL    HW119949   3.871   1.383  16.608 -1.8005  1.2301  1.1590
 2771SOL    HW219950   3.904   1.454  16.474  0.7748  2.9348  0.1938
 2772SOL     OW19951   3.828   1.957   7.389 -0.4796 -0.7108 -0.3087
 2772SOL    HW119952   3.810   1.866   7.365 -0.3565 -0.7891 -0.1037
 2772SOL    HW219953   3.923   1.955   7.401 -0.2374  1.6951 -1.7554
 2773SOL     OW19954   1.767   2.683   7.329  0.1570 -1.0879  0.4994
 2773SOL    HW119955   1.758   2.759   7.386 -1.1008 -0.4380 -0.5462
 2773SOL    HW219956   1.843   2.647   7.373  0.8315  0.1019  0.3028
 2774SOL     OW19957   0.225   4.328   9.119 -0.0521  0.0565  0.0221
 2774SOL    HW119958   0.186   4.405   9.078  2.4275  1.6831  0.6449
 2774SOL    HW219959   0.316   4.343   9.091 -0.0436  0.1129  0.0775
 2775SOL     OW19960   3.147   3.267   4.524 -0.4608 -0.1369 -0.3419
 2775SOL    HW119961   3.179   3.184   4.561  1.6790  1.4016  1.3065
 2775SOL    HW219962   3.066   3.274   4.573  0.0329 -0.4427  0.5157
 2776SOL     OW19963   2.174   4.230   7.330  0.2113  0.4438  0.0600
 2776SOL    HW119964   2.229   4.304   7.356  1.4886  0.6898 -3.2810
 2776SOL    HW219965   2.235   4.193   7.266  0.1632  0.1537  0.1855
 2777SOL     OW19966   0.747   4.229   3.555 -0.0620 -0.2932  0.0975
 2777SOL    HW119967   0.745   4.149   3.608  0.2818  0.8385  1.7959
 2777SOL    HW219968   0.732   4.196   3.466  0.3128  1.7294 -0.7166
 2778SOL     OW19969   1.628   3.513  12.428  0.4810 -0.2227  0.8514
 2778SOL    HW119970   1.653   3.594  12.474  1.9942 -0.3421  0.2016
 2778SOL    HW219971   1.642   3.546  12.340 -0.2734 -1.6455  0.2104
 2779SOL     OW19972   3.362   0.653   6.252 -0.4406  0.0411 -0.1048
 2779SOL    HW119973   3.429   0.594   6.286 -1.7311 -0.7213  1.1624
 2779SOL    HW219974   3.305   0.584   6.217 -0.9908  0.2160  0.4583
 2780SOL     OW19975   4.478   0.218  13.636 -0.0115  0.3323 -0.1757
 2780SOL    HW119976   4.540   0.149  13.610  0.6436  0.0730  2.0358
 2780SOL    HW219977   4.405   0.174  13.592  2.1350 -1.4323 -2.0054
 2781SOL     OW19978   3.336   1.135   6.652 -0.0539  0.0312 -0.1907
 2781SOL    HW119979   3.316   1.048   6.618 -1.2638  0.8405 -1.5722
 2781SOL    HW219980   3.313   1.129   6.744  2.0937  0.9130  0.4014
 2782SOL     OW19981   3.693   2.593   1.425  0.4520  0.2219  0.4139
 2782SOL    HW119982   3.746   2.569   1.501 -1.5275  0.4178  1.8520
 2782SOL    HW219983   3.655   2.674   1.459 -0.5412 -0.7822  1.6960
 2783SOL     OW19984   1.482   3.579   2.401 -0.0809  0.1670 -0.0358
 2783SOL    HW119985   1.507   3.543   2.316 -2.8650 -2.3564  0.2274
 2783SOL    HW219986   1.566   3.602   2.442 -0.1432 -0.4187  0.4203
 2784SOL     OW19987   4.110   2.041   5.161  0.2707  0.1728 -0.4763
 2784SOL    HW119988   4.079   2.097   5.090 -1.1166  0.9425  0.7414
 2784SOL    HW219989   4.130   1.967   5.104 -3.5389 -2.0479  1.0837
 2785SOL     OW19990   0.446   0.984  16.833 -0.1775 -0.2870 -0.2433
 2785SOL    HW119991   0.532   0.947  16.852  0.5465  1.4973 -0.0699
 2785SOL    HW219992   0.464   1.077  16.825 -1.0579 -0.0192  0.9244
 2786SOL     OW19993   3.711   3.426   8.920 -0.0520  0.4931 -0.1034
 2786SOL    HW119994   3.708   3.408   9.014 -0.5129 -0.6030 -0.3305
 2786SOL    HW219995   3.802   3.442   8.894 -0.4161 -1.8018 -2.8239
 2787SOL     OW19996   0.311   4.501   3.561  0.1383  0.1271  0.0719
 2787SOL    HW119997   0.362   4.567   3.514  1.8565 -1.1479  0.1480
 2787SOL    HW219998   0.371   4.427   3.558  2.2193  1.8705 -0.8355
 2788SOL     OW19999   3.072   0.699   6.537 -0.0510  0.0354  0.8558
 2788SOL    HW120000   3.131   0.758   6.583 -1.7079  1.8773  0.6507
 2788SOL    HW220001   3.094   0.709   6.444 -0.1325  0.2792  0.8599
 2789SOL     OW20002   1.874   4.110   5.866  0.5000  0.1231  0.4217
 2789SOL    HW120003   1.924   4.045   5.816  2.7024  2.2129 -0.1144
 2789SOL    HW220004   1.877   4.190   5.814 -3.1494 -0.1371 -0.1792
 2790SOL     OW20005   3.913   2.475  14.283  1.0344  0.0230 -1.6676
 2790SOL    HW120006   3.989   2.451  14.229  0.3870 -1.9600 -1.7103
 2790SOL    HW220007   3.878   2.542  14.224 -0.9285  1.2193  0.8712
 2791SOL     OW20008   3.650   2.113   8.321 -0.0516 -0.0143  0.7602
 2791SOL    HW120009   3.611   2.052   8.259  1.4857 -0.3198  0.1001
 2791SOL    HW220010   3.738   2.125   8.287 -0.1706  1.0826  0.8172
 2792SOL     OW20011   2.602   3.052   5.765 -0.3938  0.0780 -0.1916
 2792SOL    HW120012   2.661   3.016   5.699 -1.4696 -0.9006 -0.6159
 2792SOL    HW220013   2.655   3.048   5.845  1.3911  0.3836 -1.3748
 2793SOL     OW20014   2.356   0.907   3.480  0.4663  0.4730  0.3943
 2793SOL    HW120015   2.424   0.841   3.487  1.1946  1.3400  1.5415
 2793SOL    HW220016   2.326   0.891   3.390 -0.6352  0.6849  0.7177
 2794SOL     OW20017   1.281   1.413   7.328 -0.3065 -0.4090 -0.0924
 2794SOL    HW120018   1.363   1.463   7.321  0.0156 -1.0108 -0.6417
 2794SOL    HW220019   1.218   1.471   7.370  0.9479  0.8117  0.1186
 2795SOL     OW20020   1.586   1.285   9.819 -0.3375 -0.0764 -0.4914
 2795SOL    HW120021   1.671   1.328   9.822 -0.5480  0.2593  0.8786
 2795SOL    HW220022   1.584   1.236   9.901  0.7477 -0.8561 -0.9387
 2796SOL     OW20023   2.896   0.549  10.221 -0.2154 -1.0142 -0.2151
 2796SOL    HW120024   2.880   0.580  10.310  0.2878 -0.3458 -0.3540
 2796SOL    HW220025   2.985   0.516  10.229 -0.4082 -2.4601 -4.0532
 2797SOL     OW20026   0.008   1.667  12.538  0.6926 -0.1845  0.3143
 2797SOL    HW120027   4.723   1.702  12.624 -0.1099  0.0046  0.0412
 2797SOL    HW220028   0.009   1.748  12.486 -1.5815 -0.6406 -0.4563
 2798SOL     OW20029   3.421   2.476   8.752  0.5092  0.1946  0.5125
 2798SOL    HW120030   3.408   2.450   8.661  2.9934  1.4461 -0.1941
 2798SOL    HW220031   3.437   2.394   8.799 -3.0087 -1.0681 -0.4732
 2799SOL     OW20032   2.433   3.506   8.838 -0.5538  0.2915  0.5920
 2799SOL    HW120033   2.505   3.520   8.776 -2.9177 -0.4588 -2.3141
 2799SOL    HW220034   2.399   3.595   8.844  0.0012  0.5162  0.4083
 2800SOL     OW20035   1.205   4.700   9.884  0.0755 -0.1417 -0.1066
 2800SOL    HW120036   1.207   0.059   9.886  0.7898 -0.1243 -1.9092
 2800SOL    HW220037   1.238   4.682   9.972  1.6914  1.6504 -0.3588
 2801SOL     OW20038   1.529   1.806   3.248 -0.0976 -0.4498  0.0774
 2801SOL    HW120039   1.567   1.880   3.202 -0.1452 -0.1269  0.5571
 2801SOL    HW220040   1.470   1.859   3.302 -0.2338  0.1937 -0.6973
 2802SOL     OW20041   3.203   1.038  16.389  0.0342  0.7730 -0.2245
 2802SOL    HW120042   3.128   1.080  16.348 -0.0742 -2.0267 -2.9532
 2802SOL    HW220043   3.216   0.954  16.344 -0.0912  0.7753 -0.2642
 2803SOL     OW20044   2.398   4.638  14.558 -0.9337 -0.5118 -0.2617
 2803SOL    HW120045   2.430   4.614  14.471 -2.4454  0.4985 -1.0830
 2803SOL    HW220046   2.423   4.559  14.607  0.0835  0.5045  0.8348
 2804SOL     OW20047   3.684   1.582   3.849  0.0375 -0.1741 -0.5196
 2804SOL    HW120048   3.753   1.648   3.845 -0.1481  0.0653  0.2920
 2804SOL    HW220049   3.713   1.536   3.770  3.2064 -0.4909  0.8187
 2805SOL     OW20050   0.817   4.717   7.417  0.4351  0.3321  0.0237
 2805SOL    HW120051   0.872   0.057   7.401  0.1476  0.1902 -1.6636
 2805SOL    HW220052   0.753   0.001   7.484  0.1323  0.8557 -0.4330
 2806SOL     OW20053   4.663   1.310   6.890  0.6714 -0.2053 -0.3692
 2806SOL    HW120054   4.642   1.333   6.981  0.5326 -0.1432 -0.4185
 2806SOL    HW220055   4.586   1.273   6.847  0.6476  0.0653 -0.5545
 2807SOL     OW20056   3.463   1.976  15.315 -0.4934 -0.8102  0.1114
 2807SOL    HW120057   3.483   1.956  15.224 -2.4700  1.0566 -0.7398
 2807SOL    HW220058   3.544   2.017  15.344  0.9239 -1.0298 -3.6433
 2808SOL     OW20059   4.546   1.500   1.548 -0.4760  0.2154  0.5334
 2808SOL    HW120060   4.624   1.554   1.547  0.5874 -1.3378 -1.0254
 2808SOL    HW220061   4.563   1.459   1.633  0.7889 -0.3966 -0.0083
 2809SOL     OW20062   3.428   4.095   7.716  0.2185 -0.8086 -0.3823
 2809SOL    HW120063   3.517   4.125   7.735 -0.6180  2.2407 -1.2517
 2809SOL    HW220064   3.391   4.132   7.796  1.6117  0.2807 -0.2229
 2810SOL     OW20065   4.369   4.715  16.577  0.3358  0.6612 -0.3354
 2810SOL    HW120066   4.384   0.042  16.648 -0.2979 -0.7726  1.0849
 2810SOL    HW220067   4.387   4.631  16.619  2.3885  1.6349  0.7465
 2811SOL     OW20068   0.186   3.589  11.864 -0.0482 -0.1662  0.1545
 2811SOL    HW120069   0.190   3.544  11.948 -0.7390 -0.8314 -0.1687
 2811SOL    HW220070   0.093   3.576  11.845 -0.3174 -2.3120  3.0075
 2812SOL     OW20071   1.613   2.897   8.487  0.1206 -0.1316  0.5856
 2812SOL    HW120072   1.665   2.838   8.432 -3.0415 -0.7484 -1.7604
 2812SOL    HW220073   1.540   2.836   8.498  0.8403 -1.3388 -1.2481
 2813SOL     OW20074   3.763   2.952  17.694 -0.0836 -0.0206 -0.5810
 2813SOL    HW120075   3.738   2.861  17.707  0.7087 -0.5444 -2.7603
 2813SOL    HW220076   3.731   2.957  17.604 -0.7580 -0.6631 -0.3768
 2814SOL     OW20077   1.340   3.748   6.094  0.2040  0.0660 -0.9343
 2814SOL    HW120078   1.249   3.720   6.100  0.2565 -0.0166 -0.5036
 2814SOL    HW220079   1.337   3.796   6.011 -2.0709  0.0546 -0.8396
 2815SOL     OW20080   0.927   1.354   9.696 -0.1968  0.0158  0.4039
 2815SOL    HW120081   0.870   1.306   9.755 -0.3982 -1.0372 -0.6500
 2815SOL    HW220082   0.987   1.286   9.667 -0.5992  0.0716 -0.5844
 2816SOL     OW20083   4.417   3.083   5.410  0.3672 -0.1343  0.5986
 2816SOL    HW120084   4.416   3.161   5.465  2.0323  0.0919  0.3128
 2816SOL    HW220085   4.388   3.015   5.470 -0.9362 -1.1738 -1.1935
 2817SOL     OW20086   2.110   3.471   6.319  0.4364  0.3696 -0.1993
 2817SOL    HW120087   2.198   3.447   6.350 -0.6029 -1.5582  1.2613
 2817SOL    HW220088   2.073   3.499   6.403  0.9479  2.3236 -0.6326
 2818SOL     OW20089   3.859   0.118   6.320 -0.1733  0.1622 -0.2990
 2818SOL    HW120090   3.802   0.192   6.296 -0.8111 -0.1973  0.1157
 2818SOL    HW220091   3.945   0.137   6.281  0.4575  2.2477  2.1645
 2819SOL     OW20092   1.908   3.175  17.106 -0.4063  0.0188 -0.4358
 2819SOL    HW120093   1.859   3.119  17.166 -1.2599  1.4062  0.1444
 2819SOL    HW220094   1.916   3.254  17.160 -0.1729 -1.7835  2.1731
 2820SOL     OW20095   2.830   1.544  14.759  0.0426 -0.4170 -0.1802
 2820SOL    HW120096   2.921   1.517  14.767 -0.1623 -1.2591 -0.6729
 2820SOL    HW220097   2.829   1.590  14.843  0.1944 -0.3239 -0.2292
 2821SOL     OW20098   2.669   2.367   9.062  0.2461  0.5940 -0.2895
 2821SOL    HW120099   2.763   2.379   9.045 -0.0936  0.1885 -2.5447
 2821SOL    HW220100   2.645   2.460   9.061 -0.6060  0.3643 -0.9317
 2822SOL     OW20101   0.138   3.318   0.689  0.6324 -0.0865 -0.0618
 2822SOL    HW120102   0.188   3.310   0.608  0.9259 -2.5894  0.3751
 2822SOL    HW220103   0.049   3.302   0.659 -0.1431  1.4571  1.4054
 2823SOL     OW20104   1.566   2.347   5.536  0.0107 -0.4686  0.7137
 2823SOL    HW120105   1.602   2.285   5.473 -0.8494 -0.5241  0.2677
 2823SOL    HW220106   1.537   2.421   5.482  1.0174 -0.1539  0.6044
 2824SOL     OW20107   3.435   3.953  15.836 -0.3764  0.0473  0.3855
 2824SOL    HW120108   3.494   3.917  15.901  0.6183 -1.0391 -1.1302
 2824SOL    HW220109   3.384   4.007  15.896  0.3311  1.5560 -0.3495
 2825SOL     OW20110   3.542   3.717   4.488  0.2553  0.2661 -0.1260
 2825SOL    HW120111   3.483   3.789   4.467 -1.3603 -1.1876 -0.5492
 2825SOL    HW220112   3.595   3.709   4.409  1.5632 -2.9791  1.0831
 2826SOL     OW20113   2.364   2.752   2.499 -0.2019 -0.1903 -0.3051
 2826SOL    HW120114   2.398   2.678   2.549 -0.8552  0.1856  0.6842
 2826SOL    HW220115   2.314   2.702   2.434 -0.4239 -0.5341  0.1326
 2827SOL     OW20116   2.385   2.306   5.485  0.5457 -0.3047  0.6374
 2827SOL    HW120117   2.441   2.234   5.514  0.9965 -0.1972  0.0254
 2827SOL    HW220118   2.442   2.358   5.428 -1.7151  2.6594  1.0811
 2828SOL     OW20119   2.873   3.362   1.871  0.1610 -0.3285 -0.5239
 2828SOL    HW120120   2.966   3.342   1.864 -0.0437 -1.2218 -0.7079
 2828SOL    HW220121   2.871   3.440   1.926  0.5150 -1.7131  1.4483
 2829SOL     OW20122   1.102   3.289   4.022 -0.0451 -0.0197 -0.0149
 2829SOL    HW120123   1.109   3.194   4.026 -0.0266  0.0100  0.6115
 2829SOL    HW220124   1.030   3.305   4.082 -0.8540 -3.7249  0.0173
 2830SOL     OW20125   3.297   1.307   0.130 -0.4381  0.4491  0.2243
 2830SOL    HW120126   3.381   1.264   0.142 -0.1002  0.7455 -1.1299
 2830SOL    HW220127   3.242   1.231   0.149 -0.6552  0.6154  0.2629
 2831SOL     OW20128   1.569   2.977   4.943  0.3977 -0.5133  0.2268
 2831SOL    HW120129   1.576   3.034   5.020 -1.2578  0.0779 -0.0830
 2831SOL    HW220130   1.568   3.034   4.866 -0.3961 -1.9764 -0.8412
 2832SOL     OW20131   3.410   3.191   3.815 -0.0306 -0.3630 -1.1283
 2832SOL    HW120132   3.338   3.141   3.775 -0.0371 -2.5635  1.6831
 2832SOL    HW220133   3.457   3.231   3.742 -0.6497  0.0131 -1.3220
 2833SOL     OW20134   2.539   0.914   7.386 -0.4748 -0.1458 -0.3974
 2833SOL    HW120135   2.614   0.965   7.356  0.8150 -2.3278 -0.9247
 2833SOL    HW220136   2.467   0.975   7.374  0.1817  0.5580 -0.7414
 2834SOL     OW20137   0.215   3.838   6.483  0.1857 -0.4353  0.1854
 2834SOL    HW120138   0.151   3.795   6.540  1.3495 -2.3730  0.0168
 2834SOL    HW220139   0.198   3.800   6.397  0.6306 -2.7523  1.1181
 2835SOL     OW20140   4.561   2.933   8.226 -0.1202  0.7002  0.2002
 2835SOL    HW120141   4.596   2.845   8.213 -0.1799  0.5335  1.1222
 2835SOL    HW220142   4.538   2.913   8.317 -0.7405  2.1728  0.3675
 2836SOL     OW20143   0.284   1.001  14.473 -0.1886 -0.1136  0.5210
 2836SOL    HW120144   0.344   1.010  14.546  1.2328  1.4553 -0.8231
 2836SOL    HW220145   0.305   1.089  14.441 -1.9733  0.3873  0.7280
 2837SOL     OW20146   1.494   0.455   2.047  0.0960 -0.0887  0.0053
 2837SOL    HW120147   1.562   0.501   1.998 -0.5515 -1.1575 -1.9224
 2837SOL    HW220148   1.517   0.363   2.031  0.9737  0.0533  0.4654
 2838SOL     OW20149   1.629   1.687   3.990 -0.0467 -0.4581  0.4016
 2838SOL    HW120150   1.590   1.667   3.905 -0.0142 -1.4924  0.6307
 2838SOL    HW220151   1.669   1.607   4.022 -1.5293 -0.1151  3.1330
 2839SOL     OW20152   2.016   1.663  10.197  0.2447  0.3109 -0.0833
 2839SOL    HW120153   2.100   1.654  10.241  0.4338 -1.0324 -0.7523
 2839SOL    HW220154   1.957   1.610  10.252 -2.2699  2.1596 -0.9776
 2840SOL     OW20155   1.711   3.011  10.679 -0.5949 -0.1292  0.3474
 2840SOL    HW120156   1.677   3.028  10.767  2.6090  1.8756  1.2021
 2840SOL    HW220157   1.764   3.088  10.660 -1.0175  0.3622  1.1778
 2841SOL     OW20158   3.229   0.146  17.200  0.3652  0.0266 -0.1070
 2841SOL    HW120159   3.148   0.194  17.183 -0.3466 -0.7480  1.1025
 2841SOL    HW220160   3.217   0.064  17.152  0.5118  0.8176 -1.4998
 2842SOL     OW20161   2.714   0.418   5.650 -0.0801  0.2458  0.1152
 2842SOL    HW120162   2.754   0.454   5.570  0.0850  0.9219  0.5069
 2842SOL    HW220163   2.638   0.475   5.660 -1.1628 -0.8961 -1.5404
 2843SOL     OW20164   3.078   2.455   2.518  0.7337  0.3309 -0.0043
 2843SOL    HW120165   3.035   2.423   2.439 -0.1541 -1.6909  1.2947
 2843SOL    HW220166   3.050   2.546   2.531 -0.7075  0.1232 -1.7765
 2844SOL     OW20167   4.485   0.143  14.488 -0.0670  0.8576  0.2922
 2844SOL    HW120168   4.577   0.161  14.505  0.5974 -1.6949 -0.7402
 2844SOL    HW220169   4.490   0.105  14.401 -1.1760 -2.2853  1.5899
 2845SOL     OW20170   2.770   3.356  12.122 -0.2133 -0.1195 -0.6784
 2845SOL    HW120171   2.817   3.417  12.066  1.3879 -0.9383 -0.2395
 2845SOL    HW220172   2.714   3.301  12.066  0.1969 -0.1750 -1.0386
 2846SOL     OW20173   4.015   2.928   6.841 -0.3012 -0.5172 -0.1914
 2846SOL    HW120174   3.991   3.006   6.791 -2.1272 -1.4062 -0.7120
 2846SOL    HW220175   4.089   2.901   6.787  1.0661  0.9108  1.0055
 2847SOL     OW20176   4.246   4.674   3.261  0.0819 -0.4202  0.4251
 2847SOL    HW120177   4.322   4.731   3.277  0.1444  0.0116 -1.3392
 2847SOL    HW220178   4.176   0.002   3.255 -0.6433 -1.4868 -2.6377
 2848SOL     OW20179   1.425   2.739   0.437  0.0588  0.5365 -0.5186
 2848SOL    HW120180   1.403   2.685   0.512 -0.0772 -0.7524 -1.4930
 2848SOL    HW220181   1.406   2.674   0.369  0.2669 -0.4433  0.3709
 2849SOL     OW20182   3.291   2.720   2.756  0.5179 -0.2296 -0.1140
 2849SOL    HW120183   3.295   2.796   2.814  1.3002 -0.4843  0.1700
 2849SOL    HW220184   3.383   2.696   2.748 -0.1640 -3.4815  2.0053
 2850SOL     OW20185   4.516   4.330   3.356  0.0894 -0.4152 -0.2787
 2850SOL    HW120186   4.556   4.416   3.369 -0.1708 -0.2703 -0.4283
 2850SOL    HW220187   4.477   4.316   3.442 -0.1723 -1.3245 -0.5446
 2851SOL     OW20188   2.743   2.588   5.782  0.1991 -0.3503 -0.5131
 2851SOL    HW120189   2.754   2.502   5.822 -1.2432 -0.8310 -1.1478
 2851SOL    HW220190   2.828   2.629   5.798  0.4967 -0.8268 -0.8616
 2852SOL     OW20191   0.078   4.663   2.468 -0.4506 -0.0719  0.2036
 2852SOL    HW120192   0.039   4.719   2.401  0.2289 -1.5562 -1.4438
 2852SOL    HW220193   0.136   4.729   2.506 -0.4143  0.7928 -1.3691
 2853SOL     OW20194   2.121   0.766   1.187  0.2739  0.2382  0.1224
 2853SOL    HW120195   2.127   0.719   1.104  2.6634  1.7462 -0.5519
 2853SOL    HW220196   2.209   0.753   1.223  0.0338 -1.4718  0.0867
 2854SOL     OW20197   4.636   3.851   7.184 -0.5915 -0.0431 -0.5299
 2854SOL    HW120198   4.621   3.757   7.189 -1.3757 -0.0119 -2.1136
 2854SOL    HW220199   4.647   3.850   7.088  1.6580  1.8802 -0.3234
 2855SOL     OW20200   4.236   4.462   6.389  0.2049 -0.3774 -0.7544
 2855SOL    HW120201   4.237   4.551   6.425  0.4487 -0.2379 -1.1076
 2855SOL    HW220202   4.147   4.437   6.412  0.6546 -1.8123 -0.6155
 2856SOL     OW20203   0.211   3.508   0.882 -0.5308  0.3247 -0.4274
 2856SOL    HW120204   0.136   3.471   0.929 -0.7063 -0.9831 -1.7758
 2856SOL    HW220205   0.195   3.458   0.802  1.5101 -0.8664 -0.0862
 2857SOL     OW20206   4.363   1.083   9.586 -0.1019 -0.1414 -0.1912
 2857SOL    HW120207   4.338   1.169   9.551  4.2800  0.1682 -2.6090
 2857SOL    HW220208   4.283   1.034   9.570  0.4915 -1.0384 -0.4071
 2858SOL     OW20209   3.118   2.186   5.999 -0.4247  0.2092  0.7134
 2858SOL    HW120210   3.164   2.200   5.916 -1.6816 -0.5786 -0.1122
 2858SOL    HW220211   3.189   2.211   6.059  0.4121 -0.3409 -0.0318
 2859SOL     OW20212   3.426   1.132  10.193  0.3126  0.2772 -0.4128
 2859SOL    HW120213   3.418   1.057  10.252  2.1429 -0.2059 -0.7825
 2859SOL    HW220214   3.496   1.106  10.133  2.1036  2.1071  0.8982
 2860SOL     OW20215   0.478   2.196   4.225  0.3703  0.5092 -0.0699
 2860SOL    HW120216   0.491   2.204   4.320 -0.3931 -0.7410  0.1455
 2860SOL    HW220217   0.383   2.191   4.216  0.3639  2.4635 -1.2100
 2861SOL     OW20218   2.322   3.576   9.942  0.0814 -0.1971  0.0056
 2861SOL    HW120219   2.288   3.514  10.006 -2.4764 -1.1547 -2.2421
 2861SOL    HW220220   2.247   3.636   9.936 -2.0466 -2.7964  0.4762
 2862SOL     OW20221   2.694   1.029   6.353 -0.6205 -0.0382  0.2174
 2862SOL    HW120222   2.607   1.068   6.360  0.3028  2.1697 -0.5846
 2862SOL    HW220223   2.691   0.960   6.420  0.2991  2.1930  2.5737
 2863SOL     OW20224   2.678   4.649  11.469  0.6629  0.4041  0.4101
 2863SOL    HW120225   2.740   4.658  11.397  4.7184 -1.7427  3.6482
 2863SOL    HW220226   2.663   0.007  11.475 -0.7914  0.3749 -2.5680
 2864SOL     OW20227   0.943   1.639  11.864 -0.2087 -0.4045 -0.4805
 2864SOL    HW120228   1.024   1.668  11.823  0.1804  0.2549  0.7567
 2864SOL    HW220229   0.956   1.695  11.940  0.2011 -0.4750 -0.4994
 2865SOL     OW20230   3.580   2.116   3.080  0.5974 -0.1704 -0.2770
 2865SOL    HW120231   3.549   2.153   3.163 -0.2642  0.1778 -0.7449
 2865SOL    HW220232   3.542   2.174   3.014 -0.8031  0.2762  0.9276
 2866SOL     OW20233   1.817   4.554   6.180 -0.4482  0.5411  0.0657
 2866SOL    HW120234   1.857   4.537   6.266  2.4127  1.6725 -1.0413
 2866SOL    HW220235   1.725   4.545   6.204  0.0777 -0.5644  1.6651
 2867SOL     OW20236   1.086   2.545  11.830 -0.0703 -0.2915 -0.2169
 2867SOL    HW120237   1.040   2.507  11.755 -0.7640 -1.4818  0.7948
 2867SOL    HW220238   1.098   2.636  11.805 -0.8128 -0.5198 -1.3725
 2868SOL     OW20239   0.343   0.593   2.637  0.2577 -1.2217  0.8907
 2868SOL    HW120240   0.331   0.538   2.715 -2.4550  0.6463  1.7771
 2868SOL    HW220241   0.284   0.668   2.634 -0.6998 -1.9938  0.4254
 2869SOL     OW20242   2.262   2.316   6.744  0.4020 -0.2505 -0.1156
 2869SOL    HW120243   2.303   2.242   6.790  2.2435  1.6687  1.3630
 2869SOL    HW220244   2.320   2.330   6.670  0.3592 -1.6928 -0.4327
 2870SOL     OW20245   2.518   1.049   4.863 -0.6188  0.3570 -0.2643
 2870SOL    HW120246   2.575   1.091   4.798 -0.3211 -0.2117 -0.3712
 2870SOL    HW220247   2.433   1.070   4.824 -1.0643 -0.3728  0.3279
 2871SOL     OW20248   0.520   2.334   0.055  0.8236 -0.2470 -0.0447
 2871SOL    HW120249   0.505   2.411   0.001  1.3549  0.2565  0.5176
 2871SOL    HW220250   0.583   2.369   0.119 -0.5008  1.7815  0.1403
 2872SOL     OW20251   0.104   1.321   7.456  0.1437  0.0713  0.2377
 2872SOL    HW120252   0.016   1.357   7.442 -1.2656 -3.1151  0.9270
 2872SOL    HW220253   0.141   1.384   7.518  2.8275 -0.9539 -0.3154
 2873SOL     OW20254   4.638   4.074   6.667 -0.5424 -0.1612  0.1003
 2873SOL    HW120255   4.703   4.140   6.690 -0.5445  0.0771 -0.5842
 2873SOL    HW220256   4.624   4.101   6.576 -1.1975 -0.9319 -0.0312
 2874SOL     OW20257   0.795   3.251  15.422 -1.1052 -0.2181 -0.4860
 2874SOL    HW120258   0.825   3.292  15.341  2.3974  1.0046  1.4932
 2874SOL    HW220259   0.871   3.194  15.427 -2.5868 -2.1266  0.3489
 2875SOL     OW20260   3.971   1.147   7.292 -0.1827  0.2128  0.1379
 2875SOL    HW120261   4.022   1.202   7.232 -0.1618 -1.3743 -1.2860
 2875SOL    HW220262   3.916   1.214   7.333 -1.6038 -2.0474  1.9497
 2876SOL     OW20263   4.535   3.348   0.171  0.5546  0.5664 -0.7042
 2876SOL    HW120264   4.598   3.413   0.139  2.8090 -0.6322  1.3465
 2876SOL    HW220265   4.468   3.402   0.214  0.2257 -1.0040  0.7251
 2877SOL     OW20266   3.940   4.104   6.139 -0.1973  0.1744 -0.1032
 2877SOL    HW120267   4.025   4.080   6.177  1.0906 -0.6438 -3.5184
 2877SOL    HW220268   3.895   4.133   6.218 -1.2342  1.0455 -1.0165
 2878SOL     OW20269   3.456   1.286   5.838 -0.0083 -0.6778 -0.2670
 2878SOL    HW120270   3.521   1.355   5.821 -0.4600 -0.7958 -2.4524
 2878SOL    HW220271   3.447   1.274   5.933  0.2724 -0.0624 -0.1578
 2879SOL     OW20272   3.386   4.138   1.933 -0.0296 -0.2070  0.0989
 2879SOL    HW120273   3.375   4.213   1.991  0.9061 -0.5585  0.7260
 2879SOL    HW220274   3.476   4.112   1.952 -0.1201  0.0008  0.8120
 2880SOL     OW20275   1.678   1.798  16.639  0.4050  0.1721  0.1269
 2880SOL    HW120276   1.749   1.758  16.590 -0.8908 -0.1134 -1.5138
 2880SOL    HW220277   1.607   1.735  16.625 -0.3266  1.0109  0.0251
 2881SOL     OW20278   3.531   1.702   2.763 -0.6516  0.1393  0.0596
 2881SOL    HW120279   3.536   1.716   2.669 -1.0459 -0.8952 -0.1134
 2881SOL    HW220280   3.464   1.762   2.795  0.6021  1.0344  1.0414
 2882SOL     OW20281   3.623   0.758   2.683  0.3480 -0.4823 -0.4099
 2882SOL    HW120282   3.614   0.668   2.653 -1.4523 -0.4422  0.0381
 2882SOL    HW220283   3.654   0.794   2.600 -0.7310  1.7780  0.1700
 2883SOL     OW20284   0.046   0.736   7.047 -0.4146  0.6975 -0.3073
 2883SOL    HW120285   4.728   0.724   7.125  1.4634  0.7487  1.0272
 2883SOL    HW220286   0.021   0.654   7.003 -0.6486  1.7877 -2.1922
 2884SOL     OW20287   0.913   1.674   4.772 -0.6684  0.3461  0.3389
 2884SOL    HW120288   0.999   1.710   4.749 -0.7321 -0.8603 -1.7848
 2884SOL    HW220289   0.855   1.742   4.739  2.1844  1.7411 -1.8286
 2885SOL     OW20290   2.870   2.160   8.105  0.0026 -0.4032  0.1959
 2885SOL    HW120291   2.950   2.106   8.107 -0.1983 -0.6238  2.1113
 2885SOL    HW220292   2.811   2.088   8.082 -0.5923  0.3360 -0.5383
 2886SOL     OW20293   1.659   2.985   9.039 -0.9329 -0.0029  0.0058
 2886SOL    HW120294   1.622   2.987   9.127 -0.1066  1.3502  0.3240
 2886SOL    HW220295   1.752   2.975   9.060 -0.5253 -0.6943 -2.1499
 2887SOL     OW20296   0.063   3.254  10.877 -0.4008  0.2622  0.2520
 2887SOL    HW120297   0.002   3.288  10.943 -0.8994  1.6538 -0.9284
 2887SOL    HW220298   0.079   3.340  10.840  0.3310 -0.6910 -1.6452
 2888SOL     OW20299   3.211   4.445   2.476 -0.7742 -0.0985  0.5234
 2888SOL    HW120300   3.284   4.456   2.416 -2.1793  0.0527 -1.1463
 2888SOL    HW220301   3.141   4.425   2.414  0.6358 -1.6900 -0.5375
 2889SOL     OW20302   3.713   0.867   2.447 -0.4630 -0.1591 -0.0919
 2889SOL    HW120303   3.631   0.873   2.399 -0.2063 -0.4111 -0.5615
 2889SOL    HW220304   3.772   0.934   2.413  2.3912 -1.6574  1.8630
 2890SOL     OW20305   2.511   0.196   6.642  0.0943 -0.3358 -0.4645
 2890SOL    HW120306   2.508   0.142   6.563  0.7598  1.9514 -2.0580
 2890SOL    HW220307   2.421   0.220   6.661 -0.2552  0.5842 -3.3707
 2891SOL     OW20308   2.261   3.078   2.789 -0.7006  0.3086 -0.0430
 2891SOL    HW120309   2.322   3.044   2.723 -0.9393 -0.4624  0.1334
 2891SOL    HW220310   2.275   3.172   2.773 -1.9533  0.9207  2.4236
 2892SOL     OW20311   2.592   1.729  11.900 -0.6093 -0.2501  0.3222
 2892SOL    HW120312   2.656   1.792  11.931  0.0609 -0.0349 -1.5141
 2892SOL    HW220313   2.631   1.695  11.819 -0.1208 -0.7040  0.7548
 2893SOL     OW20314   1.225   1.647   5.895  0.2846  0.7806  0.0879
 2893SOL    HW120315   1.198   1.626   5.984 -0.4882  1.3471 -0.0098
 2893SOL    HW220316   1.135   1.667   5.869 -0.4556 -0.6521  1.5521
 2894SOL     OW20317   2.229   4.058   7.752 -0.5746  0.5139  0.8109
 2894SOL    HW120318   2.262   3.969   7.739 -0.5522  0.9407 -2.1087
 2894SOL    HW220319   2.236   4.073   7.846  1.3803 -0.2649  0.7941
 2895SOL     OW20320   1.208   1.206  12.960 -0.5262 -0.2047 -0.3133
 2895SOL    HW120321   1.148   1.268  13.002 -0.4774 -0.6381  0.4027
 2895SOL    HW220322   1.226   1.150  13.036  0.6882 -0.3917 -0.7362
 2896SOL     OW20323   1.173   3.888   1.527  0.3268  0.2122  0.0432
 2896SOL    HW120324   1.238   3.818   1.528 -1.3549 -1.3290  3.0011
 2896SOL    HW220325   1.096   3.841   1.493  0.3030  0.1327  0.2014
 2897SOL     OW20326   0.435   3.864   0.662  0.3423 -0.0056 -0.4681
 2897SOL    HW120327   0.385   3.943   0.681 -2.5113 -1.8933 -0.1493
 2897SOL    HW220328   0.523   3.898   0.649  0.6094 -0.0642  1.3001
 2898SOL     OW20329   0.230   2.660   8.106 -0.0803 -0.3043 -0.4576
 2898SOL    HW120330   0.324   2.658   8.122 -0.4093  0.4549  1.5018
 2898SOL    HW220331   0.203   2.579   8.149  0.1172 -0.9672 -1.5849
 2899SOL     OW20332   2.416   2.970  10.067 -0.3216 -0.0512 -0.0432
 2899SOL    HW120333   2.462   2.905  10.014  0.5546 -0.7357  1.5376
 2899SOL    HW220334   2.327   2.936  10.079 -0.0367 -1.2575 -1.3314
 2900SOL     OW20335   3.054   0.478   4.460 -0.6703  0.2879 -0.5015
 2900SOL    HW120336   2.965   0.443   4.458 -0.5207 -0.1632  1.4933
 2900SOL    HW220337   3.029   0.568   4.440  0.0069 -0.0453 -2.9462
 2901SOL     OW20338   3.733   0.097   4.915  0.6731 -0.2472  0.0286
 2901SOL    HW120339   3.774   0.183   4.911  1.2505 -0.6128 -1.6446
 2901SOL    HW220340   3.754   0.078   5.007  3.6967 -3.2971 -1.2508
 2902SOL     OW20341   3.936   2.098   8.280  0.0041  0.3249 -0.1603
 2902SOL    HW120342   3.935   2.121   8.373 -1.6033  2.0653 -0.6228
 2902SOL    HW220343   4.019   2.053   8.264 -0.0102  0.8907 -1.8510
 2903SOL     OW20344   3.981   2.071   3.294  0.1543 -0.1395 -0.1627
 2903SOL    HW120345   3.960   2.163   3.309  0.8488  0.2665 -1.6165
 2903SOL    HW220346   4.039   2.067   3.370  1.2373  1.5519 -0.8960
 2904SOL     OW20347   4.122   2.885   4.284 -0.4895  0.1729 -0.0406
 2904SOL    HW120348   4.031   2.857   4.276 -0.2751 -0.3174 -0.7253
 2904SOL    HW220349   4.162   2.810   4.240 -2.7609 -1.0807  0.0519
 2905SOL     OW20350   1.087   0.465   5.016 -0.3171  0.0386 -0.0540
 2905SOL    HW120351   1.058   0.541   5.066 -1.3795 -0.2952 -0.1641
 2905SOL    HW220352   1.006   0.448   4.969  0.0676 -1.3809 -0.1975
 2906SOL     OW20353   3.776   0.810   7.151 -0.5496 -0.0927  0.3390
 2906SOL    HW120354   3.725   0.730   7.140 -1.7781  0.7739 -0.4281
 2906SOL    HW220355   3.745   0.831   7.239  0.3210  4.8086 -0.5148
 2907SOL     OW20356   1.490   2.775   7.421 -0.3214  0.0153  0.1109
 2907SOL    HW120357   1.509   2.863   7.391 -1.0537  0.4168  0.8023
 2907SOL    HW220358   1.488   2.724   7.340  1.0869  0.1702 -0.0146
 2908SOL     OW20359   2.022   1.100  15.279  0.7081  0.0539 -0.2216
 2908SOL    HW120360   2.110   1.073  15.305 -0.3596 -2.1094  1.2281
 2908SOL    HW220361   2.042   1.183  15.236 -0.8377  0.1735 -0.7119
 2909SOL     OW20362   4.265   0.900  13.677 -0.1112  0.7406 -0.1606
 2909SOL    HW120363   4.327   0.973  13.681  1.6400 -0.8126  1.1087
 2909SOL    HW220364   4.301   0.840  13.611  0.4400 -1.0966  1.8179
 2910SOL     OW20365   2.644   0.180   4.530 -0.1826  0.6096 -0.0422
 2910SOL    HW120366   2.624   0.184   4.624  2.7757 -1.6543  0.6928
 2910SOL    HW220367   2.637   0.088   4.505 -0.2123  0.5612  0.1414
 2911SOL     OW20368   2.713   1.294   4.652  0.2515 -0.0111  0.3503
 2911SOL    HW120369   2.749   1.206   4.666  1.3195  0.2853 -0.5750
 2911SOL    HW220370   2.656   1.277   4.577  0.2054  0.7215  0.2260
 2912SOL     OW20371   1.111   4.255  17.002  0.1152 -0.1884 -0.4089
 2912SOL    HW120372   1.158   4.293  17.076 -0.2104  2.2454 -1.4489
 2912SOL    HW220373   1.048   4.195  17.042 -1.6265  1.4710 -0.6544
 2913SOL     OW20374   4.095   0.829   4.136  0.3343  0.1544  0.3084
 2913SOL    HW120375   4.075   0.757   4.076  1.1372  0.4407 -0.2976
 2913SOL    HW220376   4.169   0.789   4.182  0.9782  0.6741 -0.2969
 2914SOL     OW20377   2.584   3.590   1.876 -0.6787 -0.2553  0.0315
 2914SOL    HW120378   2.663   3.642   1.894 -1.1260  0.6322 -0.5472
 2914SOL    HW220379   2.552   3.637   1.799 -0.9781 -2.6226 -1.2593
 2915SOL     OW20380   4.219   0.768   4.731  0.3814  0.5598  0.4216
 2915SOL    HW120381   4.142   0.821   4.751 -0.8479 -0.1511 -2.5043
 2915SOL    HW220382   4.183   0.721   4.656  1.1640 -1.6162  1.3806
 2916SOL     OW20383   3.852   4.006   7.142 -0.1944 -0.2178 -0.3403
 2916SOL    HW120384   3.768   4.046   7.122 -0.2922 -1.5054 -2.5585
 2916SOL    HW220385   3.844   3.976   7.232  1.3893  0.2467 -0.0488
 2917SOL     OW20386   0.596   0.228  14.180  0.5712 -0.1138  0.2507
 2917SOL    HW120387   0.542   0.230  14.258  0.3829  1.7984  0.0666
 2917SOL    HW220388   0.610   0.133  14.176 -1.8996 -0.5328  2.0528
 2918SOL     OW20389   2.567   3.717   5.282  0.2379  0.2616 -0.0573
 2918SOL    HW120390   2.588   3.802   5.243 -0.6362  0.5702  0.1400
 2918SOL    HW220391   2.586   3.739   5.374 -0.0965  1.3647 -0.2461
 2919SOL     OW20392   3.647   3.116   1.899 -0.1716 -0.4347  0.5198
 2919SOL    HW120393   3.655   3.129   1.804  1.7809 -1.0976  0.6093
 2919SOL    HW220394   3.716   3.054   1.922  1.0884  1.7621  2.6436
 2920SOL     OW20395   1.190   3.193   5.815  0.2987  0.0878 -0.4357
 2920SOL    HW120396   1.137   3.222   5.741  0.0692 -2.0309 -1.0942
 2920SOL    HW220397   1.181   3.099   5.796  2.7132 -0.2231 -0.0200
 2921SOL     OW20398   4.513   0.654  11.988 -0.1772  0.1732  0.8130
 2921SOL    HW120399   4.491   0.640  12.080  0.6863 -1.5095  0.7686
 2921SOL    HW220400   4.443   0.616  11.935 -0.7679  0.0605  1.6756
 2922SOL     OW20401   2.123   2.275   3.797 -0.4756  0.1582 -0.0469
 2922SOL    HW120402   2.153   2.347   3.742  0.5020  0.8070  1.3510
 2922SOL    HW220403   2.082   2.331   3.863  0.1031  1.0715 -0.4541
 2923SOL     OW20404   0.927   3.286   2.782  0.1622 -0.4512  0.8263
 2923SOL    HW120405   1.001   3.344   2.800 -1.0512  0.2354  3.5635
 2923SOL    HW220406   0.927   3.296   2.687 -0.2046 -4.5477  0.3809
 2924SOL     OW20407   1.177   2.888   7.382  0.3694  0.0072 -0.1522
 2924SOL    HW120408   1.161   2.896   7.477 -0.6688 -0.5531 -0.2814
 2924SOL    HW220409   1.239   2.816   7.373 -1.7769 -1.9629  0.7951
 2925SOL     OW20410   1.056   1.177  16.184  0.1076 -0.0048 -0.3037
 2925SOL    HW120411   1.113   1.134  16.248 -0.2868  0.5011  0.3812
 2925SOL    HW220412   0.964   1.173  16.211 -0.4842 -1.1656 -2.4212
 2926SOL     OW20413   2.270   1.637   3.767 -0.2400  0.8765 -0.5395
 2926SOL    HW120414   2.232   1.654   3.681  0.6934 -0.5287 -1.2368
 2926SOL    HW220415   2.194   1.601   3.814 -1.2744  0.8723 -2.2099
 2927SOL     OW20416   1.441   1.320   5.692 -0.0910  0.5725 -0.2905
 2927SOL    HW120417   1.470   1.407   5.667 -0.5577  1.3283  1.8495
 2927SOL    HW220418   1.402   1.337   5.777 -1.7874 -3.9896 -0.1191
 2928SOL     OW20419   2.831   0.122  17.143  0.1971  0.2163  0.7105
 2928SOL    HW120420   2.772   0.158  17.077  0.7794  1.7138  1.0032
 2928SOL    HW220421   2.897   0.097  17.079  1.2358 -0.0471  1.8849
 2929SOL     OW20422   2.824   2.479  10.319  0.1028 -0.3766 -0.4243
 2929SOL    HW120423   2.875   2.545  10.273 -0.0009  0.6075  0.8696
 2929SOL    HW220424   2.796   2.525  10.398 -0.7586 -2.2001  0.3466
 2930SOL     OW20425   3.545   0.866   6.943 -0.3741  0.5451 -0.1268
 2930SOL    HW120426   3.595   0.803   6.891 -1.4813 -0.9498  0.6150
 2930SOL    HW220427   3.594   0.867   7.026 -0.0158  0.4192 -0.3334
 2931SOL     OW20428   4.112   2.382  16.373  0.4593  0.1650  0.4984
 2931SOL    HW120429   4.190   2.376  16.428  0.0624 -0.4078  1.0099
 2931SOL    HW220430   4.066   2.299  16.386 -2.6626  2.6547  5.5436
 2932SOL     OW20431   3.053   3.379   2.921 -0.0255  0.0753 -0.3664
 2932SOL    HW120432   2.991   3.451   2.914  0.8972  0.8293 -0.6687
 2932SOL    HW220433   2.994   3.303   2.923 -0.4674  0.4326  0.4211
 2933SOL     OW20434   2.244   2.428   4.599  0.2067 -0.1748  0.4980
 2933SOL    HW120435   2.335   2.401   4.615  0.6007  0.1524 -1.2204
 2933SOL    HW220436   2.253   2.428   4.504  0.8036  1.1103  0.5448
 2934SOL     OW20437   4.540   1.567   6.069  0.1372 -0.4057 -0.1365
 2934SOL    HW120438   4.520   1.640   6.128  0.3899  0.4791 -1.1327
 2934SOL    HW220439   4.560   1.505   6.138  3.2861  0.3805 -0.3288
 2935SOL     OW20440   1.617   2.475   5.885  0.2401 -0.1816 -0.2717
 2935SOL    HW120441   1.708   2.503   5.893  1.5485 -3.9476 -2.1821
 2935SOL    HW220442   1.585   2.550   5.834 -0.2638 -1.1078 -1.3255
 2936SOL     OW20443   1.147   4.384   6.001  0.1533  0.7739  0.0635
 2936SOL    HW120444   1.085   4.312   6.010 -2.6661  3.0577 -0.8691
 2936SOL    HW220445   1.202   4.352   5.929 -2.8519  1.6709 -2.6281
 2937SOL     OW20446   4.310   0.163  16.875 -0.2227 -0.5653 -0.3724
 2937SOL    HW120447   4.353   0.222  16.938  0.5321 -0.2401 -1.1890
 2937SOL    HW220448   4.388   0.109  16.864  0.4970  0.1306  1.3109
 2938SOL     OW20449   0.617   3.748   4.955  0.0592  0.5889 -0.0491
 2938SOL    HW120450   0.674   3.825   4.962 -0.9014  1.0337  2.9069
 2938SOL    HW220451   0.655   3.704   4.878  0.4838  2.6769 -1.0367
 2939SOL     OW20452   3.729   3.013   8.243 -0.5589  0.6178  0.1003
 2939SOL    HW120453   3.672   2.957   8.191  1.5458 -0.9878 -0.4914
 2939SOL    HW220454   3.773   2.953   8.303 -2.8253 -0.9337  0.2099
 2940SOL     OW20455   4.178   0.363   3.660 -0.8423 -0.5959 -0.0115
 2940SOL    HW120456   4.139   0.282   3.692  2.4891 -1.5363  1.6120
 2940SOL    HW220457   4.105   0.420   3.635  0.5091  2.5148  3.1234
 2941SOL     OW20458   4.130   0.480   5.165 -0.4681  0.2237  0.9706
 2941SOL    HW120459   4.188   0.555   5.180  1.5162 -0.8331 -1.2416
 2941SOL    HW220460   4.182   0.409   5.125  1.0574  0.0061  3.3654
 2942SOL     OW20461   4.403   3.506   2.561  0.1114 -0.1650  0.3246
 2942SOL    HW120462   4.397   3.571   2.632  1.7093 -2.2250  2.3520
 2942SOL    HW220463   4.498   3.501   2.554  0.2491  1.7361  0.9111
 2943SOL     OW20464   4.085   0.551   2.838  0.1997  0.1576 -0.3714
 2943SOL    HW120465   4.131   0.469   2.857 -1.7828 -0.1451  3.1123
 2943SOL    HW220466   4.061   0.538   2.747 -0.0224  0.2059 -0.3180
 2944SOL     OW20467   3.198   3.773   8.564  0.3737  0.0494 -0.4321
 2944SOL    HW120468   3.178   3.681   8.547 -0.8965  0.2597 -0.0079
 2944SOL    HW220469   3.277   3.775   8.618  0.1576  0.5460 -0.1305
 2945SOL     OW20470   2.569   1.388   7.650 -0.1242  0.0445  0.1856
 2945SOL    HW120471   2.508   1.325   7.688  0.0748 -0.5287 -0.4511
 2945SOL    HW220472   2.558   1.457   7.715 -1.1493  0.8476 -0.8404
 2946SOL     OW20473   0.054   1.632  11.359 -0.2782  0.4352  0.1142
 2946SOL    HW120474   4.714   1.654  11.411  0.0723  0.6210  0.5535
 2946SOL    HW220475   0.041   1.549  11.312  1.5531 -0.1082  0.5570
 2947SOL     OW20476   1.684   2.386  13.606 -0.2383 -0.6411  0.1211
 2947SOL    HW120477   1.776   2.390  13.581 -0.9263  0.2982 -2.2620
 2947SOL    HW220478   1.688   2.346  13.693  1.5296  1.3224  0.9414
 2948SOL     OW20479   3.205   0.956   7.324 -0.2635 -0.1119 -0.3922
 2948SOL    HW120480   3.277   0.893   7.336 -0.1350  0.4588  1.9295
 2948SOL    HW220481   3.131   0.913   7.367  1.5316 -0.6356  2.1993
 2949SOL     OW20482   4.267   3.743   7.331  0.1967  0.4089 -0.1377
 2949SOL    HW120483   4.185   3.776   7.368  0.6912 -0.1086  1.4222
 2949SOL    HW220484   4.253   3.648   7.328 -2.6839  0.8255  0.0586
 2950SOL     OW20485   1.407   0.657   6.528  0.5475 -0.0413 -0.2031
 2950SOL    HW120486   1.329   0.659   6.583 -1.1931 -0.2120 -2.6770
 2950SOL    HW220487   1.417   0.750   6.504  0.8325  0.2012  0.8322
 2951SOL     OW20488   3.197   1.284   8.106 -0.2575  0.1056  0.5214
 2951SOL    HW120489   3.206   1.197   8.068  1.9751  0.9738 -0.9572
 2951SOL    HW220490   3.262   1.276   8.176 -0.3641  0.6864  0.6830
 2952SOL     OW20491   2.722   0.626   8.342 -0.1074  0.3442  0.7664
 2952SOL    HW120492   2.746   0.558   8.279  1.3124 -0.0114  1.6610
 2952SOL    HW220493   2.796   0.634   8.403  0.3699 -2.4802  0.5870
 2953SOL     OW20494   3.479   1.519   6.933  0.1764  0.1841  0.4772
 2953SOL    HW120495   3.411   1.452   6.929 -0.6970  0.9873  2.0069
 2953SOL    HW220496   3.448   1.597   6.887  1.2619  0.1555 -0.2971
 2954SOL     OW20497   1.623   0.111   6.177  0.1808 -0.2631 -0.1238
 2954SOL    HW120498   1.587   0.116   6.089 -0.7695  2.9824  0.4293
 2954SOL    HW220499   1.630   0.019   6.202 -0.1973 -0.6741 -1.5476
 2955SOL     OW20500   4.544   0.152   2.647  0.1374 -0.0312 -0.0130
 2955SOL    HW120501   4.613   0.185   2.588  1.3060 -1.2608  0.6714
 2955SOL    HW220502   4.516   0.068   2.611 -0.2744  0.5045 -0.9336
 2956SOL     OW20503   0.667   2.755   3.876  0.2869 -0.4987  0.0106
 2956SOL    HW120504   0.679   2.660   3.868 -1.6646 -0.9947  2.9000
 2956SOL    HW220505   0.582   2.755   3.921  0.4426 -0.8036  0.3088
 2957SOL     OW20506   0.647   4.245   4.351 -0.2106  0.1687 -0.1716
 2957SOL    HW120507   0.666   4.286   4.436 -1.7493  0.9416 -0.2103
 2957SOL    HW220508   0.557   4.271   4.334 -0.1059  0.7094  0.0842
 2958SOL     OW20509   2.972   2.568  14.143  0.4106  0.9642  0.2044
 2958SOL    HW120510   2.889   2.526  14.123  1.0228 -0.7185  1.2086
 2958SOL    HW220511   3.023   2.492  14.169 -0.3071  1.0221  1.7685
 2959SOL     OW20512   2.899   0.262   3.121 -0.1484 -0.1607  0.4801
 2959SOL    HW120513   2.978   0.310   3.146 -0.2213  0.2976 -0.1676
 2959SOL    HW220514   2.932   0.178   3.087  2.1258  0.9777 -0.1553
 2960SOL     OW20515   2.258   1.725   6.557 -0.1198 -0.1038  0.1696
 2960SOL    HW120516   2.256   1.815   6.589  1.1373 -1.0737  2.9252
 2960SOL    HW220517   2.332   1.735   6.497 -0.1693  1.5805  0.3976
 2961SOL     OW20518   3.276   1.095  17.443  0.5561 -0.0297  0.2109
 2961SOL    HW120519   3.367   1.074  17.421  0.5865  2.3057 -1.8733
 2961SOL    HW220520   3.243   1.012  17.478 -0.4727 -0.4409 -1.7348
 2962SOL     OW20521   2.314   3.349   7.548 -0.2253 -0.1236 -0.3506
 2962SOL    HW120522   2.358   3.305   7.475  3.2583 -0.1020  1.7424
 2962SOL    HW220523   2.249   3.286   7.578 -0.5186 -0.1928 -1.1310
 2963SOL     OW20524   3.789   2.533   1.688  0.1968  0.5485  0.1264
 2963SOL    HW120525   3.860   2.590   1.717 -0.7726  2.2994 -0.8954
 2963SOL    HW220526   3.797   2.440   1.706  2.0583  0.4055 -1.4301
 2964SOL     OW20527   0.360   3.591  15.546 -0.2518  1.0168  0.6888
 2964SOL    HW120528   0.423   3.521  15.566 -2.2189  0.0304  3.4056
 2964SOL    HW220529   0.309   3.604  15.626 -4.1073 -1.0052 -1.4559
 2965SOL     OW20530   0.086   1.662   5.022 -0.1295 -0.1040 -0.0369
 2965SOL    HW120531   0.084   1.629   4.932  0.3078  2.1594 -0.8785
 2965SOL    HW220532   0.030   1.738   5.006 -0.2312  0.0105  0.8479
 2966SOL     OW20533   0.102   3.889  16.756 -0.0121 -0.7108  0.1483
 2966SOL    HW120534   0.154   3.812  16.777  1.9060  0.9456  1.5605
 2966SOL    HW220535   0.128   3.899  16.664  1.1442 -2.2182  0.3102
 2967SOL     OW20536   2.419   2.829  14.340 -0.1112 -0.4697 -0.4474
 2967SOL    HW120537   2.466   2.798  14.263  0.1715 -2.1996  0.4105
 2967SOL    HW220538   2.467   2.910  14.356 -0.4435 -0.3987  0.2378
 2968SOL     OW20539   2.278   0.775   2.124  0.1050  0.3453  0.5564
 2968SOL    HW120540   2.203   0.778   2.184 -0.6050  0.8922 -0.3546
 2968SOL    HW220541   2.248   0.696   2.078 -0.0333 -0.3691  1.8552
 2969SOL     OW20542   4.541   0.029  16.830  0.1879 -0.1031  0.1654
 2969SOL    HW120543   4.570   0.120  16.830 -0.3963  0.0765  1.4413
 2969SOL    HW220544   4.629   4.731  16.814 -0.0149 -0.4641 -0.1694
 2970SOL     OW20545   2.219   3.157   1.931  0.3758 -0.2037 -0.0950
 2970SOL    HW120546   2.311   3.133   1.936  0.1978 -0.3428  2.4231
 2970SOL    HW220547   2.232   3.250   1.910  1.4989 -0.3460 -0.0119
 2971SOL     OW20548   3.888   0.081   7.204  0.6949 -0.1635  0.3269
 2971SOL    HW120549   3.862   0.022   7.134  2.7687 -0.6431 -0.0339
 2971SOL    HW220550   3.938   0.144   7.153 -0.6220  0.0097 -0.7273
 2972SOL     OW20551   4.612   3.466   5.805 -0.3874 -0.6227  0.1217
 2972SOL    HW120552   4.661   3.514   5.872  1.5017  0.5455 -2.0611
 2972SOL    HW220553   4.685   3.427   5.756  1.6814  0.9298  1.9596
 2973SOL     OW20554   0.846   1.413  16.197  0.3435 -0.2602  0.1703
 2973SOL    HW120555   0.881   1.501  16.207 -0.7869  0.3242 -0.9991
 2973SOL    HW220556   0.785   1.413  16.271 -0.4164 -0.2663 -0.4536
 2974SOL     OW20557   0.462   2.146   8.824  0.1582 -0.2789  0.3653
 2974SOL    HW120558   0.492   2.056   8.812 -0.8375 -0.4139 -1.0724
 2974SOL    HW220559   0.387   2.155   8.766  0.7689 -0.0099 -0.3806
 2975SOL     OW20560   3.264   3.342   4.144  0.1418 -0.3235 -0.4541
 2975SOL    HW120561   3.307   3.295   4.215 -0.6890  0.8648  0.8248
 2975SOL    HW220562   3.183   3.373   4.185  1.2166  1.7092  0.1363
 2976SOL     OW20563   2.529   0.107   8.082 -0.0050  0.2269 -0.2292
 2976SOL    HW120564   2.545   0.036   8.144 -0.7077  1.1051  0.9556
 2976SOL    HW220565   2.612   0.154   8.085 -0.2485  0.5610  1.1963
 2977SOL     OW20566   0.000   4.565   7.771 -0.0055 -0.0587 -0.5753
 2977SOL    HW120567   0.048   4.496   7.726 -0.1368 -1.2495  1.1123
 2977SOL    HW220568   4.650   4.542   7.739 -0.7240 -0.1004  1.3747
 2978SOL     OW20569   3.634   4.458   5.821  0.3847  0.4584  1.0521
 2978SOL    HW120570   3.706   4.401   5.799  0.7674  0.9942  0.9134
 2978SOL    HW220571   3.639   4.466   5.917 -1.5989 -0.4379  1.2260
 2979SOL     OW20572   4.107   3.457  13.896  0.1168 -0.1175  0.6575
 2979SOL    HW120573   4.148   3.543  13.908  0.8997 -0.6422  1.8085
 2979SOL    HW220574   4.036   3.457  13.960  1.0118 -0.9272  1.6619
 2980SOL     OW20575   2.798   0.193   1.145 -0.0511  0.0886  0.0503
 2980SOL    HW120576   2.761   0.158   1.226  1.1623  1.5298  1.2240
 2980SOL    HW220577   2.857   0.264   1.170 -0.5602  0.6865 -0.4359
 2981SOL     OW20578   0.542   0.375   5.038 -0.0121 -0.0388  0.2657
 2981SOL    HW120579   0.556   0.294   5.087 -2.8138  1.1546  2.9904
 2981SOL    HW220580   0.507   0.421   5.114 -3.3074 -0.9897 -0.6851
 2982SOL     OW20581   4.363   3.123   6.634 -0.4434 -0.2146  0.4103
 2982SOL    HW120582   4.439   3.161   6.679  0.7109  0.9085 -2.5287
 2982SOL    HW220583   4.308   3.201   6.633 -1.0013 -0.6322 -0.9237
 2983SOL     OW20584   0.672   4.369  16.258  0.9735  0.5327 -0.4516
 2983SOL    HW120585   0.583   4.405  16.257  0.3565 -1.0544 -1.6341
 2983SOL    HW220586   0.663   4.287  16.210 -0.9562  0.9405 -0.7886
 2984SOL     OW20587   1.601   4.392   4.804 -0.1978 -0.3745  0.1888
 2984SOL    HW120588   1.573   4.330   4.872 -0.1098  0.0127  0.5802
 2984SOL    HW220589   1.523   4.399   4.749 -0.2967  1.0554  0.5158
 2985SOL     OW20590   2.357   3.815   6.777 -0.5932 -0.3154 -0.5200
 2985SOL    HW120591   2.420   3.833   6.846  0.5540 -0.4611 -1.5378
 2985SOL    HW220592   2.276   3.817   6.828  1.2872 -2.1007  2.5378
 2986SOL     OW20593   4.523   3.413   0.943  0.1870 -0.1070 -0.1075
 2986SOL    HW120594   4.535   3.489   0.886  2.2229 -1.7410 -1.8847
 2986SOL    HW220595   4.429   3.407   0.931  0.1515 -2.3043  1.3203
 2987SOL     OW20596   0.478   2.973   8.991  0.1162  0.0863  0.8213
 2987SOL    HW120597   0.529   2.914   9.047  1.1341  1.9734  1.8871
 2987SOL    HW220598   0.461   3.039   9.058  0.9650 -1.4306  2.5547
 2988SOL     OW20599   2.324   1.900   2.304  0.2017 -0.1517 -0.2750
 2988SOL    HW120600   2.310   1.877   2.212  1.9990 -0.1424 -0.5379
 2988SOL    HW220601   2.306   1.812   2.338 -1.7454  0.6600  0.7800
 2989SOL     OW20602   2.008   3.870   0.998 -0.0679  0.1453 -0.2097
 2989SOL    HW120603   1.993   3.791   0.946 -2.5059  0.8197 -0.5342
 2989SOL    HW220604   2.099   3.891   0.974  0.7737 -1.1314  1.8616
 2990SOL     OW20605   4.641   2.800  16.684 -0.0678 -0.0408  0.5888
 2990SOL    HW120606   4.706   2.748  16.730 -0.5518 -1.1423  0.0253
 2990SOL    HW220607   4.628   2.861  16.757 -1.5908 -1.3655  1.4449
 2991SOL     OW20608   4.552   0.443   7.695  0.0414 -0.1293  0.1136
 2991SOL    HW120609   4.460   0.415   7.687 -0.1809  0.4068  0.8214
 2991SOL    HW220610   4.580   0.362   7.738  1.1739  1.5958  2.6256
 2992SOL     OW20611   2.775   1.210   2.683  0.3053 -0.3926  0.5805
 2992SOL    HW120612   2.706   1.257   2.636  1.0637 -2.0233 -2.2046
 2992SOL    HW220613   2.729   1.129   2.704  0.8157 -0.1264  2.6671
 2993SOL     OW20614   0.619   2.838  10.580 -0.1915 -0.1317 -0.5469
 2993SOL    HW120615   0.620   2.876  10.668  0.8890  0.8468 -0.9901
 2993SOL    HW220616   0.626   2.918  10.529  0.1770 -0.5062 -1.0936
 2994SOL     OW20617   2.631   3.625   7.928  0.2542  0.0819 -0.0002
 2994SOL    HW120618   2.546   3.582   7.917  1.1433 -2.5621  3.7815
 2994SOL    HW220619   2.608   3.709   7.968  1.5467  0.6610 -0.4660
 2995SOL     OW20620   1.628   3.569   7.526  0.6332  0.0254 -0.5030
 2995SOL    HW120621   1.703   3.514   7.503  1.2839  0.5340  0.4334
 2995SOL    HW220622   1.675   3.652   7.521  0.0333  0.3745 -0.3859
 2996SOL     OW20623   0.522   3.933   1.359 -0.0163 -0.3898 -0.2235
 2996SOL    HW120624   0.505   3.861   1.297  3.4516  2.3786 -4.3345
 2996SOL    HW220625   0.603   3.972   1.325 -0.0655 -1.3016 -1.4043
 2997SOL     OW20626   0.982   4.467   5.432 -0.4412  0.3596  0.1324
 2997SOL    HW120627   0.931   4.496   5.356 -0.7199  0.2864  0.2907
 2997SOL    HW220628   1.067   4.501   5.405  0.3696 -1.2008  0.7084
 2998SOL     OW20629   1.432   4.603   3.010  0.3137 -0.1251  0.1969
 2998SOL    HW120630   1.492   4.613   3.084  0.0057 -1.7231  0.6493
 2998SOL    HW220631   1.372   4.675   3.030  1.1235  0.4965  0.4219
 2999SOL     OW20632   1.621   1.347   3.067  0.4533 -0.1006 -0.4200
 2999SOL    HW120633   1.638   1.253   3.064  0.7160 -0.0014 -1.9662
 2999SOL    HW220634   1.705   1.393   3.068 -1.2098  2.9325 -0.8379
 3000SOL     OW20635   4.707   2.938   2.063 -0.2012 -0.0331 -0.5051
 3000SOL    HW120636   0.019   2.995   2.123  1.3706 -1.3681 -0.5369
 3000SOL    HW220637   4.714   2.986   1.980 -0.7948  0.5146 -0.2382
 3001SOL     OW20638   3.244   3.508   5.777  0.5103 -0.3273  1.1371
 3001SOL    HW120639   3.310   3.569   5.810  2.6635 -3.3509  2.5412
 3001SOL    HW220640   3.271   3.427   5.822  2.0532 -0.2537  0.3446
 3002SOL     OW20641   3.045   3.110   7.485  0.1902 -0.0420 -0.5548
 3002SOL    HW120642   3.059   3.137   7.394  0.7636 -0.7950 -0.6897
 3002SOL    HW220643   3.124   3.134   7.532 -0.7454  2.1082 -0.1074
 3003SOL     OW20644   3.973   3.947   3.215  0.5133 -0.2841  0.0602
 3003SOL    HW120645   3.981   3.864   3.168  0.8199  0.2500 -0.8331
 3003SOL    HW220646   3.948   3.922   3.303 -0.6374 -0.7403 -0.3971
 3004SOL     OW20647   3.125   0.225   4.476 -0.4990  0.3178  0.2891
 3004SOL    HW120648   3.095   0.316   4.476 -0.7523  0.2278  1.9308
 3004SOL    HW220649   3.113   0.196   4.566 -1.6723 -0.3534 -0.0880
 3005SOL     OW20650   2.215   2.131   2.089  0.0599 -0.2274  0.2178
 3005SOL    HW120651   2.154   2.058   2.093 -0.6457  0.4585  2.1684
 3005SOL    HW220652   2.175   2.203   2.139 -0.2855 -1.0614  1.1419
 3006SOL     OW20653   2.024   2.440   1.676 -0.1179  0.2852 -0.3374
 3006SOL    HW120654   2.115   2.425   1.649 -0.7400 -1.3854 -1.5130
 3006SOL    HW220655   2.021   2.389   1.757  2.6774  0.6400  0.0115
 3007SOL     OW20656   2.728   1.207  12.952 -0.3188 -0.1077 -0.2211
 3007SOL    HW120657   2.649   1.171  12.993 -1.3185  0.8124 -1.3242
 3007SOL    HW220658   2.705   1.173  12.866  4.3057 -1.9210 -0.7464
 3008SOL     OW20659   1.336   0.129   6.019  0.4158  0.8349 -0.8514
 3008SOL    HW120660   1.277   0.116   5.944  0.0219 -1.9356 -0.0678
 3008SOL    HW220661   1.324   0.040   6.052 -0.7779  1.6345  0.8245
 3009SOL     OW20662   1.572   0.323   6.872 -0.2106 -0.4884 -0.1399
 3009SOL    HW120663   1.482   0.336   6.900 -0.6321  1.3343 -2.3967
 3009SOL    HW220664   1.574   0.384   6.799  1.9518 -0.6326 -0.1998
 3010SOL     OW20665   0.221   0.854   2.840  0.0139 -0.1599 -0.4277
 3010SOL    HW120666   0.196   0.873   2.931  1.2925 -1.4749  0.2173
 3010SOL    HW220667   0.161   0.782   2.820  1.5318 -0.8876 -2.3750
 3011SOL     OW20668   4.225   1.664   9.429 -0.9810 -0.0200  0.0156
 3011SOL    HW120669   4.293   1.724   9.457  0.2741 -2.0743  1.4056
 3011SOL    HW220670   4.255   1.640   9.342 -1.4286 -2.6541  0.5881
 3012SOL     OW20671   0.989   4.629   6.385 -0.1191 -0.5919  0.3436
 3012SOL    HW120672   1.057   4.610   6.450  0.6254  0.7820 -0.0222
 3012SOL    HW220673   0.937   4.692   6.436  0.8860  0.6735 -0.1939
 3013SOL     OW20674   2.048   2.261  15.337  0.1517  0.1366 -0.2092
 3013SOL    HW120675   1.957   2.260  15.367  0.8807 -2.5987  1.9014
 3013SOL    HW220676   2.058   2.169  15.314 -1.3782  0.0642 -0.6047
 3014SOL     OW20677   2.470   3.592   4.768  0.2291  0.3780  0.1677
 3014SOL    HW120678   2.455   3.622   4.858 -2.1823  1.3486 -0.5648
 3014SOL    HW220679   2.539   3.527   4.785  0.5307  0.6712  0.0832
 3015SOL     OW20680   4.476   4.198   7.990 -0.1081  0.1889  0.1082
 3015SOL    HW120681   4.388   4.234   8.006  0.1870  0.7233  0.5541
 3015SOL    HW220682   4.532   4.272   8.013  0.4047 -0.1109 -0.1822
 3016SOL     OW20683   4.047   3.822   8.900  0.0484  0.3023  0.4959
 3016SOL    HW120684   4.020   3.731   8.885  1.3263  0.1854 -1.1766
 3016SOL    HW220685   3.984   3.877   8.853 -0.0369 -1.1711 -1.1019
 3017SOL     OW20686   1.416   0.979  10.635 -0.2020  0.0585 -0.1943
 3017SOL    HW120687   1.422   1.063  10.680 -3.0431  1.5095 -2.4693
 3017SOL    HW220688   1.454   1.004  10.551  0.9376  0.8501  0.5637
 3018SOL     OW20689   2.912   2.744  14.907  0.2122  0.0122 -0.0704
 3018SOL    HW120690   2.903   2.838  14.919  0.1404  0.0090 -0.1052
 3018SOL    HW220691   2.824   2.709  14.921 -0.3007  0.1180 -3.1159
 3019SOL     OW20692   2.587   1.423   5.664 -0.5198  0.5198  0.4578
 3019SOL    HW120693   2.643   1.350   5.690 -0.7602  0.8039  1.7808
 3019SOL    HW220694   2.616   1.491   5.725  2.0004  1.0159 -1.3149
 3020SOL     OW20695   3.214   3.273  15.239 -0.3801 -0.2740 -0.0316
 3020SOL    HW120696   3.120   3.285  15.226  0.2474  1.4705 -2.8460
 3020SOL    HW220697   3.244   3.317  15.160  1.9466  0.3163  1.1943
 3021SOL     OW20698   4.283   3.352  16.660 -0.0279  0.1817 -0.3629
 3021SOL    HW120699   4.280   3.349  16.756  0.2011  0.7638 -0.3409
 3021SOL    HW220700   4.252   3.440  16.641 -1.6133  0.1249  1.8546
 3022SOL     OW20701   4.674   3.500   7.881  0.2337 -0.6525 -0.1911
 3022SOL    HW120702   4.669   3.519   7.974  0.8470  1.3819 -0.5536
 3022SOL    HW220703   4.585   3.520   7.852  0.7507 -1.4090 -2.3210
 3023SOL     OW20704   0.211   3.670  15.753  0.0332 -0.5450  0.4617
 3023SOL    HW120705   0.156   3.717  15.816  0.4214 -1.2874  1.3536
 3023SOL    HW220706   0.150   3.624  15.695  0.0478  0.1658 -0.1289
 3024SOL     OW20707   1.138   3.549   4.736  0.3730  0.0148 -0.1537
 3024SOL    HW120708   1.076   3.498   4.684 -1.4815 -0.5721  2.6256
 3024SOL    HW220709   1.114   3.518   4.824  1.6663 -1.5016 -0.3258
 3025SOL     OW20710   3.476   1.120   0.222  0.0382  0.0206  0.1633
 3025SOL    HW120711   3.455   1.059   0.293  1.2417 -2.2406 -1.4220
 3025SOL    HW220712   3.479   1.055   0.152  0.6309 -0.1294  0.3289
 3026SOL     OW20713   0.727   2.590   4.716  0.5240  0.7883  0.1046
 3026SOL    HW120714   0.698   2.550   4.797  0.6388  0.0588 -0.2148
 3026SOL    HW220715   0.789   2.658   4.743 -1.1954  3.2173 -2.1211
 3027SOL     OW20716   4.611   0.464   2.069 -0.4996 -0.4857  0.6431
 3027SOL    HW120717   4.577   0.550   2.091  0.1596  0.4108 -1.8346
 3027SOL    HW220718   4.538   0.409   2.097 -0.2082 -0.9932  0.4151
 3028SOL     OW20719   1.046   3.491   3.851 -0.3961 -0.1540  0.5289
 3028SOL    HW120720   1.064   3.415   3.907  1.4455  0.4964  0.8204
 3028SOL    HW220721   0.957   3.471   3.823 -0.6462 -1.3252  2.1432
 3029SOL     OW20722   4.159   0.490  15.997 -0.3258 -0.1703 -0.2419
 3029SOL    HW120723   4.206   0.538  16.066 -1.1517  1.2852 -0.7073
 3029SOL    HW220724   4.070   0.523  16.001  0.6353  2.7674 -3.1994
 3030SOL     OW20725   1.716   3.301   3.195  0.4240 -0.3899  0.1856
 3030SOL    HW120726   1.668   3.384   3.188  0.6057 -0.0903  2.2721
 3030SOL    HW220727   1.642   3.243   3.214 -1.5979  1.9761 -0.3484
 3031SOL     OW20728   1.254   2.762  11.167  0.0089 -0.3449  0.0811
 3031SOL    HW120729   1.184   2.698  11.178  1.2518 -1.5223  1.2449
 3031SOL    HW220730   1.254   2.764  11.071  1.8976 -0.4866  0.0714
 3032SOL     OW20731   0.428   3.125   9.196 -0.0292 -0.2679  0.2028
 3032SOL    HW120732   0.341   3.138   9.234  0.3433 -0.3570  1.0895
 3032SOL    HW220733   0.477   3.090   9.270  1.6064 -0.2921 -0.8807
 3033SOL     OW20734   3.310   2.132   4.274 -0.1377  0.4746  0.1949
 3033SOL    HW120735   3.392   2.153   4.319 -0.2565  1.9677 -0.2825
 3033SOL    HW220736   3.341   2.139   4.184  0.1441  0.9311  0.3267
 3034SOL     OW20737   2.395   2.121  14.960 -0.5289 -0.0218 -0.4369
 3034SOL    HW120738   2.309   2.141  14.921  0.3667 -1.7547 -3.3320
 3034SOL    HW220739   2.417   2.200  15.008 -0.8451  0.3654 -0.9277
 3035SOL     OW20740   3.893   3.942   4.537 -0.3933 -0.0252 -0.3224
 3035SOL    HW120741   3.896   4.021   4.482 -0.9176  1.4351  1.7394
 3035SOL    HW220742   3.922   3.882   4.469 -0.8610 -1.6239  0.8993
 3036SOL     OW20743   4.212   3.526   3.521 -0.6025  0.4496 -0.4151
 3036SOL    HW120744   4.175   3.438   3.521  0.5226 -0.0100 -0.9610
 3036SOL    HW220745   4.276   3.534   3.591  0.3925  2.4123 -1.5521
 3037SOL     OW20746   3.279   3.515  16.074  0.0958  0.2083 -0.1169
 3037SOL    HW120747   3.245   3.526  15.985  0.2372  1.0450 -0.0756
 3037SOL    HW220748   3.269   3.597  16.123  0.0218  0.9326 -1.3400
 3038SOL     OW20749   4.428   0.936   4.561  0.1203  0.0559  0.4318
 3038SOL    HW120750   4.517   0.955   4.589  0.6613 -1.5710 -0.1823
 3038SOL    HW220751   4.418   0.855   4.611 -2.0332 -0.3026 -0.5620
 3039SOL     OW20752   2.757   3.251   5.382 -0.2385  0.3300 -0.3427
 3039SOL    HW120753   2.837   3.199   5.390 -0.6604 -0.4539 -1.2936
 3039SOL    HW220754   2.784   3.339   5.410  0.2802  0.7928 -2.2976
 3040SOL     OW20755   4.289   0.353   1.712  0.2769 -0.3739 -0.0287
 3040SOL    HW120756   4.211   0.374   1.659  0.2971  0.6664  0.3539
 3040SOL    HW220757   4.347   0.305   1.652  1.3176  1.1384 -0.2361
 3041SOL     OW20758   1.811   2.813   8.736  0.0654 -0.1276  0.2650
 3041SOL    HW120759   1.739   2.771   8.784 -0.2812 -1.1988 -1.1774
 3041SOL    HW220760   1.826   2.753   8.664 -3.6577  1.2600 -1.6735
 3042SOL     OW20761   3.403   0.140   1.918  0.7670 -0.4385 -0.1270
 3042SOL    HW120762   3.415   0.142   2.013 -1.1964 -2.1518  0.1727
 3042SOL    HW220763   3.391   0.230   1.890 -1.2365 -1.4703 -2.5476
 3043SOL     OW20764   3.932   0.384   3.931 -0.0483 -0.0054  0.7085
 3043SOL    HW120765   3.836   0.383   3.927 -0.0176 -1.0790  0.3612
 3043SOL    HW220766   3.941   0.479   3.921 -2.6049  0.1565 -0.0808
 3044SOL     OW20767   1.184   2.801   6.696  0.1922  0.0459  0.4479
 3044SOL    HW120768   1.245   2.870   6.721  0.2663 -0.6448  2.1630
 3044SOL    HW220769   1.114   2.857   6.662  0.9138  0.1903 -0.7913
 3045SOL     OW20770   1.312   0.078   4.141  0.3214 -0.1052  0.0881
 3045SOL    HW120771   1.380   0.139   4.170  0.1219 -1.0244  2.4668
 3045SOL    HW220772   1.358   0.019   4.080 -2.1744 -2.2187  0.2456
 3046SOL     OW20773   0.463   2.439   4.087 -0.3551  0.3983  0.2818
 3046SOL    HW120774   0.389   2.379   4.081  0.5914 -1.0560  2.7743
 3046SOL    HW220775   0.504   2.382   4.153 -3.2182 -0.7245  1.0691
 3047SOL     OW20776   4.413   3.260  11.421 -0.2246  0.3420 -0.5701
 3047SOL    HW120777   4.447   3.349  11.422  0.0155  0.2484 -0.5057
 3047SOL    HW220778   4.370   3.264  11.506 -0.5610 -1.0478 -0.6756
 3048SOL     OW20779   1.553   4.467   7.617 -0.3227 -0.3570  0.0230
 3048SOL    HW120780   1.544   4.373   7.632 -0.1746  0.0023  2.3912
 3048SOL    HW220781   1.579   4.498   7.704 -0.9917 -0.5768  0.3052
 3049SOL     OW20782   0.596   4.296   2.088  0.1482 -0.1650 -0.4573
 3049SOL    HW120783   0.648   4.368   2.123 -0.2883  0.0584 -0.2690
 3049SOL    HW220784   0.599   4.308   1.993 -1.4968  0.5977 -0.4188
 3050SOL     OW20785   0.982   4.173   2.064 -0.0816 -0.0215  0.0689
 3050SOL    HW120786   1.027   4.116   2.126 -1.6721 -2.3910 -0.9685
 3050SOL    HW220787   0.944   4.240   2.121  1.4817  0.2162  0.8352
 3051SOL     OW20788   2.889   4.419   4.730 -0.1742 -0.0845  0.4652
 3051SOL    HW120789   2.913   4.345   4.674  0.2578 -0.5744  1.2785
 3051SOL    HW220790   2.813   4.389   4.778  0.3129 -1.2451  0.5149
 3052SOL     OW20791   2.682   4.311  16.026 -0.0111  0.0706 -0.3442
 3052SOL    HW120792   2.590   4.297  16.004 -0.3300  1.4447  0.0909
 3052SOL    HW220793   2.686   4.369  16.102 -1.9406  0.1525 -0.3100
 3053SOL     OW20794   0.799   0.578   2.009 -0.1979  0.7069  0.0510
 3053SOL    HW120795   0.803   0.619   2.096 -1.3348 -3.1485  1.9466
 3053SOL    HW220796   0.869   0.513   2.017 -0.7705  0.2107  1.0667
 3054SOL     OW20797   3.444   3.740   2.811  0.1502  0.5981 -0.2361
 3054SOL    HW120798   3.352   3.765   2.822  0.1190 -0.5147  2.0581
 3054SOL    HW220799   3.446   3.661   2.866  2.8709 -0.1877 -1.4703
 3055SOL     OW20800   1.021   1.744   2.422 -0.5403 -0.1495 -0.3542
 3055SOL    HW120801   0.969   1.667   2.397 -0.4371  0.5780 -2.9019
 3055SOL    HW220802   0.956   1.802   2.462 -0.5213  0.0206 -0.5706
 3056SOL     OW20803   1.001   3.304   5.577  0.2572 -0.0416  0.1907
 3056SOL    HW120804   1.016   3.386   5.530 -1.0541  0.9611  1.4936
 3056SOL    HW220805   1.063   3.249   5.528 -0.3749 -0.7662  0.2118
 3057SOL     OW20806   0.816   0.429   4.067 -0.0892 -0.3519 -0.6135
 3057SOL    HW120807   0.747   0.451   4.005 -1.2383 -1.9162  0.1069
 3057SOL    HW220808   0.813   0.334   4.075  0.3139 -0.4495 -1.6251
 3058SOL     OW20809   0.475   0.445   4.632 -0.1539  0.2140  0.1921
 3058SOL    HW120810   0.498   0.509   4.701 -1.8468  0.0703  0.8728
 3058SOL    HW220811   0.416   0.393   4.687  0.7375 -0.3007  0.6677
 3059SOL     OW20812   1.401   2.130  12.872 -0.2558  0.0542 -0.0128
 3059SOL    HW120813   1.470   2.193  12.894  0.2514 -0.3830 -0.3419
 3059SOL    HW220814   1.393   2.073  12.948  0.1729  0.1205  0.0819
 3060SOL     OW20815   4.493   4.712   4.729  0.2962 -0.4202 -0.2308
 3060SOL    HW120816   4.582   4.707   4.765 -0.0547 -0.8810  0.5726
 3060SOL    HW220817   4.509   4.721   4.635 -1.5912  0.2632 -0.4742
 3061SOL     OW20818   4.104   3.389   6.881 -0.1846  0.1220 -0.4068
 3061SOL    HW120819   4.100   3.371   6.787 -0.9146 -2.1129  0.0610
 3061SOL    HW220820   4.014   3.414   6.903  0.1019 -0.3287  1.2495
 3062SOL     OW20821   2.524   0.779   2.031  0.0112  0.8274 -0.9128
 3062SOL    HW120822   2.435   0.803   2.057 -0.3568  0.5059 -1.8817
 3062SOL    HW220823   2.520   0.791   1.936  0.6489  3.1455 -0.6570
 3063SOL     OW20824   1.073   2.422   7.218  0.4647  0.3690  0.0798
 3063SOL    HW120825   1.018   2.487   7.261  3.6724  0.1992  4.4851
 3063SOL    HW220826   1.028   2.426   7.134  0.1096  0.4278  0.2759
 3064SOL     OW20827   1.584   3.171  13.723 -0.1208 -0.3551 -0.2138
 3064SOL    HW120828   1.635   3.249  13.746 -0.9387  0.8083 -2.3451
 3064SOL    HW220829   1.613   3.117  13.797  0.2656  1.1376  0.7319
 3065SOL     OW20830   1.310   1.701   8.915  0.2715  0.0887  0.4746
 3065SOL    HW120831   1.291   1.673   9.004 -0.5282 -0.5758  0.1058
 3065SOL    HW220832   1.296   1.621   8.864  0.0984 -0.5287  1.4965
 3066SOL     OW20833   3.524   3.770  13.835 -0.5647 -0.7876  0.7116
 3066SOL    HW120834   3.529   3.810  13.921 -2.3135  1.0425 -0.0554
 3066SOL    HW220835   3.606   3.806  13.802 -1.5537  1.0250  0.2748
 3067SOL     OW20836   2.902   3.045   1.357  0.4594  0.4148  0.2415
 3067SOL    HW120837   2.922   3.070   1.267  0.0425 -0.9687 -0.2340
 3067SOL    HW220838   2.815   3.079   1.379  0.3836  0.6649 -0.4644
 3068SOL     OW20839   0.897   3.837  15.821  0.2989 -0.0665  0.6710
 3068SOL    HW120840   0.983   3.858  15.784  0.8100 -0.6188  1.5227
 3068SOL    HW220841   0.890   3.743  15.806 -1.6485  0.3304 -0.8591
 3069SOL     OW20842   4.118   1.195   0.517 -0.2258 -0.1669 -0.4658
 3069SOL    HW120843   4.035   1.221   0.478  1.1670  4.5828 -0.3022
 3069SOL    HW220844   4.109   1.238   0.602  1.6256  2.6532 -1.6936
 3070SOL     OW20845   2.218   3.548   9.044 -0.3357  0.4758 -0.4742
 3070SOL    HW120846   2.251   3.500   8.968  0.1231 -1.1797  0.7766
 3070SOL    HW220847   2.132   3.569   9.006  0.0378  0.8078 -1.1389
 3071SOL     OW20848   1.567   3.441   1.588 -0.1850 -0.1164  0.4046
 3071SOL    HW120849   1.561   3.357   1.633 -0.9720  0.4821  1.4015
 3071SOL    HW220850   1.647   3.473   1.628 -0.5340  0.0141  0.9899
 3072SOL     OW20851   4.729   2.318  13.304  0.2638  0.2865  0.1813
 3072SOL    HW120852   0.055   2.327  13.233  0.7282 -1.4005  0.3693
 3072SOL    HW220853   4.645   2.314  13.257 -0.0855 -0.9482  0.9008
 3073SOL     OW20854   4.022   1.893   5.753 -0.1301 -0.0891  0.2983
 3073SOL    HW120855   4.037   1.949   5.677 -1.7295 -1.5301 -1.0666
 3073SOL    HW220856   3.955   1.833   5.721  0.1858 -1.3604  2.0446
 3074SOL     OW20857   2.062   4.186   8.283 -0.3141 -0.0568  0.6425
 3074SOL    HW120858   2.013   4.141   8.215  0.2567  0.8817 -0.3976
 3074SOL    HW220859   2.077   4.120   8.351 -2.8679 -0.3499  0.8962
 3075SOL     OW20860   0.863   1.132   4.626 -0.4730 -0.2422  0.5476
 3075SOL    HW120861   0.821   1.178   4.699 -0.3293  2.6414 -1.1759
 3075SOL    HW220862   0.895   1.053   4.670 -0.0439  0.4569  1.4815
 3076SOL     OW20863   1.411   4.349  12.011  0.4731  0.2493  0.1062
 3076SOL    HW120864   1.422   4.438  11.977 -1.1560  1.0779  1.6923
 3076SOL    HW220865   1.502   4.336  12.037  0.5096  0.8582  0.2963
 3077SOL     OW20866   3.587   4.432   1.296 -0.2975 -0.1233 -0.1363
 3077SOL    HW120867   3.507   4.456   1.249 -1.5162 -2.6122  0.6575
 3077SOL    HW220868   3.587   4.471   1.383  0.4970  1.2403 -0.7564
 3078SOL     OW20869   1.477   1.835   9.382 -0.1374 -0.1963  0.4626
 3078SOL    HW120870   1.502   1.762   9.325  1.1958  1.8605 -1.5640
 3078SOL    HW220871   1.560   1.881   9.381 -0.2077 -0.1098 -0.7229
 3079SOL     OW20872   1.834   3.269   6.129  0.7352  0.2402  0.3924
 3079SOL    HW120873   1.813   3.247   6.038 -2.3164 -1.5458  1.5423
 3079SOL    HW220874   1.856   3.362   6.122 -1.8562  0.7793 -0.4145
 3080SOL     OW20875   3.843   2.657   7.993 -0.2321 -0.3097 -0.6855
 3080SOL    HW120876   3.780   2.594   8.029  0.6364 -0.8966 -0.2122
 3080SOL    HW220877   3.868   2.599   7.921  0.9235 -0.1047 -0.4393
 3081SOL     OW20878   3.157   1.919   6.253  0.5719  0.3689 -0.5370
 3081SOL    HW120879   3.185   1.986   6.316 -2.7844  1.8075 -0.5467
 3081SOL    HW220880   3.073   1.888   6.287 -0.4896 -1.6441 -5.0033
 3082SOL     OW20881   3.185   4.067  17.427 -0.3149 -0.8861  0.1497
 3082SOL    HW120882   3.198   4.154  17.390  2.2213  0.1614  3.4369
 3082SOL    HW220883   3.102   4.046  17.384 -1.7833  1.2306  1.8943
 3083SOL     OW20884   0.781   1.078   9.802  0.6434 -0.6853  0.0383
 3083SOL    HW120885   0.780   1.006   9.865  0.4303 -1.9886 -1.4680
 3083SOL    HW220886   0.694   1.069   9.765  0.9702  0.2134 -0.9650
 3084SOL     OW20887   3.651   2.312   6.624  0.0722  0.0813  0.3810
 3084SOL    HW120888   3.733   2.342   6.664  0.0096 -1.6558  1.7967
 3084SOL    HW220889   3.681   2.254   6.555  0.0055  1.2515 -0.6217
 3085SOL     OW20890   1.780   3.679   2.070  0.1907  0.0076 -0.1405
 3085SOL    HW120891   1.706   3.735   2.046 -1.1860 -2.4315 -1.5577
 3085SOL    HW220892   1.735   3.640   2.144  0.2729 -0.1873 -0.1936
 3086SOL     OW20893   4.729   1.080   9.011  0.3552  0.5232 -0.3136
 3086SOL    HW120894   4.675   1.051   8.937 -2.1287  0.2480  1.6313
 3086SOL    HW220895   4.711   1.174   9.000  2.7669  0.8125 -1.8454
 3087SOL     OW20896   2.126   3.124   8.934  0.4590 -0.9060  0.0796
 3087SOL    HW120897   2.193   3.136   9.001  0.2408  0.9780 -0.0469
 3087SOL    HW220898   2.140   3.202   8.881  1.2888 -1.5032 -0.5965
 3088SOL     OW20899   3.231   2.793  12.196 -0.1728  0.1668 -0.4941
 3088SOL    HW120900   3.209   2.786  12.289 -2.7873  0.5331 -1.0829
 3088SOL    HW220901   3.143   2.775  12.163  0.1385  0.0082 -1.2379
 3089SOL     OW20902   2.843   2.151   9.933 -0.0341 -0.2687 -0.1748
 3089SOL    HW120903   2.849   2.060   9.963  1.3076  0.1711  0.9204
 3089SOL    HW220904   2.933   2.184   9.939 -0.4204  0.2690  2.8894
 3090SOL     OW20905   2.224   3.184  10.906 -0.1206  0.0417  0.5725
 3090SOL    HW120906   2.266   3.120  10.963 -0.2381  0.1840  0.8184
 3090SOL    HW220907   2.290   3.246  10.874 -0.8630 -0.3449 -1.7345
 3091SOL     OW20908   0.621   2.028   9.984 -0.0221  0.3545 -0.8181
 3091SOL    HW120909   0.661   2.104   9.943  0.2784  1.1002  0.8710
 3091SOL    HW220910   0.667   2.022  10.068 -3.4234  0.2707  1.0717
 3092SOL     OW20911   3.739   3.647   5.203 -0.4677 -0.4856  0.3701
 3092SOL    HW120912   3.809   3.595   5.243  0.0957  0.2375  0.3128
 3092SOL    HW220913   3.792   3.712   5.157 -0.1605 -1.9316 -1.3169
 3093SOL     OW20914   4.584   4.506   4.460 -0.3787  0.1496 -0.0152
 3093SOL    HW120915   4.581   4.467   4.547 -0.1225 -0.8979 -0.4811
 3093SOL    HW220916   4.501   4.469   4.429 -1.2501  0.0891  2.4519
 3094SOL     OW20917   4.517   1.467   9.109  0.1085  0.0704 -0.0982
 3094SOL    HW120918   4.523   1.433   9.019 -0.7322  0.3678 -0.2673
 3094SOL    HW220919   4.551   1.553   9.087 -0.2655 -0.1418 -1.5463
 3095SOL     OW20920   4.561   2.638   2.932 -0.5039 -0.2158 -0.3190
 3095SOL    HW120921   4.609   2.706   2.979 -2.2738  1.5520 -1.0839
 3095SOL    HW220922   4.543   2.684   2.851  1.1837  2.9744  1.1077
 3096SOL     OW20923   0.822   2.106   2.033  0.1649  0.2189 -0.2832
 3096SOL    HW120924   0.889   2.081   1.969  1.0072  0.0244  0.6744
 3096SOL    HW220925   0.739   2.075   1.997  0.8667 -0.6703 -1.1401
 3097SOL     OW20926   4.481   0.689   7.007 -0.2479 -0.5926  0.1140
 3097SOL    HW120927   4.395   0.689   6.965 -1.2987  1.7630  2.2564
 3097SOL    HW220928   4.490   0.784   7.016 -0.2074 -0.8132  2.3981
 3098SOL     OW20929   0.466   0.131   5.486  0.4101 -0.2736 -0.2884
 3098SOL    HW120930   0.401   0.065   5.461 -1.3694  0.9132  1.2537
 3098SOL    HW220931   0.455   0.127   5.581  0.3878 -1.8649 -0.3580
 3099SOL     OW20932   3.688   3.094   5.570  0.4465 -0.2504 -0.0218
 3099SOL    HW120933   3.777   3.111   5.601  0.5046 -0.6686  0.0410
 3099SOL    HW220934   3.687   3.006   5.533 -0.3872 -1.0237  1.8584
 3100SOL     OW20935   2.588   0.472  14.066 -0.1052 -0.1366  0.0995
 3100SOL    HW120936   2.495   0.493  14.070 -0.0944 -0.3880  2.0861
 3100SOL    HW220937   2.614   0.561  14.044  2.1369 -1.4341 -2.3781
 3101SOL     OW20938   2.170   0.676   0.909 -0.0245 -0.8931 -0.2926
 3101SOL    HW120939   2.154   0.613   0.839  1.1988 -2.5328  0.8979
 3101SOL    HW220940   2.168   0.757   0.858  1.3156 -0.1186  0.8801
 3102SOL     OW20941   1.683   4.323  12.052  0.7586  0.5045  0.1694
 3102SOL    HW120942   1.725   4.375  11.983 -0.3816 -0.1230 -1.0108
 3102SOL    HW220943   1.764   4.313  12.101  0.8868 -2.3103 -0.6623
 3103SOL     OW20944   4.723   2.841  15.559 -0.1335 -0.0654 -0.0870
 3103SOL    HW120945   4.729   2.920  15.507  0.0043 -0.5029 -0.7353
 3103SOL    HW220946   4.682   2.781  15.496 -0.0428  0.0712 -0.2746
 3104SOL     OW20947   0.833   1.069   2.696  0.2176  0.0607  0.6522
 3104SOL    HW120948   0.913   1.035   2.657 -1.0506 -1.1454 -0.8887
 3104SOL    HW220949   0.769   1.084   2.627  0.6928  0.7764  0.3740
 3105SOL     OW20950   4.078   4.488   1.137 -0.0437  0.4848  0.3732
 3105SOL    HW120951   4.112   4.408   1.097 -2.1695 -0.0784 -0.3364
 3105SOL    HW220952   3.990   4.464   1.165  0.4148 -3.0235 -1.1929
 3106SOL     OW20953   4.200   4.684   6.929 -0.0454  0.1425 -0.2852
 3106SOL    HW120954   4.120   4.735   6.943  0.1953  0.8691 -1.6572
 3106SOL    HW220955   4.172   4.601   6.969  2.7682 -0.1542  1.0640
 3107SOL     OW20956   2.228   1.112   2.017  0.0606 -0.4772  0.0171
 3107SOL    HW120957   2.318   1.145   2.020 -1.0681  2.2059  4.1471
 3107SOL    HW220958   2.238   1.039   1.956  1.3634  1.1033 -1.6631
 3108SOL     OW20959   1.398   1.948  12.640 -0.4795  0.4411  0.1240
 3108SOL    HW120960   1.388   2.007  12.715 -0.6773  0.3025  0.2076
 3108SOL    HW220961   1.433   2.001  12.568  2.9681 -2.1934 -0.1223
 3109SOL     OW20962   0.644   4.159   0.350 -0.2553  0.3798  0.3743
 3109SOL    HW120963   0.670   4.082   0.299  0.5029 -0.0868  1.4625
 3109SOL    HW220964   0.696   4.230   0.310  0.7368 -0.0167  0.9599
 3110SOL     OW20965   2.375   4.462   4.373  0.0557 -0.4099 -0.6497
 3110SOL    HW120966   2.376   4.498   4.284  0.3680  0.9690 -0.1018
 3110SOL    HW220967   2.417   4.532   4.423  1.1687 -0.8810 -0.9260
 3111SOL     OW20968   0.263   3.457   6.868 -1.0396  0.0908 -0.3843
 3111SOL    HW120969   0.222   3.374   6.843 -2.7914  0.6958  0.4979
 3111SOL    HW220970   0.280   3.492   6.781 -0.4138  2.8352  0.8426
 3112SOL     OW20971   3.802   0.728   2.026 -0.4385 -0.2448 -0.0714
 3112SOL    HW120972   3.890   0.758   2.004  0.0243  0.1777  2.3802
 3112SOL    HW220973   3.739   0.797   2.003 -0.0974 -0.0464 -0.4129
 3113SOL     OW20974   3.969   3.474  16.779 -0.3383 -0.0844  0.5029
 3113SOL    HW120975   3.916   3.447  16.854  1.0369  0.5519  1.6854
 3113SOL    HW220976   4.035   3.404  16.781 -0.8839 -0.6550 -1.0820
 3114SOL     OW20977   3.517   3.434   7.680 -0.2115  0.5058 -0.0099
 3114SOL    HW120978   3.478   3.430   7.593 -1.7681 -0.5147  0.7376
 3114SOL    HW220979   3.458   3.503   7.712  0.8487  0.7810  1.3426
 3115SOL     OW20980   1.788   3.729   5.281  0.3730 -0.3706  0.1823
 3115SOL    HW120981   1.789   3.644   5.326  1.0697 -0.6628 -0.4018
 3115SOL    HW220982   1.831   3.773   5.355  0.3490  0.4115 -0.2752
 3116SOL     OW20983   3.105   3.292   4.936  0.4397  0.5948  0.4239
 3116SOL    HW120984   3.085   3.276   5.028  1.1560 -2.2565  0.0898
 3116SOL    HW220985   3.185   3.241   4.929 -0.6409 -0.8967 -1.1976
 3117SOL     OW20986   0.510   3.993   4.300  0.2190  0.0322 -0.3678
 3117SOL    HW120987   0.448   4.051   4.345 -0.2300  0.8862 -2.0805
 3117SOL    HW220988   0.582   4.054   4.282 -0.5874  1.5188  1.4366
 3118SOL     OW20989   0.166   2.186   7.298  0.1740  0.1889 -0.3316
 3118SOL    HW120990   0.255   2.213   7.318  0.1009 -0.4300  0.8334
 3118SOL    HW220991   0.121   2.209   7.379  2.4496  2.0690  0.4006
 3119SOL     OW20992   2.545   1.017   5.925 -0.0918 -0.2045 -0.0481
 3119SOL    HW120993   2.499   1.097   5.898  0.7589  0.3625  0.1736
 3119SOL    HW220994   2.464   0.969   5.941  0.8201 -1.0409  2.0921
 3120SOL     OW20995   3.863   1.537   3.561 -0.9236 -0.5601  0.0348
 3120SOL    HW120996   3.909   1.563   3.482 -0.9440  1.2453  0.6266
 3120SOL    HW220997   3.771   1.541   3.533 -0.3705  2.9719 -1.2124
 3121SOL     OW20998   0.681   2.617   8.149 -0.2756 -0.0307 -0.4375
 3121SOL    HW120999   0.616   2.684   8.171 -0.0915 -0.0951  0.3100
 3121SOL    HW221000   0.675   2.613   8.054  2.1213 -0.9855 -0.5693
 3122SOL     OW21001   2.921   0.341   0.276 -0.2259  0.3319 -0.5393
 3122SOL    HW121002   2.920   0.247   0.259  0.2560 -0.0044  1.3378
 3122SOL    HW221003   2.872   0.339   0.358  1.8345 -0.5141  0.6588
 3123SOL     OW21004   2.965   2.289   2.278  0.1725  0.0466 -0.0299
 3123SOL    HW121005   2.877   2.307   2.246 -0.2379  0.4059  1.3075
 3123SOL    HW221006   3.023   2.282   2.202  1.2917 -2.1369  1.0463
 3124SOL     OW21007   2.088   2.279   3.435  0.1418  0.2950 -0.0883
 3124SOL    HW121008   2.010   2.275   3.491  0.8391  0.1708  0.8737
 3124SOL    HW221009   2.140   2.348   3.477 -3.2854  0.2082  4.3282
 3125SOL     OW21010   2.306   1.960   5.233  0.3236  0.0789  0.1707
 3125SOL    HW121011   2.346   1.965   5.147 -0.0426 -1.6831 -0.0865
 3125SOL    HW221012   2.250   1.883   5.230 -0.2481  0.4786  0.6320
 3126SOL     OW21013   2.185   3.451   6.642  0.2076 -0.0258 -0.6651
 3126SOL    HW121014   2.186   3.442   6.737 -0.9154 -0.2896 -0.6858
 3126SOL    HW221015   2.091   3.453   6.625  0.0601 -2.9534 -0.1602
 3127SOL     OW21016   1.314   1.824   2.848  0.0172 -0.3238 -0.2058
 3127SOL    HW121017   1.229   1.793   2.880 -0.5044 -0.5195 -1.8140
 3127SOL    HW221018   1.304   1.920   2.846  2.5669 -0.0365  0.5564
 3128SOL     OW21019   2.061   1.703  10.813 -0.3240  0.7956  0.0908
 3128SOL    HW121020   2.144   1.747  10.798  0.3366 -0.8164 -0.9877
 3128SOL    HW221021   2.080   1.623  10.863 -0.7635 -0.1640 -1.2609
 3129SOL     OW21022   3.192   4.654   9.877 -0.2941  0.1983  0.0914
 3129SOL    HW121023   3.161   4.625   9.791 -1.0744  0.0973  0.4070
 3129SOL    HW221024   3.122   4.612   9.927 -0.7720  0.0950 -0.6582
 3130SOL     OW21025   1.101   4.111   7.860 -0.1060  0.2646 -0.1405
 3130SOL    HW121026   1.196   4.096   7.855 -0.3070 -1.8244  2.5930
 3130SOL    HW221027   1.097   4.195   7.815  4.0984  1.0152  0.9157
 3131SOL     OW21028   3.830   0.525  11.132  0.9599  0.4848 -0.9177
 3131SOL    HW121029   3.838   0.442  11.179  0.1134  0.0173 -1.6086
 3131SOL    HW221030   3.739   0.554  11.135  0.3500 -1.5775  0.7192
 3132SOL     OW21031   1.575   2.860   3.543  0.4412  0.1061 -0.4674
 3132SOL    HW121032   1.661   2.867   3.501  0.7224 -0.6058 -0.0006
 3132SOL    HW221033   1.548   2.770   3.525  1.4304  0.5926 -4.3558
 3133SOL     OW21034   2.722   2.377   3.422 -0.4411 -0.0346 -0.0367
 3133SOL    HW121035   2.702   2.435   3.495  1.2314  0.6665 -0.1281
 3133SOL    HW221036   2.773   2.321   3.480 -0.4574  0.8101  0.7863
 3134SOL     OW21037   0.838   4.260   0.113 -0.2135  0.5636 -0.2779
 3134SOL    HW121038   0.818   4.167   0.123  0.7055  0.2463 -1.3624
 3134SOL    HW221039   0.931   4.273   0.135 -0.7978 -2.0570  3.6541
 3135SOL     OW21040   3.378   4.511   6.784 -0.1186  0.3846  0.0107
 3135SOL    HW121041   3.363   4.565   6.706 -0.2051  0.8563  0.3514
 3135SOL    HW221042   3.348   4.570   6.853 -1.1949 -1.5076  1.1571
 3136SOL     OW21043   0.274   3.729   6.970  0.1968  0.1633 -0.4953
 3136SOL    HW121044   0.224   3.662   6.924  1.7358 -0.7626 -0.8170
 3136SOL    HW221045   0.247   3.733   7.062 -0.3202 -0.3532 -0.6252
 3137SOL     OW21046   1.968   2.248  13.193  0.2393 -0.7619  0.0441
 3137SOL    HW121047   2.026   2.175  13.169  0.7305  0.1047 -1.3901
 3137SOL    HW221048   2.021   2.303  13.250  1.6834 -0.8908 -1.1761
 3138SOL     OW21049   3.307   1.273   6.218 -0.5093  0.1745  0.2067
 3138SOL    HW121050   3.269   1.318   6.293 -0.2037 -1.3608  1.2732
 3138SOL    HW221051   3.256   1.312   6.146  0.8351  0.4128 -0.6177
 3139SOL     OW21052   1.850   0.931   8.267  0.4075 -0.3580 -0.0771
 3139SOL    HW121053   1.861   0.837   8.256 -3.4153 -0.5779 -1.8205
 3139SOL    HW221054   1.934   0.958   8.305  0.7752 -0.3301 -0.9023
 3140SOL     OW21055   1.295   4.140   1.426 -0.2746 -0.6849  0.1473
 3140SOL    HW121056   1.261   4.229   1.437 -1.4083 -1.1602  0.4830
 3140SOL    HW221057   1.235   4.095   1.367  2.6099 -2.3801 -1.4870
 3141SOL     OW21058   0.909   0.673   3.155  0.5637  0.6673 -0.5694
 3141SOL    HW121059   0.887   0.704   3.068 -0.3910 -0.6400 -0.7901
 3141SOL    HW221060   0.880   0.582   3.142 -0.6000  1.2732 -2.1748
 3142SOL     OW21061   1.419   4.231   4.578  0.1701  0.1344 -0.2342
 3142SOL    HW121062   1.493   4.181   4.545 -0.5958  0.3119 -2.2891
 3142SOL    HW221063   1.382   4.159   4.629  2.6469  0.7170  2.3691
 3143SOL     OW21064   3.376   0.566  14.895 -0.3096  0.4822  0.2550
 3143SOL    HW121065   3.355   0.478  14.927  1.0451 -0.1053 -0.4343
 3143SOL    HW221066   3.468   0.567  14.923 -0.3880  0.0965  0.5294
 3144SOL     OW21067   0.998   1.234   0.963  0.7456  0.5669 -0.3149
 3144SOL    HW121068   0.955   1.180   1.030  0.4093  0.2306 -0.8006
 3144SOL    HW221069   0.982   1.326   0.983  1.3275  0.3571  1.0908
 3145SOL     OW21070   3.062   1.627   7.265  0.1020 -0.5391  0.1303
 3145SOL    HW121071   3.131   1.649   7.202  1.1206 -0.6672  1.1976
 3145SOL    HW221072   3.015   1.567   7.207 -0.0895  0.1576 -0.4440
 3146SOL     OW21073   3.873   3.159   9.271 -0.8042 -0.8652 -0.0317
 3146SOL    HW121074   3.819   3.132   9.197 -4.0321  1.0071  1.6321
 3146SOL    HW221075   3.952   3.110   9.248 -0.3492 -0.5636  0.8710
 3147SOL     OW21076   2.607   1.707   4.761  0.3666 -0.0965 -0.1811
 3147SOL    HW121077   2.515   1.720   4.740 -0.2883 -2.1492  1.5122
 3147SOL    HW221078   2.603   1.675   4.850 -1.7155 -1.5119 -0.7895
 3148SOL     OW21079   2.811   3.724   1.917  0.5816 -0.5513  0.4820
 3148SOL    HW121080   2.866   3.695   1.990  0.9232  0.8791  0.8075
 3148SOL    HW221081   2.855   3.688   1.841  0.9272  0.8892  0.0017
 3149SOL     OW21082   2.555   0.256  15.685 -0.0972 -0.1128  0.2086
 3149SOL    HW121083   2.620   0.308  15.637  0.4003 -1.2924 -0.4011
 3149SOL    HW221084   2.595   0.170  15.696  1.7209  0.4386 -1.9756
 3150SOL     OW21085   0.082   1.899   6.457 -0.6410 -0.0873  0.0080
 3150SOL    HW121086   4.726   1.922   6.451 -0.5092  0.1822 -0.9361
 3150SOL    HW221087   0.075   1.820   6.511 -1.6382 -0.1979 -0.2921
 3151SOL     OW21088   3.259   1.976  10.856  0.0740 -0.3620  0.4266
 3151SOL    HW121089   3.219   1.893  10.883  2.2361 -1.2835  0.7699
 3151SOL    HW221090   3.341   1.939  10.823  0.2827 -0.6360  1.2442
 3152SOL     OW21091   3.983   4.252  14.588 -0.6780 -0.9644  0.4402
 3152SOL    HW121092   4.033   4.200  14.526  0.2893  0.3025  0.1624
 3152SOL    HW221093   4.050   4.276  14.653 -1.2751 -0.4412  0.8686
 3153SOL     OW21094   4.535   1.008   9.783 -0.3869 -0.2467  0.7642
 3153SOL    HW121095   4.457   1.041   9.738  0.2159  1.5985  1.0863
 3153SOL    HW221096   4.600   1.040   9.720  1.0741 -2.8858  0.9186
 3154SOL     OW21097   2.453   0.038  16.980 -0.0037 -0.0783 -0.0507
 3154SOL    HW121098   2.376   0.094  16.990  0.0246 -0.1530  0.6396
 3154SOL    HW221099   2.430   4.726  16.902 -1.9331 -1.4193  1.3559
 3155SOL     OW21100   2.443   3.711   2.703 -0.2253  0.5564 -0.5355
 3155SOL    HW121101   2.357   3.746   2.727  0.1392  1.1929 -0.1379
 3155SOL    HW221102   2.482   3.793   2.672  0.1193  1.3692  2.0188
 3156SOL     OW21103   0.540   4.608   5.351  0.4179 -0.1422  0.3976
 3156SOL    HW121104   0.570   4.598   5.442  2.1902  1.1451 -0.0604
 3156SOL    HW221105   0.449   4.627   5.376  0.5628  0.6978  0.2702
 3157SOL     OW21106   3.660   4.021  17.220 -0.2948 -0.1573  0.1311
 3157SOL    HW121107   3.610   3.974  17.153 -0.9515  0.1442  0.4052
 3157SOL    HW221108   3.590   4.046  17.280  0.8245  0.6170  1.1054
 3158SOL     OW21109   1.417   2.165   3.104 -0.0424  0.5157  0.2056
 3158SOL    HW121110   1.441   2.253   3.136  1.2078  0.1242  0.3466
 3158SOL    HW221111   1.449   2.111   3.177 -0.1074  2.1159  1.4322
 3159SOL     OW21112   1.965   3.447   1.583  0.1515 -0.2630 -0.7102
 3159SOL    HW121113   2.018   3.507   1.634  0.9969 -0.3967 -1.4386
 3159SOL    HW221114   1.880   3.466   1.623  0.7626 -0.1278  0.5010
 3160SOL     OW21115   4.350   2.389  15.417  0.0525  0.0460 -0.0321
 3160SOL    HW121116   4.330   2.435  15.498 -1.7294  1.4899 -1.2694
 3160SOL    HW221117   4.440   2.362  15.437  0.2882  0.7955 -0.0531
 3161SOL     OW21118   0.626   2.981   3.707 -0.2653  0.4313 -0.0690
 3161SOL    HW121119   0.664   2.904   3.748  1.7471  0.2525 -2.2992
 3161SOL    HW221120   0.537   2.949   3.694 -1.2404  1.5487  3.7268
 3162SOL     OW21121   0.571   0.850   9.507  0.4111  0.0971 -0.1469
 3162SOL    HW121122   0.655   0.876   9.468 -0.7999  1.6085 -1.7258
 3162SOL    HW221123   0.525   0.800   9.440 -0.2868 -0.1622  0.5289
 3163SOL     OW21124   3.446   3.320   8.902  0.5013  0.1398 -0.3190
 3163SOL    HW121125   3.534   3.358   8.895  0.8971 -0.9056 -1.0163
 3163SOL    HW221126   3.409   3.337   8.815 -1.2928  0.5368  0.5154
 3164SOL     OW21127   0.296   1.478   8.343 -0.2342  0.3842 -0.3203
 3164SOL    HW121128   0.329   1.389   8.324 -1.1883 -0.4664  2.0250
 3164SOL    HW221129   0.251   1.505   8.264 -1.9273 -0.5991  0.3207
 3165SOL     OW21130   0.251   2.453   0.866  0.1938 -0.3070 -0.4145
 3165SOL    HW121131   0.246   2.361   0.893  1.1416 -0.5156 -0.9437
 3165SOL    HW221132   0.289   2.438   0.779 -1.0297  0.8315 -1.1343
 3166SOL     OW21133   0.091   2.080  12.758  0.2801 -0.0364  0.0399
 3166SOL    HW121134   0.022   2.118  12.704 -0.3713 -0.9819  0.2217
 3166SOL    HW221135   0.165   2.130  12.722 -0.1020 -1.8375 -3.2719
 3167SOL     OW21136   3.083   3.150   6.064 -0.4145  0.4688 -0.4019
 3167SOL    HW121137   3.165   3.194   6.042 -0.3095  0.2293 -0.4925
 3167SOL    HW221138   3.074   3.167   6.158  0.2108  3.4005 -0.8898
 3168SOL     OW21139   2.908   0.151   3.890  0.0891 -0.3400  0.1750
 3168SOL    HW121140   2.938   0.098   3.964 -0.5010 -0.2746  0.4605
 3168SOL    HW221141   2.822   0.113   3.877 -0.1287 -1.2411  4.3040
 3169SOL     OW21142   0.888   4.368   6.337 -0.0873  0.8573  0.3904
 3169SOL    HW121143   0.847   4.346   6.420  1.3732 -1.9631  0.3659
 3169SOL    HW221144   0.913   4.459   6.349  2.1928  0.0182  2.0953
 3170SOL     OW21145   1.157   2.981   9.142  0.0966 -0.0280  0.0024
 3170SOL    HW121146   1.138   3.060   9.192  0.6630 -0.7166  1.3102
 3170SOL    HW221147   1.220   3.016   9.080  1.6100 -1.9779  0.4223
 3171SOL     OW21148   1.522   2.901  17.209 -0.3086  0.2956  0.0330
 3171SOL    HW121149   1.492   2.955  17.136  0.6771  1.7886  0.7281
 3171SOL    HW221150   1.448   2.895  17.268  0.7934  0.7747  1.4679
 3172SOL     OW21151   3.992   3.853  14.606 -0.3883  0.1303 -0.8216
 3172SOL    HW121152   3.957   3.922  14.663  1.4933 -0.1366  0.6903
 3172SOL    HW221153   4.000   3.785  14.674  1.4133 -0.8330 -2.0017
 3173SOL     OW21154   3.435   0.611   8.276 -0.4120  0.3188  0.1630
 3173SOL    HW121155   3.388   0.678   8.326 -0.1491 -1.0156  2.2060
 3173SOL    HW221156   3.381   0.618   8.198  0.7376 -1.4945 -0.7853
 3174SOL     OW21157   3.905   0.678  11.540  0.4341 -0.3956 -0.4098
 3174SOL    HW121158   3.900   0.720  11.455  0.4393  1.3614  0.4628
 3174SOL    HW221159   3.984   0.625  11.529  1.3084  0.8516 -0.1926
 3175SOL     OW21160   1.558   4.155  14.740  0.5868  0.1172 -0.1727
 3175SOL    HW121161   1.483   4.204  14.706  1.8048  0.2912 -2.6015
 3175SOL    HW221162   1.564   4.182  14.832  0.3951  1.4343 -0.5426
 3176SOL     OW21163   3.496   3.140   3.322 -0.2794  0.2230 -0.4537
 3176SOL    HW121164   3.587   3.132   3.296 -0.0910  2.5416 -0.5269
 3176SOL    HW221165   3.471   3.048   3.317  0.9570 -0.1143 -0.2253
 3177SOL     OW21166   1.008   1.862  14.820  1.0136  0.3296  0.1397
 3177SOL    HW121167   1.033   1.940  14.870  1.2288  1.6005 -1.9946
 3177SOL    HW221168   0.947   1.895  14.755  0.9934  0.1750  0.0785
 3178SOL     OW21169   0.487   0.394   9.843 -0.3897  0.7797 -0.2809
 3178SOL    HW121170   0.486   0.322   9.779  1.3430  0.7077 -0.2259
 3178SOL    HW221171   0.566   0.438   9.812 -0.9088  1.0263 -1.2506
 3179SOL     OW21172   2.672   2.659   8.499  0.2146 -0.1626  0.3400
 3179SOL    HW121173   2.673   2.638   8.592 -1.2981 -1.0546  0.1630
 3179SOL    HW221174   2.761   2.642   8.470  1.2950  1.4985  2.7130
 3180SOL     OW21175   1.014   3.281   7.226  0.3230  0.4891  0.5929
 3180SOL    HW121176   1.002   3.259   7.133  0.9967 -0.3037  0.6900
 3180SOL    HW221177   1.102   3.248   7.243 -0.4360 -2.6208 -1.3283
 3181SOL     OW21178   4.370   2.909   5.633  0.1682 -0.3588 -0.1558
 3181SOL    HW121179   4.374   2.923   5.727 -0.0681  1.9435 -0.5014
 3181SOL    HW221180   4.303   2.841   5.632 -0.5232  0.3412 -0.9822
 3182SOL     OW21181   1.009   0.621   4.541 -0.0792  0.8313 -0.1557
 3182SOL    HW121182   1.003   0.526   4.548 -3.2149  1.0820  0.8778
 3182SOL    HW221183   1.005   0.627   4.445  2.4834 -4.1387 -0.5779
 3183SOL     OW21184   4.053   4.634   7.850 -0.0494 -0.0328 -0.3653
 3183SOL    HW121185   4.029   4.693   7.921 -1.0630  1.1630 -1.7153
 3183SOL    HW221186   4.130   4.594   7.892  0.3489  0.7740 -0.3388
 3184SOL     OW21187   4.437   0.490   5.594  0.8659 -0.2419  0.0031
 3184SOL    HW121188   4.379   0.416   5.614  0.1544  0.3972  0.2722
 3184SOL    HW221189   4.457   0.477   5.501 -0.3831 -0.4006 -0.2360
 3185SOL     OW21190   2.361   3.553   7.276  0.1198  0.2964 -0.1113
 3185SOL    HW121191   2.277   3.549   7.231 -0.4327  1.3942  0.8367
 3185SOL    HW221192   2.386   3.461   7.284  1.9672  0.9460  1.7531
 3186SOL     OW21193   3.694   2.469  12.326 -0.7122 -0.4521  0.2036
 3186SOL    HW121194   3.674   2.551  12.281  0.3299  0.2144  0.9625
 3186SOL    HW221195   3.645   2.480  12.407 -0.4012  0.3623  0.2728
 3187SOL     OW21196   0.921   0.184   8.070 -0.1857 -0.1169  0.4883
 3187SOL    HW121197   0.928   0.268   8.117 -0.1801  0.0235  0.2370
 3187SOL    HW221198   0.923   0.123   8.144 -1.2171 -3.5800 -2.3438
 3188SOL     OW21199   1.870   0.760  15.297 -0.1756 -0.4043  0.4874
 3188SOL    HW121200   1.870   0.705  15.218  1.6587 -0.7315  0.6962
 3188SOL    HW221201   1.822   0.835  15.261  1.2457  1.1540  1.8546
 3189SOL     OW21202   0.469   2.652   2.243 -0.1838  0.1811 -0.0384
 3189SOL    HW121203   0.471   2.646   2.338  0.8202  1.1450 -0.0018
 3189SOL    HW221204   0.560   2.627   2.228 -1.0037 -0.9482 -3.1223
 3190SOL     OW21205   1.502   2.793  12.587 -0.7208 -0.0731  0.1691
 3190SOL    HW121206   1.509   2.863  12.651 -1.8805  0.4413 -0.2669
 3190SOL    HW221207   1.431   2.826  12.531  0.6538 -1.1035 -2.2085
 3191SOL     OW21208   3.605   0.096   2.503  0.1846  0.4399  0.6961
 3191SOL    HW121209   3.668   0.048   2.558 -1.2358 -0.1754  1.7853
 3191SOL    HW221210   3.531   0.035   2.498  0.5483  0.0279  0.2281
 3192SOL     OW21211   1.613   4.679   3.200 -0.2465  0.3962  0.2488
 3192SOL    HW121212   1.635   4.734   3.275 -0.0459 -0.2734  0.6843
 3192SOL    HW221213   1.669   4.604   3.219 -0.0791  0.6001  0.5657
 3193SOL     OW21214   3.988   0.593  15.623  0.0453  0.2724 -0.3549
 3193SOL    HW121215   3.956   0.573  15.535  1.6523  1.1948 -1.1579
 3193SOL    HW221216   3.946   0.527  15.678  0.3376 -0.6806 -1.2819
 3194SOL     OW21217   2.099   0.419   8.155 -0.4490  0.4873  0.2167
 3194SOL    HW121218   2.141   0.472   8.223 -0.3427 -0.0532  0.5736
 3194SOL    HW221219   2.169   0.417   8.090  1.5901  1.4435  2.3796
 3195SOL     OW21220   0.601   4.288   1.813  0.6183  0.0189  0.5095
 3195SOL    HW121221   0.664   4.245   1.755  0.0027 -0.7247  0.3868
 3195SOL    HW221222   0.516   4.260   1.780  0.6652 -1.2358  1.4448
 3196SOL     OW21223   2.463   0.191   1.241 -0.1226 -0.6492  0.1136
 3196SOL    HW121224   2.420   0.237   1.312 -0.6494 -2.2055  0.7865
 3196SOL    HW221225   2.503   0.261   1.189  0.0946  0.5404  1.8879
 3197SOL     OW21226   2.750   3.762   4.009  0.0881 -0.1126  0.1295
 3197SOL    HW121227   2.768   3.675   4.043 -1.3740 -0.2662  0.4691
 3197SOL    HW221228   2.821   3.762   3.944  1.7151 -0.6417  1.8909
 3198SOL     OW21229   0.438   3.604   0.609 -0.6684 -0.0586  0.3940
 3198SOL    HW121230   0.443   3.696   0.637 -0.0642 -0.0610  0.2961
 3198SOL    HW221231   0.365   3.617   0.548  0.5244  2.6178 -0.4674
 3199SOL     OW21232   0.629   1.879   6.152 -0.2059  0.0609  1.0105
 3199SOL    HW121233   0.602   1.795   6.116 -1.0539  0.1915  1.3416
 3199SOL    HW221234   0.721   1.861   6.169  0.0285  0.5121  0.2217
 3200SOL     OW21235   4.212   1.448  16.631  0.0056 -0.1482  0.2029
 3200SOL    HW121236   4.117   1.446  16.634  0.0084 -0.0217  0.3796
 3200SOL    HW221237   4.230   1.532  16.588 -0.8353  0.9352  1.9938
 3201SOL     OW21238   3.612   4.399   7.580  0.6088  0.5571  0.1304
 3201SOL    HW121239   3.644   4.327   7.635 -1.1367  0.3440  0.8692
 3201SOL    HW221240   3.536   4.436   7.626  0.6666 -1.0606  1.5281
 3202SOL     OW21241   4.089   3.638  17.277  0.3815  0.0775 -0.2320
 3202SOL    HW121242   4.120   3.652  17.187  1.5060 -2.2684 -0.1968
 3202SOL    HW221243   4.037   3.717  17.294 -1.7022 -0.6352 -3.3032
 3203SOL     OW21244   0.926   4.116   8.499  0.0531  0.3679 -0.1727
 3203SOL    HW121245   1.001   4.089   8.553  0.3060 -0.6226 -1.0213
 3203SOL    HW221246   0.964   4.189   8.451 -1.0719 -0.6968 -2.6888
 3204SOL     OW21247   2.503   3.469   9.650  0.5071  0.4874 -0.0646
 3204SOL    HW121248   2.566   3.485   9.720 -1.4784 -0.2345  1.9086
 3204SOL    HW221249   2.507   3.550   9.599 -0.1628  0.9132  0.5560
 3205SOL     OW21250   2.449   4.483  12.960 -0.3090  0.0435  0.2201
 3205SOL    HW121251   2.378   4.480  13.024 -1.2226  0.7780 -0.7495
 3205SOL    HW221252   2.475   4.392  12.947 -1.8539 -0.3752  0.0400
 3206SOL     OW21253   1.119   3.716   5.265  0.4956 -0.2298  0.3542
 3206SOL    HW121254   1.089   3.806   5.247  0.5451 -0.0442  1.2069
 3206SOL    HW221255   1.154   3.686   5.182 -0.2894  0.7614 -0.3386
 3207SOL     OW21256   1.373   0.541   3.637 -0.3604  0.0539 -0.3163
 3207SOL    HW121257   1.349   0.514   3.726 -0.3786 -0.0891 -0.3642
 3207SOL    HW221258   1.287   0.537   3.595 -0.5323 -3.4754  0.4201
 3208SOL     OW21259   4.240   4.532  11.176 -0.2330 -0.2871  0.1745
 3208SOL    HW121260   4.314   4.514  11.234  0.5584  2.0532 -0.1133
 3208SOL    HW221261   4.167   4.531  11.238  1.0803  0.7725  1.7209
 3209SOL     OW21262   4.366   4.055   3.624  0.4823 -0.6990  0.3229
 3209SOL    HW121263   4.280   4.069   3.586  1.3770 -0.1076 -1.4880
 3209SOL    HW221264   4.396   4.146   3.624 -0.4126 -0.4050  0.0415
 3210SOL     OW21265   1.330   2.954   8.662  0.0322  0.2955  0.2290
 3210SOL    HW121266   1.265   2.957   8.592 -1.0664 -0.1276  1.2378
 3210SOL    HW221267   1.379   2.873   8.647 -0.9701 -0.8447  3.1704
 3211SOL     OW21268   3.319   2.661   3.826 -0.0954 -0.1571  0.2516
 3211SOL    HW121269   3.383   2.676   3.756  0.0778  0.0360  0.4502
 3211SOL    HW221270   3.330   2.568   3.847  0.6864 -0.1350 -0.0379
 3212SOL     OW21271   3.998   2.639   4.830 -0.7657 -0.4111  0.2459
 3212SOL    HW121272   4.001   2.733   4.849 -2.0981 -0.0164 -1.4801
 3212SOL    HW221273   4.078   2.630   4.779  0.2236 -3.5316  2.3676
 3213SOL     OW21274   2.556   4.252   7.749  0.4620 -0.0151  0.2539
 3213SOL    HW121275   2.574   4.297   7.831 -2.0361 -1.6908  1.7050
 3213SOL    HW221276   2.516   4.171   7.780 -0.0006  0.8743  1.9465
 3214SOL     OW21277   0.229   3.686  10.472  0.3713  0.2829  0.7181
 3214SOL    HW121278   0.208   3.598  10.502 -0.9849  0.2558 -0.3260
 3214SOL    HW221279   0.147   3.703  10.426 -0.2573 -0.0939  1.6882
 3215SOL     OW21280   3.105   4.476  13.545  0.6743  0.1930  0.6512
 3215SOL    HW121281   3.027   4.529  13.529  0.7807  0.0425 -0.3667
 3215SOL    HW221282   3.061   4.394  13.565  1.1277 -0.5486 -1.3899
 3216SOL     OW21283   1.458   1.363   5.103 -0.0282 -0.3027 -0.1494
 3216SOL    HW121284   1.390   1.404   5.157 -0.4584 -0.6371 -0.4296
 3216SOL    HW221285   1.468   1.287   5.162 -1.1683 -1.6320 -1.6566
 3217SOL     OW21286   2.311   2.931   8.810 -0.2850 -0.6995 -0.3849
 3217SOL    HW121287   2.263   2.991   8.754 -0.9119 -1.4404 -0.6364
 3217SOL    HW221288   2.247   2.929   8.881 -0.1180 -1.1115 -0.2466
 3218SOL     OW21289   1.578   1.217   0.659  0.1622 -0.0399 -0.1295
 3218SOL    HW121290   1.549   1.205   0.569  0.7083 -1.7417 -0.0738
 3218SOL    HW221291   1.598   1.127   0.685 -2.2998  0.0599  2.0979
 3219SOL     OW21292   0.708   4.532   2.922  1.0806  0.1224 -0.0360
 3219SOL    HW121293   0.636   4.500   2.976 -0.6258  2.4922 -0.9415
 3219SOL    HW221294   0.716   4.624   2.948  0.2763  0.0588  0.4456
 3220SOL     OW21295   4.734   0.245   7.769  0.0285 -0.1835 -0.6171
 3220SOL    HW121296   4.665   0.185   7.798 -0.2713  0.5628  0.2271
 3220SOL    HW221297   0.012   0.212   7.681 -0.9249 -0.5996 -0.6161
 3221SOL     OW21298   4.384   1.778   8.367  0.0297  0.2667 -0.2759
 3221SOL    HW121299   4.394   1.703   8.427  2.2226 -0.1186 -1.1323
 3221SOL    HW221300   4.289   1.790   8.372 -0.1468 -0.4494 -1.8622
 3222SOL     OW21301   1.250   1.236  17.403 -0.4052  0.5700 -0.0782
 3222SOL    HW121302   1.180   1.174  17.383 -2.2764  2.6351  0.1170
 3222SOL    HW221303   1.322   1.192  17.448 -0.9706 -2.4195 -2.0455
 3223SOL     OW21304   3.790   3.313  12.857 -0.2092 -0.6396 -0.5667
 3223SOL    HW121305   3.773   3.323  12.951 -1.7243 -0.2073 -0.8858
 3223SOL    HW221306   3.883   3.297  12.870  0.1075  0.7934 -1.1618
 3224SOL     OW21307   3.097   3.988  13.418  0.2933 -0.4437  0.4712
 3224SOL    HW121308   3.174   4.025  13.375 -0.0386  0.2153  0.4369
 3224SOL    HW221309   3.118   3.998  13.511  0.4014 -0.9459  0.5026
 3225SOL     OW21310   3.723   3.462  13.089  0.7333 -0.0528  0.1675
 3225SOL    HW121311   3.733   3.531  13.024  2.4696  1.4425  2.0092
 3225SOL    HW221312   3.632   3.437  13.074  1.0612 -1.1878  0.0165
 3226SOL     OW21313   3.691   3.645   4.191  0.1300 -0.7996 -0.1469
 3226SOL    HW121314   3.686   3.702   4.115 -0.4532 -1.1166 -0.3377
 3226SOL    HW221315   3.619   3.587   4.169 -0.6530  0.3946 -0.6980
 3227SOL     OW21316   0.886   2.648   3.308 -0.1764  0.1047 -0.4653
 3227SOL    HW121317   0.877   2.561   3.268  0.6311  0.6524 -1.8339
 3227SOL    HW221318   0.824   2.700   3.257 -1.7349 -1.0480  0.2410
 3228SOL     OW21319   2.429   2.344   6.526 -0.3783 -0.0213 -0.3015
 3228SOL    HW121320   2.443   2.409   6.458 -0.1803  1.3328  1.0431
 3228SOL    HW221321   2.515   2.325   6.563  0.1406  0.4548 -1.2600
 3229SOL     OW21322   1.640   0.677   0.159  0.7237  0.5484  0.0217
 3229SOL    HW121323   1.604   0.598   0.120  0.2649  2.3682 -3.2062
 3229SOL    HW221324   1.575   0.696   0.227  0.2697  1.8815 -0.7789
 3230SOL     OW21325   1.366   2.349   1.398  0.2445 -0.3948  0.1666
 3230SOL    HW121326   1.312   2.316   1.471  0.5372  0.3330  0.7175
 3230SOL    HW221327   1.456   2.330   1.424 -0.4890 -1.8614  1.6546
 3231SOL     OW21328   1.044   0.368   4.695 -0.2787 -0.2084 -0.5212
 3231SOL    HW121329   1.075   0.379   4.785 -0.5664  0.2629 -0.4839
 3231SOL    HW221330   0.990   0.291   4.713 -0.1925  0.0607  0.9345
 3232SOL     OW21331   0.717   0.232   8.588 -0.4990 -0.3058  0.0357
 3232SOL    HW121332   0.712   0.248   8.493 -0.5229  1.3540  0.3147
 3232SOL    HW221333   0.702   0.138   8.583  1.4465 -0.6030 -0.2610
 3233SOL     OW21334   1.598   3.831   8.974 -0.2253 -1.1024 -0.0453
 3233SOL    HW121335   1.678   3.780   8.958  0.0547 -1.0771  1.2876
 3233SOL    HW221336   1.530   3.780   8.931 -0.4933 -1.2093  0.5113
 3234SOL     OW21337   4.699   2.306   9.804  0.4349 -0.5490 -0.2848
 3234SOL    HW121338   4.699   2.223   9.852 -2.5988 -0.3028  0.1660
 3234SOL    HW221339   4.662   2.270   9.723  0.2963 -1.4261  0.1599
 3235SOL     OW21340   3.922   2.347   1.487  0.3918  0.4784 -0.4641
 3235SOL    HW121341   3.997   2.388   1.530 -0.1810 -0.7733  1.7443
 3235SOL    HW221342   3.878   2.299   1.557 -2.8985  0.5555 -2.4603
 3236SOL     OW21343   0.417   1.364   0.944  0.4635  0.7597 -0.2224
 3236SOL    HW121344   0.444   1.409   1.024 -1.8961  2.9582 -0.6612
 3236SOL    HW221345   0.345   1.311   0.976  0.6759  0.2412 -0.6052
 3237SOL     OW21346   3.647   0.074   6.617  0.6152 -0.0319 -0.0573
 3237SOL    HW121347   3.636   0.012   6.689 -1.5925 -0.8126 -1.0637
 3237SOL    HW221348   3.595   0.042   6.543 -0.0738  0.7633  0.0853
 3238SOL     OW21349   2.960   2.986   5.780 -0.6630  0.5370 -0.3076
 3238SOL    HW121350   2.978   3.076   5.751  2.6351  0.0053  0.0601
 3238SOL    HW221351   2.889   3.002   5.842 -0.8226 -0.4510 -0.2439
 3239SOL     OW21352   2.266   1.130   1.640  0.2607  0.3747  0.1621
 3239SOL    HW121353   2.278   1.208   1.585  0.1598  0.3191  0.0608
 3239SOL    HW221354   2.357   1.118   1.668  0.2791  2.8317  1.1521
 3240SOL     OW21355   2.321   3.061  17.229 -0.3272  0.3670  0.3269
 3240SOL    HW121356   2.402   3.021  17.197  0.4110  3.6547 -1.9725
 3240SOL    HW221357   2.267   3.088  17.155  1.1813 -0.0661 -0.9397
 3241SOL     OW21358   1.466   0.079   4.971  0.1750 -0.4658 -0.1191
 3241SOL    HW121359   1.444   0.060   4.880  0.9797 -0.8712 -0.2268
 3241SOL    HW221360   1.382   0.073   5.018  0.0589  1.9966 -0.0016
 3242SOL     OW21361   0.441   4.414   1.545 -0.3562 -0.5150 -0.2139
 3242SOL    HW121362   0.406   4.342   1.597  0.5523 -2.5944 -2.5021
 3242SOL    HW221363   0.404   4.487   1.594 -1.6223 -0.3113 -1.4660
 3243SOL     OW21364   2.393   2.166  10.736  0.0885  0.4270  0.2940
 3243SOL    HW121365   2.427   2.086  10.778  0.0216 -0.0208 -0.4995
 3243SOL    HW221366   2.309   2.152  10.780 -0.1819  0.9559 -0.0625
 3244SOL     OW21367   0.422   1.085   6.063  0.1540  0.6298  0.5499
 3244SOL    HW121368   0.432   1.017   6.130  0.8143  0.9260  0.7477
 3244SOL    HW221369   0.331   1.098   6.089 -0.5216  2.3548 -2.7091
 3245SOL     OW21370   3.160   4.566   4.807 -0.5533 -0.0796  0.1361
 3245SOL    HW121371   3.189   4.476   4.794  2.3863  0.8195  0.5966
 3245SOL    HW221372   3.078   4.552   4.854 -0.0805  2.2708  1.7072
 3246SOL     OW21373   1.391   3.849   7.119 -0.6292  0.1387  0.0743
 3246SOL    HW121374   1.336   3.861   7.041 -0.0710  1.5008 -0.1062
 3246SOL    HW221375   1.320   3.807   7.168  1.1240 -0.1921  2.2843
 3247SOL     OW21376   3.572   3.052  13.903  0.1125 -0.9154 -0.4131
 3247SOL    HW121377   3.561   3.145  13.922  0.5421 -1.0794  0.6562
 3247SOL    HW221378   3.490   3.020  13.866 -0.3740 -1.6486  1.2946
 3248SOL     OW21379   4.699   1.255   6.006  0.2206 -0.5773  0.6568
 3248SOL    HW121380   4.606   1.259   6.029  0.6375  3.7818  1.6733
 3248SOL    HW221381   4.716   1.336   5.957 -1.8949 -0.2307  0.4605
 3249SOL     OW21382   4.672   1.304   4.047 -0.0215  0.0230 -0.3243
 3249SOL    HW121383   4.681   1.276   4.138 -3.1655 -0.0415 -0.0437
 3249SOL    HW221384   4.667   1.215   4.010 -3.3388  0.0274  0.1314
 3250SOL     OW21385   0.312   2.241   8.252 -0.4193  0.1466  0.0685
 3250SOL    HW121386   0.346   2.225   8.164 -1.6431  1.1945 -0.5901
 3250SOL    HW221387   0.387   2.290   8.286 -0.6304 -0.3257  1.2259
 3251SOL     OW21388   4.535   3.083   1.843  0.2231 -0.1458  0.1007
 3251SOL    HW121389   4.472   3.072   1.772 -1.3355 -0.1604  1.4757
 3251SOL    HW221390   4.576   2.997   1.836  1.7627  0.4878  1.2784
 3252SOL     OW21391   2.822   2.136   6.689  0.2842  0.0910  0.0122
 3252SOL    HW121392   2.890   2.190   6.730 -0.2555 -1.2922  2.6867
 3252SOL    HW221393   2.749   2.196   6.704 -0.4108 -0.1527 -2.5579
 3253SOL     OW21394   1.748   0.783  17.624 -0.2867  0.2425  0.0602
 3253SOL    HW121395   1.675   0.759  17.681 -0.4109 -2.0269 -1.0596
 3253SOL    HW221396   1.821   0.790  17.686 -0.9482 -0.6579  0.9220
 3254SOL     OW21397   1.878   3.556   3.379 -0.0371 -0.2837 -0.0311
 3254SOL    HW121398   1.857   3.613   3.454  1.9741  0.6293 -0.1465
 3254SOL    HW221399   1.913   3.624   3.322  0.3841  2.0951  3.0136
 3255SOL     OW21400   2.768   2.051   9.094  0.0227  0.6012  0.7422
 3255SOL    HW121401   2.738   2.136   9.125 -0.2964  1.3160 -1.5386
 3255SOL    HW221402   2.688   2.003   9.119  1.9172 -2.5615  0.7112
 3256SOL     OW21403   4.435   3.053   2.819  0.2290 -0.2398 -0.4974
 3256SOL    HW121404   4.487   3.061   2.738 -0.4865  0.0028 -0.9318
 3256SOL    HW221405   4.443   3.145   2.844 -1.2150  0.6063 -3.1237
 3257SOL     OW21406   4.311   0.866   1.667  0.1732 -0.2994 -0.3221
 3257SOL    HW121407   4.392   0.819   1.644  1.3331  0.7689  1.5723
 3257SOL    HW221408   4.245   0.806   1.702  0.4483 -0.3809  0.0560
 3258SOL     OW21409   0.508   1.473  11.207  0.4748 -0.4373  0.3355
 3258SOL    HW121410   0.569   1.527  11.257 -0.4238  1.3221 -0.4550
 3258SOL    HW221411   0.542   1.384  11.216  0.7572 -0.5264 -1.5291
 3259SOL     OW21412   3.077   3.414   8.783 -0.0447 -0.0375  0.1377
 3259SOL    HW121413   2.994   3.376   8.812 -0.9779  0.0298 -2.4807
 3259SOL    HW221414   3.109   3.432   8.872  0.3806 -0.5695  0.0889
 3260SOL     OW21415   1.470   3.767  10.313  0.1294 -0.2918 -0.2757
 3260SOL    HW121416   1.416   3.697  10.278 -1.6394  1.5214 -1.1525
 3260SOL    HW221417   1.502   3.817  10.237  1.1158  1.3942  1.2357
 3261SOL     OW21418   3.623   1.485   4.426  0.2793 -0.1590  0.4672
 3261SOL    HW121419   3.560   1.476   4.498  1.8473  1.8482  2.1178
 3261SOL    HW221420   3.705   1.483   4.475  0.5787 -0.2677 -0.0401
 3262SOL     OW21421   0.850   0.968  17.105 -0.5072 -0.1821 -0.0649
 3262SOL    HW121422   0.878   1.007  17.022  2.4068 -0.0587  0.9720
 3262SOL    HW221423   0.799   0.889  17.085 -0.2628 -0.9630  2.4831
 3263SOL     OW21424   3.220   1.074   3.437  0.2294 -0.0622 -0.4572
 3263SOL    HW121425   3.226   0.988   3.394 -2.1421 -0.3018 -0.3280
 3263SOL    HW221426   3.309   1.105   3.423  0.2435 -0.5745 -1.5075
 3264SOL     OW21427   4.732   1.323   5.505 -0.1078  0.2274  0.1534
 3264SOL    HW121428   0.075   1.320   5.452 -0.4474  0.7269 -0.3866
 3264SOL    HW221429   4.684   1.401   5.477  1.5264  0.2747 -2.4627
 3265SOL     OW21430   4.319   1.312   7.538  0.2819  0.4869  0.7769
 3265SOL    HW121431   4.340   1.219   7.539 -1.5793  0.0845  1.4596
 3265SOL    HW221432   4.361   1.333   7.621 -0.1356  1.5385  0.7165
 3266SOL     OW21433   1.258   1.530   4.744 -0.3774 -0.4760  0.7802
 3266SOL    HW121434   1.224   1.617   4.723  0.8561  0.1863  1.5062
 3266SOL    HW221435   1.242   1.524   4.838 -0.3342  0.0551  0.8178
 3267SOL     OW21436   1.286   4.079   3.107  0.2571  0.4912 -0.2474
 3267SOL    HW121437   1.327   4.077   3.021 -0.7861  0.3536 -0.7465
 3267SOL    HW221438   1.315   4.168   3.128  2.6584 -1.0180  2.6280
 3268SOL     OW21439   4.688   2.735   6.216 -0.0374 -0.0771  0.1044
 3268SOL    HW121440   4.623   2.803   6.237  0.6753  0.4898  0.4630
 3268SOL    HW221441   4.634   2.656   6.224  0.9075 -0.9993 -2.7864
 3269SOL     OW21442   3.350   2.823   8.198  0.4576  0.2906  0.4574
 3269SOL    HW121443   3.311   2.736   8.188  2.4365 -0.5582  0.1162
 3269SOL    HW221444   3.442   2.801   8.183  0.1998 -0.2171 -0.3702
 3270SOL     OW21445   1.385   2.359  17.363 -0.5443 -0.2623  0.5701
 3270SOL    HW121446   1.374   2.315  17.278 -0.6677 -0.6600  0.7935
 3270SOL    HW221447   1.479   2.354  17.380 -0.5550 -0.4816  0.5723
 3271SOL     OW21448   0.229   0.620   3.194  0.6638 -0.0070 -0.1786
 3271SOL    HW121449   0.161   0.677   3.231  1.9482  2.0510 -0.9918
 3271SOL    HW221450   0.170   0.556   3.154 -0.1825 -0.4457  1.7514
 3272SOL     OW21451   4.097   1.833   4.617 -0.0825 -0.0429  0.1024
 3272SOL    HW121452   4.026   1.816   4.556 -0.0967 -1.7040  0.5907
 3272SOL    HW221453   4.048   1.902   4.664  1.3480  1.6728 -0.9126
 3273SOL     OW21454   1.263   3.267   2.165  0.6516 -0.3350 -0.5448
 3273SOL    HW121455   1.274   3.217   2.084 -4.6605 -1.9310 -0.3132
 3273SOL    HW221456   1.316   3.219   2.229  1.8826  1.6255 -0.0906
 3274SOL     OW21457   2.942   1.890  17.676  0.4407 -0.1317  0.0213
 3274SOL    HW121458   2.927   1.817  17.736  0.9260  1.6864  2.3748
 3274SOL    HW221459   2.940   1.840  17.594  0.1999  0.9365 -0.6172
 3275SOL     OW21460   3.182   2.420  10.199 -0.3309 -0.5879 -0.2399
 3275SOL    HW121461   3.248   2.353  10.217  0.0676  0.4906  2.2856
 3275SOL    HW221462   3.234   2.500  10.192 -0.0162 -0.7102  0.6931
 3276SOL     OW21463   2.183   0.480   3.073 -0.5483  0.1547  0.0570
 3276SOL    HW121464   2.107   0.422   3.081  0.8589 -1.6683  0.0565
 3276SOL    HW221465   2.223   0.474   3.159 -0.6214  0.2010  0.0943
 3277SOL     OW21466   0.724   1.290   8.261 -0.2506  0.2811 -0.2722
 3277SOL    HW121467   0.735   1.346   8.338  1.3876 -1.0824  0.4671
 3277SOL    HW221468   0.813   1.282   8.227 -0.3562  0.6130 -0.6254
 3278SOL     OW21469   1.652   2.103   6.521  0.1100  0.2616  1.0729
 3278SOL    HW121470   1.697   2.171   6.471  0.3848  0.9967  2.3326
 3278SOL    HW221471   1.590   2.163   6.563 -2.3774 -0.7119 -1.1910
 3279SOL     OW21472   2.342   0.028   4.365  0.1475 -0.4889  0.3343
 3279SOL    HW121473   2.254   0.029   4.402 -0.1006  0.0343 -0.2790
 3279SOL    HW221474   2.396   0.036   4.444 -1.6765 -1.6322  1.6774
 3280SOL     OW21475   1.804   0.555   2.626 -0.2046  0.3706 -0.3718
 3280SOL    HW121476   1.828   0.491   2.559 -0.7104 -0.3216  0.1050
 3280SOL    HW221477   1.722   0.586   2.586 -0.1002  2.6806  1.2182
 3281SOL     OW21478   2.565   4.436   6.248  0.3462 -0.5254  0.0333
 3281SOL    HW121479   2.519   4.354   6.229  0.9789 -0.6996 -0.7603
 3281SOL    HW221480   2.581   4.416   6.341 -1.3778  1.7839  0.8383
 3282SOL     OW21481   0.814   0.883   3.748  0.4327  0.6812 -0.5115
 3282SOL    HW121482   0.831   0.952   3.812  2.0805  0.2323 -0.4648
 3282SOL    HW221483   0.844   0.932   3.671 -0.7002  1.6317 -0.3534
 3283SOL     OW21484   3.624   1.903   6.812  0.0258 -0.0367  0.2560
 3283SOL    HW121485   3.703   1.955   6.828 -0.9657  0.8982  2.1070
 3283SOL    HW221486   3.589   1.913   6.901 -0.7123  1.4480 -0.1926
 3284SOL     OW21487   1.123   0.996   1.343  0.2966  0.3598 -0.1406
 3284SOL    HW121488   1.217   0.987   1.328  0.3529 -0.4301  0.7165
 3284SOL    HW221489   1.120   1.091   1.340  0.2259  0.3164 -1.6308
 3285SOL     OW21490   0.561   4.480   6.164  0.3009 -0.0770 -0.1230
 3285SOL    HW121491   0.608   4.417   6.218  1.1398  0.2735 -0.4470
 3285SOL    HW221492   0.554   4.550   6.229  0.8300  2.4159 -2.7054
 3286SOL     OW21493   0.256   1.252  13.599 -0.3777  0.0325 -0.6161
 3286SOL    HW121494   0.331   1.205  13.565 -1.7487 -0.9029 -2.3656
 3286SOL    HW221495   0.298   1.332  13.629  1.4086 -1.3406  0.5510
 3287SOL     OW21496   2.023   3.941   5.728  0.2636 -0.3237  0.2122
 3287SOL    HW121497   2.106   3.989   5.719 -0.4967  0.7210 -1.2924
 3287SOL    HW221498   2.022   3.894   5.644 -0.9206 -0.3819  0.2621
 3288SOL     OW21499   0.391   3.961  14.895  0.0373 -0.4975 -0.0239
 3288SOL    HW121500   0.415   3.953  14.987 -2.6724 -0.7458  0.6665
 3288SOL    HW221501   0.449   4.037  14.884  3.2732 -3.4064 -2.8682
 3289SOL     OW21502   0.808   0.988   8.186 -0.1621 -0.2789 -0.1500
 3289SOL    HW121503   0.873   1.006   8.253  1.8685 -0.2536 -2.1040
 3289SOL    HW221504   0.743   0.937   8.235 -0.7356  0.0123 -0.5979
 3290SOL     OW21505   4.605   0.970   8.788 -0.1504  0.4729 -0.0087
 3290SOL    HW121506   4.531   0.909   8.785 -0.3553  0.7655 -0.9398
 3290SOL    HW221507   4.578   1.044   8.733  2.7431  2.4466  1.2332
 3291SOL     OW21508   3.226   3.043   9.052  0.3968  0.0974  0.8554
 3291SOL    HW121509   3.140   3.080   9.074 -0.1835 -0.4939 -0.3834
 3291SOL    HW221510   3.213   2.955   9.016  1.9745  1.5151 -3.0872
 3292SOL     OW21511   4.390   2.505   3.107 -0.3421 -0.3755  0.1149
 3292SOL    HW121512   4.461   2.530   3.165 -1.6132 -0.5324  1.7476
 3292SOL    HW221513   4.415   2.561   3.033  2.5950 -0.7387  0.8363
 3293SOL     OW21514   1.225   3.286   9.308 -0.4351  0.0654 -0.3782
 3293SOL    HW121515   1.163   3.341   9.357  0.1594  2.0276 -1.8238
 3293SOL    HW221516   1.288   3.273   9.379 -0.4535 -2.7606 -0.8816
 3294SOL     OW21517   3.908   4.545  16.470 -0.2684 -0.1771 -0.3135
 3294SOL    HW121518   3.986   4.595  16.446 -0.7677  0.7280 -0.0200
 3294SOL    HW221519   3.896   4.562  16.563 -0.5665  0.9544 -0.5691
 3295SOL     OW21520   3.147   3.696  14.983 -0.3686  0.4538 -0.5189
 3295SOL    HW121521   3.243   3.694  14.981 -0.3683  0.6180 -0.6579
 3295SOL    HW221522   3.122   3.604  14.977  0.4055  0.2502 -0.6612
 3296SOL     OW21523   3.507   3.255   5.402 -0.0956  0.4614 -0.0295
 3296SOL    HW121524   3.473   3.337   5.439 -0.7494  0.2383 -0.1338
 3296SOL    HW221525   3.578   3.232   5.461 -0.2628 -2.6220 -1.0352
 3297SOL     OW21526   3.704   2.167   5.178 -0.0129  0.2210 -0.5640
 3297SOL    HW121527   3.709   2.160   5.273  1.4527 -2.1515 -0.8138
 3297SOL    HW221528   3.668   2.253   5.158  0.0984  0.3705 -0.1188
 3298SOL     OW21529   0.117   4.474   4.655  0.1447  0.1182  0.0856
 3298SOL    HW121530   0.125   4.464   4.560 -1.3784  1.3288 -0.1647
 3298SOL    HW221531   0.021   4.466   4.655  0.0047  1.7067  1.2771
 3299SOL     OW21532   0.927   3.221  16.044  0.4481  0.2211 -0.4289
 3299SOL    HW121533   0.869   3.146  16.032  0.8487  0.4314 -3.5970
 3299SOL    HW221534   1.016   3.190  16.030  0.7261  1.0939 -0.5788
 3300SOL     OW21535   0.107   3.541   4.858 -0.1974 -0.4056 -0.1550
 3300SOL    HW121536   0.196   3.570   4.882 -0.8110  1.4868 -0.1681
 3300SOL    HW221537   0.110   3.541   4.763 -0.9447 -1.5850 -0.1735
 3301SOL     OW21538   4.610   4.507   8.067 -0.3692 -0.4357 -0.5746
 3301SOL    HW121539   4.619   4.520   7.973 -0.0189 -0.5620 -0.5551
 3301SOL    HW221540   4.661   4.429   8.085  1.5274  0.8025 -0.5705
 3302SOL     OW21541   2.703   2.703   4.423  0.4813 -0.3823  0.3198
 3302SOL    HW121542   2.737   2.791   4.439  1.7229 -1.4309  3.2395
 3302SOL    HW221543   2.635   2.730   4.361  0.0679  1.8085  1.7150
 3303SOL     OW21544   1.430   3.642   6.805  0.2530 -0.4264  0.4016
 3303SOL    HW121545   1.342   3.627   6.840 -0.2857 -0.9201 -1.2105
 3303SOL    HW221546   1.406   3.712   6.745  0.3569 -0.5173  0.2545
 3304SOL     OW21547   1.467   2.063  13.984 -0.1503  0.0317  0.0008
 3304SOL    HW121548   1.501   1.988  14.033 -1.5579 -1.3560 -1.1685
 3304SOL    HW221549   1.478   2.027  13.896 -1.2162 -0.7833  0.2121
 3305SOL     OW21550   1.418   3.578   2.716  0.4779 -0.0687 -0.3089
 3305SOL    HW121551   1.497   3.525   2.728 -0.5036 -1.2197  0.9900
 3305SOL    HW221552   1.387   3.553   2.629 -0.5301  0.9211 -0.2302
 3306SOL     OW21553   0.794   3.539   3.729  0.0405  0.3253 -0.0725
 3306SOL    HW121554   0.819   3.583   3.647 -0.8053  1.7510  0.4343
 3306SOL    HW221555   0.769   3.457   3.686  0.6858  0.1842 -0.1738
 3307SOL     OW21556   4.286   0.031   6.273  0.2604 -0.0626  0.2301
 3307SOL    HW121557   4.381   0.031   6.278  0.2383 -0.4797  0.6350
 3307SOL    HW221558   4.261   0.051   6.364  1.8295 -0.5626  0.7722
 3308SOL     OW21559   3.487   3.564   2.321 -0.2602 -0.2713  0.8803
 3308SOL    HW121560   3.494   3.649   2.278  4.2251 -1.3263 -0.3748
 3308SOL    HW221561   3.442   3.597   2.399 -0.7979 -1.8054  1.2264
 3309SOL     OW21562   4.093   4.246   4.695  0.2665  0.7710  0.1678
 3309SOL    HW121563   4.066   4.236   4.604  0.7588  4.4266 -0.3882
 3309SOL    HW221564   4.034   4.186   4.741  1.2940  0.9059  1.6658
 3310SOL     OW21565   2.567   4.570   3.109  0.2344 -0.0468 -0.0964
 3310SOL    HW121566   2.498   4.545   3.048  0.8841  1.5507 -1.5099
 3310SOL    HW221567   2.634   4.507   3.082  0.3762  0.1749 -0.2666
 3311SOL     OW21568   2.956   4.711   4.103  0.1855  0.4304 -0.2708
 3311SOL    HW121569   2.948   4.643   4.170  1.2305 -0.3053 -0.8867
 3311SOL    HW221570   2.959   0.050   4.161 -3.0757  0.5424 -0.2708
 3312SOL     OW21571   4.337   3.198   6.143  0.1197 -0.5863 -0.0271
 3312SOL    HW121572   4.362   3.176   6.232  0.7391  1.8124  0.4097
 3312SOL    HW221573   4.358   3.291   6.133 -1.5730 -0.1759  0.3418
 3313SOL     OW21574   0.406   0.153   8.578 -0.2224 -0.2872  0.8665
 3313SOL    HW121575   0.411   0.170   8.484 -0.7697  0.1377  0.9132
 3313SOL    HW221576   0.375   0.236   8.615  0.7205  0.8497 -0.9065
 3314SOL     OW21577   0.138   1.147   1.287  0.9455  0.0359  0.3806
 3314SOL    HW121578   0.167   1.150   1.379 -1.1645 -0.6714  1.0729
 3314SOL    HW221579   0.143   1.242   1.273 -0.3724  0.1074  0.4162
 3315SOL     OW21580   2.421   3.304   6.037  0.0116  0.1262  0.3163
 3315SOL    HW121581   2.383   3.239   6.096 -0.4731 -1.9306 -2.2625
 3315SOL    HW221582   2.463   3.373   6.088 -1.1190  1.4867 -0.6107
 3316SOL     OW21583   0.412   1.014   2.735  0.2137 -0.0592 -0.1632
 3316SOL    HW121584   0.357   0.953   2.784  1.3588 -1.0320 -0.0926
 3316SOL    HW221585   0.354   1.042   2.663  3.1994  1.4855 -1.9464
 3317SOL     OW21586   2.071   1.765   0.258  0.2387 -0.3461 -0.6390
 3317SOL    HW121587   2.086   1.854   0.288 -0.3293 -0.4969  0.0997
 3317SOL    HW221588   2.111   1.762   0.171  1.0804  0.5259 -0.2805
 3318SOL     OW21589   1.674   0.325   7.391 -0.3376 -0.2014  0.1525
 3318SOL    HW121590   1.665   0.236   7.424  0.0846  0.3234  1.6716
 3318SOL    HW221591   1.719   0.371   7.462  0.4370  2.2680 -1.9241
 3319SOL     OW21592   1.425   1.734   9.822  0.2308  0.3147 -0.1020
 3319SOL    HW121593   1.347   1.733   9.877  0.8095 -1.4696  0.6852
 3319SOL    HW221594   1.397   1.812   9.774 -0.6602 -0.1696 -0.3584
 3320SOL     OW21595   3.353   3.246   6.030  0.2274 -0.4407  0.1241
 3320SOL    HW121596   3.396   3.181   6.086  0.6488 -0.9400 -0.7870
 3320SOL    HW221597   3.410   3.258   5.955 -0.6055 -0.0360 -0.4433
 3321SOL     OW21598   3.396   2.669   7.360 -0.1662  0.1954 -0.5366
 3321SOL    HW121599   3.398   2.664   7.456  3.9177 -1.5306 -0.6922
 3321SOL    HW221600   3.306   2.643   7.343 -0.2759  2.0153 -2.7399
 3322SOL     OW21601   2.902   0.615   5.465  0.1861  0.2065 -0.5838
 3322SOL    HW121602   2.904   0.689   5.526  0.1243  0.3054 -0.7024
 3322SOL    HW221603   2.817   0.631   5.424  0.3459  0.7012 -0.7147
 3323SOL     OW21604   3.710   4.090  14.157 -0.9616 -0.1717  0.0556
 3323SOL    HW121605   3.677   4.158  14.215  0.8565  2.8472 -2.4619
 3323SOL    HW221606   3.780   4.130  14.106  0.9349 -2.8467  0.5392
 3324SOL     OW21607   4.168   0.955   7.777 -0.0796 -0.0843 -0.3795
 3324SOL    HW121608   4.242   0.997   7.732 -0.4610  0.7720 -0.2037
 3324SOL    HW221609   4.092   1.006   7.751  0.2386 -1.0064 -3.1126
 3325SOL     OW21610   1.520   1.412   2.399  0.1433  0.4464  0.2679
 3325SOL    HW121611   1.445   1.460   2.433 -1.3761 -2.1761  0.5467
 3325SOL    HW221612   1.518   1.443   2.308 -0.3793 -0.0620  0.1078
 3326SOL     OW21613   0.456   3.658   9.677  0.1262  0.1868 -0.0572
 3326SOL    HW121614   0.383   3.712   9.705 -0.5991 -1.5671  1.4683
 3326SOL    HW221615   0.423   3.630   9.592 -0.2464  0.9906 -0.1716
 3327SOL     OW21616   2.615   1.529   4.325 -0.0420  0.1740 -0.2151
 3327SOL    HW121617   2.615   1.625   4.321 -1.4907  0.2146  1.1875
 3327SOL    HW221618   2.686   1.501   4.267 -0.0897  0.1922 -0.2824
 3328SOL     OW21619   4.732   1.998   9.392 -0.7042  0.0256  0.7454
 3328SOL    HW121620   0.081   2.035   9.408 -0.0310 -1.2146  0.0761
 3328SOL    HW221621   0.005   1.992   9.297 -0.5357  2.4172  0.6247
 3329SOL     OW21622   0.275   3.987   8.664  0.2712 -0.3920  0.3291
 3329SOL    HW121623   0.265   4.065   8.719  1.8968 -0.1209  0.2364
 3329SOL    HW221624   0.312   4.033   8.588 -0.6822  0.5702  0.4527
 3330SOL     OW21625   4.203   1.641   2.823  0.2358 -0.3712 -0.0624
 3330SOL    HW121626   4.230   1.572   2.883 -1.2924  0.7776  1.9596
 3330SOL    HW221627   4.216   1.718   2.878  1.6786 -1.6012  1.3350
 3331SOL     OW21628   4.710   3.924  15.673 -0.2347  0.2568 -0.0195
 3331SOL    HW121629   4.647   3.853  15.664 -0.3535  0.4843 -0.9467
 3331SOL    HW221630   0.052   3.871  15.658  0.8558  1.5767  0.9694
 3332SOL     OW21631   1.410   1.501   1.239 -1.0062  0.4372 -0.2603
 3332SOL    HW121632   1.442   1.582   1.280 -0.7382  1.0397 -1.6612
 3332SOL    HW221633   1.318   1.517   1.215 -1.3794 -1.5845 -0.1743
 3333SOL     OW21634   3.200   0.032  14.682 -0.2878 -0.0349  0.4072
 3333SOL    HW121635   3.257   0.028  14.606 -0.4700  2.6038  0.1128
 3333SOL    HW221636   3.122   0.070  14.641 -1.3264 -0.6332  1.8127
 3334SOL     OW21637   0.929   0.837   6.815  0.0490 -0.0519 -0.8122
 3334SOL    HW121638   0.881   0.912   6.851  1.7656 -0.3687  2.1263
 3334SOL    HW221639   1.000   0.881   6.768  2.1683  0.5484  3.0109
 3335SOL     OW21640   1.392   3.555   5.472 -0.0450  0.5105 -0.4756
 3335SOL    HW121641   1.462   3.492   5.453  1.1974  1.2839  1.5420
 3335SOL    HW221642   1.433   3.632   5.433  1.7170 -1.9684 -3.5222
 3336SOL     OW21643   0.699   2.430   6.666  0.6492  0.1037  0.0730
 3336SOL    HW121644   0.689   2.506   6.724  1.5565 -0.3020  0.7432
 3336SOL    HW221645   0.757   2.372   6.714  0.0744 -0.0567  0.5716
 3337SOL     OW21646   2.350   4.627   2.084  0.5218 -0.7017  0.1313
 3337SOL    HW121647   2.256   4.627   2.068  0.5149  1.6685  0.1553
 3337SOL    HW221648   2.351   4.567   2.158 -0.6587  2.2751  2.5773
 3338SOL     OW21649   1.018   3.278   5.149  0.5819  0.1428 -0.2490
 3338SOL    HW121650   1.050   3.194   5.115  2.4384  0.5625  0.4829
 3338SOL    HW221651   1.043   3.276   5.241  0.5604  0.9348 -0.2284
 3339SOL     OW21652   2.783   4.493   7.715 -0.2863 -0.1891  0.1617
 3339SOL    HW121653   2.760   4.476   7.806 -3.0271 -0.5834 -0.6100
 3339SOL    HW221654   2.806   4.411   7.671  1.0055 -0.1082  0.6752
 3340SOL     OW21655   1.786   2.518   8.852 -0.1477  0.3986  0.0067
 3340SOL    HW121656   1.811   2.602   8.890 -0.8009  0.2145  0.8357
 3340SOL    HW221657   1.871   2.478   8.836 -0.3934 -0.5760  1.1465
 3341SOL     OW21658   0.169   3.218   1.995 -0.6178  0.0271  0.2956
 3341SOL    HW121659   0.080   3.255   2.001 -0.4566  0.3659  0.6154
 3341SOL    HW221660   0.215   3.301   2.008 -0.2661 -0.3464  1.4724
 3342SOL     OW21661   1.860   1.619  16.543  0.1981 -0.1267  0.6814
 3342SOL    HW121662   1.817   1.537  16.519  1.5050 -0.4854 -0.4570
 3342SOL    HW221663   1.942   1.590  16.582 -0.6950 -1.2707  1.7038
 3343SOL     OW21664   3.214   2.670   6.507  0.2009 -0.3227  0.0851
 3343SOL    HW121665   3.233   2.676   6.601  2.6592 -2.1912 -0.2915
 3343SOL    HW221666   3.284   2.726   6.474  0.9338 -1.7592 -0.8060
 3344SOL     OW21667   1.844   3.918   8.520 -0.0429  0.1306  0.2970
 3344SOL    HW121668   1.905   3.991   8.531  1.6671 -1.4591  1.6678
 3344SOL    HW221669   1.880   3.870   8.445 -2.3887 -1.5004  0.2300
 3345SOL     OW21670   1.394   3.420  13.920 -0.2195 -0.0193  0.2981
 3345SOL    HW121671   1.330   3.480  13.882 -2.5959 -1.6674  1.7653
 3345SOL    HW221672   1.373   3.435  14.012 -2.2280  0.2227 -0.2166
 3346SOL     OW21673   0.161   3.764   1.134 -0.5475  0.0371  0.2717
 3346SOL    HW121674   0.154   3.725   1.047  1.9796  0.4357 -0.1141
 3346SOL    HW221675   0.202   3.849   1.116 -2.0003  0.4377 -1.1735
 3347SOL     OW21676   0.555   3.788  10.428 -0.1702 -0.6262  0.8944
 3347SOL    HW121677   0.514   3.702  10.421 -0.2745 -0.4650 -0.3742
 3347SOL    HW221678   0.595   3.811  10.345 -0.1421  0.9696  1.3533
 3348SOL     OW21679   0.281   0.328   8.174  0.4530  0.5970 -0.4991
 3348SOL    HW121680   0.266   0.292   8.087  1.1813  0.1141 -0.4219
 3348SOL    HW221681   0.190   0.324   8.206  1.6447 -1.2760  2.7099
 3349SOL     OW21682   1.330   4.318   3.182 -0.0618  0.1954 -0.4821
 3349SOL    HW121683   1.331   4.390   3.120  1.8347  0.6812  0.1070
 3349SOL    HW221684   1.246   4.348   3.217  0.7894  1.3972  0.5319
 3350SOL     OW21685   3.383   4.471   7.750  0.4754 -0.2656  0.7107
 3350SOL    HW121686   3.397   4.519   7.832 -0.7514  0.5160  0.4660
 3350SOL    HW221687   3.340   4.393   7.784  0.9791 -1.3059 -1.0628
 3351SOL     OW21688   0.604   3.876   5.995  0.4431  0.0059 -0.4930
 3351SOL    HW121689   0.516   3.839   5.999 -0.0614  1.1489 -0.8283
 3351SOL    HW221690   0.601   3.891   5.901  1.6585 -2.3421 -0.8959
 3352SOL     OW21691   2.999   4.189   4.660  0.3208 -0.0273 -0.3926
 3352SOL    HW121692   2.955   4.165   4.578  0.2886  0.4197 -0.5054
 3352SOL    HW221693   3.001   4.106   4.707  0.6578 -0.7865 -1.7374
 3353SOL     OW21694   4.473   1.304   4.327  0.3804  0.1087 -0.2627
 3353SOL    HW121695   4.430   1.280   4.410 -0.2825  1.1848 -0.2931
 3353SOL    HW221696   4.546   1.243   4.330  0.8286  0.6959  0.8681
 3354SOL     OW21697   3.347   4.508   8.299  0.5121  0.7467 -0.3392
 3354SOL    HW121698   3.344   4.475   8.389  0.0034 -0.4208 -0.7815
 3354SOL    HW221699   3.398   4.434   8.265 -0.6094 -1.2006  2.2524
 3355SOL     OW21700   2.764   1.751   5.588  0.0246  0.0305  0.0848
 3355SOL    HW121701   2.761   1.700   5.669  0.5359  0.0477  0.1161
 3355SOL    HW221702   2.673   1.781   5.588 -0.2941 -0.9285 -0.1695
 3356SOL     OW21703   3.952   2.987   2.680 -0.0035  0.2679 -0.4358
 3356SOL    HW121704   3.893   2.913   2.667  1.0758 -0.3119 -2.0713
 3356SOL    HW221705   4.014   2.939   2.734 -0.5406  0.8706  0.7188
 3357SOL     OW21706   0.154   4.300  11.852 -0.4617 -0.1767 -0.5449
 3357SOL    HW121707   0.111   4.310  11.936  0.4937 -0.8134  0.0195
 3357SOL    HW221708   0.239   4.264  11.877 -0.7616 -0.8771 -0.5503
 3358SOL     OW21709   1.096   4.732   4.284  0.0399  0.0029 -0.4931
 3358SOL    HW121710   1.073   0.070   4.338  0.0254  1.2052 -2.1784
 3358SOL    HW221711   1.179   0.020   4.244 -0.7449 -0.2876 -2.3046
 3359SOL     OW21712   3.090   2.255   8.475 -0.3960  0.2548 -0.4126
 3359SOL    HW121713   3.018   2.199   8.502 -0.3918  0.8843  0.9237
 3359SOL    HW221714   3.143   2.194   8.425  1.3732  1.1484  0.3483
 3360SOL     OW21715   2.613   2.847   8.302 -0.1292 -0.3526 -0.1134
 3360SOL    HW121716   2.649   2.926   8.341  0.9022 -0.2500 -1.2968
 3360SOL    HW221717   2.625   2.781   8.370 -1.0125  0.4132  0.7778
 3361SOL     OW21718   2.006   2.652   3.049 -0.1081  0.0804 -0.6381
 3361SOL    HW121719   1.919   2.680   3.076 -0.7945 -1.9517 -0.7034
 3361SOL    HW221720   2.058   2.685   3.122  0.7190 -0.6169 -0.8996
 3362SOL     OW21721   1.765   3.824  16.963 -0.4591  0.0630  0.0403
 3362SOL    HW121722   1.760   3.883  17.039  3.1696  2.1121 -1.3108
 3362SOL    HW221723   1.801   3.742  16.997 -0.7102 -1.6422 -3.7837
 3363SOL     OW21724   3.096   1.813  11.980 -0.2895 -0.2166  0.2333
 3363SOL    HW121725   3.141   1.731  12.002  1.3388  0.6454  0.1586
 3363SOL    HW221726   3.139   1.838  11.898  0.5333 -0.5894  0.5517
 3364SOL     OW21727   3.569   0.431   2.384  0.7076  0.5080  1.3053
 3364SOL    HW121728   3.511   0.484   2.438 -1.0260  1.3546 -1.4089
 3364SOL    HW221729   3.600   0.490   2.316  0.1177  0.7725  1.2678
 3365SOL     OW21730   2.073   0.532   0.696 -0.1472 -0.4894  0.0654
 3365SOL    HW121731   2.018   0.456   0.677  0.6845 -1.0860  0.0287
 3365SOL    HW221732   2.090   0.559   0.605  0.5449  0.5891  0.5220
 3366SOL     OW21733   4.216   0.341   3.311  0.0738  0.0154  0.2333
 3366SOL    HW121734   4.164   0.373   3.385 -0.2012  1.5978 -0.6612
 3366SOL    HW221735   4.160   0.281   3.262  0.7693 -1.5491  1.3603
 3367SOL     OW21736   4.514   0.195   3.853  0.1499  0.0168 -0.1471
 3367SOL    HW121737   4.546   0.105   3.850 -0.7001 -0.3927  2.4849
 3367SOL    HW221738   4.451   0.180   3.924  1.6577  1.4449  1.5108
 3368SOL     OW21739   1.295   2.240  17.104 -0.1458  0.2483 -0.1856
 3368SOL    HW121740   1.249   2.157  17.115  1.1062 -0.5850 -1.1407
 3368SOL    HW221741   1.225   2.302  17.119 -1.0598 -0.9368  0.4862
 3369SOL     OW21742   3.889   4.369   8.473 -0.1715 -0.1395 -0.2830
 3369SOL    HW121743   3.938   4.334   8.548  0.6906  0.2917 -0.6398
 3369SOL    HW221744   3.948   4.441   8.450  2.3028 -2.0772 -0.0445
 3370SOL     OW21745   1.279   0.114   8.545 -0.3170 -0.0037  0.0328
 3370SOL    HW121746   1.207   0.075   8.595  0.5168  0.6619  1.7591
 3370SOL    HW221747   1.294   0.052   8.474 -0.4662 -0.0657  0.0538
 3371SOL     OW21748   0.380   1.358  15.388  0.2740  0.2173 -0.1980
 3371SOL    HW121749   0.353   1.441  15.428  2.1301  0.7348  0.0191
 3371SOL    HW221750   0.421   1.401  15.312 -0.0568  3.3216  1.3599
 3372SOL     OW21751   0.349   1.751  12.593 -0.4541  0.4572 -0.0926
 3372SOL    HW121752   0.291   1.769  12.667 -2.8575 -0.2785 -1.7955
 3372SOL    HW221753   0.324   1.816  12.527 -0.8380 -0.0474 -0.4397
 3373SOL     OW21754   2.455   3.011   5.146 -0.1515  0.1339 -0.6166
 3373SOL    HW121755   2.498   3.095   5.133 -0.8385  0.3553 -1.4536
 3373SOL    HW221756   2.536   2.960   5.147 -1.0112 -1.2951 -2.8271
 3374SOL     OW21757   3.998   1.296   3.271  0.3004  0.0550  0.6951
 3374SOL    HW121758   3.906   1.322   3.277  0.8599  1.9789  0.9012
 3374SOL    HW221759   4.006   1.266   3.181 -0.8839 -1.3572  1.0495
 3375SOL     OW21760   1.527   4.129  12.254  0.7589 -0.3398 -0.4598
 3375SOL    HW121761   1.573   4.206  12.287  0.3333  0.7149 -2.3540
 3375SOL    HW221762   1.440   4.168  12.245  1.0275  0.1540 -0.8566
 3376SOL     OW21763   0.754   4.200  12.181  0.4264  0.5888 -0.1075
 3376SOL    HW121764   0.704   4.256  12.121  0.5445 -1.5414 -2.1813
 3376SOL    HW221765   0.722   4.221  12.268  4.5144  0.7682  1.3288
 3377SOL     OW21766   0.483   1.974   9.211  0.3388  0.3073 -0.7752
 3377SOL    HW121767   0.575   2.000   9.214  0.1260  1.0658 -0.6531
 3377SOL    HW221768   0.470   1.920   9.290  0.3154  0.9436 -0.3404
 3378SOL     OW21769   4.166   1.174   8.128  0.1424 -0.1619  0.4674
 3378SOL    HW121770   4.078   1.207   8.148  0.2503 -0.3255  1.2086
 3378SOL    HW221771   4.182   1.205   8.039  0.4714 -0.6804  0.3513
 3379SOL     OW21772   1.943   0.164   6.515  0.0216 -0.5736  0.0592
 3379SOL    HW121773   1.854   0.166   6.480  0.9306 -0.8180 -2.3381
 3379SOL    HW221774   1.946   0.223   6.590 -0.4913 -0.3428 -0.1018
 3380SOL     OW21775   0.886   3.322  17.292  0.7448  0.4551  0.1988
 3380SOL    HW121776   0.971   3.327  17.334  0.2550 -0.9603  1.3650
 3380SOL    HW221777   0.915   3.285  17.209 -0.3637  1.2012 -0.5243
 3381SOL     OW21778   3.658   4.679   5.655 -0.0420  0.0476 -0.0862
 3381SOL    HW121779   3.711   4.606   5.687 -0.8375  0.6546  2.6580
 3381SOL    HW221780   3.580   4.633   5.623  1.2204 -1.7484 -0.5990
 3382SOL     OW21781   0.312   0.858   3.502  0.2077 -0.6253  0.1095
 3382SOL    HW121782   0.376   0.890   3.566  1.1065  0.7894 -1.5257
 3382SOL    HW221783   0.265   0.937   3.478 -1.3128 -1.5070  0.1375
 3383SOL     OW21784   2.673   4.190  14.607  0.2033 -0.1542  0.2680
 3383SOL    HW121785   2.591   4.229  14.638 -1.0307 -2.6288  0.0741
 3383SOL    HW221786   2.714   4.148  14.682  1.5269 -0.6080 -0.6943
 3384SOL     OW21787   2.693   3.829   8.367 -0.0207 -0.0351  0.6622
 3384SOL    HW121788   2.770   3.828   8.424  0.6066  0.1688 -0.1825
 3384SOL    HW221789   2.722   3.886   8.296  0.8233  0.6512  1.5592
 3385SOL     OW21790   1.744   3.566  14.078  0.0763  0.1714  0.2592
 3385SOL    HW121791   1.832   3.596  14.056 -0.5163  1.5870 -0.1253
 3385SOL    HW221792   1.718   3.512  14.003  0.4567 -1.3766  1.2383
 3386SOL     OW21793   2.661   1.744   3.467 -0.7566  0.6646  0.1466
 3386SOL    HW121794   2.664   1.808   3.395 -1.2721 -0.4783 -0.8918
 3386SOL    HW221795   2.567   1.748   3.482 -0.6558  0.1300  0.9340
 3387SOL     OW21796   3.704   4.483  17.136 -0.1616  0.0943 -0.1386
 3387SOL    HW121797   3.764   4.547  17.097 -0.3487  0.7458  0.6495
 3387SOL    HW221798   3.757   4.422  17.188  0.1885  1.0070  0.5621
 3388SOL     OW21799   4.061   4.370  13.759 -0.1179  0.1140 -0.0445
 3388SOL    HW121800   4.014   4.451  13.738  2.6629  1.7490  0.0509
 3388SOL    HW221801   4.085   4.332  13.674 -2.9522 -0.2444 -0.6907
 3389SOL     OW21802   0.770   1.613  16.452 -0.1109 -0.0035 -0.0856
 3389SOL    HW121803   0.768   1.705  16.425  0.0629  0.1198  0.3272
 3389SOL    HW221804   0.763   1.619  16.547 -0.3961  2.5031 -0.2741
 3390SOL     OW21805   0.805   1.382   4.145 -0.5435  0.3214 -0.1053
 3390SOL    HW121806   0.834   1.317   4.210  0.3868  1.6914  0.8535
 3390SOL    HW221807   0.712   1.387   4.165 -0.4111  1.4244  0.2175
 3391SOL     OW21808   4.244   1.163   4.189  0.4103 -0.3590 -0.1519
 3391SOL    HW121809   4.242   1.069   4.207 -0.1731 -0.3623 -0.2407
 3391SOL    HW221810   4.335   1.185   4.210 -0.0504  2.0774 -0.7057
 3392SOL     OW21811   2.470   0.388   3.282  0.5901  0.0672 -0.5960
 3392SOL    HW121812   2.534   0.459   3.289  0.2258  0.2131  1.1066
 3392SOL    HW221813   2.397   0.449   3.287  2.1268  1.7361  1.6643
 3393SOL     OW21814   0.793   4.624  17.225 -0.7154  0.5057  0.2291
 3393SOL    HW121815   0.842   4.551  17.262 -0.2915  0.4861 -0.3665
 3393SOL    HW221816   0.827   4.697  17.277  2.0356 -1.0351  0.5689
 3394SOL     OW21817   2.838   2.849   1.681  0.2569  0.1622  0.3065
 3394SOL    HW121818   2.763   2.811   1.636  0.3336 -0.1729  0.4555
 3394SOL    HW221819   2.903   2.780   1.665 -1.0823 -1.1619  0.5452
 3395SOL     OW21820   2.816   4.287   8.529 -0.5283  0.0304  0.5074
 3395SOL    HW121821   2.898   4.336   8.535  0.2318 -1.2088  0.4288
 3395SOL    HW221822   2.749   4.355   8.519  1.3664  1.8435  0.1160
 3396SOL     OW21823   3.109   4.099   5.595 -0.3618 -0.3582 -0.4026
 3396SOL    HW121824   3.151   4.144   5.669 -1.4687 -1.7768  1.1034
 3396SOL    HW221825   3.108   4.168   5.529  4.3861 -0.0847 -0.2178
 3397SOL     OW21826   1.534   0.663  16.459 -0.4059  0.5558  0.0737
 3397SOL    HW121827   1.566   0.574  16.470  0.3474  1.0791  2.1324
 3397SOL    HW221828   1.610   0.700  16.415  0.5281 -0.6630  0.6541
 3398SOL     OW21829   2.861   1.185   6.216  0.4740 -0.1541  0.1760
 3398SOL    HW121830   2.890   1.254   6.275  0.2782  0.1713 -0.1019
 3398SOL    HW221831   2.799   1.140   6.273  1.3635 -1.9852 -0.3058
 3399SOL     OW21832   3.580   2.848   1.501  0.1451 -0.5012 -0.8549
 3399SOL    HW121833   3.654   2.887   1.454  0.5803 -1.4439 -0.9580
 3399SOL    HW221834   3.592   2.875   1.592 -1.1028 -1.0539 -0.5252
 3400SOL     OW21835   3.140   3.715   4.261  0.5954  0.2374  0.1864
 3400SOL    HW121836   3.148   3.693   4.169 -0.0559 -2.0219  0.6631
 3400SOL    HW221837   3.144   3.624   4.292  0.0877  0.2058  0.1592
 3401SOL     OW21838   2.204   2.942  16.784 -0.1805 -0.3704  0.6311
 3401SOL    HW121839   2.129   2.979  16.738  0.8622 -0.3047 -1.0167
 3401SOL    HW221840   2.164   2.936  16.871  2.5078 -1.4951  1.7786
 3402SOL     OW21841   1.830   4.510  16.000 -0.3235 -0.0354  0.1064
 3402SOL    HW121842   1.780   4.428  16.003 -0.7625  0.1427 -2.2175
 3402SOL    HW221843   1.789   4.550  15.923 -1.5779 -2.4970 -0.4989
 3403SOL     OW21844   4.563   1.689  14.762  0.3232 -0.5383  0.7972
 3403SOL    HW121845   4.643   1.729  14.798  1.2214 -1.9813  0.3878
 3403SOL    HW221846   4.610   1.641  14.694 -1.7168 -0.2273 -0.8014
 3404SOL     OW21847   2.678   0.571   3.309  0.2042  0.6418  0.1407
 3404SOL    HW121848   2.684   0.641   3.244  0.3429 -0.3153 -0.8767
 3404SOL    HW221849   2.760   0.523   3.299 -1.6938 -2.0352 -2.6071
 3405SOL     OW21850   1.845   1.505   6.749 -0.0815  0.1901  0.4342
 3405SOL    HW121851   1.813   1.435   6.806  0.7911 -1.2770 -0.8788
 3405SOL    HW221852   1.843   1.463   6.663 -1.7114  0.8480  0.1545
 3406SOL     OW21853   2.769   4.009   8.639 -0.2148  0.5184  0.3869
 3406SOL    HW121854   2.785   4.103   8.632 -0.9219  0.5849 -0.2773
 3406SOL    HW221855   2.853   3.966   8.659  1.3013  2.5722 -1.6636
 3407SOL     OW21856   2.349   3.015   3.082 -0.2674  0.3315 -0.1842
 3407SOL    HW121857   2.340   3.061   2.998 -2.2425  1.1184  0.4541
 3407SOL    HW221858   2.431   3.048   3.118 -0.5162  0.4963  0.2399
 3408SOL     OW21859   4.588   3.326  12.393  0.1599  0.6903 -0.0167
 3408SOL    HW121860   4.562   3.238  12.419 -1.9378  1.1760 -0.4335
 3408SOL    HW221861   4.582   3.299  12.301  2.2716 -0.2887  0.1321
 3409SOL     OW21862   4.381   4.244   0.198  0.0018  0.1226 -0.2132
 3409SOL    HW121863   4.441   4.171   0.181 -0.7740 -0.4832 -0.3281
 3409SOL    HW221864   4.424   4.321   0.159  2.5738  0.5130  3.3737
 3410SOL     OW21865   0.577   4.549   1.871 -0.1428  0.1374  0.1119
 3410SOL    HW121866   0.570   4.459   1.839 -0.4594  0.6804 -1.3024
 3410SOL    HW221867   0.499   4.585   1.830 -0.9598  0.1768  1.6686
 3411SOL     OW21868   2.244   0.512   7.431 -0.4709  0.1773  0.9432
 3411SOL    HW121869   2.208   0.452   7.367 -0.0154  1.6199 -0.6543
 3411SOL    HW221870   2.323   0.468   7.460 -1.4311 -1.4371  1.0842
 3412SOL     OW21871   2.695   2.651  15.044 -0.0748 -0.2465  0.2053
 3412SOL    HW121872   2.659   2.711  15.109 -0.0016  1.4684 -1.3253
 3412SOL    HW221873   2.617   2.605  15.013  0.2930 -1.5213  1.1684
 3413SOL     OW21874   4.347   2.404   8.078  0.4770 -0.2592 -0.1226
 3413SOL    HW121875   4.259   2.365   8.078  0.8282 -1.0365 -0.0254
 3413SOL    HW221876   4.376   2.372   7.993 -0.8221  4.3012 -2.3258
 3414SOL     OW21877   2.320   1.006  12.114 -0.4338 -0.2929 -0.4125
 3414SOL    HW121878   2.362   1.056  12.185 -1.4055  1.7242 -1.2769
 3414SOL    HW221879   2.365   0.921  12.113 -0.3994 -0.3220  2.8828
 3415SOL     OW21880   0.443   4.272   3.595 -0.2257 -0.0239  0.2543
 3415SOL    HW121881   0.398   4.189   3.581  0.1818 -0.5935  2.3623
 3415SOL    HW221882   0.533   4.246   3.611 -0.2595 -2.3059 -3.3441
 3416SOL     OW21883   2.604   2.073  15.389 -0.3013 -0.0158 -0.0675
 3416SOL    HW121884   2.561   1.994  15.357  1.4516 -0.0785 -2.3024
 3416SOL    HW221885   2.534   2.114  15.439  0.0193 -1.7722  1.8047
 3417SOL     OW21886   1.361   0.831   1.511 -0.4084 -0.3039  0.3331
 3417SOL    HW121887   1.369   0.748   1.465  0.0648 -0.0655 -0.0137
 3417SOL    HW221888   1.380   0.891   1.438 -3.1367  0.3418  0.1227
 3418SOL     OW21889   1.870   4.733   7.814 -0.0001  0.2898  0.3749
 3418SOL    HW121890   1.866   0.090   7.833 -0.2719  0.2161  0.6776
 3418SOL    HW221891   1.953   4.731   7.766 -0.2088 -0.4215  0.0563
 3419SOL     OW21892   1.142   4.539   2.951  0.3484 -0.7217 -0.4437
 3419SOL    HW121893   1.086   4.478   3.000  0.2228 -0.2842 -0.0441
 3419SOL    HW221894   1.181   4.597   3.016  0.2772 -0.6265 -0.4854
 3420SOL     OW21895   3.418   1.890   3.404  0.0272  0.2671  0.5936
 3420SOL    HW121896   3.412   1.867   3.312 -0.3216 -1.7267  1.1222
 3420SOL    HW221897   3.351   1.832   3.441 -1.1966  1.9057  0.9672
 3421SOL     OW21898   1.439   3.588  13.330 -0.0078  0.2685  0.0802
 3421SOL    HW121899   1.347   3.612  13.340 -0.0976 -0.4823  1.1432
 3421SOL    HW221900   1.425   3.496  13.306  1.8171  0.5859 -2.1553
 3422SOL     OW21901   0.706   0.764   8.575  0.5399 -0.2911  0.1546
 3422SOL    HW121902   0.677   0.674   8.589 -1.4676 -0.1220 -2.8363
 3422SOL    HW221903   0.799   0.766   8.598  0.0507 -0.3082  2.1463
 3423SOL     OW21904   4.490   3.286   2.994  0.1503  0.0319 -0.4820
 3423SOL    HW121905   4.544   3.365   2.993  1.3133 -0.7826 -1.5876
 3423SOL    HW221906   4.422   3.316   3.054 -0.5936 -3.8155  0.5984
 3424SOL     OW21907   2.222   2.961   9.215 -0.2490 -0.3129 -0.2951
 3424SOL    HW121908   2.222   2.950   9.310 -1.9100  2.0167 -0.0119
 3424SOL    HW221909   2.277   3.038   9.209  0.4549 -0.5956  2.3229
 3425SOL     OW21910   3.049   4.476   1.922 -0.1884  0.1995 -0.3001
 3425SOL    HW121911   3.004   4.391   1.927 -0.3186  0.4301  2.5431
 3425SOL    HW221912   3.093   4.480   1.838 -1.0821  1.3630 -0.7103
 3426SOL     OW21913   2.584   1.896  13.957  0.1536 -0.0919  0.1289
 3426SOL    HW121914   2.572   1.803  13.974 -0.0672 -0.2485 -0.8613
 3426SOL    HW221915   2.608   1.929  14.044  1.1247 -0.1136 -0.1305
 3427SOL     OW21916   1.610   1.820   6.482  0.2443  0.4126 -0.2762
 3427SOL    HW121917   1.653   1.790   6.562 -0.9498 -1.1816 -0.2137
 3427SOL    HW221918   1.628   1.911   6.504 -2.9629  0.6816  1.2872
 3428SOL     OW21919   1.785   2.521   1.276 -0.4809 -0.4226 -0.2342
 3428SOL    HW121920   1.818   2.541   1.189 -0.4360  3.5367  0.6990
 3428SOL    HW221921   1.809   2.602   1.320 -1.9795 -0.2849  0.3213
 3429SOL     OW21922   4.154   1.549   5.727  0.6620 -0.2764  0.0215
 3429SOL    HW121923   4.149   1.625   5.785 -0.5582  0.2471 -0.7572
 3429SOL    HW221924   4.247   1.535   5.710 -0.1780 -1.1296 -3.8793
 3430SOL     OW21925   0.030   0.899   1.243 -0.7550 -0.7105 -0.1148
 3430SOL    HW121926   0.055   0.874   1.155 -0.8914  2.0592 -0.9286
 3430SOL    HW221927   0.070   0.983   1.264 -0.3024 -1.1090  0.6342
 3431SOL     OW21928   4.377   1.242   1.457 -0.1182 -0.4246  0.7923
 3431SOL    HW121929   4.434   1.318   1.445 -1.2127  0.2689  0.0153
 3431SOL    HW221930   4.435   1.189   1.513 -0.1035 -1.4644 -0.2161
 3432SOL     OW21931   4.481   4.329  12.135 -0.5497 -0.4889 -0.3516
 3432SOL    HW121932   4.420   4.326  12.209  0.7303  1.2446  0.7615
 3432SOL    HW221933   4.440   4.395  12.080 -0.3339 -1.0159 -1.1430
 3433SOL     OW21934   3.379   3.397   7.160  0.2574  0.6937 -0.4202
 3433SOL    HW121935   3.350   3.313   7.124  2.7363  0.2749 -1.4168
 3433SOL    HW221936   3.308   3.422   7.219  0.0341  0.6183 -0.6569
 3434SOL     OW21937   4.559   1.902   6.928  0.0925 -0.3999 -0.1299
 3434SOL    HW121938   4.511   1.974   6.887  0.9947 -0.1798 -0.7829
 3434SOL    HW221939   4.562   1.846   6.850 -0.0646 -1.3253  0.5144
 3435SOL     OW21940   0.396   3.863   8.962 -0.1182 -0.2636 -0.3323
 3435SOL    HW121941   0.480   3.818   8.969 -0.6333 -1.1659  0.0278
 3435SOL    HW221942   0.421   3.946   8.921  0.2675  0.5544  1.5907
 3436SOL     OW21943   2.875   1.514  17.139  0.4470  0.5662 -0.3560
 3436SOL    HW121944   2.813   1.583  17.161 -0.2640 -0.2951  0.3498
 3436SOL    HW221945   2.961   1.553  17.150  0.6977 -0.2842  0.6455
 3437SOL     OW21946   1.391   0.630  11.320  0.2833 -0.2309  0.0704
 3437SOL    HW121947   1.375   0.539  11.295 -2.1159 -0.0835  1.1209
 3437SOL    HW221948   1.373   0.619  11.413 -0.3503 -1.0948 -0.1529
 3438SOL     OW21949   0.214   0.126   2.568  0.2599  0.1375  0.0016
 3438SOL    HW121950   0.302   0.164   2.560  0.6692 -0.8840 -0.3952
 3438SOL    HW221951   0.200   0.125   2.663 -0.4557  1.7560 -0.0786
 3439SOL     OW21952   4.452   3.710   3.224  0.1534  0.2603  0.1750
 3439SOL    HW121953   4.374   3.660   3.199 -0.2066  0.6935  0.4311
 3439SOL    HW221954   4.439   3.741   3.314  2.2449  1.3353  0.1118
 3440SOL     OW21955   4.692   3.410   5.225  0.3212 -0.1773 -0.2406
 3440SOL    HW121956   4.642   3.482   5.185  1.0417  0.4741  0.0158
 3440SOL    HW221957   4.706   3.445   5.313 -0.2460  1.0919 -0.6417
 3441SOL     OW21958   4.178   2.623   2.131  0.3683 -0.5596 -0.4942
 3441SOL    HW121959   4.207   2.535   2.151 -2.0423 -1.8797 -2.8448
 3441SOL    HW221960   4.092   2.612   2.173 -0.0878  0.2056 -1.2250
 3442SOL     OW21961   0.656   4.581   8.199  0.3208 -0.2756 -0.4110
 3442SOL    HW121962   0.688   4.625   8.278  1.1193  0.5736 -1.2062
 3442SOL    HW221963   0.733   4.572   8.142  2.2413  0.1491  2.1001
 3443SOL     OW21964   2.701   2.722  16.770  1.2094  0.1749 -0.6098
 3443SOL    HW121965   2.639   2.793  16.788 -0.4020 -1.0096 -1.4578
 3443SOL    HW221966   2.734   2.751  16.686  1.8421 -0.0607 -0.4408
 3444SOL     OW21967   2.310   4.527   1.659  0.6295 -0.1032  0.2488
 3444SOL    HW121968   2.372   4.543   1.730 -0.3024  1.4143  0.7269
 3444SOL    HW221969   2.262   4.610   1.664  2.5827  0.9891  1.0089
 3445SOL     OW21970   2.988   1.820   3.030  0.1300  0.0603 -0.6937
 3445SOL    HW121971   2.984   1.761   2.954 -1.1515  2.4939 -2.5032
 3445SOL    HW221972   2.936   1.767   3.091  0.7549  0.1459 -0.0938
 3446SOL     OW21973   2.507   1.213   2.035 -0.0156  0.3401 -0.5161
 3446SOL    HW121974   2.471   1.277   2.096 -0.1031 -0.6448  0.4489
 3446SOL    HW221975   2.601   1.233   2.030 -0.5435  3.8080  3.2314
 3447SOL     OW21976   1.983   1.227   7.520  0.2530 -0.5547 -0.1101
 3447SOL    HW121977   1.925   1.281   7.574 -1.2974  0.5356 -2.8584
 3447SOL    HW221978   2.067   1.242   7.563  0.9446 -0.0227 -1.6839
 3448SOL     OW21979   1.651   2.313  12.198 -0.5478  0.0537 -0.1408
 3448SOL    HW121980   1.608   2.388  12.240 -0.0121 -0.1813  0.8117
 3448SOL    HW221981   1.723   2.299  12.258 -1.1333 -0.1523  0.5123
 3449SOL     OW21982   0.802   3.398   3.465  0.8736 -0.1327  0.4203
 3449SOL    HW121983   0.791   3.378   3.372 -2.7203  1.2053  0.5704
 3449SOL    HW221984   0.734   3.343   3.503 -0.1607  1.6470  1.1249
 3450SOL     OW21985   0.672   0.260   4.692 -0.2395  0.6865 -0.0536
 3450SOL    HW121986   0.601   0.318   4.664 -0.0920 -0.1296 -2.1173
 3450SOL    HW221987   0.628   0.180   4.663  0.2835 -0.0244  1.1224
 3451SOL     OW21988   1.927   2.510   5.920 -0.2400 -0.3410  0.3371
 3451SOL    HW121989   1.898   2.601   5.926 -0.2168 -0.2740 -0.4625
 3451SOL    HW221990   2.011   2.514   5.964 -0.8870 -2.9941  1.8186
 3452SOL     OW21991   4.494   3.507  12.599  0.3950 -0.0931 -0.6207
 3452SOL    HW121992   4.539   3.512  12.683  0.3724  3.0785 -0.8096
 3452SOL    HW221993   4.534   3.427  12.566  1.7468  0.1120  0.5107
 3453SOL     OW21994   0.386   3.071  11.521  0.5365 -0.4904 -0.1909
 3453SOL    HW121995   0.389   2.976  11.508  4.6416 -0.1200 -1.8267
 3453SOL    HW221996   0.326   3.093  11.449  0.1938  2.2671  0.9288
 3454SOL     OW21997   0.411   2.382   6.765  0.5485  0.3667 -0.1688
 3454SOL    HW121998   0.506   2.367   6.767  0.9773  3.0526 -0.3866
 3454SOL    HW221999   0.393   2.391   6.672 -0.7142  0.3276  0.0756
 3455SOL     OW22000   4.641   2.364  12.201  0.2349 -0.2778  0.7409
 3455SOL    HW122001   4.596   2.366  12.116 -1.5888 -2.9370  1.6256
 3455SOL    HW222002   4.571   2.361  12.266  1.3555  0.2638  1.9631
 3456SOL     OW22003   1.877   0.745   6.993 -0.0021 -0.7349 -0.3816
 3456SOL    HW122004   1.886   0.743   7.088  2.4720  1.0407 -0.5909
 3456SOL    HW222005   1.781   0.736   6.993  0.1386 -2.2544 -2.4023
 3457SOL     OW22006   2.332   4.333   4.826 -0.2324 -0.5558 -0.1656
 3457SOL    HW122007   2.425   4.310   4.829  0.2507  1.2569 -1.4893
 3457SOL    HW222008   2.315   4.332   4.732 -0.1662 -1.6381 -0.1609
 3458SOL     OW22009   0.578   3.097   0.761  0.2589  0.5475 -0.4804
 3458SOL    HW122010   0.569   3.183   0.721 -1.9978  0.1157 -0.9040
 3458SOL    HW222011   0.495   3.055   0.740 -0.7120  2.3635 -0.1956
 3459SOL     OW22012   3.964   4.162  14.120 -0.1382  0.4115  0.7560
 3459SOL    HW122013   3.969   4.245  14.168  1.0011  2.1719 -2.3819
 3459SOL    HW222014   3.973   4.096  14.189  2.8516 -0.1755 -0.1940
 3460SOL     OW22015   4.663   4.007   3.626  0.1297  0.5451  0.4210
 3460SOL    HW122016   4.671   3.911   3.625 -0.0778  0.5256  0.7354
 3460SOL    HW222017   4.574   4.012   3.659  0.9806  1.7779  2.4922
 3461SOL     OW22018   4.600   0.281   7.198 -0.0422  0.8514  0.0877
 3461SOL    HW122019   4.666   0.263   7.131 -1.5950 -0.9906 -0.9397
 3461SOL    HW222020   4.644   0.344   7.256  2.5005 -0.1166 -0.7973
 3462SOL     OW22021   1.556   0.208   7.873  0.0855 -0.4902 -0.1588
 3462SOL    HW122022   1.559   0.304   7.878 -0.0413 -0.4242 -1.2523
 3462SOL    HW222023   1.497   0.197   7.798  1.3513 -2.4889 -0.8483
 3463SOL     OW22024   4.596   2.615  17.537 -0.2054 -0.0596 -0.2093
 3463SOL    HW122025   4.674   2.660  17.571 -0.7516  2.9745 -3.0050
 3463SOL    HW222026   4.640   2.574  17.463 -0.0387  0.8942 -0.6395
 3464SOL     OW22027   3.508   4.483  16.658 -0.5404 -0.4029 -0.1157
 3464SOL    HW122028   3.470   4.430  16.729  1.7093 -0.7514  0.8135
 3464SOL    HW222029   3.574   4.537  16.700 -0.1472  0.8927 -2.3883
 3465SOL     OW22030   2.286   1.661   5.420 -0.0949  0.3697 -0.1292
 3465SOL    HW122031   2.216   1.690   5.361 -0.1199 -1.4184 -0.9940
 3465SOL    HW222032   2.359   1.688   5.365 -0.4936  0.5301 -0.5773
 3466SOL     OW22033   1.201   4.150   3.994  0.3876 -0.3839  0.2807
 3466SOL    HW122034   1.167   4.128   4.080 -0.1076  0.7458  0.3578
 3466SOL    HW222035   1.132   4.213   3.973  1.7214  1.0702  0.2616
 3467SOL     OW22036   2.152   3.620   5.251  0.0881  0.2138  0.4045
 3467SOL    HW122037   2.086   3.577   5.198  1.3728 -2.2888  0.8035
 3467SOL    HW222038   2.116   3.708   5.263 -1.9797 -0.4003 -1.4865
 3468SOL     OW22039   4.264   1.055   3.695  0.0131 -0.1099 -0.2302
 3468SOL    HW122040   4.171   1.043   3.677 -0.3448 -0.3493  1.7897
 3468SOL    HW222041   4.267   1.137   3.745  3.2210 -0.5918  0.3703
 3469SOL     OW22042   4.258   2.601   7.337  0.5252  0.0286  0.5208
 3469SOL    HW122043   4.285   2.674   7.281 -1.8401 -0.4390 -1.2420
 3469SOL    HW222044   4.334   2.548   7.317 -0.0839 -0.5831 -0.2014
 3470SOL     OW22045   0.692   1.028  15.644  0.2020  0.0991 -0.2570
 3470SOL    HW122046   0.618   1.089  15.641  1.6141  1.8980  1.1768
 3470SOL    HW222047   0.747   1.075  15.707  2.6828 -1.2179 -1.4291
 3471SOL     OW22048   2.197   0.027   1.670  0.5510  0.1716  0.5922
 3471SOL    HW122049   2.254   0.097   1.701 -0.4766  1.0008  0.5915
 3471SOL    HW222050   2.118   0.070   1.637  0.0814 -0.7936  0.4572
 3472SOL     OW22051   2.943   4.260  11.334 -0.5945 -0.5733  0.3166
 3472SOL    HW122052   2.872   4.250  11.397 -0.4195 -0.4925  0.5266
 3472SOL    HW222053   2.931   4.176  11.290  0.3697  0.0531 -1.1630
 3473SOL     OW22054   1.038   2.161   4.229  0.2058  0.4847  0.1875
 3473SOL    HW122055   1.096   2.175   4.153  1.2434 -2.2927  0.4666
 3473SOL    HW222056   1.022   2.067   4.223 -0.8395  0.5105  2.7030
 3474SOL     OW22057   1.339   3.718   2.946 -0.1351  0.0745  0.0449
 3474SOL    HW122058   1.426   3.758   2.947  0.6196 -1.5348 -3.2166
 3474SOL    HW222059   1.325   3.685   2.858  2.4393  0.8775 -0.6448
 3475SOL     OW22060   4.364   2.174  11.382 -0.6749 -0.2956  0.0366
 3475SOL    HW122061   4.406   2.089  11.397 -0.3645  0.4108  3.2760
 3475SOL    HW222062   4.393   2.197  11.294 -0.4477 -0.7134  0.0014
 3476SOL     OW22063   2.037   1.050  14.993  0.3076 -0.2658 -0.1466
 3476SOL    HW122064   2.092   1.024  15.067 -1.6411 -0.8735  1.1109
 3476SOL    HW222065   1.994   0.967  14.972  0.3004  0.3874 -2.6680
 3477SOL     OW22066   0.379   0.233   7.229  0.0004  0.0896  0.5476
 3477SOL    HW122067   0.318   0.303   7.210 -1.3576 -0.9887  0.9388
 3477SOL    HW222068   0.340   0.153   7.194 -1.0053  0.8447 -0.0515
 3478SOL     OW22069   1.733   1.191   1.524  0.0944  0.2380 -0.5038
 3478SOL    HW122070   1.720   1.198   1.619  2.0228 -0.1129 -0.2315
 3478SOL    HW222071   1.683   1.112   1.504  3.0197 -1.5394 -0.6647
 3479SOL     OW22072   0.554   3.050   4.779 -0.2403 -0.2640  0.2463
 3479SOL    HW122073   0.556   2.955   4.771 -1.2724 -0.2965  0.3630
 3479SOL    HW222074   0.645   3.079   4.772 -0.4018  0.0154 -0.8161
 3480SOL     OW22075   4.384   3.998  14.467  0.0182 -0.1919 -0.2005
 3480SOL    HW122076   4.447   4.070  14.473  0.3300 -0.2546 -2.4308
 3480SOL    HW222077   4.313   4.034  14.521  0.3663 -0.7452  0.6174
 3481SOL     OW22078   4.010   2.488   3.712  0.0130 -0.2562 -0.4873
 3481SOL    HW122079   3.956   2.463   3.787 -0.4370 -0.6082 -0.9286
 3481SOL    HW222080   3.997   2.583   3.714  0.0861 -0.2598  0.1715
 3482SOL     OW22081   2.823   0.565   5.873 -0.1387  0.6570 -0.2136
 3482SOL    HW122082   2.733   0.597   5.872 -0.5853 -0.5081  2.4813
 3482SOL    HW222083   2.819   0.501   5.803 -2.2048 -1.6878  2.0128
 3483SOL     OW22084   2.369   0.929  17.469  0.0521 -0.1070 -0.8452
 3483SOL    HW122085   2.309   0.870  17.514  3.1229 -3.3642 -0.9976
 3483SOL    HW222086   2.321   1.011  17.475  1.3434  0.5859 -0.0596
 3484SOL     OW22087   0.724   0.633   7.744  0.4632  0.1418 -0.2997
 3484SOL    HW122088   0.660   0.565   7.766  1.9501 -0.5366  2.0557
 3484SOL    HW222089   0.677   0.711   7.771  0.6185 -0.1139  0.7511
 3485SOL     OW22090   1.927   3.467   6.557 -0.2383  0.1705 -0.8507
 3485SOL    HW122091   1.879   3.497   6.480 -0.0880  2.5111 -0.0402
 3485SOL    HW222092   1.874   3.513   6.622 -0.4679  0.2697 -1.1100
 3486SOL     OW22093   2.053   3.338  14.586  0.0890  0.1970 -0.2201
 3486SOL    HW122094   1.978   3.321  14.643  0.0165  3.2649  0.5710
 3486SOL    HW222095   2.054   3.255  14.539 -0.0639  0.5492 -0.8399
 3487SOL     OW22096   2.400   3.070   8.409 -0.2072  0.1319  0.3793
 3487SOL    HW122097   2.310   3.040   8.395  1.2007 -3.3072 -1.2147
 3487SOL    HW222098   2.430   3.001   8.469  2.3697  1.4794  0.6490
 3488SOL     OW22099   0.883   0.323   5.698  0.1267 -0.1320  0.5552
 3488SOL    HW122100   0.880   0.260   5.770  0.5085  0.1384  0.8040
 3488SOL    HW222101   0.815   0.279   5.646  0.1574 -1.0638  1.3045
 3489SOL     OW22102   3.403   2.177   4.005 -0.3318  0.0252  0.0842
 3489SOL    HW122103   3.354   2.097   3.985  3.4139 -2.2647  0.0747
 3489SOL    HW222104   3.480   2.147   3.957 -0.4152 -0.4688  0.2508
 3490SOL     OW22105   0.894   2.204  16.170  0.1702  0.2970  0.3325
 3490SOL    HW122106   0.849   2.205  16.085 -0.4788 -0.0385  0.6716
 3490SOL    HW222107   0.945   2.284  16.164 -0.7502  0.8281 -0.5477
 3491SOL     OW22108   0.568   0.083   0.889 -0.4140  0.2569  0.1984
 3491SOL    HW122109   0.476   0.110   0.897 -0.4754  0.2902 -0.5759
 3491SOL    HW222110   0.568   4.735   0.935 -0.9171  0.9550  1.4749
 3492SOL     OW22111   1.701   1.024   2.810  0.0436 -0.8611 -0.1678
 3492SOL    HW122112   1.626   0.968   2.787 -0.7787 -0.4013  1.3817
 3492SOL    HW222113   1.766   0.974   2.761 -0.2490 -1.1739 -0.2416
 3493SOL     OW22114   4.574   3.248  10.687  0.2728  0.1485 -0.3804
 3493SOL    HW122115   4.515   3.177  10.711 -1.5156  1.8083  0.2187
 3493SOL    HW222116   4.663   3.222  10.709 -0.0395  0.8200  1.7173
 3494SOL     OW22117   3.932   4.571   3.515  0.2293 -0.0718  0.1768
 3494SOL    HW122118   4.025   4.578   3.494  0.0856 -1.7222 -1.0704
 3494SOL    HW222119   3.938   4.490   3.565 -1.8141 -1.2110 -1.3661
 3495SOL     OW22120   0.476   3.098   5.105  1.1507 -0.3627  0.0423
 3495SOL    HW122121   0.402   3.074   5.050  2.1782 -0.9164 -1.1076
 3495SOL    HW222122   0.540   3.122   5.037  1.0425 -0.6854 -0.1710
 3496SOL     OW22123   1.888   3.293   4.698  0.1068 -0.2855 -0.0688
 3496SOL    HW122124   1.831   3.366   4.723 -1.0139 -1.3854  0.6104
 3496SOL    HW222125   1.860   3.225   4.760  2.9839 -1.8715 -0.5300
 3497SOL     OW22126   3.306   2.433   3.990  0.1931  0.1964 -0.2378
 3497SOL    HW122127   3.325   2.353   4.039  3.1483  2.2918  2.0278
 3497SOL    HW222128   3.271   2.485   4.061  0.7742  1.2845 -0.7550
 3498SOL     OW22129   3.892   1.863   3.128 -0.5263  0.1936 -0.7474
 3498SOL    HW122130   3.898   1.910   3.044  1.5045  0.4861 -0.4383
 3498SOL    HW222131   3.945   1.927   3.177 -0.4465 -0.0088 -0.5724
 3499SOL     OW22132   2.626   0.076  14.363 -0.5717  0.5439 -0.3322
 3499SOL    HW122133   2.556   0.101  14.423 -1.8675  0.9951 -2.0513
 3499SOL    HW222134   2.576   0.072  14.281  0.8217  0.6342 -1.1897
 3500SOL     OW22135   0.569   3.208   8.250  0.1937 -0.2731  0.0727
 3500SOL    HW122136   0.654   3.206   8.206  0.1265  0.4920 -0.0992
 3500SOL    HW222137   0.578   3.283   8.309 -3.1251  1.7293 -1.9999
 3501SOL     OW22138   4.252   1.060   7.002  0.1121 -0.3189  0.6779
 3501SOL    HW122139   4.341   1.039   7.030  0.6256  0.5397 -0.2845
 3501SOL    HW222140   4.251   1.027   6.912 -0.6476  0.9558  0.2195
 3502SOL     OW22141   2.164   2.276  14.364 -0.5537 -0.1150 -0.0581
 3502SOL    HW122142   2.141   2.199  14.312  1.3316  1.1804 -2.8006
 3502SOL    HW222143   2.104   2.270  14.438  0.7000 -2.7471  0.7370
 3503SOL     OW22144   0.835   2.768   2.697  0.1738 -0.2596  0.8668
 3503SOL    HW122145   0.841   2.716   2.617  3.0952  0.9501  0.3072
 3503SOL    HW222146   0.902   2.730   2.754  0.3565  0.0690  0.8700
 3504SOL     OW22147   1.652   3.024   6.690  0.0721 -0.4524 -0.0797
 3504SOL    HW122148   1.641   3.100   6.632  0.5799  0.2540  0.7568
 3504SOL    HW222149   1.659   2.951   6.629 -0.1491  0.0380 -0.6973
 3505SOL     OW22150   2.377   2.289  13.848  0.0874  0.6774 -0.0325
 3505SOL    HW122151   2.349   2.282  13.940  2.6129  0.2971  0.6994
 3505SOL    HW222152   2.465   2.256  13.862 -0.6640 -1.3799 -0.1784
 3506SOL     OW22153   1.620   2.264   6.070 -0.3099  0.1929  0.5855
 3506SOL    HW122154   1.564   2.295   6.142 -0.2214  2.1472 -0.1848
 3506SOL    HW222155   1.618   2.344   6.018 -0.0792  1.0936  1.9380
 3507SOL     OW22156   2.229   4.107   4.475  0.1640 -0.3917  0.1254
 3507SOL    HW122157   2.267   4.045   4.412 -1.8791 -1.0889 -0.4045
 3507SOL    HW222158   2.220   4.041   4.544  0.2739 -0.5903 -0.0487
 3508SOL     OW22159   2.343   3.424   5.173  0.2103  0.3929  1.0874
 3508SOL    HW122160   2.285   3.480   5.225  0.1203 -2.2034  3.7766
 3508SOL    HW222161   2.319   3.342   5.215 -0.1222  0.4110  0.9343
 3509SOL     OW22162   0.315   2.969   7.139  0.0536  0.2361  0.1481
 3509SOL    HW122163   0.344   3.008   7.057  0.4230  2.6831  1.4642
 3509SOL    HW222164   0.221   2.986   7.140  0.0872  0.3738  1.2516
 3510SOL     OW22165   2.533   2.711  11.846 -0.3840  0.1799  0.5881
 3510SOL    HW122166   2.565   2.749  11.928  0.4675 -0.4637  0.5483
 3510SOL    HW222167   2.616   2.694  11.800 -1.1790  0.4116 -0.9405
 3511SOL     OW22168   4.435   0.148   1.562  0.6024 -0.0083 -0.0220
 3511SOL    HW122169   4.507   0.168   1.622  2.1160 -1.7283 -1.2624
 3511SOL    HW222170   4.422   0.055   1.580 -1.0363  0.5415  1.6231
 3512SOL     OW22171   0.911   2.911   5.058  0.3926  0.0549  0.2962
 3512SOL    HW122172   1.001   2.945   5.057  0.3383  0.2283  1.6757
 3512SOL    HW222173   0.913   2.871   5.145 -2.0746 -1.5646 -0.3897
 3513SOL     OW22174   1.380   3.620   4.665  0.2699  0.2771  0.5442
 3513SOL    HW122175   1.331   3.657   4.593  2.0122  0.2108 -0.6766
 3513SOL    HW222176   1.310   3.570   4.708  0.2481  0.1108  0.3118
 3514SOL     OW22177   2.948   0.778   5.983  0.1146 -0.2181 -0.2049
 3514SOL    HW122178   2.896   0.699   5.972 -0.0768  0.1320 -1.7663
 3514SOL    HW222179   2.879   0.839   6.009 -1.9596 -3.6269  2.3102
 3515SOL     OW22180   1.798   2.582  10.763  0.3940 -0.7804  0.7102
 3515SOL    HW122181   1.816   2.612  10.852 -0.7177  1.4340  0.1799
 3515SOL    HW222182   1.884   2.584  10.721  0.4118  0.7292  0.8439
 3516SOL     OW22183   0.619   4.181   7.596  0.1396 -0.0347  0.7464
 3516SOL    HW122184   0.702   4.140   7.572 -1.0834 -1.3598 -1.1474
 3516SOL    HW222185   0.630   4.180   7.691  1.5076 -0.0747  0.5868
 3517SOL     OW22186   2.553   2.129   4.773 -0.1354  0.4938  0.3349
 3517SOL    HW122187   2.645   2.104   4.762 -0.8808 -1.1820 -2.0102
 3517SOL    HW222188   2.535   2.108   4.864 -3.0118  1.3435 -0.0352
 3518SOL     OW22189   0.925   2.892   9.002 -0.5532  0.2271  0.2431
 3518SOL    HW122190   0.891   2.980   8.987 -0.6156  0.3617  1.2063
 3518SOL    HW222191   1.000   2.910   9.059 -0.9316  1.6979  0.2848
 3519SOL     OW22192   2.554   4.696  12.842  0.7878  0.2259  0.6767
 3519SOL    HW122193   2.615   4.642  12.793 -0.9255  0.9363 -2.2224
 3519SOL    HW222194   2.515   4.628  12.896 -0.4390  0.4115  0.0311
 3520SOL     OW22195   2.628   2.327  10.560 -0.7193 -0.0469 -0.2866
 3520SOL    HW122196   2.708   2.276  10.567 -1.8341 -1.9046 -1.1163
 3520SOL    HW222197   2.560   2.282  10.611  0.4922 -2.1972 -0.5619
 3521SOL     OW22198   2.123   1.138   2.258  0.0978 -0.4367  0.0520
 3521SOL    HW122199   2.083   1.052   2.270  1.3409 -1.4837 -3.3416
 3521SOL    HW222200   2.168   1.132   2.174 -1.9745 -0.6361 -1.0538
 3522SOL     OW22201   0.093   3.570  14.740 -0.0938  0.9000 -0.6557
 3522SOL    HW122202   0.129   3.644  14.789  2.8072 -0.4428 -0.7566
 3522SOL    HW222203   0.023   3.609  14.688 -1.4140  0.5067  0.8305
 3523SOL     OW22204   2.309   0.063   5.945 -0.3642 -0.0272  0.0072
 3523SOL    HW122205   2.219   0.074   5.915 -0.7134 -2.0348  0.2855
 3523SOL    HW222206   2.278   0.062   6.036  1.3074  0.2117  0.5823
 3524SOL     OW22207   0.362   1.129   3.118  0.3026 -0.1480  0.7488
 3524SOL    HW122208   0.289   1.082   3.157  0.9168 -0.8095  1.1137
 3524SOL    HW222209   0.408   1.146   3.200  0.8096  2.9551 -0.1808
 3525SOL     OW22210   1.469   2.154   8.199  0.0480  0.0148 -0.3029
 3525SOL    HW122211   1.377   2.139   8.221  0.8191 -2.5691  1.1250
 3525SOL    HW222212   1.455   2.174   8.106 -0.3871  1.8305  0.1616
 3526SOL     OW22213   0.514   1.883   8.812  0.2460 -0.0446 -0.4115
 3526SOL    HW122214   0.469   1.807   8.777 -0.6804  0.0384  0.6127
 3526SOL    HW222215   0.606   1.863   8.832 -0.5008 -1.6391  1.3820
 3527SOL     OW22216   1.288   2.169   7.972  0.3784 -0.3894  0.7893
 3527SOL    HW122217   1.271   2.117   7.893  2.9939 -0.4330  0.2503
 3527SOL    HW222218   1.204   2.213   7.981  1.0474  1.2221 -0.8154
 3528SOL     OW22219   0.825   1.799   7.168 -0.2283  0.0746 -0.0568
 3528SOL    HW122220   0.749   1.752   7.203 -0.8966  2.6318  1.8990
 3528SOL    HW222221   0.822   1.772   7.076 -0.2006 -0.5605  0.1286
 3529SOL     OW22222   0.905   0.438  10.221 -0.0142 -0.3333  0.0594
 3529SOL    HW122223   0.903   0.346  10.194 -0.7189  0.4865 -2.5981
 3529SOL    HW222224   0.899   0.423  10.316 -2.3895 -0.7452 -0.1414
 3530SOL     OW22225   1.303   4.479   1.296  0.1009 -0.6015 -0.0512
 3530SOL    HW122226   1.366   4.547   1.321  0.1531 -0.5829 -0.2327
 3530SOL    HW222227   1.277   4.439   1.379 -0.8994 -0.4520 -0.2933
 3531SOL     OW22228   1.082   1.935   2.231  0.1973  0.1691 -0.4329
 3531SOL    HW122229   1.107   1.859   2.282  0.5262  0.3545 -0.3174
 3531SOL    HW222230   0.987   1.941   2.225  0.0245 -2.6244 -0.3868
 3532SOL     OW22231   0.299   2.396  12.493  0.1552 -0.6071 -0.1177
 3532SOL    HW122232   0.299   2.486  12.527 -0.5813 -1.2735  1.6322
 3532SOL    HW222233   0.208   2.379  12.470  0.4464 -0.2270 -1.5443
 3533SOL     OW22234   2.137   3.300   6.890  0.4318  0.6466  0.0128
 3533SOL    HW122235   2.059   3.259   6.853  1.0180  0.3321 -0.8733
 3533SOL    HW222236   2.166   3.238   6.956 -2.5030 -0.7091  0.0010
 3534SOL     OW22237   0.713   1.511  11.667 -0.1005 -0.7225  0.0513
 3534SOL    HW122238   0.748   1.598  11.686  0.9144 -1.2560  0.6057
 3534SOL    HW222239   0.782   1.454  11.700 -0.1604 -1.3518 -0.9384
 3535SOL     OW22240   3.907   0.527   7.565  0.2879 -0.0079 -0.6401
 3535SOL    HW122241   3.954   0.587   7.623  0.2733  1.3872 -2.0556
 3535SOL    HW222242   3.815   0.553   7.575  0.1210  0.3087 -2.9461
 3536SOL     OW22243   0.253   2.047   2.747  0.0789  0.4672  0.1480
 3536SOL    HW122244   0.323   1.988   2.718  0.0912  0.2318  0.6647
 3536SOL    HW222245   0.273   2.120   2.687 -0.0608  1.0215  0.7759
 3537SOL     OW22246   0.837   0.835   3.354  0.2545  0.1287  0.1779
 3537SOL    HW122247   0.837   0.780   3.276  2.2631  0.3943 -0.0081
 3537SOL    HW222248   0.859   0.765   3.417 -2.5714 -0.6115  0.3446
 3538SOL     OW22249   2.683   0.279   4.153 -0.3949  0.1666  0.6381
 3538SOL    HW122250   2.630   0.200   4.161  0.2322 -0.3578 -0.3487
 3538SOL    HW222251   2.680   0.293   4.059 -0.7328 -0.5235  0.5493
 3539SOL     OW22252   0.895   3.013  13.902  0.0440  0.8213  0.6833
 3539SOL    HW122253   0.866   3.099  13.873  0.3011 -0.0281 -2.1445
 3539SOL    HW222254   0.827   2.958  13.862 -1.1141  2.3293  0.5840
 3540SOL     OW22255   0.551   1.481   8.133  0.4762  0.6884  0.0129
 3540SOL    HW122256   0.630   1.427   8.128 -0.6797 -1.2154  1.9123
 3540SOL    HW222257   0.495   1.406   8.153  2.6016 -0.8966  0.0583
 3541SOL     OW22258   0.128   2.945  15.247 -0.3204 -0.0502  0.6506
 3541SOL    HW122259   0.058   2.910  15.192  0.2697  0.7819 -0.6262
 3541SOL    HW222260   0.107   3.037  15.258  2.3316  0.6529 -0.1432
 3542SOL     OW22261   4.460   0.060   3.386 -0.0558 -0.0576  0.1814
 3542SOL    HW122262   4.550   0.034   3.405  0.4723  0.0123 -2.1606
 3542SOL    HW222263   4.440   0.133   3.445  0.6977 -1.3704  2.0426
 3543SOL     OW22264   1.278   0.066  14.267  0.1809 -0.0177 -0.3551
 3543SOL    HW122265   1.296   0.159  14.256 -1.2735  0.2516 -0.5067
 3543SOL    HW222266   1.364   0.036  14.239  0.7485  1.3293 -0.0795
 3544SOL     OW22267   1.889   3.560   4.859  0.3791  0.5231 -0.1187
 3544SOL    HW122268   1.953   3.515   4.914 -0.5119 -1.0902 -0.4026
 3544SOL    HW222269   1.840   3.609   4.926 -0.6807  1.4377 -1.5529
 3545SOL     OW22270   4.349   4.271  13.966  0.4993  0.3041  0.1708
 3545SOL    HW122271   4.293   4.325  14.023 -1.0275 -2.0679  0.9009
 3545SOL    HW222272   4.382   4.334  13.902  0.6865  0.0186 -0.0090
 3546SOL     OW22273   2.863   3.323   6.285  0.1439 -0.1661 -0.0931
 3546SOL    HW122274   2.833   3.372   6.208 -3.5918 -2.5297 -0.1246
 3546SOL    HW222275   2.958   3.328   6.275  0.1263  0.2415 -0.0634
 3547SOL     OW22276   3.938   0.192  17.079 -0.2326  0.1782  0.1964
 3547SOL    HW122277   3.892   0.258  17.027 -2.5374 -2.1381 -0.7088
 3547SOL    HW222278   3.916   0.114  17.029  1.6033  0.0841 -0.4428
 3548SOL     OW22279   4.215   1.575  15.853 -0.1342  0.5931 -0.5506
 3548SOL    HW122280   4.219   1.567  15.758  3.1965 -0.6156 -0.2906
 3548SOL    HW222281   4.276   1.645  15.874 -2.2933  2.3895 -0.2865
 3549SOL     OW22282   0.377   2.730  10.089  0.0283 -0.1301 -0.0336
 3549SOL    HW122283   0.283   2.749  10.098 -0.0601  0.3240 -1.9007
 3549SOL    HW222284   0.400   2.754  10.178 -0.5640  0.6265 -0.0818
 3550SOL     OW22285   1.508   0.998   0.812 -0.2765  0.2782 -0.1217
 3550SOL    HW122286   1.427   0.984   0.763  0.2273 -0.4201 -0.7457
 3550SOL    HW222287   1.465   1.031   0.891 -1.1758 -1.2110  0.0034
 3551SOL     OW22288   0.747   4.114   2.727  0.2103  0.5343 -0.0581
 3551SOL    HW122289   0.776   4.201   2.698 -0.8838  0.9319  0.0522
 3551SOL    HW222290   0.830   4.065   2.723  0.3618  0.7115  0.9491
 3552SOL     OW22291   2.519   1.907  16.917 -0.2625  0.4300 -0.1577
 3552SOL    HW122292   2.513   1.811  16.909 -1.5254  0.4613  0.4200
 3552SOL    HW222293   2.438   1.933  16.872 -1.9001 -2.2947  1.2180
 3553SOL     OW22294   0.329   1.237   1.765  0.5286  0.2732  0.1024
 3553SOL    HW122295   0.301   1.328   1.767  1.2813  0.5633 -2.4515
 3553SOL    HW222296   0.347   1.227   1.858  2.0151  2.3897  0.0447
 3554SOL     OW22297   2.710   3.320  12.386  0.0305  0.6861  0.2575
 3554SOL    HW122298   2.683   3.409  12.409 -1.4973  0.8127 -2.0055
 3554SOL    HW222299   2.735   3.326  12.294  0.9987 -1.4495  0.3661
 3555SOL     OW22300   1.978   2.214  12.702  0.0841 -0.9505 -0.1880
 3555SOL    HW122301   2.019   2.155  12.639  0.9404  1.8958 -2.3053
 3555SOL    HW222302   2.034   2.291  12.712 -0.8219 -0.1774 -1.0615
 3556SOL     OW22303   0.353   3.487   9.451 -0.0858 -0.2625 -0.4020
 3556SOL    HW122304   0.312   3.468   9.535  0.9774 -1.6180 -0.1827
 3556SOL    HW222305   0.300   3.434   9.392  0.2431 -1.3225  0.2588
 3557SOL     OW22306   2.826   3.673  11.181  0.2984  0.4555 -0.0781
 3557SOL    HW122307   2.858   3.713  11.261  0.1234 -1.5997  1.0027
 3557SOL    HW222308   2.747   3.725  11.165 -2.0601 -2.9937  0.4858
 3558SOL     OW22309   2.619   2.159  13.820  0.0306 -0.1275  0.2830
 3558SOL    HW122310   2.566   2.152  13.741  1.7559 -0.4635 -0.8383
 3558SOL    HW222311   2.613   2.071  13.859 -1.4050 -0.7224 -1.2925
 3559SOL     OW22312   3.830   3.820   5.857  0.2488  0.3296 -0.7316
 3559SOL    HW122313   3.795   3.828   5.946  2.1216  2.5315 -0.1996
 3559SOL    HW222314   3.745   3.811   5.813 -0.6090 -0.3212  1.0401
 3560SOL     OW22315   0.812   4.377   4.907  0.2508  0.4763  0.3814
 3560SOL    HW122316   0.900   4.402   4.882 -0.4702  1.1518 -1.4919
 3560SOL    HW222317   0.834   4.287   4.932  1.6621  0.7244  0.0414
 3561SOL     OW22318   3.866   2.353  11.027  0.3589  0.5507  0.3999
 3561SOL    HW122319   3.850   2.259  11.023  2.0706  0.2396  1.0488
 3561SOL    HW222320   3.870   2.351  10.932  1.7191 -0.5903  0.4833
 3562SOL     OW22321   0.546   2.880   6.134  0.0662  0.2183 -0.1952
 3562SOL    HW122322   0.559   2.887   6.040  2.4948 -0.5946  0.0768
 3562SOL    HW222323   0.532   2.969   6.167 -0.2186 -0.0317  0.3719
 3563SOL     OW22324   2.500   3.837   8.030 -0.1237 -0.2525 -0.0495
 3563SOL    HW122325   2.438   3.767   8.051 -0.9308 -0.2327 -2.2961
 3563SOL    HW222326   2.503   3.891   8.108 -2.2281 -0.6764  0.3245
 3564SOL     OW22327   2.153   1.835   7.394  0.3277  0.2668 -1.0659
 3564SOL    HW122328   2.164   1.776   7.319 -1.6906  0.0859 -1.2138
 3564SOL    HW222329   2.193   1.917   7.366  0.8341  0.6163  0.6459
 3565SOL     OW22330   3.467   3.750   2.045  0.1553 -0.4247 -0.6390
 3565SOL    HW122331   3.372   3.751   2.032  0.0211 -0.8185  0.3589
 3565SOL    HW222332   3.496   3.783   1.959  2.8144 -0.5239  0.2268
 3566SOL     OW22333   3.515   3.075   6.175  0.2130  0.5749  0.1477
 3566SOL    HW122334   3.558   2.990   6.190  1.7883  1.4965  0.8523
 3566SOL    HW222335   3.577   3.122   6.120  1.7013 -1.2976  0.1844
 3567SOL     OW22336   4.346   0.905  15.759 -0.0780 -0.5628 -0.5438
 3567SOL    HW122337   4.322   0.968  15.827  0.3291 -1.4753  0.4466
 3567SOL    HW222338   4.324   0.966  15.688  4.0971 -0.6665 -1.9458
 3568SOL     OW22339   1.508   1.763   7.291 -0.2000  0.2196 -0.0784
 3568SOL    HW122340   1.462   1.845   7.271  1.0390  0.3412 -2.3969
 3568SOL    HW222341   1.462   1.694   7.245  1.4657 -1.5501  0.9099
 3569SOL     OW22342   2.153   2.988   3.770 -0.6420 -0.1643 -0.4499
 3569SOL    HW122343   2.230   2.966   3.823  0.1706  1.1118 -1.0838
 3569SOL    HW222344   2.191   3.037   3.697  1.4854 -0.8443  0.1918
 3570SOL     OW22345   2.541   2.537  10.408  0.1496 -0.5259 -0.7129
 3570SOL    HW122346   2.602   2.606  10.432  0.7923  0.3475 -4.8232
 3570SOL    HW222347   2.574   2.465  10.461  0.7713  0.8878  0.8247
 3571SOL     OW22348   1.258   0.708  16.488  0.2518 -0.1087 -0.2900
 3571SOL    HW122349   1.262   0.614  16.470  1.8010  0.6243 -3.8282
 3571SOL    HW222350   1.348   0.739  16.491 -0.5425  2.0281  1.2568
 3572SOL     OW22351   0.581   2.038   7.561 -0.0740 -0.3191 -0.1500
 3572SOL    HW122352   0.601   2.082   7.479 -2.7406 -2.8870 -2.1796
 3572SOL    HW222353   0.550   1.954   7.528 -0.9213 -0.2466  0.4465
 3573SOL     OW22354   0.907   1.373  11.832 -0.4630 -0.1862  0.3060
 3573SOL    HW122355   0.936   1.465  11.831 -0.1269 -0.3122 -1.0542
 3573SOL    HW222356   0.889   1.368  11.926 -2.8173 -0.4353 -0.1792
 3574SOL     OW22357   4.632   2.172   1.196  0.2100  0.0710 -0.2327
 3574SOL    HW122358   4.615   2.088   1.238  1.6566  0.7223  1.6696
 3574SOL    HW222359   4.569   2.168   1.124  2.6595  1.2679 -2.4811
 3575SOL     OW22360   0.545   1.192   5.240  0.5148  0.3660  0.1469
 3575SOL    HW122361   0.511   1.138   5.168  0.8659  1.7301 -1.0381
 3575SOL    HW222362   0.536   1.282   5.208  1.6674 -0.2555 -1.9433
 3576SOL     OW22363   3.373   3.364   4.423  0.4498 -0.2457  0.1916
 3576SOL    HW122364   3.293   3.324   4.457 -0.7303  0.6032 -1.6386
 3576SOL    HW222365   3.395   3.414   4.501  0.9642  0.0798 -0.1636
 3577SOL     OW22366   2.194   1.135   3.526  0.0986 -0.0364 -0.7433
 3577SOL    HW122367   2.110   1.095   3.505 -0.8935  2.4330 -1.5193
 3577SOL    HW222368   2.242   1.052   3.528  0.5919  0.2533 -0.6873
 3578SOL     OW22369   0.674   2.386  14.821 -0.4445  0.6573 -0.2862
 3578SOL    HW122370   0.729   2.356  14.893 -0.4201  0.5457 -0.3528
 3578SOL    HW222371   0.633   2.466  14.855  1.3703  0.3122  2.7691
 3579SOL     OW22372   3.144   4.076   6.240 -0.5461 -0.1329 -0.4053
 3579SOL    HW122373   3.237   4.071   6.259 -0.3941  1.8293 -0.6753
 3579SOL    HW222374   3.140   4.171   6.232 -0.8586 -0.1937 -1.0205
 3580SOL     OW22375   0.758   3.708   7.796 -0.8115  0.5904 -0.3306
 3580SOL    HW122376   0.814   3.783   7.815  0.6260 -1.1664  2.3931
 3580SOL    HW222377   0.686   3.730   7.737 -0.1218  1.9250 -0.6555
 3581SOL     OW22378   0.738   1.902  16.443  0.0121 -0.3818 -0.4911
 3581SOL    HW122379   0.714   1.992  16.420 -0.0269 -0.2713 -0.0193
 3581SOL    HW222380   0.766   1.921  16.533  1.4796  1.5784 -1.3681
 3582SOL     OW22381   4.580   3.252   6.731 -0.1757  0.1909  0.0900
 3582SOL    HW122382   4.606   3.338   6.699  0.0881 -0.3427 -1.1553
 3582SOL    HW222383   4.647   3.195   6.693 -0.9457  0.8395 -2.2344
 3583SOL     OW22384   2.499   2.033   3.711 -0.4176  0.4404 -0.0794
 3583SOL    HW122385   2.505   1.941   3.736 -1.3795  1.1257  2.6642
 3583SOL    HW222386   2.432   2.026   3.643 -1.3636  0.9538  0.8076
 3584SOL     OW22387   3.556   3.883  11.301  0.8629  0.3818  0.5969
 3584SOL    HW122388   3.637   3.833  11.302 -0.5010 -1.8067  0.2295
 3584SOL    HW222389   3.539   3.906  11.210  1.8510  1.4491  0.6763
 3585SOL     OW22390   4.631   0.185   5.231 -1.0461  0.5847  0.1901
 3585SOL    HW122391   4.706   0.127   5.217  0.6537  2.3858  1.8976
 3585SOL    HW222392   4.576   0.111   5.257 -2.2595  0.6947 -2.0729
 3586SOL     OW22393   0.400   3.561   6.247 -0.0226  0.2140  0.1300
 3586SOL    HW122394   0.394   3.539   6.154 -0.1006 -2.1615  0.7043
 3586SOL    HW222395   0.350   3.642   6.243 -2.7894 -1.5772 -1.0586
 3587SOL     OW22396   2.980   1.404   7.127  0.0131  0.4174  0.0467
 3587SOL    HW122397   2.957   1.325   7.176  1.3579  1.0633  1.7095
 3587SOL    HW222398   3.071   1.383   7.108 -0.5973  0.7144 -3.1120
 3588SOL     OW22399   3.462   2.398  11.652  0.2463  0.2284 -0.5740
 3588SOL    HW122400   3.532   2.462  11.643  1.4310 -0.9476  0.1812
 3588SOL    HW222401   3.395   2.436  11.708  1.2698 -0.0462  0.8405
 3589SOL     OW22402   0.232   4.616   6.286 -0.1325  0.2278  0.1399
 3589SOL    HW122403   0.164   4.591   6.224  1.2997  0.1789 -1.3952
 3589SOL    HW222404   0.301   4.646   6.227 -0.0621  0.8135  0.5230
 3590SOL     OW22405   3.601   3.859   2.247  0.3582 -0.1269  0.0164
 3590SOL    HW122406   3.681   3.866   2.196  0.4491  0.3187  0.2134
 3590SOL    HW222407   3.549   3.822   2.176 -0.1272  0.5333  0.0216
 3591SOL     OW22408   0.791   3.906   8.624 -0.0808  0.2050  0.1979
 3591SOL    HW122409   0.862   3.844   8.635 -0.8053 -0.2199  2.5237
 3591SOL    HW222410   0.831   3.986   8.589 -0.1547  1.5901  3.2657
 3592SOL     OW22411   4.061   4.110   2.893 -0.1791  0.3859  0.4280
 3592SOL    HW122412   4.124   4.181   2.879  0.9230 -0.9722 -1.5253
 3592SOL    HW222413   4.066   4.115   2.989 -2.6356  1.4300  0.4759
 3593SOL     OW22414   0.514   1.890  14.783 -0.1243 -0.1458 -0.5997
 3593SOL    HW122415   0.476   1.907  14.697  1.7625  0.3247 -1.3534
 3593SOL    HW222416   0.520   1.980  14.814 -0.0971 -0.5931  0.7122
 3594SOL     OW22417   3.761   0.961   6.742  0.0783 -0.1402 -0.3978
 3594SOL    HW122418   3.736   0.963   6.834  0.4381 -1.2822 -0.2729
 3594SOL    HW222419   3.701   1.023   6.702  0.9832  0.3229 -1.0264
 3595SOL     OW22420   3.288   1.899  11.788  0.7739 -0.0569 -0.3681
 3595SOL    HW122421   3.362   1.858  11.834 -1.8422 -2.2149  1.8613
 3595SOL    HW222422   3.298   1.860  11.701 -0.9253 -0.8973 -0.1764
 3596SOL     OW22423   3.455   2.382   8.406 -0.2230 -0.2606 -0.4825
 3596SOL    HW122424   3.387   2.318   8.386 -1.7080  1.0650  0.3073
 3596SOL    HW222425   3.528   2.354   8.350  0.4336 -0.6904  0.5857
 3597SOL     OW22426   3.237   1.475   6.393  0.4704  0.1759  0.5590
 3597SOL    HW122427   3.238   1.570   6.398  1.9201  0.2162 -0.6272
 3597SOL    HW222428   3.271   1.449   6.479  2.5181 -2.4825 -1.0437
 3598SOL     OW22429   4.180   4.623   6.064  0.1939  0.3594  0.8257
 3598SOL    HW122430   4.111   4.595   6.123  1.3712 -1.8847  1.1208
 3598SOL    HW222431   4.241   4.674   6.117 -1.3718  4.3292 -1.1590
 3599SOL     OW22432   3.919   0.675   2.372  0.5086  0.2507 -0.2630
 3599SOL    HW122433   3.837   0.701   2.413  1.2178 -1.9543  2.6280
 3599SOL    HW222434   3.949   0.745   2.314  2.8311 -0.5428 -0.0191
 3600SOL     OW22435   3.650   0.891  15.175  0.2842  0.0371 -0.0546
 3600SOL    HW122436   3.696   0.894  15.091  0.5121 -2.7454 -0.0297
 3600SOL    HW222437   3.579   0.952  15.157  0.1296 -0.5947 -1.5462
 3601SOL     OW22438   1.196   3.642   3.438  0.1256 -0.0912  0.1499
 3601SOL    HW122439   1.233   3.656   3.351  1.6752 -0.6519  0.7123
 3601SOL    HW222440   1.160   3.553   3.432 -2.5689  0.9477  0.9483
 3602SOL     OW22441   4.158   2.109   5.884 -0.0496 -0.6255  0.1869
 3602SOL    HW122442   4.100   2.036   5.906  1.6649 -2.6654 -2.0605
 3602SOL    HW222443   4.094   2.179   5.871 -2.5291 -2.6797  1.1757
 3603SOL     OW22444   4.445   4.634  15.363 -0.1333  0.2397 -0.7045
 3603SOL    HW122445   4.375   4.640  15.428 -0.5138  0.0720 -1.1033
 3603SOL    HW222446   4.493   4.562  15.405  1.4148  0.9401 -1.2544
 3604SOL     OW22447   3.151   3.343   6.319 -0.1255 -0.3181  0.0667
 3604SOL    HW122448   3.166   3.418   6.377 -0.4902  1.7922 -2.5371
 3604SOL    HW222449   3.230   3.291   6.334 -0.0675 -0.2572 -0.0266
 3605SOL     OW22450   2.510   0.886   1.486 -0.3760 -0.2769  0.0543
 3605SOL    HW122451   2.451   0.893   1.411 -1.4389  2.0788  1.1021
 3605SOL    HW222452   2.551   0.801   1.469 -1.6115 -0.6590 -1.0038
 3606SOL     OW22453   4.658   3.836  14.839 -1.0717  0.3651 -0.4371
 3606SOL    HW122454   4.721   3.895  14.798  0.6789 -0.2226  1.4362
 3606SOL    HW222455   4.648   3.768  14.772  4.4838  0.2974 -1.1735
 3607SOL     OW22456   3.871   3.785   9.355 -0.1131  0.1536  0.5785
 3607SOL    HW122457   3.867   3.755   9.264  2.4027  3.1365 -0.5667
 3607SOL    HW222458   3.914   3.715   9.404  0.7021 -0.9926 -1.7728
 3608SOL     OW22459   0.739   2.615   6.226 -0.7130  0.0312  0.2307
 3608SOL    HW122460   0.672   2.598   6.159 -0.3105  2.7099 -0.8287
 3608SOL    HW222461   0.807   2.639   6.163  0.6295 -2.2113  0.8073
 3609SOL     OW22462   3.072   0.663   5.754  0.0090  0.0300 -0.6808
 3609SOL    HW122463   3.063   0.570   5.776  0.1114  0.0531 -0.5379
 3609SOL    HW222464   3.042   0.714   5.829  2.4075  0.4114  0.0278
 3610SOL     OW22465   0.132   4.322   7.691  0.4675  0.1380 -0.2337
 3610SOL    HW122466   0.140   4.239   7.738 -0.7603  1.4038  2.2589
 3610SOL    HW222467   0.223   4.345   7.670  0.3198  1.7591  0.9170
 3611SOL     OW22468   0.058   3.500  15.590 -0.2036 -0.7385 -0.8223
 3611SOL    HW122469   0.078   3.411  15.561 -0.0971 -1.2578  0.8490
 3611SOL    HW222470   0.035   3.545  15.509 -1.3367 -1.5703 -0.9560
 3612SOL     OW22471   0.376   1.256   8.639 -1.1176 -0.1690 -0.1278
 3612SOL    HW122472   0.434   1.329   8.616  1.1074 -1.9967 -0.3517
 3612SOL    HW222473   0.394   1.258   8.733  2.4376  0.5700 -0.8180
 3613SOL     OW22474   0.133   1.038   5.853 -0.2070 -0.4099  0.2403
 3613SOL    HW122475   0.096   0.956   5.884 -1.5550 -0.4257 -1.4017
 3613SOL    HW222476   0.149   1.085   5.934 -2.4776  0.3419  0.2360
 3614SOL     OW22477   2.613   0.811   5.740  0.1741 -0.5682 -0.7227
 3614SOL    HW122478   2.567   0.879   5.789 -1.8849 -0.9966 -2.0581
 3614SOL    HW222479   2.558   0.733   5.753 -0.3081  0.2134  2.0102
 3615SOL     OW22480   1.126   1.963   3.664 -0.1306 -0.2123 -0.2409
 3615SOL    HW122481   1.064   1.985   3.733 -0.8627  0.8074 -1.2301
 3615SOL    HW222482   1.082   1.882   3.640 -1.1451  0.7002 -1.4541
 3616SOL     OW22483   1.474   1.400   6.469 -0.4467 -0.2895  0.5380
 3616SOL    HW122484   1.385   1.369   6.486 -0.9076  0.9543  0.4198
 3616SOL    HW222485   1.462   1.492   6.495  1.6114  0.2563 -0.4915
 3617SOL     OW22486   4.518   0.605   4.791 -0.2924 -0.1728  0.0830
 3617SOL    HW122487   4.567   0.542   4.740 -1.4478  0.5718 -1.9604
 3617SOL    HW222488   4.428   0.587   4.765  0.0222  2.5344 -2.9468
 3618SOL     OW22489   3.923   2.928  11.883 -0.1353  0.0450 -0.6926
 3618SOL    HW122490   3.845   2.897  11.837 -0.0294 -1.1282 -0.0722
 3618SOL    HW222491   3.976   2.850  11.866 -0.4837 -0.8050  2.0966
 3619SOL     OW22492   4.067   4.538   9.528  0.0842 -0.1624  0.7496
 3619SOL    HW122493   4.073   4.463   9.468  0.2108  1.7845 -1.6779
 3619SOL    HW222494   4.131   4.507   9.593  0.9683  1.3448  0.5864
 3620SOL     OW22495   0.852   2.749  11.806 -0.3605  0.4395 -0.0786
 3620SOL    HW122496   0.760   2.732  11.784 -0.4631 -0.2597  0.8663
 3620SOL    HW222497   0.879   2.821  11.750  2.0951 -0.1966  0.2936
 3621SOL     OW22498   1.720   4.353   8.012  0.3638  0.0384 -0.0129
 3621SOL    HW122499   1.650   4.300   8.049  1.0650  0.6333  2.1540
 3621SOL    HW222500   1.744   4.404   8.090  0.5153 -2.0321  1.2833
 3622SOL     OW22501   3.200   4.605  13.776  0.1149 -0.1252 -0.2203
 3622SOL    HW122502   3.238   4.559  13.701  2.7199  1.4217  0.1521
 3622SOL    HW222503   3.110   4.612  13.745 -0.4699 -1.3340  1.2032
 3623SOL     OW22504   0.497   0.837   4.135  0.0332 -0.2725  0.2610
 3623SOL    HW122505   0.575   0.804   4.091  0.5374 -0.2287  1.1247
 3623SOL    HW222506   0.442   0.761   4.116  0.6044 -1.1167  2.0309
 3624SOL     OW22507   2.896   4.684   1.999 -0.1598 -0.5624  0.1905
 3624SOL    HW122508   2.853   4.680   1.913  0.5858 -0.6716 -0.1775
 3624SOL    HW222509   2.965   4.618   1.993  1.5077  1.3672 -2.0641
 3625SOL     OW22510   2.232   2.597   2.325  0.0432 -0.0694 -0.7619
 3625SOL    HW122511   2.216   2.636   2.239  2.5846  0.7279 -0.8843
 3625SOL    HW222512   2.141   2.586   2.353  0.3189  0.8339  0.5065
 3626SOL     OW22513   3.912   4.456  13.517  0.6179  0.2285 -0.0650
 3626SOL    HW122514   3.912   4.384  13.454 -0.6211 -0.0394  0.2451
 3626SOL    HW222515   3.829   4.501  13.501 -0.0683 -0.4231  1.6631
 3627SOL     OW22516   4.558   1.758   7.164 -0.1473 -0.7034  0.0059
 3627SOL    HW122517   4.577   1.825   7.098  2.6471 -0.0236  1.5054
 3627SOL    HW222518   4.572   1.673   7.121 -0.2891 -0.0478 -1.3384
 3628SOL     OW22519   0.772   1.006  14.363  0.0176 -0.0215  0.2013
 3628SOL    HW122520   0.688   0.965  14.384 -0.2943 -0.1546 -1.2701
 3628SOL    HW222521   0.759   1.095  14.397  0.4947  0.6132 -1.2670
 3629SOL     OW22522   0.070   3.539   8.799 -0.7810  0.1839  0.1668
 3629SOL    HW122523   0.108   3.627   8.800  1.6082 -0.8450 -1.2084
 3629SOL    HW222524   0.133   3.496   8.741 -0.2105  0.4720  0.5759
 3630SOL     OW22525   4.686   1.094  11.390 -0.2763 -0.6818  0.5311
 3630SOL    HW122526   4.630   1.158  11.345 -0.7102 -0.5564  1.2430
 3630SOL    HW222527   4.687   1.143  11.473  0.3683 -0.1825  0.2237
 3631SOL     OW22528   1.222   0.464   4.426  0.7561 -0.2409 -0.4499
 3631SOL    HW122529   1.213   0.499   4.338  0.5656 -0.3388 -0.4675
 3631SOL    HW222530   1.308   0.501   4.448 -0.1755  1.2419  0.7280
 3632SOL     OW22531   1.217   4.467   4.905  0.3142  0.3491 -0.1156
 3632SOL    HW122532   1.271   4.546   4.913  0.9356  0.0971 -1.7996
 3632SOL    HW222533   1.193   4.439   4.993  1.4132  0.0954  0.1023
 3633SOL     OW22534   1.903   3.782   6.682  0.1003 -0.2429  0.1824
 3633SOL    HW122535   1.938   3.866   6.713 -0.8339 -0.1220  0.8873
 3633SOL    HW222536   1.890   3.792   6.588  0.0133  0.4529  0.2659
 3634SOL     OW22537   4.493   3.765  17.445 -0.2072  0.1567 -0.3752
 3634SOL    HW122538   4.419   3.705  17.441  0.5676 -0.8762  0.8081
 3634SOL    HW222539   4.456   3.831  17.504 -2.6812 -1.9228  0.3931
 3635SOL     OW22540   1.300   1.253   9.046  0.0240  0.5673  0.3025
 3635SOL    HW122541   1.295   1.227   9.138 -0.7558  0.7595  0.3146
 3635SOL    HW222542   1.296   1.164   9.012  1.7390  0.7329 -0.3489
 3636SOL     OW22543   4.661   1.903   3.181 -0.5383 -0.5815  0.2706
 3636SOL    HW122544   4.641   1.895   3.274 -0.2751 -1.8656  0.2120
 3636SOL    HW222545   4.594   1.847   3.143 -0.3898  0.6195 -1.7560
 3637SOL     OW22546   4.562   3.479   9.154 -0.5596  0.0609 -0.2709
 3637SOL    HW122547   4.478   3.494   9.111 -1.5720  1.9212  2.3741
 3637SOL    HW222548   4.601   3.418   9.091 -0.9130  0.1117 -0.5418
 3638SOL     OW22549   1.510   1.279   6.753 -0.0128  0.0589  0.2870
 3638SOL    HW122550   1.506   1.336   6.676  0.5791  1.9612  1.6853
 3638SOL    HW222551   1.529   1.195   6.711  0.7017  1.7321 -2.6990
 3639SOL     OW22552   2.520   4.678   7.777  0.2199  0.5325  0.4316
 3639SOL    HW122553   2.602   4.634   7.756 -1.2832 -0.9160 -2.4419
 3639SOL    HW222554   2.489   4.632   7.855 -2.5865  1.4986 -0.1143
 3640SOL     OW22555   1.019   0.429  13.325 -0.9312 -0.0591  0.0920
 3640SOL    HW122556   1.081   0.448  13.254 -2.1934 -0.5700 -1.1647
 3640SOL    HW222557   0.931   0.436  13.288 -1.5652 -1.1195  1.4350
 3641SOL     OW22558   4.529   1.359   7.117  0.8970  0.1330  0.0599
 3641SOL    HW122559   4.517   1.351   7.211 -1.6041  0.8874 -0.2010
 3641SOL    HW222560   4.451   1.403   7.083  0.4573 -1.8971 -1.5537
 3642SOL     OW22561   0.828   0.416   3.122 -0.1748  0.0553 -0.2141
 3642SOL    HW122562   0.855   0.325   3.132 -0.0748  0.0840 -0.2216
 3642SOL    HW222563   0.804   0.413   3.029 -2.0241 -0.4806  0.2999
 3643SOL     OW22564   0.880   0.021  10.912 -0.0011  0.8305 -0.2524
 3643SOL    HW122565   0.890   4.667  10.886  0.0682  0.7197  0.1707
 3643SOL    HW222566   0.916   0.016  11.000 -1.2315  1.0784  0.2739
 3644SOL     OW22567   2.295   4.538   6.363  0.1557 -0.4180 -0.1308
 3644SOL    HW122568   2.367   4.582   6.318 -1.8552  0.2352 -2.7026
 3644SOL    HW222569   2.261   4.607   6.420  0.1913  0.2977 -0.9785
 3645SOL     OW22570   3.302   2.550  12.961 -0.1487 -0.4952  0.2271
 3645SOL    HW122571   3.231   2.603  12.998  1.5010  1.3651  0.7595
 3645SOL    HW222572   3.367   2.615  12.934 -1.3156  0.1532 -1.0533
 3646SOL     OW22573   0.809   1.293  10.000 -0.0401  0.1355  0.5443
 3646SOL    HW122574   0.844   1.247  10.076  1.0468  2.4809  1.4659
 3646SOL    HW222575   0.788   1.220   9.941  0.3654 -0.5001  1.1810
 3647SOL     OW22576   3.008   0.583   5.215  0.5926  0.6073 -0.1560
 3647SOL    HW122577   3.001   0.589   5.311 -2.2829  1.8272 -0.4400
 3647SOL    HW222578   2.974   0.671   5.199 -0.9003 -0.0339 -0.4628
 3648SOL     OW22579   2.157   0.472   5.395  0.3595 -0.6979 -0.2234
 3648SOL    HW122580   2.172   0.518   5.478  0.5667  0.4126 -0.8723
 3648SOL    HW222581   2.101   0.399   5.422 -0.0398 -0.2569  0.1446
 3649SOL     OW22582   3.008   0.582   7.254 -0.5140 -0.1313 -0.8118
 3649SOL    HW122583   3.039   0.528   7.327 -0.4662 -1.0576 -1.5031
 3649SOL    HW222584   3.033   0.666   7.292 -0.3834 -1.1569  1.3535
 3650SOL     OW22585   0.357   2.928   1.531  0.1302  0.1084 -0.7017
 3650SOL    HW122586   0.337   2.963   1.444 -2.2251  0.1235 -0.1526
 3650SOL    HW222587   0.272   2.947   1.570  0.6279  0.8079  0.0421
 3651SOL     OW22588   3.599   0.737   5.469 -0.0585  0.0078  0.8406
 3651SOL    HW122589   3.532   0.727   5.402 -0.8754  0.3479  1.5955
 3651SOL    HW222590   3.553   0.801   5.524  2.2170  1.1899  1.3918
 3652SOL     OW22591   1.252   1.589   7.632  0.0220 -0.3229 -0.0500
 3652SOL    HW122592   1.278   1.499   7.650 -0.4561 -0.1378  1.5199
 3652SOL    HW222593   1.332   1.641   7.627 -0.5751  0.8508  2.9839
 3653SOL     OW22594   2.528   0.054   9.027  0.3254 -0.3198 -0.0767
 3653SOL    HW122595   2.606   0.074   9.080  1.3076 -0.2565 -1.5462
 3653SOL    HW222596   2.459   0.091   9.081 -0.4540 -1.5263 -0.2482
 3654SOL     OW22597   2.154   3.790   6.947  0.0183 -0.6491 -0.7660
 3654SOL    HW122598   2.085   3.745   6.995  1.5772 -1.6942  0.5029
 3654SOL    HW222599   2.232   3.763   6.995  0.8625  0.7081 -1.3702
 3655SOL     OW22600   3.699   1.989   0.200 -0.5886  0.0276  0.4071
 3655SOL    HW122601   3.720   2.032   0.283 -0.5253  0.9160 -0.0613
 3655SOL    HW222602   3.755   2.036   0.138  0.6948 -2.4846 -0.3111
 3656SOL     OW22603   0.171   3.370   9.035 -0.0658  0.5095  0.2584
 3656SOL    HW122604   0.173   3.464   9.019  1.0942  0.6019  0.9251
 3656SOL    HW222605   0.265   3.360   9.052 -0.0959 -0.6085 -0.2129
 3657SOL     OW22606   1.888   1.718   2.603 -0.1155  0.0665  0.3907
 3657SOL    HW122607   1.817   1.683   2.657  0.9592  0.0210  1.7601
 3657SOL    HW222608   1.962   1.677   2.648  1.1970  2.1684  0.1034
 3658SOL     OW22609   1.640   1.742   1.157 -0.0336 -0.8536 -0.1274
 3658SOL    HW122610   1.669   1.748   1.248  4.2824  2.1985 -1.7227
 3658SOL    HW222611   1.547   1.753   1.177 -0.2628 -2.0996 -0.4868
 3659SOL     OW22612   0.096   1.639   9.673  0.4855  0.7869 -0.4707
 3659SOL    HW122613   0.052   1.723   9.662 -1.9497 -0.0756  2.3923
 3659SOL    HW222614   0.069   1.609   9.587  0.4460 -0.4414 -0.0321
 3660SOL     OW22615   4.005   1.121  13.136 -0.2698  0.1467  0.0247
 3660SOL    HW122616   4.008   1.089  13.046 -0.7005  2.1516 -0.6903
 3660SOL    HW222617   3.910   1.137  13.139 -0.3359 -0.2566  0.1146
 3661SOL     OW22618   2.398   4.404   5.504 -0.3152 -0.3648 -0.2883
 3661SOL    HW122619   2.339   4.467   5.462 -0.5965  0.8013  1.8764
 3661SOL    HW222620   2.426   4.461   5.575 -0.1151 -0.7235 -0.0767
 3662SOL     OW22621   4.320   3.929   1.588 -0.2976  0.4247  0.2568
 3662SOL    HW122622   4.306   3.973   1.504  3.0849  0.9505 -0.0264
 3662SOL    HW222623   4.372   3.855   1.555  0.1866  0.7669  0.2592
 3663SOL     OW22624   4.429   0.087   7.571  0.1455 -0.0720  0.1655
 3663SOL    HW122625   4.340   0.053   7.576  0.3585 -0.1600  3.1848
 3663SOL    HW222626   4.408   0.166   7.522  2.9723  1.0202  0.7057
 3664SOL     OW22627   2.547   2.259   0.967  0.5475  0.1174  0.6374
 3664SOL    HW122628   2.529   2.348   0.999 -0.7844  0.2589 -0.5268
 3664SOL    HW222629   2.465   2.208   0.965  1.1099 -0.7513 -0.3216
 3665SOL     OW22630   0.296   3.433   8.694  0.0543  0.0011 -0.4653
 3665SOL    HW122631   0.338   3.436   8.608 -2.2322 -2.4450 -1.6609
 3665SOL    HW222632   0.373   3.445   8.750 -0.3098  0.6123 -0.0992
 3666SOL     OW22633   4.652   3.820  10.546  0.0159  0.4133 -0.1374
 3666SOL    HW122634   4.615   3.776  10.469 -1.8711  0.3032  0.8252
 3666SOL    HW222635   4.589   3.890  10.563  0.8261  1.3051 -0.8704
 3667SOL     OW22636   0.396   1.495   2.408  0.8106 -0.3352 -0.3783
 3667SOL    HW122637   0.321   1.537   2.366  0.8510  0.2580  0.1516
 3667SOL    HW222638   0.366   1.492   2.499 -1.7573  2.6991 -1.1525
 3668SOL     OW22639   4.052   0.335   5.562 -0.7862  0.1349 -0.4423
 3668SOL    HW122640   4.117   0.315   5.494 -0.0755  2.4590 -0.4741
 3668SOL    HW222641   3.988   0.388   5.515  0.0739  2.1857  0.6952
 3669SOL     OW22642   2.237   2.657   6.470 -0.1771  0.1031 -0.4152
 3669SOL    HW122643   2.195   2.670   6.385  0.3798 -0.8468 -0.8359
 3669SOL    HW222644   2.278   2.743   6.483 -1.0063  0.3970  0.2413
 3670SOL     OW22645   2.668   3.108   9.742 -0.3200 -0.3000  0.2566
 3670SOL    HW122646   2.601   3.129   9.807 -0.3218  1.0395 -0.1740
 3670SOL    HW222647   2.742   3.169   9.747  0.2634 -1.0913  1.1799
 3671SOL     OW22648   3.929   0.833   4.978  0.3944 -0.1428 -0.2720
 3671SOL    HW122649   3.843   0.799   4.956 -0.1654  0.7239  0.5699
 3671SOL    HW222650   3.919   0.863   5.068  2.7692 -0.2781  0.0579
 3672SOL     OW22651   0.516   3.671   2.518 -0.0559 -0.5329  0.2358
 3672SOL    HW122652   0.530   3.586   2.558  1.4430 -0.2097  0.3831
 3672SOL    HW222653   0.597   3.679   2.467 -0.6529  3.0921 -0.1493
 3673SOL     OW22654   1.083   2.703   6.348  0.5226 -0.3366  0.2538
 3673SOL    HW122655   1.043   2.713   6.262 -0.3719 -0.8191  0.6096
 3673SOL    HW222656   1.130   2.787   6.353 -0.8963  0.5379 -1.2449
 3674SOL     OW22657   1.577   2.540  10.039  0.1413  0.1202 -0.1122
 3674SOL    HW122658   1.584   2.524  10.133 -0.0268 -0.0647 -0.1297
 3674SOL    HW222659   1.514   2.469  10.021 -0.8064  1.2070 -1.0481
 3675SOL     OW22660   1.469   1.324   1.738  0.4841 -0.5790  0.3676
 3675SOL    HW122661   1.388   1.277   1.760 -0.5307  1.2517  0.5272
 3675SOL    HW222662   1.472   1.368   1.823 -0.9400  0.9485 -0.3668
 3676SOL     OW22663   1.408   3.895   8.535 -0.1046 -0.2977  0.4989
 3676SOL    HW122664   1.461   3.816   8.534 -0.0597 -0.2486 -0.5167
 3676SOL    HW222665   1.325   3.857   8.567  0.1326 -1.0606  0.2192
 3677SOL     OW22666   1.183   2.538   4.780 -0.2370 -0.2515  0.2403
 3677SOL    HW122667   1.273   2.557   4.806 -0.4205  1.1503 -0.1515
 3677SOL    HW222668   1.174   2.548   4.685  2.3899 -0.0862  0.0192
 3678SOL     OW22669   0.495   3.157   6.669 -0.2090  0.7004  0.4978
 3678SOL    HW122670   0.475   3.191   6.581  1.8687 -0.9765 -0.6137
 3678SOL    HW222671   0.545   3.076   6.659 -1.4349  0.1186 -0.9279
 3679SOL     OW22672   2.328   4.224   6.782 -0.0627 -0.0356  0.2358
 3679SOL    HW122673   2.307   4.249   6.693 -2.6836 -1.9288  0.2959
 3679SOL    HW222674   2.242   4.202   6.818 -0.6432  0.3829 -0.9067
 3680SOL     OW22675   3.132   2.029   7.789  0.0403 -0.2954 -0.1528
 3680SOL    HW122676   3.225   2.037   7.811  0.0808  0.2747 -0.5280
 3680SOL    HW222677   3.141   1.945   7.745  1.1126 -0.0728 -0.3758
 3681SOL     OW22678   1.285   0.912   6.455  0.3775 -0.2555  0.0094
 3681SOL    HW122679   1.218   0.844   6.459 -0.2255  0.3889  0.8219
 3681SOL    HW222680   1.241   0.983   6.502 -1.1290 -0.8581 -0.4710
 3682SOL     OW22681   0.843   4.297   4.079 -0.5358 -0.3994 -0.3044
 3682SOL    HW122682   0.807   4.275   4.165 -1.1421 -1.4338 -0.8232
 3682SOL    HW222683   0.903   4.366   4.109 -0.9550  1.0796 -2.8785
 3683SOL     OW22684   0.629   2.203   2.542 -0.4305  0.7184  0.0017
 3683SOL    HW122685   0.613   2.146   2.617 -1.1836  1.6274  0.5306
 3683SOL    HW222686   0.544   2.246   2.533  0.2710  2.4403  1.7531
 3684SOL     OW22687   3.981   0.958  13.659  0.0147 -0.4962 -0.0926
 3684SOL    HW122688   3.984   1.010  13.579  4.1211  1.8661  1.5790
 3684SOL    HW222689   4.076   0.952  13.675  0.0727  0.8056  0.0995
 3685SOL     OW22690   3.598   4.132  10.852  0.2534  0.5692  0.1650
 3685SOL    HW122691   3.570   4.046  10.821  0.3260  0.9108 -0.8440
 3685SOL    HW222692   3.613   4.104  10.942 -0.3837  1.4988  0.5595
 3686SOL     OW22693   4.519   2.688  11.596  1.0183 -0.2268 -0.2240
 3686SOL    HW122694   4.524   2.623  11.665  0.8457 -0.4236 -0.3961
 3686SOL    HW222695   4.446   2.661  11.541  0.8776 -0.2976 -0.0010
 3687SOL     OW22696   3.806   1.067  10.401 -0.6804 -0.1986  0.2541
 3687SOL    HW122697   3.862   1.083  10.325  1.2742 -1.3481  1.4604
 3687SOL    HW222698   3.872   1.051  10.468 -0.7071 -2.7210 -0.2915
 3688SOL     OW22699   3.684   1.035   6.203 -0.1279  0.2122  0.3132
 3688SOL    HW122700   3.615   0.976   6.173 -1.5930  0.7533  2.6092
 3688SOL    HW222701   3.755   0.984   6.163 -1.8765 -0.7191 -1.5861
 3689SOL     OW22702   4.309   4.670  14.648  0.4983  0.5484  0.6124
 3689SOL    HW122703   4.366   4.726  14.596 -0.7267  1.0097 -0.2283
 3689SOL    HW222704   4.238   4.729  14.674 -1.7687 -1.1286 -1.7786
 3690SOL     OW22705   0.544   0.981  11.785 -0.1755 -0.1471 -0.1520
 3690SOL    HW122706   0.540   1.027  11.701  0.9021  1.7133  0.8216
 3690SOL    HW222707   0.568   0.894  11.752 -1.7506 -0.9025  0.6873
 3691SOL     OW22708   4.280   0.313   8.139 -0.4716  0.2227 -0.4394
 3691SOL    HW122709   4.293   0.397   8.094  1.8376  1.0434  1.7695
 3691SOL    HW222710   4.347   0.264   8.092 -1.0137 -0.7963 -0.1574
 3692SOL     OW22711   3.428   3.098  14.132 -0.4064 -0.0585 -0.2934
 3692SOL    HW122712   3.485   3.111  14.056 -0.0215 -0.8231 -0.1286
 3692SOL    HW222713   3.340   3.069  14.105 -0.6240  0.1618  0.1781
 3693SOL     OW22714   0.643   1.539   4.326 -0.4336 -0.4439 -0.2134
 3693SOL    HW122715   0.566   1.587   4.295  0.6516  0.7970 -0.9828
 3693SOL    HW222716   0.714   1.592   4.289 -0.1166 -0.6165  0.1465
 3694SOL     OW22717   1.804   3.013  12.476 -0.2011 -0.0024 -0.3407
 3694SOL    HW122718   1.757   3.096  12.490  1.2958  1.2580 -2.8192
 3694SOL    HW222719   1.891   3.044  12.502  0.3037 -1.4453 -0.3008
 3695SOL     OW22720   0.342   3.720  11.469 -0.5492 -0.7484 -0.5695
 3695SOL    HW122721   0.343   3.809  11.504  0.0994 -1.3070  0.8134
 3695SOL    HW222722   0.322   3.732  11.376 -0.7532  0.1392 -0.4112
 3696SOL     OW22723   2.497   3.127   6.407 -0.0106  0.3806 -0.7478
 3696SOL    HW122724   2.438   3.130   6.482  0.4575 -2.6559 -0.2522
 3696SOL    HW222725   2.556   3.198   6.434  0.5052 -0.3121 -0.0423
 3697SOL     OW22726   3.670   3.158   2.333  0.4082  0.3691  0.4213
 3697SOL    HW122727   3.621   3.107   2.268  2.5475 -0.2801 -0.6899
 3697SOL    HW222728   3.685   3.247   2.302 -1.1705  1.1258  1.8105
 3698SOL     OW22729   4.353   3.704  16.600 -0.3065  0.1921  0.4288
 3698SOL    HW122730   4.272   3.664  16.568  0.7724 -0.3024 -1.6966
 3698SOL    HW222731   4.324   3.754  16.677  1.2747  1.2125  0.3449
 3699SOL     OW22732   2.507   3.411   9.112  0.3646  0.2838 -0.1780
 3699SOL    HW122733   2.505   3.454   9.027 -1.2746 -1.5020 -1.0291
 3699SOL    HW222734   2.560   3.469   9.168 -1.8416  0.4125  1.7746
 3700SOL     OW22735   2.399   4.547   7.995 -0.5837 -0.0399 -0.3954
 3700SOL    HW122736   2.342   4.472   8.011 -1.5595  0.7443 -0.1986
 3700SOL    HW222737   2.356   4.612   8.050  2.0096  0.6716  0.7718
 3701SOL     OW22738   1.047   3.798  17.166 -0.4555  0.2425 -0.2022
 3701SOL    HW122739   0.982   3.839  17.224 -0.0844 -2.0143  1.8087
 3701SOL    HW222740   1.129   3.836  17.197 -0.6019  1.5119 -1.3657
 3702SOL     OW22741   4.428   4.175   2.889 -0.4781 -0.1526 -0.2754
 3702SOL    HW122742   4.356   4.237   2.890 -0.3775 -0.0485  0.9079
 3702SOL    HW222743   4.503   4.233   2.905 -0.8384  0.2196  0.0482
 3703SOL     OW22744   4.477   1.226   3.054  0.3572 -0.0113  0.5849
 3703SOL    HW122745   4.531   1.290   3.100 -0.9654  1.6623 -0.1255
 3703SOL    HW222746   4.420   1.290   3.010  1.1614 -0.5532 -1.2370
 3704SOL     OW22747   4.626   4.180   4.402 -0.4080  0.6885 -0.0275
 3704SOL    HW122748   4.563   4.175   4.475 -0.1182  1.9056  0.2980
 3704SOL    HW222749   4.571   4.145   4.333 -0.3944 -1.0147  0.8097
 3705SOL     OW22750   0.025   3.155   6.109 -0.1410  0.0973 -0.2047
 3705SOL    HW122751   0.007   3.107   6.029 -2.4583 -1.1264  1.0555
 3705SOL    HW222752   0.040   3.246   6.080 -0.0474  0.6977  1.7034
 3706SOL     OW22753   3.834   1.038   7.898 -0.5031 -0.2608  0.4957
 3706SOL    HW122754   3.808   0.959   7.851  1.9761 -1.1665  0.6260
 3706SOL    HW222755   3.800   1.104   7.837 -1.4719  0.1876  1.5222
 3707SOL     OW22756   4.153   3.122   7.352  0.4526 -0.2600  0.1391
 3707SOL    HW122757   4.136   3.153   7.262 -0.8436 -2.0799 -0.2552
 3707SOL    HW222758   4.244   3.149   7.362  0.7733 -1.3193  0.0495
 3708SOL     OW22759   3.533   2.449  17.238  0.2899 -0.3064 -0.0185
 3708SOL    HW122760   3.565   2.536  17.261 -0.0370 -0.3459  0.5943
 3708SOL    HW222761   3.455   2.476  17.189  0.7072  1.4964  0.3076
 3709SOL     OW22762   0.907   1.338   2.152  0.3014  0.7144 -0.2222
 3709SOL    HW122763   0.885   1.358   2.061  1.5747 -0.6777 -0.8633
 3709SOL    HW222764   0.864   1.256   2.176  1.5160  0.1606  0.0698
 3710SOL     OW22765   0.318   4.617   0.673 -0.7837 -0.4082 -0.3356
 3710SOL    HW122766   0.371   4.557   0.725 -0.6752  1.2202  1.4327
 3710SOL    HW222767   0.250   4.647   0.734  1.3565  1.2554  1.2195
 3711SOL     OW22768   3.417   0.639   2.495 -0.2098 -0.1664  0.0736
 3711SOL    HW122769   3.425   0.715   2.437 -0.5705 -0.7074 -0.6918
 3711SOL    HW222770   3.329   0.611   2.471 -1.2534 -0.3185  4.0388
 3712SOL     OW22771   2.060   0.497   6.319 -0.1480  0.1661 -0.1929
 3712SOL    HW122772   2.101   0.583   6.313 -0.4140  0.1085 -3.0280
 3712SOL    HW222773   2.024   0.515   6.405 -0.8797  3.5843 -1.2305
 3713SOL     OW22774   4.604   1.570   4.032  0.8171 -0.0691  0.2581
 3713SOL    HW122775   4.655   1.489   4.041  2.8799  1.2036 -0.0176
 3713SOL    HW222776   4.606   1.596   4.124 -3.3536  0.5551  0.1748
 3714SOL     OW22777   3.732   3.154   3.523  0.4106 -0.4208 -0.3816
 3714SOL    HW122778   3.752   3.091   3.453  2.0107 -0.4681  0.1184
 3714SOL    HW222779   3.779   3.125   3.601  1.8095 -0.3330 -1.1976
 3715SOL     OW22780   2.348   1.258   2.875  0.3753  0.0767  0.1699
 3715SOL    HW122781   2.407   1.276   2.802  1.3830  2.5263  1.5721
 3715SOL    HW222782   2.264   1.298   2.851  0.6888  1.8113  1.9364
 3716SOL     OW22783   1.331   1.578   5.639  0.0326  0.0344 -0.1633
 3716SOL    HW122784   1.396   1.647   5.651  0.3839 -0.3724  0.2745
 3716SOL    HW222785   1.293   1.566   5.727 -3.0271 -0.1335 -1.5000
 3717SOL     OW22786   0.479   0.117   6.502 -0.0332  0.4172  0.5663
 3717SOL    HW122787   0.391   0.154   6.494 -1.0245 -1.8546  0.9728
 3717SOL    HW222788   0.535   0.194   6.511  0.5695 -0.3270  3.1284
 3718SOL     OW22789   0.393   0.477   5.296  0.0887  0.6325  0.1837
 3718SOL    HW122790   0.331   0.550   5.301  0.7030  1.2756 -1.6147
 3718SOL    HW222791   0.449   0.490   5.372  0.5112 -3.3608  0.5641
 3719SOL     OW22792   4.641   4.058  17.194  0.2142 -0.3299 -0.1394
 3719SOL    HW122793   4.718   4.002  17.208  1.0652  1.2045  1.4181
 3719SOL    HW222794   4.629   4.054  17.099 -0.4811 -0.4707 -0.0441
 3720SOL     OW22795   0.657   4.489   7.905  0.2941 -0.0524 -0.1821
 3720SOL    HW122796   0.738   4.541   7.910 -0.1088  0.5053  0.5352
 3720SOL    HW222797   0.697   4.409   7.870  0.5994 -0.1122  0.2999
 3721SOL     OW22798   1.313   2.273   4.955  0.3866  0.2903 -0.5440
 3721SOL    HW122799   1.268   2.352   4.925 -0.4828 -0.1774 -0.4541
 3721SOL    HW222800   1.406   2.295   4.953  0.4304 -0.0463 -2.2443
 3722SOL     OW22801   1.316   4.054   2.477 -0.3972  0.5206  0.0848
 3722SOL    HW122802   1.257   4.128   2.487 -0.7839  0.2702 -0.3793
 3722SOL    HW222803   1.260   3.978   2.494  1.7963 -0.9375  0.7852
 3723SOL     OW22804   0.253   3.912   5.588  0.1200  0.2198 -0.5677
 3723SOL    HW122805   0.207   3.994   5.605  0.7852  0.8319 -1.7991
 3723SOL    HW222806   0.285   3.946   5.505 -0.3236 -0.9402 -1.2268
 3724SOL     OW22807   0.037   0.523   6.606 -0.4220 -0.4183  0.1377
 3724SOL    HW122808   0.070   0.610   6.583 -2.6659  1.3352  3.5244
 3724SOL    HW222809   0.007   0.500   6.518  0.0787  0.4449 -0.2624
 3725SOL     OW22810   0.564   4.708   2.693 -0.5137  0.3012 -0.3478
 3725SOL    HW122811   0.518   0.038   2.642  0.8003  0.3939 -1.4326
 3725SOL    HW222812   0.490   4.648   2.683 -0.4757  0.2000 -0.0264
 3726SOL     OW22813   0.037   2.278  17.153 -0.2088 -0.0701 -0.1909
 3726SOL    HW122814   0.121   2.270  17.107 -0.6233 -1.0716 -0.7798
 3726SOL    HW222815   4.728   2.209  17.105 -0.0197 -0.0509 -0.3991
 3727SOL     OW22816   0.916   0.264  13.042 -0.3401  0.2662  0.1052
 3727SOL    HW122817   0.991   0.256  13.101  0.0177  0.8671 -0.2621
 3727SOL    HW222818   0.895   0.172  13.027 -0.7334  0.2870  0.5355
 3728SOL     OW22819   3.654   3.820   8.247  0.1432 -0.6489 -0.8662
 3728SOL    HW122820   3.564   3.851   8.239  0.7126  1.4101  0.5915
 3728SOL    HW222821   3.646   3.765   8.324  0.0009 -0.9622 -1.1056
 3729SOL     OW22822   3.525   1.258  12.975  0.3700 -0.0458 -0.1986
 3729SOL    HW122823   3.504   1.317  12.902 -1.9621 -0.0509  0.4421
 3729SOL    HW222824   3.488   1.177  12.940  0.4195 -1.6810  3.5806
 3730SOL     OW22825   4.703   2.678   2.119  0.4595  0.0789  0.3670
 3730SOL    HW122826   4.728   2.765   2.088  1.9950 -0.0588  1.2225
 3730SOL    HW222827   4.615   2.704   2.145  0.4014  0.1174  0.1321
 3731SOL     OW22828   1.096   1.998  11.972  0.1757  0.2100  0.1700
 3731SOL    HW122829   1.159   1.935  12.006 -1.6197 -2.3650 -1.3465
 3731SOL    HW222830   1.112   2.064  12.040  1.0618 -1.1214  1.2567
 3732SOL     OW22831   1.702   2.474   7.836  0.0883 -0.5682 -0.0390
 3732SOL    HW122832   1.616   2.440   7.860  0.7877  0.0836  3.3719
 3732SOL    HW222833   1.690   2.517   7.751  0.4973 -1.2344 -0.4342
 3733SOL     OW22834   1.664   4.192  10.555  0.3618  0.3053 -0.5560
 3733SOL    HW122835   1.739   4.233  10.598 -0.8238 -0.2532  2.0266
 3733SOL    HW222836   1.597   4.198  10.623  0.7428  1.5056 -0.2918
 3734SOL     OW22837   4.384   3.664   4.528  0.3600  0.1437 -0.2816
 3734SOL    HW122838   4.316   3.673   4.594  0.2454 -0.0116 -0.3808
 3734SOL    HW222839   4.335   3.698   4.453 -0.1112 -0.3684 -0.2009
 3735SOL     OW22840   3.105   4.174  10.171 -0.0390 -0.3471 -0.2739
 3735SOL    HW122841   3.189   4.127  10.166 -0.4444 -0.8343 -2.6401
 3735SOL    HW222842   3.086   4.151  10.262  0.0717 -0.9979 -0.4149
 3736SOL     OW22843   3.376   2.437   5.578 -0.1882  0.3369 -0.0779
 3736SOL    HW122844   3.337   2.350   5.591  0.6157 -0.1500 -0.8994
 3736SOL    HW222845   3.430   2.417   5.501  0.5075  0.0684  0.4712
 3737SOL     OW22846   4.290   2.373   9.972  0.0898 -0.0441  0.2014
 3737SOL    HW122847   4.225   2.442   9.981 -0.1173 -0.2930  0.6680
 3737SOL    HW222848   4.327   2.390   9.886 -0.4277 -0.9040 -0.1910
 3738SOL     OW22849   4.629   0.308   5.003  0.3828  0.2981  0.1882
 3738SOL    HW122850   4.646   0.279   5.092  0.2115  1.9850  0.7823
 3738SOL    HW222851   4.689   0.382   4.989  0.6624 -0.7911 -4.2149
 3739SOL     OW22852   4.171   1.458  11.544 -0.2649 -0.0152  0.1383
 3739SOL    HW122853   4.265   1.462  11.527 -0.1317 -1.0222  0.6696
 3739SOL    HW222854   4.159   1.537  11.597 -3.7891  0.9319 -2.0807
 3740SOL     OW22855   3.476   2.397   5.321 -0.4927 -0.5575 -0.6596
 3740SOL    HW122856   3.530   2.424   5.247 -0.0709 -1.3767 -0.6522
 3740SOL    HW222857   3.408   2.336   5.290 -0.7819 -0.2320 -0.6634
 3741SOL     OW22858   0.459   2.004  12.197 -0.1185 -0.2574 -0.2966
 3741SOL    HW122859   0.457   2.072  12.130  1.6282  0.5543  0.4768
 3741SOL    HW222860   0.546   1.966  12.186  0.2538 -0.0494  1.8906
 3742SOL     OW22861   2.992   2.470   3.665  0.4058 -0.6109 -0.5269
 3742SOL    HW122862   2.999   2.442   3.757 -1.2437  1.6039  0.2745
 3742SOL    HW222863   2.934   2.404   3.626 -2.0910  1.7051 -0.7386
 3743SOL     OW22864   4.600   4.408   4.696  0.7012 -0.0403 -0.5948
 3743SOL    HW122865   4.510   4.416   4.728  0.1408 -0.9057 -1.9236
 3743SOL    HW222866   4.637   4.362   4.771  3.1375 -0.8519 -2.2757
 3744SOL     OW22867   0.181   1.812  12.801 -0.2566  0.4285  0.4870
 3744SOL    HW122868   0.115   1.881  12.803  1.5193  2.0820  2.6298
 3744SOL    HW222869   0.243   1.845  12.867 -0.6432  1.4886  0.3156
 3745SOL     OW22870   3.024   4.678   5.720 -0.1860 -0.7036 -1.0074
 3745SOL    HW122871   3.097   4.735   5.746 -1.4488 -0.3406  1.6574
 3745SOL    HW222872   2.953   0.004   5.722 -0.2209 -0.8112  0.7820
 3746SOL     OW22873   1.910   3.780   5.954 -0.6853  0.5988  0.0990
 3746SOL    HW122874   1.951   3.826   5.880  0.9306 -1.4583 -0.2677
 3746SOL    HW222875   1.819   3.774   5.924 -0.5164 -1.8118  0.0613
 3747SOL     OW22876   3.107   4.525   7.881 -0.4721 -0.5417 -0.6621
 3747SOL    HW122877   3.107   4.528   7.785  0.2367 -3.3217 -0.7488
 3747SOL    HW222878   3.110   4.431   7.898  1.4122 -0.1488  1.1856
 3748SOL     OW22879   4.381   1.177  12.709 -0.0483  0.2060 -0.5201
 3748SOL    HW122880   4.375   1.239  12.637  3.1754  1.0792  0.0051
 3748SOL    HW222881   4.328   1.107  12.670 -0.7875  0.6668 -0.3478
 3749SOL     OW22882   0.070   0.549   9.082 -0.3863 -0.9482 -0.5588
 3749SOL    HW122883   0.057   0.642   9.100 -0.5865 -0.7632 -1.6451
 3749SOL    HW222884   4.728   0.499   9.100 -3.5020  3.1438 -2.7935
 3750SOL     OW22885   3.041   3.599   6.371  0.0611  0.4291 -0.8726
 3750SOL    HW122886   3.036   3.647   6.288 -1.8455  0.5946 -0.6609
 3750SOL    HW222887   2.949   3.581   6.387 -0.3582  0.8712 -2.8149
 3751SOL     OW22888   0.403   2.893   9.376  0.5144  0.0807  0.2297
 3751SOL    HW122889   0.491   2.870   9.405 -0.0190  0.0330  1.7950
 3751SOL    HW222890   0.354   2.888   9.458 -1.1607  2.2087 -0.6464
 3752SOL     OW22891   0.178   2.458   2.865  0.0072  0.4218 -0.1247
 3752SOL    HW122892   0.086   2.445   2.841 -0.2438 -0.8025  1.4713
 3752SOL    HW222893   0.199   2.381   2.918  2.6567  1.8082  0.8208
 3753SOL     OW22894   1.852   1.628   0.703 -0.3423 -0.3708 -0.4561
 3753SOL    HW122895   1.877   1.582   0.783 -0.7742  0.4949  0.1733
 3753SOL    HW222896   1.827   1.559   0.641 -1.5760  0.3754 -0.7959
 3754SOL     OW22897   2.227   0.327   4.940  0.3903  0.1435 -0.0404
 3754SOL    HW122898   2.278   0.280   4.874  1.7037  0.4639  0.7482
 3754SOL    HW222899   2.282   0.404   4.956  1.2863 -0.7689  1.3623
 3755SOL     OW22900   3.840   4.242   3.559 -0.1511 -0.4760 -0.3016
 3755SOL    HW122901   3.818   4.313   3.498  0.4356 -0.7222 -0.7948
 3755SOL    HW222902   3.798   4.170   3.512  3.0373 -1.5165 -1.5444
 3756SOL     OW22903   0.060   3.872   4.466 -0.4888  0.0415 -0.5615
 3756SOL    HW122904   4.724   3.858   4.527  0.2656 -0.0192  0.3140
 3756SOL    HW222905   0.025   3.870   4.377  0.9699 -1.5473 -1.1073
 3757SOL     OW22906   4.525   0.813   1.379  0.1181 -0.0103  0.4347
 3757SOL    HW122907   4.612   0.817   1.338  0.5072 -2.1439  1.0407
 3757SOL    HW222908   4.512   0.720   1.396 -0.2585 -0.3166 -1.5928
 3758SOL     OW22909   2.990   3.503   7.520  0.0393  0.0813  0.1035
 3758SOL    HW122910   2.986   3.482   7.613 -0.8939  0.4024  0.1354
 3758SOL    HW222911   2.907   3.462   7.497  0.4683  0.3573 -1.9991
 3759SOL     OW22912   4.321   1.636  11.743 -0.4452 -0.1295 -0.0989
 3759SOL    HW122913   4.325   1.542  11.757  2.8668 -0.2311 -1.7349
 3759SOL    HW222914   4.376   1.681  11.807  1.9704 -1.1026 -1.4869
 3760SOL     OW22915   1.943   3.723   4.604  0.4320  0.5375 -0.1406
 3760SOL    HW122916   1.950   3.666   4.528 -1.4111  0.2813 -0.1299
 3760SOL    HW222917   1.942   3.665   4.681  0.5427 -2.8676 -2.7048
 3761SOL     OW22918   1.916   2.432   3.893 -0.1024 -0.0035 -0.0333
 3761SOL    HW122919   1.903   2.474   3.808 -1.0863 -2.0052 -0.8774
 3761SOL    HW222920   1.943   2.512   3.939  4.3113  0.6678 -3.8754
 3762SOL     OW22921   3.867   2.836   4.010  0.3279 -0.2697  0.0850
 3762SOL    HW122922   3.800   2.851   3.943 -0.9559 -0.9206  1.2159
 3762SOL    HW222923   3.817   2.818   4.090 -3.1461  1.1478 -1.7279
 3763SOL     OW22924   0.057   0.050   5.655  0.3240 -0.3507  0.1408
 3763SOL    HW122925   0.004   0.001   5.591  0.8111  1.4749 -1.6476
 3763SOL    HW222926   0.027   0.139   5.642 -2.8409 -1.0551  2.7572
 3764SOL     OW22927   4.323   0.443   7.045  0.3059  0.0705  0.0546
 3764SOL    HW122928   4.303   0.454   7.138 -0.6935 -0.2212 -0.1154
 3764SOL    HW222929   4.405   0.492   7.046 -1.0156  2.2572  2.6035
 3765SOL     OW22930   1.036   4.150  14.089  0.3115 -0.5572  0.6782
 3765SOL    HW122931   1.034   4.215  14.019  1.2263 -0.9905  0.2364
 3765SOL    HW222932   0.944   4.148  14.112  0.5490 -2.2677  1.5321
 3766SOL     OW22933   1.043   3.874  16.884  0.0268 -1.0431 -0.7815
 3766SOL    HW122934   1.080   3.799  16.837 -1.6383 -0.6025 -2.8139
 3766SOL    HW222935   1.040   3.850  16.976 -0.7013 -0.5293 -0.6742
 3767SOL     OW22936   4.388   3.465  11.911  0.2048  0.5347  0.1257
 3767SOL    HW122937   4.403   3.405  11.984 -0.7803  1.5718  1.1860
 3767SOL    HW222938   4.302   3.501  11.935 -0.2644  1.2071 -2.6334
 3768SOL     OW22939   0.769   4.702   4.449  0.7142  0.0216  0.4765
 3768SOL    HW122940   0.784   0.053   4.414 -1.4504  0.1192 -0.2348
 3768SOL    HW222941   0.760   4.647   4.371 -2.0928  0.4850  0.4758
 3769SOL     OW22942   2.247   2.204   1.247  0.0914 -0.3757 -0.6902
 3769SOL    HW122943   2.284   2.120   1.276 -1.5413 -0.4672  1.1037
 3769SOL    HW222944   2.253   2.183   1.154 -1.0566  2.0440 -1.2929
 3770SOL     OW22945   2.225   2.775  12.264  0.0555 -0.1493  0.0057
 3770SOL    HW122946   2.196   2.689  12.294 -2.1112  1.3567  2.2192
 3770SOL    HW222947   2.319   2.759  12.255  0.2951  1.2496  0.0283
 3771SOL     OW22948   2.255   1.500   3.072 -0.2292  0.1519  0.0049
 3771SOL    HW122949   2.328   1.541   3.025  0.3043 -0.4118  0.3606
 3771SOL    HW222950   2.217   1.439   3.008  0.7557 -0.4243 -0.0201
 3772SOL     OW22951   2.750   3.335   8.914  0.1396 -0.3153  0.3755
 3772SOL    HW122952   2.699   3.270   8.963  0.4146 -0.6881  0.1729
 3772SOL    HW222953   2.780   3.390   8.987  0.2776 -1.4447  1.1731
 3773SOL     OW22954   0.417   1.535   7.119  0.0469  0.7305  0.5615
 3773SOL    HW122955   0.322   1.532   7.123  0.0303 -0.8363 -0.9906
 3773SOL    HW222956   0.433   1.454   7.072  0.1412  1.0312  0.0730
 3774SOL     OW22957   2.144   1.085   8.617 -0.6397  0.0418  0.0415
 3774SOL    HW122958   2.162   1.176   8.595  1.8236 -0.6279 -0.6873
 3774SOL    HW222959   2.229   1.064   8.655 -1.2894 -1.3395  0.7487
 3775SOL     OW22960   0.482   3.207   3.402  0.2944  0.3576 -0.2715
 3775SOL    HW122961   0.483   3.300   3.381  0.8163  0.5596  0.6818
 3775SOL    HW222962   0.410   3.172   3.349  0.8037  0.5620 -1.1047
 3776SOL     OW22963   3.688   0.885   9.236  0.1612 -0.1084 -0.5242
 3776SOL    HW122964   3.602   0.846   9.251 -0.6512  1.3040 -1.5715
 3776SOL    HW222965   3.734   0.817   9.187  1.0231  0.9545 -1.1834
 3777SOL     OW22966   0.915   3.483   9.104  0.2144  0.1981 -0.2290
 3777SOL    HW122967   0.844   3.545   9.121 -0.5737 -1.3645  2.1318
 3777SOL    HW222968   0.873   3.398   9.094 -0.0001  0.6842 -3.6354
 3778SOL     OW22969   0.545   4.099   3.918 -0.5737  0.1868  0.3974
 3778SOL    HW122970   0.589   4.062   3.841 -3.8880 -0.3835 -1.2217
 3778SOL    HW222971   0.518   4.189   3.900 -0.2891  0.2093  0.0774
 3779SOL     OW22972   3.032   1.765   1.980 -0.6365 -0.3097  0.3105
 3779SOL    HW122973   3.014   1.835   1.917 -2.5457 -1.1951 -0.1183
 3779SOL    HW222974   3.045   1.688   1.925  0.2854  0.4371 -0.5247
 3780SOL     OW22975   3.969   3.639  16.170  0.1582  0.1915 -0.3920
 3780SOL    HW122976   4.022   3.609  16.097  0.3045 -1.1893  0.2866
 3780SOL    HW222977   3.978   3.735  16.170  1.5168  0.0566  0.3811
 3781SOL     OW22978   0.944   2.299   2.216 -0.1982  0.4780  0.3085
 3781SOL    HW122979   0.904   2.233   2.160 -0.7565  2.2946 -1.4539
 3781SOL    HW222980   1.038   2.295   2.195 -0.1415  0.5762  0.5396
 3782SOL     OW22981   3.459   3.411  16.910 -0.2589 -0.5879 -0.1143
 3782SOL    HW122982   3.487   3.320  16.923  0.9740  0.0428  1.6817
 3782SOL    HW222983   3.506   3.454  16.981 -0.3841 -0.5682 -0.0443
 3783SOL     OW22984   4.374   0.903  14.218  0.2478 -0.0738 -0.1003
 3783SOL    HW122985   4.462   0.933  14.195  1.6604 -2.7196  1.9672
 3783SOL    HW222986   4.363   0.956  14.297  1.5447 -0.2446  0.1851
 3784SOL     OW22987   2.761   4.632  14.014  0.3715 -0.0237  0.1975
 3784SOL    HW122988   2.724   4.575  14.081 -0.6578  0.7796  0.3021
 3784SOL    HW222989   2.696   4.702  14.011  0.6560  0.2144 -0.5822
 3785SOL     OW22990   4.672   1.538  11.619  0.1349 -0.2454 -0.1275
 3785SOL    HW122991   4.639   1.555  11.707  0.9415  1.2033 -0.1034
 3785SOL    HW222992   0.024   1.572  11.627  0.8778 -2.1056 -0.4183
 3786SOL     OW22993   3.610   2.842   5.035  0.9424 -0.6154 -0.3288
 3786SOL    HW122994   3.592   2.933   5.060 -0.8362 -1.6011  1.8970
 3786SOL    HW222995   3.607   2.795   5.118  1.0649  1.6880  0.9843
 3787SOL     OW22996   4.735   3.591  10.347 -0.6027  0.0744 -0.1148
 3787SOL    HW122997   4.667   3.531  10.378 -0.9189 -0.0427 -1.0216
 3787SOL    HW222998   0.073   3.531  10.350 -1.9539 -1.6116  0.0512
 3788SOL     OW22999   4.256   3.907   7.654  0.2336 -0.3749  0.1147
 3788SOL    HW123000   4.255   3.921   7.749  1.8115  1.1072 -0.0966
 3788SOL    HW223001   4.288   3.817   7.650 -0.6673 -0.7407  1.1362
 3789SOL     OW23002   0.903   3.057  17.369 -0.5378  0.7910 -0.0665
 3789SOL    HW123003   0.951   3.061  17.451 -1.1980  0.2504  0.3509
 3789SOL    HW223004   0.826   3.111  17.388  0.1682  1.6692  0.2816
 3790SOL     OW23005   3.257   2.498  11.801  0.1149  0.4098  0.4046
 3790SOL    HW123006   3.185   2.456  11.849 -0.2405  2.2817  1.5084
 3790SOL    HW223007   3.296   2.562  11.860  1.5848  0.0776 -0.2017
 3791SOL     OW23008   0.355   1.097   4.517  0.1213 -0.3948 -0.3139
 3791SOL    HW123009   0.396   1.181   4.494  1.0662 -0.9559 -0.6654
 3791SOL    HW223010   0.412   1.062   4.585 -0.1345  1.1402  0.6881
 3792SOL     OW23011   0.455   4.167   6.367  0.7359  0.3498 -0.1277
 3792SOL    HW123012   0.438   4.117   6.287 -2.3628  0.2688  0.5851
 3792SOL    HW223013   0.404   4.247   6.356  1.0844  0.6325  0.3015
 3793SOL     OW23014   3.304   2.868   3.003  0.2874  0.8841  0.4618
 3793SOL    HW123015   3.273   2.957   2.988  1.2100  0.5351 -3.2891
 3793SOL    HW223016   3.221   2.838   3.041  0.9647 -0.0388  1.2310
 3794SOL     OW23017   4.523   1.977   8.523  0.0798  0.5688 -0.3516
 3794SOL    HW123018   4.461   2.030   8.473  0.6275  2.4599  0.9938
 3794SOL    HW223019   4.513   1.889   8.487  0.1034  0.7214 -0.7313
 3795SOL     OW23020   4.157   1.836   5.000 -0.4444 -0.2697 -0.0831
 3795SOL    HW123021   4.205   1.793   4.930  0.3500  0.6917 -0.1286
 3795SOL    HW223022   4.066   1.809   4.990 -0.4247 -0.4700  0.2699
 3796SOL     OW23023   4.174   3.452   7.905  0.0049 -0.4572  0.1751
 3796SOL    HW123024   4.114   3.394   7.860 -0.1809  2.0138 -2.7689
 3796SOL    HW223025   4.235   3.399   7.957 -0.9573 -2.0787 -0.3594
 3797SOL     OW23026   4.133   2.123  11.855  0.0960 -0.7036 -0.0789
 3797SOL    HW123027   4.063   2.063  11.829 -1.4122  1.4523 -1.0196
 3797SOL    HW223028   4.081   2.197  11.885 -2.2751 -2.1027 -0.6878
 3798SOL     OW23029   1.179   0.427   9.498 -0.2358  0.3418 -0.0491
 3798SOL    HW123030   1.218   0.341   9.515  0.3452  0.8891  1.3373
 3798SOL    HW223031   1.141   0.455   9.581 -1.4323 -0.2524 -0.4041
 3799SOL     OW23032   4.509   3.780  11.686  0.0176 -0.0214  0.4527
 3799SOL    HW123033   4.552   3.703  11.650 -2.6280 -1.5260  0.5292
 3799SOL    HW223034   4.589   3.823  11.718 -0.5806  1.3647  0.1098
 3800SOL     OW23035   3.286   3.351   8.427  0.0580  0.0869 -0.2085
 3800SOL    HW123036   3.342   3.348   8.504  0.7004 -3.0829 -0.8246
 3800SOL    HW223037   3.329   3.284   8.374 -0.8470  0.0103 -0.8457
 3801SOL     OW23038   1.828   1.645   0.290 -0.6093  0.2582 -0.7839
 3801SOL    HW123039   1.765   1.699   0.338  0.7001  1.7463 -0.7380
 3801SOL    HW223040   1.910   1.693   0.301  0.9311 -2.9024  1.3461
 3802SOL     OW23041   1.480   0.703   5.086  0.2518 -0.0408  0.1010
 3802SOL    HW123042   1.544   0.702   5.157  0.7889 -0.2568 -0.3924
 3802SOL    HW223043   1.459   0.612   5.065  1.1660 -0.0174 -0.9036
 3803SOL     OW23044   0.439   4.547   3.183 -0.1434 -0.5179 -0.3753
 3803SOL    HW123045   0.431   4.469   3.129  0.9533 -1.8394  1.3513
 3803SOL    HW223046   0.414   4.617   3.123  2.1635 -0.1841 -0.9451
 3804SOL     OW23047   2.567   2.344  14.257  0.6267 -0.0304  0.1099
 3804SOL    HW123048   2.573   2.306  14.344 -0.4845  1.1544  0.7056
 3804SOL    HW223049   2.483   2.314  14.222  0.0458 -1.6072  2.9070
 3805SOL     OW23050   3.808   4.509   3.841  0.0622 -0.4356 -0.1926
 3805SOL    HW123051   3.779   4.571   3.773  0.4439  1.0444  0.9854
 3805SOL    HW223052   3.898   4.532   3.866  1.0605 -3.1465 -1.3932
 3806SOL     OW23053   1.486   4.635   4.379  0.3661 -0.0723  0.0781
 3806SOL    HW123054   1.426   4.665   4.311 -1.2712 -1.1323  1.0690
 3806SOL    HW223055   1.491   4.717   4.429 -0.6728  1.1760 -1.8626
 3807SOL     OW23056   3.286   3.768  17.564 -0.1468  0.0394 -0.2673
 3807SOL    HW123057   3.262   3.701  17.499 -0.6316 -0.0575  0.0129
 3807SOL    HW223058   3.322   3.715  17.634  3.5225  0.3924 -1.8857
 3808SOL     OW23059   1.407   0.350   5.286 -0.1940 -0.6320 -0.3587
 3808SOL    HW123060   1.355   0.343   5.206 -4.0384  1.4070  1.9188
 3808SOL    HW223061   1.389   0.439   5.317 -1.2581 -0.0445 -2.6476
 3809SOL     OW23062   1.245   0.327   7.515  0.2968  0.3115  0.8575
 3809SOL    HW123063   1.273   0.416   7.535  0.7739  0.9867 -2.9195
 3809SOL    HW223064   1.276   0.324   7.424 -0.7464  1.2115  0.4795
 3810SOL     OW23065   2.168   0.652   5.610 -0.1036  0.3749 -0.0704
 3810SOL    HW123066   2.194   0.732   5.565  1.3212  0.1851  0.4128
 3810SOL    HW223067   2.140   0.687   5.694  0.9382 -0.4610  0.6331
 3811SOL     OW23068   0.805   3.290   3.999 -0.2099  0.8622 -0.4479
 3811SOL    HW123069   0.824   3.216   4.057 -3.2151 -2.3199 -3.5228
 3811SOL    HW223070   0.753   3.341   4.061 -1.6169  0.6556 -1.4682
 3812SOL     OW23071   1.728   2.737   4.103  1.1358  0.0754 -0.1333
 3812SOL    HW123072   1.643   2.777   4.085  1.6762  0.5083 -1.7408
 3812SOL    HW223073   1.725   2.722   4.197  0.2869  2.3220  0.1933
 3813SOL     OW23074   3.325   1.887   7.323 -0.3219  0.1369 -0.4008
 3813SOL    HW123075   3.340   1.856   7.234  1.8846  1.1257 -0.3691
 3813SOL    HW223076   3.311   1.980   7.310  0.6603  0.5631  1.5023
 3814SOL     OW23077   0.146   0.459   4.917 -0.1029 -0.0338  0.1959
 3814SOL    HW123078   0.120   0.483   4.829 -1.2369  1.6855  0.9983
 3814SOL    HW223079   0.114   0.539   4.958 -1.0094 -1.5088  2.4121
 3815SOL     OW23080   0.872   0.789  17.360 -0.7573  0.3884  0.2891
 3815SOL    HW123081   0.914   0.864  17.317  0.5754  0.7009  2.1436
 3815SOL    HW223082   0.939   0.757  17.420  1.0719 -1.5088 -2.6962
 3816SOL     OW23083   3.497   0.053   4.022  0.5331 -0.7109 -0.1547
 3816SOL    HW123084   3.505   0.054   3.926  0.9646  0.1045 -0.1109
 3816SOL    HW223085   3.559   4.720   4.042  0.0124 -0.3186  2.8112
 3817SOL     OW23086   1.517   3.733  14.501  0.2079 -0.0500 -0.1308
 3817SOL    HW123087   1.456   3.798  14.466  0.9063  1.1588  0.8920
 3817SOL    HW223088   1.587   3.745  14.437  0.4767 -0.0066  0.1709
 3818SOL     OW23089   1.035   3.580  11.069  0.0964 -0.2181  0.1654
 3818SOL    HW123090   1.077   3.638  11.132  0.0607  0.7707 -0.7155
 3818SOL    HW223091   1.071   3.596  10.981  0.5481  1.4985  0.6589
 3819SOL     OW23092   1.622   3.405   2.692 -0.7669  0.3125  0.4321
 3819SOL    HW123093   1.647   3.388   2.602 -0.3002 -0.8957  0.7945
 3819SOL    HW223094   1.696   3.387   2.751 -0.6970 -0.3057  0.1480
 3820SOL     OW23095   0.431   4.076   7.183  0.1112  0.5498 -0.0627
 3820SOL    HW123096   0.410   4.160   7.223  0.1301  0.4631  0.1297
 3820SOL    HW223097   0.338   4.053   7.171 -0.2464  1.6799  0.5338
 3821SOL     OW23098   0.069   1.651   1.605 -0.5720  0.4143 -0.3544
 3821SOL    HW123099   0.148   1.625   1.651 -0.1374  0.0367 -1.3155
 3821SOL    HW223100   0.031   1.719   1.661  0.0344 -0.4132  1.0584
 3822SOL     OW23101   2.489   4.151   6.107 -0.2205 -0.2918 -0.1072
 3822SOL    HW123102   2.506   4.207   6.031 -1.1704 -1.2339 -1.0051
 3822SOL    HW223103   2.571   4.103   6.117 -1.2876 -1.4837  2.7027
 3823SOL     OW23104   2.068   4.169   6.069 -0.3789  0.1167  0.0671
 3823SOL    HW123105   1.999   4.139   6.010 -1.6949  2.2599  0.5063
 3823SOL    HW223106   2.081   4.256   6.031  0.7832  1.0909  2.6351
 3824SOL     OW23107   3.806   1.296   7.761 -0.1550  0.2736 -0.2981
 3824SOL    HW123108   3.747   1.293   7.836  1.2481  1.1980  0.8466
 3824SOL    HW223109   3.893   1.305   7.800  0.2098 -2.1309 -0.5774
 3825SOL     OW23110   2.547   2.008   6.448  0.5479 -0.8067 -0.1018
 3825SOL    HW123111   2.555   2.095   6.408 -1.1028 -0.3895  0.4872
 3825SOL    HW223112   2.575   1.957   6.372 -0.2772 -0.1044 -0.8797
 3826SOL     OW23113   2.146   2.517   4.083  0.2574 -0.8303  0.6189
 3826SOL    HW123114   2.114   2.590   4.136  0.0870 -0.8447  0.5354
 3826SOL    HW223115   2.150   2.444   4.145 -0.2530 -1.4328 -0.0586
 3827SOL     OW23116   2.343   2.437  10.661  0.4855 -0.1960 -0.4054
 3827SOL    HW123117   2.253   2.432  10.630  0.2328  2.5176 -0.1438
 3827SOL    HW223118   2.357   2.354  10.707 -1.8607  0.8700  2.2024
 3828SOL     OW23119   3.862   4.010   8.317 -0.6427 -0.0743 -0.1774
 3828SOL    HW123120   3.923   3.951   8.273  0.8147 -0.4542  2.3621
 3828SOL    HW223121   3.779   3.964   8.303 -0.1261 -0.4829 -1.8719
 3829SOL     OW23122   3.422   3.519   7.440  0.0434 -0.5321 -0.1411
 3829SOL    HW123123   3.404   3.608   7.409  0.6316 -0.6359 -0.7939
 3829SOL    HW223124   3.348   3.473   7.400 -0.0952 -0.3955 -0.0448
 3830SOL     OW23125   2.391   2.518   1.622  0.6547 -0.1342 -0.2768
 3830SOL    HW123126   2.334   2.471   1.560 -1.0282  0.4134  0.8512
 3830SOL    HW223127   2.377   2.611   1.604 -1.2182 -0.0770  1.5045
 3831SOL     OW23128   3.149   2.632  14.819  0.3506  0.5177  0.0370
 3831SOL    HW123129   3.065   2.662  14.855  0.2938 -0.7900  0.9804
 3831SOL    HW223130   3.177   2.577  14.891  1.8484  0.0323 -0.9135
 3832SOL     OW23131   0.192   2.564  17.409 -0.0429 -0.0724 -0.4521
 3832SOL    HW123132   0.119   2.509  17.381 -0.9579  0.7997  0.2113
 3832SOL    HW223133   0.261   2.534  17.350  1.9474  0.8929  1.3481
 3833SOL     OW23134   1.480   3.585   4.359  0.0379  0.5067  0.7589
 3833SOL    HW123135   1.500   3.678   4.371  0.4111  0.3172  1.5576
 3833SOL    HW223136   1.386   3.596   4.343  0.3388 -0.0820 -1.4772
 3834SOL     OW23137   3.980   1.898   6.711  0.2719  0.2640 -0.5205
 3834SOL    HW123138   3.922   1.969   6.739  1.1689  0.6814  0.2424
 3834SOL    HW223139   3.956   1.827   6.770  0.3579  1.1795  0.6126
 3835SOL     OW23140   1.603   2.398  17.197 -0.4705  0.2370  0.1481
 3835SOL    HW123141   1.597   2.480  17.148  1.3504  0.2474 -0.0674
 3835SOL    HW223142   1.650   2.338  17.139 -1.5276  0.8124 -1.3033
 3836SOL     OW23143   1.817   3.385  14.747  0.8827 -0.4325  0.0670
 3836SOL    HW123144   1.765   3.466  14.755 -0.5014 -1.4832  1.5972
 3836SOL    HW223145   1.760   3.335  14.689  1.6878  0.3649 -1.4383
 3837SOL     OW23146   0.708   2.885  13.762  0.3246  0.0121  0.0772
 3837SOL    HW123147   0.622   2.924  13.748  0.1050 -0.1882  0.8541
 3837SOL    HW223148   0.683   2.792  13.761  1.5524 -0.3285  1.2152
 3838SOL     OW23149   4.398   3.454   0.394  1.2802  0.1896 -0.4533
 3838SOL    HW123150   4.413   3.366   0.429  1.7702 -0.0435 -1.2438
 3838SOL    HW223151   4.302   3.451   0.392  1.2514 -0.6975  2.1153
 3839SOL     OW23152   1.896   3.084   6.288  0.1489 -0.4003  0.2563
 3839SOL    HW123153   1.869   3.158   6.232  0.5967  0.0604  0.6444
 3839SOL    HW223154   1.899   3.132   6.370  2.8916 -0.0401 -0.0365
 3840SOL     OW23155   1.406   2.041   3.344 -0.5643  0.5606 -0.2206
 3840SOL    HW123156   1.349   2.111   3.377 -2.1179 -0.1062 -1.4818
 3840SOL    HW223157   1.483   2.061   3.398 -0.2286 -0.2289 -0.4123
 3841SOL     OW23158   0.255   3.932   2.017  0.3923 -0.1819 -0.7483
 3841SOL    HW123159   0.340   3.947   2.057  0.6443 -1.0712 -0.9556
 3841SOL    HW223160   0.210   4.010   2.049  2.0699  0.0725  0.9526
 3842SOL     OW23161   1.185   1.346   2.203 -0.5041 -0.2336 -0.0851
 3842SOL    HW123162   1.090   1.348   2.198 -0.5940  0.0888  1.8872
 3842SOL    HW223163   1.193   1.316   2.294 -0.1190  2.5887  0.8102
 3843SOL     OW23164   3.356   0.684   3.667 -0.0127 -0.2920  0.1582
 3843SOL    HW123165   3.261   0.673   3.659 -0.4351  3.0484  0.7902
 3843SOL    HW223166   3.362   0.761   3.611 -1.4339  1.2086  2.1037
 3844SOL     OW23167   4.328   2.003   7.439  0.0633 -0.1862 -0.0409
 3844SOL    HW123168   4.290   2.076   7.488  0.8975 -0.5337  1.1306
 3844SOL    HW223169   4.418   2.036   7.433 -0.1495  0.6630  1.5402
 3845SOL     OW23170   0.608   2.151  16.382 -0.8350  0.6370 -0.4275
 3845SOL    HW123171   0.605   2.209  16.458  0.0529  0.1329 -0.0083
 3845SOL    HW223172   0.568   2.209  16.317  0.0700  1.6014 -0.1419
 3846SOL     OW23173   4.174   3.449  14.434 -0.6116 -0.0825  0.4335
 3846SOL    HW123174   4.135   3.361  14.431  0.5774 -0.5086 -2.1514
 3846SOL    HW223175   4.130   3.492  14.508  0.6115  1.3417  0.3246
 3847SOL     OW23176   4.540   4.526   6.046 -0.3391  0.7629  0.5921
 3847SOL    HW123177   4.521   4.522   5.952 -0.0997  1.4476  0.5176
 3847SOL    HW223178   4.632   4.500   6.057 -0.9705 -1.3998  0.8697
 3848SOL     OW23179   0.678   2.727  14.212  0.1526 -0.0746 -0.0818
 3848SOL    HW123180   0.749   2.790  14.195 -0.4030  0.5954  0.0891
 3848SOL    HW223181   0.616   2.730  14.139 -1.6952  0.3764  1.5305
 3849SOL     OW23182   0.428   3.453   7.490 -0.4792  0.4952  0.3446
 3849SOL    HW123183   0.523   3.439   7.482 -1.0636 -2.1642 -1.7499
 3849SOL    HW223184   0.402   3.369   7.528 -0.5336 -0.6664 -2.3132
 3850SOL     OW23185   2.360   2.492  15.523  0.2630 -0.1634  0.0927
 3850SOL    HW123186   2.362   2.545  15.604 -0.4695  1.6947 -1.1065
 3850SOL    HW223187   2.455   2.495  15.508  0.1809 -0.7474 -0.5129
 3851SOL     OW23188   0.272   1.486   1.834  0.0771  0.6315  0.4121
 3851SOL    HW123189   0.349   1.504   1.888  0.2927 -1.2066  0.7391
 3851SOL    HW223190   0.211   1.554   1.862 -2.2208 -1.9851  1.8088
 3852SOL     OW23191   0.862   0.684  10.243 -0.4996 -0.1525  0.0703
 3852SOL    HW123192   0.850   0.600  10.200 -1.1325  0.0068 -0.0653
 3852SOL    HW223193   0.948   0.664  10.279  0.2728  1.6970 -0.7245
 3853SOL     OW23194   3.640   0.444   5.223  0.0331 -0.2843 -0.1870
 3853SOL    HW123195   3.715   0.477   5.175  1.6488 -2.1184  1.1038
 3853SOL    HW223196   3.569   0.497   5.188  0.1381  0.8692  1.3443
 3854SOL     OW23197   0.663   4.080  12.927  0.1647  0.5248  0.0723
 3854SOL    HW123198   0.728   4.140  12.891  0.9889  0.2270  1.0690
 3854SOL    HW223199   0.595   4.146  12.913 -0.9064 -0.7287 -0.6685
 3855SOL     OW23200   1.495   2.467   4.025  0.1704 -1.2574  0.1410
 3855SOL    HW123201   1.582   2.427   4.018 -0.1572 -1.5383 -2.3092
 3855SOL    HW223202   1.519   2.558   4.040 -2.3257 -0.7780  1.1472
 3856SOL     OW23203   2.038   3.761  11.928  0.4617  0.3865  0.3746
 3856SOL    HW123204   2.028   3.695  11.996 -1.5682  1.1112  0.7726
 3856SOL    HW223205   2.017   3.841  11.976  4.0532 -0.4101  3.2826
 3857SOL     OW23206   3.593   2.264   6.228  0.2704 -0.0088  0.3530
 3857SOL    HW123207   3.649   2.245   6.152 -0.9425 -1.2839 -0.2433
 3857SOL    HW223208   3.664   2.269   6.292  0.6228 -2.2792  0.1568
 3858SOL     OW23209   1.975   1.909  13.735  0.0231 -0.4681  0.0331
 3858SOL    HW123210   1.887   1.938  13.710  0.6300  1.4795  0.1629
 3858SOL    HW223211   1.997   1.967  13.808  0.6512 -0.6637 -0.0076
 3859SOL     OW23212   4.507   4.366   3.083 -0.3779 -0.3334  0.6214
 3859SOL    HW123213   4.577   4.345   3.145  0.1230  0.0555  0.1900
 3859SOL    HW223214   4.430   4.391   3.134 -1.1921  0.7200 -1.1479
 3860SOL     OW23215   4.086   0.781   1.903 -0.1086 -0.0714  0.0775
 3860SOL    HW123216   4.062   0.851   1.963  0.8866 -1.1755  1.7612
 3860SOL    HW223217   4.160   0.747   1.954 -0.0481  0.6642  0.4666
 3861SOL     OW23218   2.985   4.204   5.860  0.7336  0.0961 -0.0655
 3861SOL    HW123219   2.954   4.293   5.847  0.3618  0.0929  0.8003
 3861SOL    HW223220   3.080   4.210   5.848  1.0473 -1.6550  1.5969
 3862SOL     OW23221   2.579   1.877   7.605 -0.5721  0.0596 -0.3428
 3862SOL    HW123222   2.525   1.860   7.682 -1.2262  0.1684 -0.7767
 3862SOL    HW223223   2.584   1.791   7.564  1.6875 -1.4630  3.1470
 3863SOL     OW23224   0.122   0.818  11.602 -0.4797 -0.1424  0.4616
 3863SOL    HW123225   0.139   0.905  11.639 -1.4671 -0.2342  1.1117
 3863SOL    HW223226   0.207   0.773  11.603 -0.1434  0.4979  0.7902
 3864SOL     OW23227   0.062   1.950   7.267 -0.4656 -0.4995 -0.0095
 3864SOL    HW123228   0.099   2.038   7.276  1.1479 -1.3217  1.3752
 3864SOL    HW223229   0.096   1.934   7.179 -2.0655 -0.1411 -0.7004
 3865SOL     OW23230   0.150   1.193  16.269  1.1374  0.6592  0.0265
 3865SOL    HW123231   0.167   1.135  16.343 -1.1102 -0.9225 -0.7087
 3865SOL    HW223232   0.116   1.125  16.211 -0.1268 -1.1022  2.8279
 3866SOL     OW23233   3.296   0.120   5.801 -0.1243 -0.3889  0.2815
 3866SOL    HW123234   3.311   0.142   5.709  0.7060 -0.7541  0.3351
 3866SOL    HW223235   3.379   0.139   5.844 -0.3466  2.8506 -0.7200
 3867SOL     OW23236   3.511   3.735  11.703 -0.7937  0.1972  0.3434
 3867SOL    HW123237   3.538   3.818  11.744 -0.9178 -0.5137  1.8803
 3867SOL    HW223238   3.558   3.670  11.755 -0.3962  1.5807  1.7098
 3868SOL     OW23239   3.789   0.329   7.887  0.3937  0.0841 -0.1139
 3868SOL    HW123240   3.860   0.311   7.827  0.8438  0.5093  0.2892
 3868SOL    HW223241   3.768   0.242   7.922  2.3357  0.5111  2.1201
 3869SOL     OW23242   1.992   4.427  11.206 -0.1225 -0.1072  0.3417
 3869SOL    HW123243   1.901   4.397  11.207 -0.8699  2.1632  1.7538
 3869SOL    HW223244   1.981   4.491  11.277  3.2842  0.1481  0.6353
 3870SOL     OW23245   0.231   2.113   9.442  0.3618  0.5707 -0.1999
 3870SOL    HW123246   0.228   2.081   9.532 -4.3937  0.4484 -0.3721
 3870SOL    HW223247   0.324   2.135   9.440  0.2456  1.1117  0.5215
 3871SOL     OW23248   1.993   3.053  16.643  0.4377 -0.4285 -0.6128
 3871SOL    HW123249   1.948   3.028  16.562 -0.8319 -1.2284  0.3192
 3871SOL    HW223250   2.029   3.137  16.617 -0.6392  0.5314  1.0182
 3872SOL     OW23251   2.833   2.364   0.411 -0.9942 -0.3616 -0.0772
 3872SOL    HW123252   2.911   2.363   0.467  0.9549  0.0515 -2.7776
 3872SOL    HW223253   2.766   2.374   0.479 -0.6182  1.0852  0.0788
 3873SOL     OW23254   3.521   0.017   6.364  0.3105 -0.2668  0.8758
 3873SOL    HW123255   3.542   4.678   6.309  1.5760  1.3089 -0.7847
 3873SOL    HW223256   3.521   0.086   6.298 -0.5746 -4.1944 -3.2014
 3874SOL     OW23257   4.279   4.407   0.728  0.2510  0.0094 -0.2788
 3874SOL    HW123258   4.297   4.330   0.782 -1.1623 -0.7353 -0.8840
 3874SOL    HW223259   4.288   4.477   0.793 -2.3506 -0.7316  0.8827
 3875SOL     OW23260   0.854   3.271   1.512  0.3263  0.2964  0.1165
 3875SOL    HW123261   0.922   3.309   1.568  1.7165  0.1524 -1.4690
 3875SOL    HW223262   0.789   3.340   1.529 -0.1389  0.2854 -1.5570
 3876SOL     OW23263   4.154   3.666   2.616 -0.0489  0.2727 -0.4023
 3876SOL    HW123264   4.244   3.672   2.584 -0.2765  1.2694 -0.8444
 3876SOL    HW223265   4.166   3.722   2.692 -0.6873 -0.7122  0.4248
 3877SOL     OW23266   0.874   2.401   2.744 -0.0591  0.4208  0.6208
 3877SOL    HW123267   0.865   2.386   2.650  2.5893 -1.9092  0.7565
 3877SOL    HW223268   0.827   2.484   2.745  0.4043  0.6899  0.1845
 3878SOL     OW23269   2.475   3.886   1.919  0.2011  0.0049 -0.0099
 3878SOL    HW123270   2.505   3.930   1.839 -0.7765 -0.4633 -0.6442
 3878SOL    HW223271   2.381   3.903   1.904  0.0037 -2.0796 -1.0799
 3879SOL     OW23272   1.731   4.492   3.370 -0.2730  0.5029 -0.1961
 3879SOL    HW123273   1.756   4.521   3.458  1.5716 -1.6163 -0.0251
 3879SOL    HW223274   1.731   4.397   3.380  0.0718  0.6215  0.9216
 3880SOL     OW23275   0.222   2.559   6.028  0.3254  0.2628  0.0240
 3880SOL    HW123276   0.285   2.575   6.099  0.5149 -0.7858  0.0824
 3880SOL    HW223277   0.278   2.519   5.963 -0.7046  0.1778 -0.8062
 3881SOL     OW23278   0.480   0.033   5.750  0.6351 -0.4485  0.2607
 3881SOL    HW123279   0.395   0.016   5.791  0.6361  1.4939  1.1071
 3881SOL    HW223280   0.502   0.113   5.798  0.5849 -0.1516 -0.2067
 3882SOL     OW23281   2.701   3.830   6.894  0.2330  0.1593  0.3483
 3882SOL    HW123282   2.783   3.847   6.848 -0.5720  1.8801 -0.4168
 3882SOL    HW223283   2.647   3.898   6.855 -1.2463 -1.5630 -0.5775
 3883SOL     OW23284   2.260   2.644   7.476  0.4694  0.2332  0.2418
 3883SOL    HW123285   2.346   2.681   7.498  0.0568 -0.1285  2.5426
 3883SOL    HW223286   2.240   2.700   7.402 -1.1985  0.1597  0.6457
 3884SOL     OW23287   4.719   1.748  17.522 -0.1643  0.1324 -0.0251
 3884SOL    HW123288   4.633   1.787  17.515  0.1485  0.8177 -0.0312
 3884SOL    HW223289   4.717   1.681  17.453 -0.9546 -0.7773  0.8798
 3885SOL     OW23290   1.524   1.542   5.429 -0.7029  0.2010  0.5491
 3885SOL    HW123291   1.519   1.612   5.364  0.8932 -0.7867 -0.6396
 3885SOL    HW223292   1.438   1.538   5.471 -1.7989  1.1676 -1.6229
 3886SOL     OW23293   2.087   1.434  14.293 -0.1349  0.5016  0.3959
 3886SOL    HW123294   2.123   1.385  14.219  0.8110 -0.6631  1.6238
 3886SOL    HW223295   2.124   1.389  14.369 -0.0841 -0.2648 -0.0899
 3887SOL     OW23296   4.471   1.118  10.874  0.2784 -0.1202  0.2375
 3887SOL    HW123297   4.479   1.031  10.833  2.6780  0.0553  0.3280
 3887SOL    HW223298   4.530   1.106  10.948 -0.6686  0.6569  1.1201
 3888SOL     OW23299   0.531   0.254  16.933 -0.4652 -0.6700  0.3847
 3888SOL    HW123300   0.448   0.269  16.886  0.3548 -1.4620 -1.3342
 3888SOL    HW223301   0.590   0.249  16.858 -0.2143  2.2410  0.3932
 3889SOL     OW23302   2.065   1.576   3.230  0.1100  0.3105  0.0277
 3889SOL    HW123303   2.057   1.671   3.222 -1.5090  0.4102  2.6524
 3889SOL    HW223304   2.116   1.546   3.155  2.4605  1.4016  1.1960
 3890SOL     OW23305   1.757   1.295   5.770  0.1823  0.1070 -0.3121
 3890SOL    HW123306   1.688   1.336   5.822 -0.6408 -1.2617 -0.3326
 3890SOL    HW223307   1.792   1.372   5.726 -2.3224  2.1693  1.2963
 3891SOL     OW23308   0.827   3.553  15.337  0.1668 -0.3170  0.4939
 3891SOL    HW123309   0.735   3.571  15.357 -0.5339 -1.8881 -1.2707
 3891SOL    HW223310   0.858   3.638  15.366  1.2342 -0.2986 -0.7144
 3892SOL     OW23311   1.591   1.749   2.630 -0.3143  0.0666  0.3089
 3892SOL    HW123312   1.533   1.812   2.672 -1.4808  0.5880 -2.0882
 3892SOL    HW223313   1.565   1.665   2.667  3.0882  0.1103  2.8055
 3893SOL     OW23314   3.539   4.257  17.345 -0.3349 -0.3455 -0.2339
 3893SOL    HW123315   3.448   4.252  17.315 -0.2041  0.8819 -0.7993
 3893SOL    HW223316   3.531   4.297  17.432 -2.3964  1.1048 -1.0973
 3894SOL     OW23317   2.968   3.690   2.325  0.0209 -0.1859  0.0806
 3894SOL    HW123318   2.939   3.676   2.415 -0.8144 -2.1107 -0.5003
 3894SOL    HW223319   2.892   3.745   2.304 -0.7499 -1.3703 -0.1921
 3895SOL     OW23320   2.916   0.892  11.651 -0.3182 -0.3825 -1.2895
 3895SOL    HW123321   2.876   0.808  11.672 -2.9347  1.0976 -0.2678
 3895SOL    HW223322   2.844   0.929  11.599  1.3251 -0.8712 -3.8704
 3896SOL     OW23323   2.173   2.727   5.720 -0.2021 -0.1462  0.3179
 3896SOL    HW123324   2.245   2.789   5.705 -0.9577  0.6909  0.1683
 3896SOL    HW223325   2.215   2.643   5.739  1.7622  0.3019 -2.0290
 3897SOL     OW23326   1.109   4.452  12.153 -0.4409  0.4515 -0.3280
 3897SOL    HW123327   1.160   4.527  12.121  1.2046 -0.3650  0.4110
 3897SOL    HW223328   1.170   4.416  12.217 -0.3524  0.7956 -0.2185
 3898SOL     OW23329   2.576   3.187   0.071 -0.0131 -0.3269 -0.2005
 3898SOL    HW123330   2.493   3.194   0.117 -0.4507 -3.4615 -0.5223
 3898SOL    HW223331   2.637   3.148   0.134  0.1061 -1.1689 -0.8407
 3899SOL     OW23332   3.242   4.276   2.741  0.0785  0.6829  0.0813
 3899SOL    HW123333   3.269   4.324   2.663  1.3024  1.4450  0.9828
 3899SOL    HW223334   3.280   4.192   2.715 -0.9289  0.2212  0.0903
 3900SOL     OW23335   0.566   0.757   2.745 -0.4984 -0.3141  0.6109
 3900SOL    HW123336   0.493   0.818   2.733  1.1861  1.9347  1.6594
 3900SOL    HW223337   0.588   0.755   2.838  3.2734  1.7942 -0.2186
 3901SOL     OW23338   0.625   2.302   6.425 -0.5633  0.5483  0.2079
 3901SOL    HW123339   0.609   2.210   6.443 -1.6553  0.2395 -2.4192
 3901SOL    HW223340   0.659   2.333   6.509  0.7624  0.1433 -0.1786
 3902SOL     OW23341   4.442   0.268   3.603 -0.2183  0.7400 -0.0092
 3902SOL    HW123342   4.353   0.303   3.605 -0.7534 -0.6210  0.5270
 3902SOL    HW223343   4.459   0.230   3.689  0.9232  1.0329 -0.1012
 3903SOL     OW23344   1.030   2.360  11.583  0.3512  0.0312 -0.3795
 3903SOL    HW123345   0.996   2.346  11.495  1.9241 -1.9088 -0.6976
 3903SOL    HW223346   1.095   2.427  11.561 -1.2806  1.1918 -1.6378
 3904SOL     OW23347   1.945   3.804   8.313  0.2051 -0.1073  0.2123
 3904SOL    HW123348   1.975   3.744   8.245 -0.9708  1.5514 -1.7723
 3904SOL    HW223349   1.936   3.886   8.264  0.9087 -0.0267  0.2159
 3905SOL     OW23350   0.584   1.222  11.285 -0.3736 -0.3551  0.3206
 3905SOL    HW123351   0.583   1.129  11.263 -1.6722 -0.5753  1.3043
 3905SOL    HW223352   0.629   1.225  11.369  1.0380 -3.7896 -0.3221
 3906SOL     OW23353   2.556   4.533  16.183 -0.3895  0.7875 -0.1867
 3906SOL    HW123354   2.545   4.628  16.194  0.8917  0.6832  1.9213
 3906SOL    HW223355   2.591   4.508  16.268  2.6684 -1.0457 -2.0069
 3907SOL     OW23356   2.908   1.498   2.600 -0.5568 -0.3816  0.2592
 3907SOL    HW123357   2.825   1.461   2.570  0.0223 -0.4502 -1.2486
 3907SOL    HW223358   2.868   1.547   2.672 -0.6946 -2.1356  1.3593
 3908SOL     OW23359   1.697   3.261   2.183 -0.1884 -0.2135  0.3104
 3908SOL    HW123360   1.778   3.228   2.144  1.1749  1.7297  1.4887
 3908SOL    HW223361   1.647   3.204   2.125  0.2170  0.5632 -0.8047
 3909SOL     OW23362   1.317   0.085   2.806  0.3495  0.1020  0.1655
 3909SOL    HW123363   1.297   4.736   2.844 -0.4214 -0.9759 -2.6938
 3909SOL    HW223364   1.306   0.065   2.713  0.9775 -1.9314  0.5377
 3910SOL     OW23365   3.116   4.356   8.232 -0.5189  0.5605 -0.5094
 3910SOL    HW123366   3.210   4.340   8.248 -1.2291 -1.9466  1.2365
 3910SOL    HW223367   3.079   4.268   8.239 -0.1884  0.2181 -3.0834
 3911SOL     OW23368   1.996   2.891   2.664 -0.7506 -0.4394 -0.4244
 3911SOL    HW123369   2.034   2.952   2.726 -0.3051 -1.2149  0.0700
 3911SOL    HW223370   1.905   2.920   2.660 -1.3115 -2.0709  0.2387
 3912SOL     OW23371   4.362   4.298  16.336 -0.1609 -0.4603  0.0473
 3912SOL    HW123372   4.413   4.356  16.393  2.1986 -2.5701  0.0909
 3912SOL    HW223373   4.341   4.231  16.401 -2.0035 -1.0619 -1.1812
 3913SOL     OW23374   0.886   3.870   4.811  0.1653  0.4075  0.5761
 3913SOL    HW123375   0.847   3.912   4.735  0.9520  0.5423  0.2457
 3913SOL    HW223376   0.927   3.940   4.862  0.2540  1.1484 -0.5185
 3914SOL     OW23377   3.325   0.044  14.424  0.3369 -0.0823  0.1558
 3914SOL    HW123378   3.323   0.099  14.345 -1.6904  0.0818  0.3323
 3914SOL    HW223379   3.271   4.709  14.390 -1.2550  0.0725  2.3584
 3915SOL     OW23380   2.797   0.114   5.703 -0.3679  0.0475 -0.2749
 3915SOL    HW123381   2.831   0.203   5.694  0.2377 -0.1336  0.1822
 3915SOL    HW223382   2.717   0.131   5.753  0.9275 -1.3412  2.2742
 3916SOL     OW23383   3.962   2.187  15.883  0.0245  0.3447 -0.5848
 3916SOL    HW123384   3.921   2.111  15.842 -1.9050  1.3147 -0.4776
 3916SOL    HW223385   4.041   2.154  15.925  0.8899  0.8817 -1.7981
 3917SOL     OW23386   3.639   1.459  11.623  0.4211  0.4418  0.0964
 3917SOL    HW123387   3.649   1.457  11.718  1.5732 -1.9886 -0.1012
 3917SOL    HW223388   3.546   1.483  11.625 -0.1315 -1.7038 -0.1671
 3918SOL     OW23389   4.517   0.079   7.005 -0.2948 -0.7638 -0.3494
 3918SOL    HW123390   4.605   0.046   7.022 -0.3747 -0.3353  0.8577
 3918SOL    HW223391   4.513   0.151   7.067  1.4526 -1.3734  0.4745
 3919SOL     OW23392   3.543   0.300   6.957 -0.4700  0.1908  0.4063
 3919SOL    HW123393   3.620   0.322   7.009  0.4027  0.8286 -1.1626
 3919SOL    HW223394   3.583   0.321   6.873 -1.1404 -1.8414 -0.4323
 3920SOL     OW23395   2.330   3.794   7.694 -0.3645  0.5629 -0.1555
 3920SOL    HW123396   2.382   3.751   7.626 -0.0091 -2.1245  1.8185
 3920SOL    HW223397   2.300   3.713   7.736 -1.1237  0.1675 -1.4596
 3921SOL     OW23398   2.719   1.973  14.633 -0.0285 -0.3763  0.5054
 3921SOL    HW123399   2.692   2.050  14.684 -1.7507  0.2198 -1.3389
 3921SOL    HW223400   2.723   2.009  14.545  1.1754 -1.6270  0.0445
 3922SOL     OW23401   3.026   2.120  16.123  0.7420  0.4614 -0.3862
 3922SOL    HW123402   3.003   2.208  16.095 -2.0255  0.2037  1.1054
 3922SOL    HW223403   2.959   2.090  16.185  1.5539 -1.2345 -0.3150
 3923SOL     OW23404   0.680   3.918   5.706  0.6459  0.1007  0.3625
 3923SOL    HW123405   0.621   3.949   5.638 -0.3400  1.5474  1.8480
 3923SOL    HW223406   0.724   3.842   5.669 -1.6931 -0.5572 -1.0160
 3924SOL     OW23407   3.930   3.007  16.164  0.0750  0.0850  0.5250
 3924SOL    HW123408   4.015   3.051  16.164  0.0131  0.2080  0.0711
 3924SOL    HW223409   3.950   2.958  16.084  0.9000 -1.1807  1.5017
 3925SOL     OW23410   4.409   0.244   6.455 -0.1421  0.7741  0.3685
 3925SOL    HW123411   4.480   0.188   6.423 -1.1644 -0.1405 -0.2533
 3925SOL    HW223412   4.447   0.276   6.537  0.5756 -0.4529  0.5227
 3926SOL     OW23413   4.278   2.213   4.894  0.4689  0.5386  0.5891
 3926SOL    HW123414   4.282   2.168   4.809  0.9584  1.6596  0.0169
 3926SOL    HW223415   4.193   2.190   4.932 -0.6011  1.3529 -1.2932
 3927SOL     OW23416   2.595   3.016  17.003 -0.4331  0.4329  0.0700
 3927SOL    HW123417   2.579   2.923  17.020  2.3507 -0.3595 -1.6947
 3927SOL    HW223418   2.674   3.035  17.053  0.7364 -1.5021 -1.0379
 3928SOL     OW23419   0.723   3.766   0.830 -0.6461  0.3247 -0.0080
 3928SOL    HW123420   0.726   3.673   0.807 -0.0521  0.4528 -0.4661
 3928SOL    HW223421   0.768   3.755   0.914 -0.1948  0.2627 -0.2578
 3929SOL     OW23422   3.125   1.845   1.667  0.0912 -0.0074  0.0660
 3929SOL    HW123423   3.148   1.916   1.607  0.0716 -1.1987 -1.3445
 3929SOL    HW223424   3.054   1.797   1.625 -0.1768  0.5894 -0.1673
 3930SOL     OW23425   3.732   2.385  11.873  0.1763 -0.0313  0.0983
 3930SOL    HW123426   3.750   2.449  11.804  3.2829 -0.0835  0.8787
 3930SOL    HW223427   3.650   2.429  11.898 -0.2069 -1.1541  0.7994
 3931SOL     OW23428   2.098   0.172   8.456 -0.1821 -0.4279  0.0538
 3931SOL    HW123429   2.103   0.108   8.527  1.4310 -0.6719 -0.2790
 3931SOL    HW223430   2.188   0.175   8.425  0.0220 -2.2680  0.4830
 3932SOL     OW23431   2.971   0.653   4.249  0.3307 -0.4110  0.2058
 3932SOL    HW123432   2.877   0.674   4.242  0.3747  0.3724  2.1538
 3932SOL    HW223433   3.003   0.709   4.319  0.5671 -0.4197  0.1033
 3933SOL     OW23434   3.706   1.207   7.106 -0.1521  0.2844 -0.2757
 3933SOL    HW123435   3.654   1.135   7.141  0.5319 -0.5412 -0.9542
 3933SOL    HW223436   3.786   1.160   7.079 -0.1176 -0.8606  1.8236
 3934SOL     OW23437   0.291   0.824   7.431  0.1327 -0.3186 -0.3469
 3934SOL    HW123438   0.244   0.890   7.380  1.5736  3.1710  2.9196
 3934SOL    HW223439   0.230   0.816   7.504  0.9149 -1.7390  0.1575
 3935SOL     OW23440   0.865   1.388   1.876 -0.2085 -0.2794 -0.1288
 3935SOL    HW123441   0.944   1.439   1.860  1.4620 -1.9126  2.8769
 3935SOL    HW223442   0.812   1.437   1.813  0.2761  1.3602  0.7453
 3936SOL     OW23443   3.694   4.236   4.683  0.4882  0.2017  0.3266
 3936SOL    HW123444   3.693   4.332   4.678  1.6935  0.1883 -0.1753
 3936SOL    HW223445   3.652   4.219   4.598  1.2256 -0.9551  0.2012
 3937SOL     OW23446   4.690   0.746   5.317 -0.3660 -0.2126 -1.0250
 3937SOL    HW123447   4.715   0.837   5.334  0.9459 -0.4307 -1.8416
 3937SOL    HW223448   4.595   0.758   5.308 -0.1466  1.8155 -0.6839
 3938SOL     OW23449   0.106   3.017   1.819  0.4952  0.0387  0.2560
 3938SOL    HW123450   0.082   3.093   1.766  0.1199  1.4632  2.4846
 3938SOL    HW223451   0.175   3.061   1.867  0.3710  1.4188 -0.8363
 3939SOL     OW23452   4.540   3.352   7.157  0.1146 -0.5876  0.1739
 3939SOL    HW123453   4.536   3.257   7.150 -1.4799 -0.6301  1.6471
 3939SOL    HW223454   4.540   3.376   7.064  1.9618 -0.8019  0.1285
 3940SOL     OW23455   4.000   3.406   4.251 -0.6580  0.0955 -0.2072
 3940SOL    HW123456   4.080   3.439   4.210 -0.2457 -0.7255 -0.0641
 3940SOL    HW223457   4.033   3.344   4.315  0.8134 -0.7335 -1.7697
 3941SOL     OW23458   0.190   2.151  10.976  0.0637 -0.0305  0.3986
 3941SOL    HW123459   0.125   2.086  10.947  0.1282  1.7856 -3.8440
 3941SOL    HW223460   0.137   2.228  10.996  1.1593  0.0814  2.8306
 3942SOL     OW23461   0.189   2.821  16.303  0.4290 -0.1809 -0.0672
 3942SOL    HW123462   0.219   2.870  16.226 -0.1905 -0.8056 -0.7134
 3942SOL    HW223463   0.264   2.761  16.304  1.7557  1.5032  1.2598
 3943SOL     OW23464   4.677   3.738   3.895 -0.0384  0.0729 -0.3736
 3943SOL    HW123465   4.699   3.704   3.982 -0.8128  1.2338  0.2792
 3943SOL    HW223466   4.733   3.696   3.830  0.4147 -0.9822  0.7056
 3944SOL     OW23467   1.169   3.167   5.428 -0.3149 -0.3619 -0.0111
 3944SOL    HW123468   1.164   3.080   5.388 -3.0099  1.2609 -3.1644
 3944SOL    HW223469   1.240   3.213   5.384  0.2600 -0.8254  0.4198
 3945SOL     OW23470   0.600   1.768   3.501  0.6072 -0.2361  0.2625
 3945SOL    HW123471   0.530   1.706   3.523  0.0604 -0.5251 -2.3567
 3945SOL    HW223472   0.551   1.840   3.463 -2.0096 -2.1702 -0.0570
 3946SOL     OW23473   3.304   3.174  13.812  0.7830 -0.8921  0.3971
 3946SOL    HW123474   3.263   3.135  13.889 -1.8285  0.5548 -0.2775
 3946SOL    HW223475   3.247   3.137  13.744  0.5593 -2.3107  1.3521
 3947SOL     OW23476   4.644   1.301   2.531  0.0960  0.0528 -0.1820
 3947SOL    HW123477   4.703   1.266   2.597  0.5925 -0.9817 -1.1734
 3947SOL    HW223478   4.560   1.317   2.572 -0.7521 -0.0968 -1.8463
 3948SOL     OW23479   3.989   0.023   8.344  0.1157 -0.2241  0.1241
 3948SOL    HW123480   4.034   4.679   8.368  0.4374  0.3670  1.4895
 3948SOL    HW223481   3.901   4.734   8.371  0.4373 -0.9146  0.5256
 3949SOL     OW23482   4.649   4.167   9.970 -1.1837  0.1799  0.0407
 3949SOL    HW123483   4.645   4.205  10.058  2.5727 -0.3159  0.4223
 3949SOL    HW223484   4.589   4.093   9.979  0.0234 -0.8384 -0.3682
 3950SOL     OW23485   2.388   3.683  15.386  0.3072 -0.2964  0.5081
 3950SOL    HW123486   2.481   3.690  15.366 -0.0897 -0.1512 -1.3124
 3950SOL    HW223487   2.352   3.643  15.306 -0.2044  0.1563  0.5131
 3951SOL     OW23488   0.274   0.894   0.233  0.1313 -0.7162  0.2126
 3951SOL    HW123489   0.284   0.978   0.277 -0.3401 -1.3499  1.5465
 3951SOL    HW223490   0.181   0.890   0.212 -0.2087  0.9060  1.4265
 3952SOL     OW23491   4.561   2.551  15.133 -0.3170  0.0142  0.2041
 3952SOL    HW123492   4.547   2.458  15.116 -1.0717  0.1248  0.2002
 3952SOL    HW223493   4.491   2.591  15.081  0.6212  0.2840 -0.8600
 3953SOL     OW23494   1.395   4.415   7.351  0.9644 -0.5404 -0.7112
 3953SOL    HW123495   1.378   4.355   7.279  3.2038 -0.8113 -1.0058
 3953SOL    HW223496   1.383   4.360   7.429  1.6054 -0.6899 -0.7187
 3954SOL     OW23497   3.720   3.644  14.058  0.7680  0.2172 -0.1838
 3954SOL    HW123498   3.634   3.601  14.062  0.7926  0.3394  1.5641
 3954SOL    HW223499   3.778   3.594  14.115 -0.4501  0.7173  1.5260
 3955SOL     OW23500   4.736   1.991  10.846 -0.0620  0.2143 -0.4431
 3955SOL    HW123501   4.648   1.985  10.882  0.5441 -1.6184  0.7424
 3955SOL    HW223502   4.733   1.926  10.775  1.1085 -0.1147 -0.1906
 3956SOL     OW23503   2.913   0.331   2.708  0.2379  0.2616 -0.0499
 3956SOL    HW123504   2.838   0.389   2.694 -0.6914 -1.0713 -0.5325
 3956SOL    HW223505   2.864   0.266   2.757  1.0437  1.4520  2.3493
 3957SOL     OW23506   0.727   3.301   5.252 -0.3747  0.4088  0.0434
 3957SOL    HW123507   0.775   3.251   5.186  1.6187  0.6372  1.3223
 3957SOL    HW223508   0.703   3.375   5.196 -1.0895  1.5403  1.8378
 3958SOL     OW23509   3.242   4.495  14.318  0.2861 -0.4614 -0.5747
 3958SOL    HW123510   3.268   4.428  14.255 -0.6335  0.3525 -1.8071
 3958SOL    HW223511   3.151   4.475  14.339  0.5042 -2.1595 -1.2966
 3959SOL     OW23512   2.052   2.691  14.482 -0.1963 -0.1470  0.3187
 3959SOL    HW123513   2.147   2.685  14.478 -0.2574  0.5888 -2.2639
 3959SOL    HW223514   2.053   2.761  14.547  1.3141  1.3050 -1.2817
 3960SOL     OW23515   3.906   3.982   2.711  0.4880  0.1123  0.5390
 3960SOL    HW123516   3.956   4.016   2.785  0.2109  0.7410  0.4363
 3960SOL    HW223517   3.818   4.017   2.728  0.6129 -0.0461  1.4725
 3961SOL     OW23518   0.603   2.969  12.037 -0.2354  0.2227  0.4822
 3961SOL    HW123519   0.640   2.946  11.952 -0.7311 -1.5812  0.7616
 3961SOL    HW223520   0.608   2.887  12.086  0.0421 -0.2461 -0.3315
 3962SOL     OW23521   4.148   0.188   8.522 -0.3470  0.7906 -0.5405
 3962SOL    HW123522   4.083   0.159   8.586  0.1802 -2.0276 -1.2961
 3962SOL    HW223523   4.172   0.101   8.491 -0.2598  0.2889  0.9238
 3963SOL     OW23524   4.120   0.923   8.105  0.3129  0.2690  0.0670
 3963SOL    HW123525   4.079   0.932   8.018  1.3562  1.7049 -0.2816
 3963SOL    HW223526   4.161   1.009   8.115 -2.0253  1.0767  2.7960
 3964SOL     OW23527   2.000   3.614   8.481 -0.6500  0.8151  0.2126
 3964SOL    HW123528   1.982   3.671   8.406  0.2751  0.8700  0.0340
 3964SOL    HW223529   2.071   3.658   8.527  0.0823 -0.3945  0.2333
 3965SOL     OW23530   3.160   0.544   2.408 -0.3636 -0.0305  0.1271
 3965SOL    HW123531   3.114   0.519   2.328 -0.7403 -0.3807  0.4512
 3965SOL    HW223532   3.082   0.591   2.441 -0.2281  1.0353 -1.0467
 3966SOL     OW23533   3.942   0.274  11.732  0.3534  0.3984  0.2016
 3966SOL    HW123534   3.870   0.336  11.725  0.2413  0.1577 -0.8439
 3966SOL    HW223535   3.974   0.264  11.642 -2.0010 -0.1035 -0.5615
 3967SOL     OW23536   0.575   2.444   3.323 -0.1215  0.1498  0.3056
 3967SOL    HW123537   0.594   2.357   3.286  0.6447  1.4102 -2.2191
 3967SOL    HW223538   0.612   2.427   3.410  0.9155 -0.1173 -0.1849
 3968SOL     OW23539   2.192   2.900   8.434 -0.1643 -0.0861 -0.0977
 3968SOL    HW123540   2.154   2.969   8.489 -0.3704 -0.8204  0.6872
 3968SOL    HW223541   2.154   2.921   8.349  1.3267 -1.0965 -0.9970
 3969SOL     OW23542   0.470   4.091   6.089  0.1909  0.2650 -0.4207
 3969SOL    HW123543   0.441   4.130   6.007 -0.1309 -1.6986 -1.2472
 3969SOL    HW223544   0.539   4.030   6.064 -0.6871 -1.6014  1.6312
 3970SOL     OW23545   0.696   0.847   2.053  0.2632 -0.3886 -0.4127
 3970SOL    HW123546   0.712   0.769   1.999 -0.8604 -1.2253  0.4327
 3970SOL    HW223547   0.607   0.836   2.088  0.1285  1.8848 -0.0470
 3971SOL     OW23548   4.705   2.078   8.686 -0.6446  0.5348  0.8931
 3971SOL    HW123549   4.639   2.050   8.623  0.0889  0.5501  0.1214
 3971SOL    HW223550   4.703   1.996   8.735  0.8452  1.0677  1.8684
 3972SOL     OW23551   4.175   3.199   5.673 -0.0352 -0.1769  0.2453
 3972SOL    HW123552   4.171   3.166   5.763 -0.4954 -2.3143 -0.5797
 3972SOL    HW223553   4.244   3.263   5.692  0.8014 -0.6182 -1.3418
 3973SOL     OW23554   2.192   0.911   7.563  0.0664 -0.3092  0.0406
 3973SOL    HW123555   2.137   0.987   7.581 -0.9230 -1.2635  0.9573
 3973SOL    HW223556   2.262   0.949   7.509  0.8036 -1.8029 -0.0735
 3974SOL     OW23557   0.629   1.846   9.469  0.1494  0.0355  0.3020
 3974SOL    HW123558   0.650   1.930   9.509 -0.5561  0.6621 -0.6443
 3974SOL    HW223559   0.718   1.822   9.443  0.6956 -0.9498  2.9709
 3975SOL     OW23560   1.560   0.283  16.909 -0.0524  0.0787  0.4258
 3975SOL    HW123561   1.476   0.238  16.900  0.1418  0.4221 -3.4906
 3975SOL    HW223562   1.553   0.317  16.998 -2.2498  0.9654 -0.0859
 3976SOL     OW23563   0.763   4.475   2.262 -0.3966 -0.5698 -0.7343
 3976SOL    HW123564   0.839   4.490   2.319 -3.0590 -1.2301  2.9641
 3976SOL    HW223565   0.813   4.469   2.180  0.8457 -0.3843 -0.0017
 3977SOL     OW23566   0.469   3.160  11.892 -0.4455 -0.7588 -0.1248
 3977SOL    HW123567   0.411   3.091  11.860 -0.1689 -0.9623 -0.1868
 3977SOL    HW223568   0.523   3.120  11.960  0.2975 -1.1697 -0.9511
 3978SOL     OW23569   2.983   4.213  13.601  0.1311 -0.3468  0.5354
 3978SOL    HW123570   2.917   4.152  13.568  1.2826 -0.0338 -2.3413
 3978SOL    HW223571   3.064   4.163  13.612  0.1581 -0.6467 -1.0010
 3979SOL     OW23572   4.609   1.982   5.984  0.6395  0.1537  0.4203
 3979SOL    HW123573   4.555   1.918   5.938 -0.4705 -0.1809  2.2066
 3979SOL    HW223574   4.577   2.058   5.934  0.5385  0.2467  0.6241
 3980SOL     OW23575   4.182   3.476  11.190  0.0644 -0.4788 -0.0992
 3980SOL    HW123576   4.256   3.534  11.172 -0.6563 -0.3146 -2.5307
 3980SOL    HW223577   4.197   3.462  11.283  2.1936 -1.2587 -0.5631
 3981SOL     OW23578   4.263   2.907  16.127 -0.0804 -0.0932  0.0017
 3981SOL    HW123579   4.343   2.863  16.156 -1.0995 -1.1341  1.2341
 3981SOL    HW223580   4.201   2.835  16.133  0.4097 -0.4035  1.3753
 3982SOL     OW23581   3.784   2.250   1.712  0.2935 -0.0019  0.3162
 3982SOL    HW123582   3.711   2.233   1.772 -0.9650  1.5379 -0.7906
 3982SOL    HW223583   3.849   2.235   1.781  2.5377 -1.3200 -2.0873
 3983SOL     OW23584   1.684   0.084   4.729  0.5928  0.4318 -0.4860
 3983SOL    HW123585   1.685   0.141   4.806  1.3695 -2.4567  1.6305
 3983SOL    HW223586   1.711   0.002   4.769 -2.2816  0.3917  1.3931
 3984SOL     OW23587   2.529   3.147   5.479  0.0611 -0.1373  0.0762
 3984SOL    HW123588   2.613   3.183   5.451  0.3475 -1.3974 -0.6418
 3984SOL    HW223589   2.531   3.052   5.472 -1.1483 -0.1258 -0.5032
 3985SOL     OW23590   1.743   1.439  17.688 -0.1878 -0.2421  0.4275
 3985SOL    HW123591   1.761   1.368  17.626  0.4633  1.1427 -0.9798
 3985SOL    HW223592   1.735   1.520  17.638  3.0335 -0.4729 -0.4359
 3986SOL     OW23593   4.736   2.542   5.842  0.2058  0.3216 -0.2539
 3986SOL    HW123594   0.005   2.615   5.780 -1.9504  0.3614 -0.4176
 3986SOL    HW223595   0.053   2.569   5.916  0.9994 -1.0845 -0.3122
 3987SOL     OW23596   0.231   0.417   7.501 -0.2607 -0.1433  0.1529
 3987SOL    HW123597   0.173   0.341   7.494 -2.4738  1.3653  2.0755
 3987SOL    HW223598   0.286   0.381   7.570  0.5386 -0.7960 -0.8258
 3988SOL     OW23599   3.590   4.507   1.944 -0.1835 -0.5484 -1.0020
 3988SOL    HW123600   3.503   4.471   1.958 -0.4822 -0.2584 -2.0639
 3988SOL    HW223601   3.635   4.466   2.018 -2.3442  0.4970  0.8577
 3989SOL     OW23602   4.493   3.898   2.910  0.2755  0.1701 -0.1658
 3989SOL    HW123603   4.471   3.990   2.922 -0.8172  0.2367 -2.5391
 3989SOL    HW223604   4.585   3.911   2.928 -0.5568  2.5347  2.2276
 3990SOL     OW23605   0.383   3.413  11.729 -0.4023  0.2249 -0.0334
 3990SOL    HW123606   0.419   3.348  11.790  1.6650  0.2234 -1.2728
 3990SOL    HW223607   0.332   3.456  11.797 -0.5332  0.6597 -0.4093
 3991SOL     OW23608   0.364   0.079   1.981  0.0360  0.0561 -0.6486
 3991SOL    HW123609   0.388   0.117   1.896  0.6209  0.2211 -0.4098
 3991SOL    HW223610   0.349   4.724   1.961 -0.9139  0.7250 -3.0154
 3992SOL     OW23611   3.393   1.523  11.685 -0.4840 -0.1200  0.4649
 3992SOL    HW123612   3.352   1.465  11.750  2.4080 -3.8535 -1.0047
 3992SOL    HW223613   3.324   1.524  11.619 -1.9233  1.9109  2.0272
 3993SOL     OW23614   2.400   2.588   3.939  0.0923  0.2428 -0.0397
 3993SOL    HW123615   2.310   2.568   3.967 -0.2852  0.2644 -1.2239
 3993SOL    HW223616   2.420   2.515   3.881  2.9140  0.2723  0.8938
 3994SOL     OW23617   0.165   1.231   7.806 -0.8604  0.2411 -0.3298
 3994SOL    HW123618   0.123   1.310   7.837  0.2839  0.0580  1.6348
 3994SOL    HW223619   0.205   1.254   7.722 -2.8646  1.6922 -0.8906
 3995SOL     OW23620   3.912   4.638   5.981 -0.1438  0.3003  0.3099
 3995SOL    HW123621   4.006   4.655   5.976 -0.4484  2.2955  1.2192
 3995SOL    HW223622   3.901   4.654   6.075  1.0013 -0.9600  0.6591
 3996SOL     OW23623   2.182   0.848   9.971 -0.4500 -0.5176 -0.2599
 3996SOL    HW123624   2.236   0.789  10.023  1.3613  1.8030  0.5437
 3996SOL    HW223625   2.096   0.808   9.972 -0.8682  0.4803  2.3124
 3997SOL     OW23626   0.273   2.182   5.242 -0.2102 -0.2708 -0.6193
 3997SOL    HW123627   0.243   2.214   5.327 -1.7274  2.7483 -2.2717
 3997SOL    HW223628   0.360   2.223   5.242 -0.3767  0.0870  0.0748
 3998SOL     OW23629   1.131   2.657   1.268 -0.9691 -0.0678  0.1376
 3998SOL    HW123630   1.036   2.664   1.260 -0.8917  0.4439 -0.3689
 3998SOL    HW223631   1.135   2.678   1.361 -1.4293 -0.2760  0.2022
 3999SOL     OW23632   0.968   3.981   5.757 -0.3947  0.3703  0.2828
 3999SOL    HW123633   0.976   3.905   5.699 -0.1329  2.1817 -2.0543
 3999SOL    HW223634   0.915   4.039   5.701 -1.1476 -1.3252 -0.7858
 4000SOL     OW23635   0.071   2.097  11.533 -0.0851 -0.1704 -0.1166
 4000SOL    HW123636   0.163   2.084  11.556 -0.0440  2.0426  1.0402
 4000SOL    HW223637   0.034   2.028  11.588 -1.0937 -0.6345 -1.3767
 4001SOL     OW23638   0.535   1.771   7.519  0.0340 -0.0237  0.1742
 4001SOL    HW123639   0.487   1.760   7.437 -0.9770  0.3819  0.7109
 4001SOL    HW223640   0.566   1.681   7.523  0.1625 -0.0722 -1.5839
 4002SOL     OW23641   2.408   3.771   7.129  0.2751  0.9653  0.1506
 4002SOL    HW123642   2.447   3.842   7.179  1.5166  1.0509 -0.9299
 4002SOL    HW223643   2.380   3.707   7.195  1.3536 -0.5327 -0.8323
 4003SOL     OW23644   1.816   2.290   4.603  0.2465 -0.0967 -0.2238
 4003SOL    HW123645   1.728   2.274   4.638  0.6893 -1.6476  0.1815
 4003SOL    HW223646   1.821   2.232   4.527  0.9134  0.6455 -0.7458
 4004SOL     OW23647   2.526   4.589   6.713  0.2167  0.1212  0.5578
 4004SOL    HW123648   2.571   4.531   6.774 -0.4597 -2.1117 -1.0670
 4004SOL    HW223649   2.456   4.626   6.766 -1.1216  0.1381 -1.2284
 4005SOL     OW23650   1.866   1.444   2.946 -0.1463 -0.0998  0.1947
 4005SOL    HW123651   1.837   1.531   2.917 -0.7638 -0.8133 -1.3109
 4005SOL    HW223652   1.837   1.387   2.875 -1.1305 -0.4364  0.8558
 4006SOL     OW23653   0.994   0.885   1.129  0.2866 -0.0155 -0.0168
 4006SOL    HW123654   1.048   0.922   1.199 -0.3510  1.9869 -0.5717
 4006SOL    HW223655   0.933   0.959   1.127 -0.5240 -0.6920 -0.3681
 4007SOL     OW23656   4.253   1.343   9.515  0.7026  0.3440  0.1558
 4007SOL    HW123657   4.196   1.373   9.444 -0.9965 -2.5208  0.2897
 4007SOL    HW223658   4.325   1.403   9.498  1.1489 -0.4882 -0.8291
 4008SOL     OW23659   0.157   3.257   7.113  0.2670  0.7000  0.3955
 4008SOL    HW123660   0.104   3.246   7.191  1.1542 -2.6868  0.4984
 4008SOL    HW223661   0.208   3.336   7.132  1.6586 -0.1801  0.3052
 4009SOL     OW23662   3.890   4.251   7.422 -0.1495 -0.4322  0.1894
 4009SOL    HW123663   3.849   4.335   7.403 -0.3488 -1.0168 -1.8993
 4009SOL    HW223664   3.849   4.230   7.506 -2.4657  2.1227 -0.3391
 4010SOL     OW23665   2.588   1.381   1.321 -0.5614 -0.3084  0.0879
 4010SOL    HW123666   2.585   1.351   1.230 -1.2433  0.3749 -0.1167
 4010SOL    HW223667   2.514   1.442   1.325  1.2048  1.6413  2.7330
 4011SOL     OW23668   3.579   3.541   1.791 -0.0568  0.1668  0.1766
 4011SOL    HW123669   3.552   3.472   1.851  1.5488  0.4194  1.1852
 4011SOL    HW223670   3.652   3.499   1.746 -2.2699  0.9932 -4.1762
 4012SOL     OW23671   1.644   0.305   5.411 -0.3550  0.2946  0.0219
 4012SOL    HW123672   1.569   0.310   5.351 -0.2135  0.2625 -0.1584
 4012SOL    HW223673   1.706   0.368   5.376 -0.2596  0.5866  0.7238
 4013SOL     OW23674   0.352   0.435  11.384  0.4349  0.2226 -0.1964
 4013SOL    HW123675   0.405   0.370  11.429  0.0367  0.5926  0.7879
 4013SOL    HW223676   0.422   0.460  11.323  1.6098  2.9657  2.2712
 4014SOL     OW23677   2.583   1.501   5.392 -0.2858 -0.5228 -0.5366
 4014SOL    HW123678   2.599   1.456   5.475 -2.3820 -0.1425  0.0580
 4014SOL    HW223679   2.637   1.580   5.395 -1.7669  0.4558  0.6950
 4015SOL     OW23680   2.278   3.881   1.687  0.4047 -0.0800  0.6357
 4015SOL    HW123681   2.330   3.910   1.612 -1.8805  3.2147  0.3254
 4015SOL    HW223682   2.250   3.968   1.717  1.4259  1.3575 -2.5979
 4016SOL     OW23683   1.774   2.564   3.664  0.2781  0.0436  0.0922
 4016SOL    HW123684   1.703   2.577   3.600  0.6691 -0.0960 -0.3701
 4016SOL    HW223685   1.769   2.650   3.704 -0.3981  1.8174 -3.7743
 4017SOL     OW23686   3.543   1.836   2.179 -0.4161  0.2564  0.2903
 4017SOL    HW123687   3.532   1.778   2.103  0.2358  1.7024 -0.9110
 4017SOL    HW223688   3.635   1.820   2.202 -0.5832 -0.1295  0.6743
 4018SOL     OW23689   1.958   2.696  16.632 -0.1417 -0.1911  0.4388
 4018SOL    HW123690   1.887   2.647  16.672  0.1991 -1.1112 -0.0775
 4018SOL    HW223691   1.918   2.737  16.555  0.1323  0.0759  0.4390
 4019SOL     OW23692   2.161   3.376   8.800  0.2633  0.7198  0.2881
 4019SOL    HW123693   2.238   3.381   8.743  0.3374 -0.5784  0.2665
 4019SOL    HW223694   2.110   3.347   8.724 -0.6704 -0.3556  1.3345
 4020SOL     OW23695   1.308   0.950   2.304  0.0448  0.6179 -0.8071
 4020SOL    HW123696   1.294   1.017   2.371  0.7902  0.0019 -0.0397
 4020SOL    HW223697   1.377   0.986   2.248  2.1315 -1.8677  0.1430
 4021SOL     OW23698   4.159   4.572  13.438 -0.1494  0.2829 -0.1928
 4021SOL    HW123699   4.140   4.643  13.376  1.8665  0.6921 -0.3162
 4021SOL    HW223700   4.070   4.548  13.462  0.7743 -2.4170  0.4268
 4022SOL     OW23701   3.435   3.751   6.241 -0.1012  0.3459 -1.0491
 4022SOL    HW123702   3.460   3.728   6.330  1.4309 -2.4880 -2.2465
 4022SOL    HW223703   3.408   3.663   6.214 -0.4065  0.0820  0.1285
 4023SOL     OW23704   1.852   0.687  12.365  0.6600 -0.1152 -0.0347
 4023SOL    HW123705   1.795   0.736  12.424 -0.4767 -0.7751 -0.5874
 4023SOL    HW223706   1.912   0.756  12.333 -0.7786  0.3122 -1.8156
 4024SOL     OW23707   0.230   4.207   5.624 -0.3653  0.5601 -0.1297
 4024SOL    HW123708   0.246   4.264   5.548 -1.3750 -1.9309 -2.2318
 4024SOL    HW223709   0.141   4.232   5.648  0.6118  2.3635  1.5695
 4025SOL     OW23710   2.231   0.175  17.660 -0.1827  0.1209  0.0003
 4025SOL    HW123711   2.165   0.228  17.615 -0.9641  2.0107  3.3868
 4025SOL    HW223712   2.294   0.198  17.591 -0.5791 -1.0388 -0.7564
 4026SOL     OW23713   4.412   3.812   6.419 -0.6938  0.2025  0.0205
 4026SOL    HW123714   4.402   3.879   6.486  0.9489 -1.4459  1.9205
 4026SOL    HW223715   4.483   3.854   6.371 -0.6771 -0.4081 -0.4975
 4027SOL     OW23716   0.435   2.083  14.552  0.2709 -0.5240 -0.1375
 4027SOL    HW123717   0.340   2.084  14.544  0.2645  0.1751 -0.0157
 4027SOL    HW223718   0.450   2.146  14.624 -0.5113  0.4301 -0.8083
 4028SOL     OW23719   1.822   3.959   4.915 -0.2703  0.3735 -0.2323
 4028SOL    HW123720   1.810   3.885   4.975  0.4856  0.5794  0.1781
 4028SOL    HW223721   1.900   4.006   4.944 -0.5339  2.0145 -2.1436
 4029SOL     OW23722   0.745   0.069   0.009  0.3488 -0.1220  0.4813
 4029SOL    HW123723   0.838   0.054  17.739  0.0503 -1.2279 -0.2582
 4029SOL    HW223724   0.738   0.012   0.086 -1.2728  0.6615  0.9267
 4030SOL     OW23725   2.764   1.295   1.989 -0.0659 -0.0628  0.4279
 4030SOL    HW123726   2.790   1.371   1.937 -1.4679  0.6278  0.7271
 4030SOL    HW223727   2.809   1.307   2.073  1.7777 -0.1466 -0.5336
 4031SOL     OW23728   3.929   0.931   2.918 -0.0802  0.3032  0.1335
 4031SOL    HW123729   3.892   0.843   2.929  1.7247 -0.3724  0.8819
 4031SOL    HW223730   3.937   0.933   2.822  0.2352  1.2175  0.1835
 4032SOL     OW23731   1.563   0.574  14.888  0.2678  0.2938 -0.2017
 4032SOL    HW123732   1.469   0.579  14.870 -0.3056 -1.3057  2.4783
 4032SOL    HW223733   1.602   0.620  14.813 -0.1706  2.9233  1.1707
 4033SOL     OW23734   3.482   1.653   7.199  0.3192  0.3169  0.3539
 4033SOL    HW123735   3.525   1.570   7.180  1.3954  0.8878  0.2860
 4033SOL    HW223736   3.394   1.634   7.165  0.2618  0.1478  0.6006
 4034SOL     OW23737   0.221   2.599   3.178  0.2610  0.1640  0.2627
 4034SOL    HW123738   0.148   2.648   3.138  0.5088 -0.6706 -1.2375
 4034SOL    HW223739   0.255   2.543   3.108  0.0454  2.0243 -1.3280
 4035SOL     OW23740   2.072   0.414  14.691  0.1494 -0.9303 -0.0041
 4035SOL    HW123741   2.091   0.333  14.642 -2.6989 -1.5005 -0.1548
 4035SOL    HW223742   2.102   0.490  14.642 -0.1019 -1.5157 -1.0719
 4036SOL     OW23743   2.553   1.891  11.368  0.1950  0.6681  0.3946
 4036SOL    HW123744   2.512   1.805  11.358  2.7671 -0.5215  0.0947
 4036SOL    HW223745   2.489   1.951  11.330  0.6673  1.2704  0.5452
 4037SOL     OW23746   4.030   1.818   2.350 -0.3999 -0.3464  0.0783
 4037SOL    HW123747   4.074   1.863   2.422  0.1166 -2.0374  0.8255
 4037SOL    HW223748   4.097   1.814   2.281  1.0137  1.2533  1.3487
 4038SOL     OW23749   4.523   3.338   3.432  0.9037  0.1384  0.3179
 4038SOL    HW123750   4.430   3.351   3.409  0.3956 -3.1111  0.5810
 4038SOL    HW223751   4.554   3.300   3.350  0.6721 -0.6245  0.5830
 4039SOL     OW23752   0.409   1.885  13.428 -0.1796  0.6451  0.0099
 4039SOL    HW123753   0.387   1.978  13.432 -0.9642  0.5040 -1.3002
 4039SOL    HW223754   0.475   1.880  13.358 -0.8858 -0.2758 -0.5857
 4040SOL     OW23755   3.802   1.350   6.346  1.1616  0.1774 -0.6659
 4040SOL    HW123756   3.847   1.280   6.393  0.8454 -0.2830 -1.0566
 4040SOL    HW223757   3.717   1.309   6.331  1.3475 -0.4382 -0.0410
 4041SOL     OW23758   2.065   1.591  15.242  0.3408 -0.4040  0.2151
 4041SOL    HW123759   2.086   1.504  15.207  2.3062 -0.7472  2.2794
 4041SOL    HW223760   2.153   1.615  15.272  0.6442 -0.2783 -0.7586
 4042SOL     OW23761   3.903   3.699  14.855  0.8922  0.1573 -0.1490
 4042SOL    HW123762   3.873   3.682  14.944  0.1335  0.7649 -0.2895
 4042SOL    HW223763   3.830   3.755  14.828  0.0557 -0.7392  0.2642
 4043SOL     OW23764   2.966   2.636   5.949  0.0048  0.1026 -0.0183
 4043SOL    HW123765   2.958   2.555   5.998  0.4998  0.3884  0.5298
 4043SOL    HW223766   2.981   2.697   6.021 -1.2750  0.3288  0.0611
 4044SOL     OW23767   3.153   0.621   8.175 -0.1648  0.1122  0.1651
 4044SOL    HW123768   3.189   0.708   8.190  1.2003 -0.1945 -1.3806
 4044SOL    HW223769   3.211   0.593   8.104 -0.2772 -1.1636  0.5643
 4045SOL     OW23770   1.336   3.051  10.365  1.1867  0.3240 -0.2988
 4045SOL    HW123771   1.259   3.007  10.402  0.4623 -0.4295 -2.7392
 4045SOL    HW223772   1.398   2.982  10.391 -0.6014 -1.6428 -1.2769
 4046SOL     OW23773   2.160   1.026  10.923 -0.0368 -0.0563  0.2136
 4046SOL    HW123774   2.255   1.031  10.915  0.1804  0.0743  2.7034
 4046SOL    HW223775   2.140   1.079  10.846  3.0457 -1.9637 -1.9030
 4047SOL     OW23776   2.486   1.964   5.845 -0.1565 -0.1515  0.3501
 4047SOL    HW123777   2.511   2.031   5.909  1.6579  0.5580 -1.1060
 4047SOL    HW223778   2.402   1.950   5.890  0.4184 -0.0798  1.4526
 4048SOL     OW23779   1.091   0.315   5.509  0.4780 -0.7935 -0.0934
 4048SOL    HW123780   1.150   0.240   5.519  1.5524 -0.3506 -3.1688
 4048SOL    HW223781   1.029   0.304   5.581 -2.3368  0.5374 -2.2854
 4049SOL     OW23782   1.695   2.791   3.799 -0.9236 -0.6948 -0.6028
 4049SOL    HW123783   1.649   2.827   3.875 -1.6979 -1.0069 -0.9191
 4049SOL    HW223784   1.651   2.839   3.729  0.3423  0.9388 -0.2859
 4050SOL     OW23785   2.463   1.160  16.038 -0.4587 -0.0990  0.1605
 4050SOL    HW123786   2.425   1.081  16.001 -0.4888 -0.4797  1.0110
 4050SOL    HW223787   2.435   1.163  16.130 -3.9820 -1.1866 -0.9124
 4051SOL     OW23788   2.819   2.739   1.320  0.4084 -0.4058 -0.3213
 4051SOL    HW123789   2.729   2.768   1.339  0.6068  0.2745 -0.4122
 4051SOL    HW223790   2.870   2.817   1.339  0.4972 -0.6575  0.4393
 4052SOL     OW23791   2.689   3.111   4.727 -0.3713  0.0433 -0.6414
 4052SOL    HW123792   2.693   3.143   4.817  0.5591 -0.4983 -0.4873
 4052SOL    HW223793   2.595   3.096   4.726 -0.0032 -2.2247 -1.8285
 4053SOL     OW23794   3.157   3.447   2.438 -0.6075 -0.1762  0.2079
 4053SOL    HW123795   3.174   3.541   2.450 -2.1857 -0.0117  1.0941
 4053SOL    HW223796   3.132   3.420   2.526 -1.4821  0.2522  0.0907
 4054SOL     OW23797   1.072   3.588   6.827 -0.4743  0.0454  0.1448
 4054SOL    HW123798   0.980   3.613   6.820  0.2132  2.1066 -1.7252
 4054SOL    HW223799   1.071   3.501   6.788 -0.3311 -0.3323  0.9844
 4055SOL     OW23800   4.649   3.736   3.563  0.1052 -0.0426 -0.0141
 4055SOL    HW123801   4.673   3.737   3.471 -0.9185 -1.2822 -0.3013
 4055SOL    HW223802   4.556   3.719   3.548  0.3866 -1.0404 -0.5957
 4056SOL     OW23803   0.181   4.048   6.263 -0.4597  0.2530 -0.2343
 4056SOL    HW123804   0.211   4.025   6.350 -2.6673  2.4890  1.1355
 4056SOL    HW223805   0.186   3.965   6.216  1.0279 -0.3765  1.0337
 4057SOL     OW23806   0.664   2.865   4.560  0.5213 -0.5025  0.0259
 4057SOL    HW123807   0.616   2.913   4.493  0.3906 -2.6303 -1.3957
 4057SOL    HW223808   0.635   2.777   4.536  0.9862 -0.6121 -0.1315
 4058SOL     OW23809   1.398   2.932   0.244 -0.4033  0.3014 -0.2173
 4058SOL    HW123810   1.413   2.874   0.318 -0.7534 -0.9938 -1.1442
 4058SOL    HW223811   1.306   2.953   0.262 -0.5340 -0.1382 -0.3747
 4059SOL     OW23812   2.657   0.281   8.441 -0.2044  0.3847  0.0954
 4059SOL    HW123813   2.666   0.328   8.358 -1.9622  1.8757  0.7524
 4059SOL    HW223814   2.638   0.199   8.395 -1.0491  1.1922 -0.9904
 4060SOL     OW23815   3.745   3.122   3.810  0.7475  0.0461 -0.2426
 4060SOL    HW123816   3.692   3.047   3.786 -1.6715  0.8093  2.6867
 4060SOL    HW223817   3.708   3.134   3.898  0.5704 -0.1502 -0.2915
 4061SOL     OW23818   4.260   2.710   5.294  0.4151 -0.0789  0.3781
 4061SOL    HW123819   4.257   2.617   5.273 -0.4975  0.0336  0.0321
 4061SOL    HW223820   4.344   2.720   5.340  0.0053 -1.4117  1.3971
 4062SOL     OW23821   3.731   2.374   8.991 -0.5817  0.0581  0.1205
 4062SOL    HW123822   3.798   2.328   8.940 -1.0638 -1.6922  1.0777
 4062SOL    HW223823   3.652   2.334   8.955  0.0147  0.3905 -1.5621
 4063SOL     OW23824   4.669   0.639  10.899 -0.0162 -0.1249  1.0476
 4063SOL    HW123825   0.004   0.701  10.888  0.8544 -1.6944 -1.9965
 4063SOL    HW223826   4.652   0.650  10.993 -0.3545 -0.4147  1.0230
 4064SOL     OW23827   0.527   4.722  14.574 -0.3253 -0.0699 -0.3983
 4064SOL    HW123828   0.489   4.639  14.543 -0.7297 -0.4016  0.9832
 4064SOL    HW223829   0.497   0.047  14.507 -0.3758 -0.2245 -0.5187
 4065SOL     OW23830   0.480   1.186  15.602  0.1315 -0.3280 -0.1849
 4065SOL    HW123831   0.493   1.259  15.542 -0.7285  0.9660  1.2250
 4065SOL    HW223832   0.427   1.121  15.555 -0.0033 -1.1307  1.0800
 4066SOL     OW23833   1.233   1.932   5.129 -0.4695 -0.0223  0.1099
 4066SOL    HW123834   1.216   1.941   5.223  1.1634  1.5995  0.2517
 4066SOL    HW223835   1.152   1.899   5.091 -0.2453  0.1035 -0.4736
 4067SOL     OW23836   1.749   0.117   8.552  0.0180  0.0572  0.7918
 4067SOL    HW123837   1.776   0.046   8.610  2.4242  0.1401 -0.2365
 4067SOL    HW223838   1.758   0.079   8.464 -0.2185 -0.0054  0.7929
 4068SOL     OW23839   1.262   3.676  11.227  0.0136 -0.0185  0.0510
 4068SOL    HW123840   1.313   3.700  11.149 -2.7897 -1.4805 -2.2512
 4068SOL    HW223841   1.314   3.602  11.258  1.7868  1.8823  1.6792
 4069SOL     OW23842   4.540   0.853   7.448 -0.0390 -0.2567  0.2974
 4069SOL    HW123843   4.612   0.914   7.430  0.5300 -0.6907  1.1051
 4069SOL    HW223844   4.563   0.795   7.375  1.3485  0.0024  0.5224
 4070SOL     OW23845   3.462   4.704   3.737  0.0955 -0.0582 -0.3350
 4070SOL    HW123846   3.412   4.687   3.657 -1.6339  1.6431  0.3989
 4070SOL    HW223847   3.550   4.721   3.703  0.4069 -0.8638  0.0793
 4071SOL     OW23848   1.580   2.157   1.912  0.8938  0.0136 -0.2867
 4071SOL    HW123849   1.504   2.212   1.895 -1.5847 -2.5292  2.7213
 4071SOL    HW223850   1.597   2.132   1.822  2.4913 -1.8636  0.5442
 4072SOL     OW23851   1.038   1.529   6.968 -0.3629  0.0768 -0.6059
 4072SOL    HW123852   0.975   1.507   7.036 -1.2941  2.7179 -0.6482
 4072SOL    HW223853   1.114   1.475   6.991 -0.5145 -0.4783 -1.4049
 4073SOL     OW23854   2.990   3.951  11.362  0.0771 -0.3426 -0.4478
 4073SOL    HW123855   2.914   3.913  11.406 -0.2113 -0.6343 -1.1936
 4073SOL    HW223856   3.043   3.980  11.436 -0.8162 -1.6590  0.7046
 4074SOL     OW23857   3.950   0.759  12.885  0.6822 -0.2889 -0.1619
 4074SOL    HW123858   3.930   0.723  12.799  0.8181 -0.2064 -0.2295
 4074SOL    HW223859   3.927   0.682  12.937 -0.7456  0.6677  0.6107
 4075SOL     OW23860   1.224   1.677   9.160 -0.4471 -0.9122  0.3354
 4075SOL    HW123861   1.221   1.753   9.217 -1.0409  1.8764 -3.4044
 4075SOL    HW223862   1.139   1.638   9.181 -0.3711  0.5834  3.3440
 4076SOL     OW23863   0.973   4.657   5.638  1.0434 -0.1756 -0.4353
 4076SOL    HW123864   0.975   4.576   5.587 -0.3133 -0.2115 -0.4322
 4076SOL    HW223865   0.937   4.627   5.721 -0.8464  1.7852 -0.5440
 4077SOL     OW23866   3.412   4.640   2.557 -0.5605  0.3040  0.0238
 4077SOL    HW123867   3.406   4.553   2.518  0.9116  0.1405  0.1633
 4077SOL    HW223868   3.318   4.645   2.574 -0.9143 -1.3086 -1.3690
 4078SOL     OW23869   0.462   4.622   2.419  0.4234 -0.7377 -0.1503
 4078SOL    HW123870   0.384   4.647   2.369 -0.9346 -3.1047  0.7714
 4078SOL    HW223871   0.514   4.700   2.402 -1.7626  0.2496 -2.2647
 4079SOL     OW23872   2.075   4.087   8.564 -0.6955  0.4288 -0.4363
 4079SOL    HW123873   2.094   4.180   8.575  1.4400  0.0198 -0.6711
 4079SOL    HW223874   2.089   4.056   8.654 -2.5052  2.6127  0.6028
 4080SOL     OW23875   0.069   1.161   2.726  0.5251  0.4449  0.4333
 4080SOL    HW123876   0.037   1.112   2.802  3.0333  0.5294  1.5433
 4080SOL    HW223877   0.128   1.215   2.779  0.1690 -2.1073  3.4146
 4081SOL     OW23878   1.839   1.036   3.918  0.2784 -0.3587  0.4719
 4081SOL    HW123879   1.856   0.968   3.853 -2.4672 -0.4562 -0.1407
 4081SOL    HW223880   1.888   0.998   3.990 -0.4908 -2.8192 -0.3177
 4082SOL     OW23881   1.698   0.492   3.650 -0.0014  0.3195 -0.4493
 4082SOL    HW123882   1.616   0.460   3.688 -2.0236  2.4102 -3.0737
 4082SOL    HW223883   1.677   0.582   3.626  0.4676  0.2805 -0.9749
 4083SOL     OW23884   3.883   0.943   4.525 -0.1563  0.3515 -0.3435
 4083SOL    HW123885   3.811   0.913   4.581  0.9066  0.4132  1.0381
 4083SOL    HW223886   3.949   0.961   4.591  0.7694 -0.5451 -1.0345
 4084SOL     OW23887   0.940   0.229   7.378  0.2085  0.6884 -0.2837
 4084SOL    HW123888   0.931   0.282   7.298 -1.9725  0.2927 -0.3081
 4084SOL    HW223889   1.035   0.227   7.386  0.3927  1.8541 -2.1340
 4085SOL     OW23890   0.517   3.342   0.606 -0.1407 -0.6990 -0.1003
 4085SOL    HW123891   0.493   3.297   0.525 -0.9504 -0.4219 -0.0186
 4085SOL    HW223892   0.487   3.432   0.592 -0.9850 -0.5577  2.4994
 4086SOL     OW23893   0.622   3.949  17.353 -0.2682  0.1831 -0.4218
 4086SOL    HW123894   0.571   4.028  17.336  0.7433  0.3651 -2.6766
 4086SOL    HW223895   0.576   3.878  17.309 -1.3790  0.7973 -0.2440
 4087SOL     OW23896   4.699   1.873   2.006 -0.1431  0.0797  0.3822
 4087SOL    HW123897   0.017   1.922   2.068  0.0871 -0.0793  0.3042
 4087SOL    HW223898   4.654   1.814   2.067  1.0115  2.1458  3.2591
 4088SOL     OW23899   0.744   2.143  14.634  0.2505 -0.2270 -0.5395
 4088SOL    HW123900   0.725   2.160  14.726 -0.0194 -0.3732 -0.5676
 4088SOL    HW223901   0.780   2.056  14.651  1.0257  0.3577  0.8299
 4089SOL     OW23902   3.389   1.705   8.223 -0.2252 -0.0361  0.1240
 4089SOL    HW123903   3.308   1.719   8.271  0.3040  0.6895  0.8188
 4089SOL    HW223904   3.365   1.646   8.152  0.5233 -1.7840  1.3128
 4090SOL     OW23905   2.536   2.117   8.341  0.2743  0.1609  0.1116
 4090SOL    HW123906   2.590   2.038   8.335  0.7326  0.4405  0.6406
 4090SOL    HW223907   2.556   2.150   8.428 -0.7713 -1.3200  0.9303
 4091SOL     OW23908   0.537   2.490  10.420  0.1271 -0.2242  0.9055
 4091SOL    HW123909   0.449   2.495  10.458 -0.2934  2.2576 -0.4248
 4091SOL    HW223910   0.542   2.394  10.428 -0.4751 -0.2482  0.9937
 4092SOL     OW23911   4.520   2.307   3.512  0.0432 -0.0653  0.3120
 4092SOL    HW123912   4.435   2.271   3.535 -0.0213  0.0080  0.1862
 4092SOL    HW223913   4.559   2.326   3.597 -1.1278  1.1588  0.5625
 4093SOL     OW23914   3.981   0.194   9.168  0.6836 -0.3099  0.1465
 4093SOL    HW123915   3.941   0.143   9.098 -3.0485  2.8253 -0.0577
 4093SOL    HW223916   3.988   0.132   9.241 -1.5421 -0.2144  0.4493
 4094SOL     OW23917   3.895   1.260   5.844  0.1203  0.2344 -0.5035
 4094SOL    HW123918   3.957   1.228   5.910  1.8571  1.7451 -1.3701
 4094SOL    HW223919   3.954   1.300   5.780  1.5346 -0.5237  0.3248
 4095SOL     OW23920   4.678   2.458   0.969 -0.2408  0.0901  0.2746
 4095SOL    HW123921   0.023   2.500   0.943 -0.6515  0.6775 -0.0813
 4095SOL    HW223922   4.619   2.478   0.896 -2.5044  2.0829  2.6921
 4096SOL     OW23923   0.647   3.440   5.807  0.1531  0.3628  0.5645
 4096SOL    HW123924   0.723   3.498   5.812  0.5999 -0.0284 -2.0909
 4096SOL    HW223925   0.604   3.499   5.745 -0.5023 -0.5247  0.1753
 4097SOL     OW23926   2.516   2.983  14.986  0.4848  0.1565  0.3900
 4097SOL    HW123927   2.610   2.967  14.989  0.4268 -0.6956 -2.1413
 4097SOL    HW223928   2.486   2.944  15.068 -0.3494  0.2525  0.1310
 4098SOL     OW23929   1.172   4.704  16.465  0.3039 -0.3710  0.5472
 4098SOL    HW123930   1.124   4.622  16.477 -0.7282  0.4311  2.0175
 4098SOL    HW223931   1.190   4.703  16.371 -0.3038  1.9751  0.3959
 4099SOL     OW23932   2.436   1.346   7.091  0.5485 -0.5514 -0.6064
 4099SOL    HW123933   2.387   1.412   7.141  0.7634  0.7733 -2.1658
 4099SOL    HW223934   2.375   1.311   7.026 -0.8925  0.9806 -0.0582
 4100SOL     OW23935   1.346   0.574   7.566  0.0536  0.0625 -0.4769
 4100SOL    HW123936   1.406   0.601   7.635  0.0983 -0.3617 -0.3476
 4100SOL    HW223937   1.372   0.615   7.483  1.7880 -1.5454 -0.7234
 4101SOL     OW23938   3.971   2.534  12.552  0.1151 -0.4032  0.1292
 4101SOL    HW123939   3.915   2.590  12.499  1.5581 -0.3406 -1.3178
 4101SOL    HW223940   3.903   2.480  12.592 -0.8231  1.2548  0.7755
 4102SOL     OW23941   0.522   1.097   2.253 -0.0610 -0.1457 -0.2264
 4102SOL    HW123942   0.445   1.153   2.248  0.6635  0.9537  1.2594
 4102SOL    HW223943   0.487   1.021   2.206  1.6597  0.2040 -2.0897
 4103SOL     OW23944   3.524   3.080   9.063 -0.2275  0.1805 -0.3013
 4103SOL    HW123945   3.505   3.160   9.013  0.4257  0.5989  0.1044
 4103SOL    HW223946   3.442   3.032   9.067 -0.2829  0.5251  2.4217
 4104SOL     OW23947   1.207   0.758   4.665 -0.4454  0.3432  0.5626
 4104SOL    HW123948   1.147   0.705   4.613  0.6521  1.3538 -1.7209
 4104SOL    HW223949   1.219   0.832   4.606  0.8228 -0.3292 -0.0305
 4105SOL     OW23950   3.777   3.339   4.480 -0.3938  0.2029  0.0950
 4105SOL    HW123951   3.784   3.427   4.443  0.7053 -0.2626 -0.7962
 4105SOL    HW223952   3.869   3.315   4.486 -1.2215 -3.5521 -2.3348
 4106SOL     OW23953   4.427   1.091   4.938 -0.3256  0.1660  0.2298
 4106SOL    HW123954   4.395   1.182   4.938  2.1322  1.0360 -0.5798
 4106SOL    HW223955   4.493   1.107   4.870  0.9965  0.6492  1.6486
 4107SOL     OW23956   3.593   2.703   5.273  0.1959  0.6557  0.0938
 4107SOL    HW123957   3.605   2.610   5.256  0.1072  0.7890 -0.7467
 4107SOL    HW223958   3.516   2.709   5.328 -0.4031 -0.2348 -0.6510
 4108SOL     OW23959   1.858   0.147   8.894  0.1812 -0.1189 -0.0840
 4108SOL    HW123960   1.895   0.072   8.849  1.3933  0.0673  0.6136
 4108SOL    HW223961   1.878   0.218   8.832 -1.0395 -0.6174 -1.0451
 4109SOL     OW23962   1.047   0.373   3.850 -0.5189 -0.2037  0.0769
 4109SOL    HW123963   0.999   0.338   3.924 -0.4601  1.1196  0.7482
 4109SOL    HW223964   1.084   0.292   3.815 -0.8411 -0.8673  1.2577
 4110SOL     OW23965   3.548   4.060   6.604 -0.6347 -0.2236 -0.6313
 4110SOL    HW123966   3.535   4.116   6.680 -1.2169 -1.9503  0.5396
 4110SOL    HW223967   3.463   4.018   6.596 -0.7466 -0.4865  2.2073
 4111SOL     OW23968   4.107   3.533  15.983  0.4459  0.0575  0.2650
 4111SOL    HW123969   4.053   3.503  15.910  1.5315 -0.5218 -0.2958
 4111SOL    HW223970   4.118   3.450  16.030 -1.4455 -0.4140 -0.1185
 4112SOL     OW23971   0.260   0.219   3.513 -0.0983 -0.1685 -0.3902
 4112SOL    HW123972   0.289   0.281   3.446 -2.9122  0.9780 -0.5524
 4112SOL    HW223973   0.202   0.268   3.571  0.0129 -1.0688  0.4755
 4113SOL     OW23974   2.588   4.118  10.822  0.2916  0.2402 -0.1110
 4113SOL    HW123975   2.635   4.035  10.811  2.2928  1.3863 -0.1856
 4113SOL    HW223976   2.661   4.167  10.859 -0.2879  0.2724  0.9812
 4114SOL     OW23977   0.068   0.659   5.087 -0.3848  0.3355  0.5740
 4114SOL    HW123978   0.112   0.744   5.085  1.4134 -0.6201 -0.5810
 4114SOL    HW223979   0.031   0.661   5.175 -2.2562  2.7527 -0.2340
 4115SOL     OW23980   3.666   0.038   5.947 -0.0378 -0.0119 -0.4534
 4115SOL    HW123981   3.687   0.078   5.863  0.5897 -0.6872 -0.6147
 4115SOL    HW223982   3.743   4.718   5.955  0.4754  1.1167  2.5375
 4116SOL     OW23983   4.435   2.825   7.241  0.4599 -0.5788  0.6685
 4116SOL    HW123984   4.506   2.792   7.297  0.7911 -0.8606  0.0862
 4116SOL    HW223985   4.446   2.914   7.273  1.0751 -0.0659 -0.9289
 4117SOL     OW23986   0.140   4.703  14.708  0.1306  0.2680 -0.3449
 4117SOL    HW123987   0.054   4.711  14.749  0.1732 -1.0817  0.0250
 4117SOL    HW223988   0.133   4.610  14.685 -0.5679 -0.2657  2.0564
 4118SOL     OW23989   4.097   1.290   7.841  0.6706 -0.1987  0.0514
 4118SOL    HW123990   4.109   1.236   7.763  0.1383  1.1138 -0.9292
 4118SOL    HW223991   4.174   1.347   7.842 -0.9995  1.9836  2.8811
 4119SOL     OW23992   2.395   0.046   3.216 -0.8604 -0.2793  1.1960
 4119SOL    HW123993   2.345   0.022   3.137  0.1684 -1.1308  0.7961
 4119SOL    HW223994   2.478   0.004   3.192 -1.3298 -0.3496 -0.3219
 4120SOL     OW23995   2.206   1.164  10.486  0.1498 -0.4361  0.5861
 4120SOL    HW123996   2.222   1.185  10.578 -1.5650  0.6301  0.6419
 4120SOL    HW223997   2.193   1.252  10.452 -1.6836 -0.6272  0.7642
 4121SOL     OW23998   1.710   3.632   6.819  0.5587 -0.6549 -0.5554
 4121SOL    HW123999   1.617   3.619   6.804  0.1699  1.1177  0.3992
 4121SOL    HW224000   1.740   3.713   6.779 -0.6907 -0.0103 -0.1738
 4122SOL     OW24001   2.481   4.273   3.809  0.2403  0.6253  0.7721
 4122SOL    HW124002   2.572   4.274   3.838  0.2220  1.1495  0.8101
 4122SOL    HW224003   2.489   4.304   3.719 -1.2115  0.4062  0.5663
 4123SOL     OW24004   3.995   3.016   8.898  0.1700  0.0543 -0.1297
 4123SOL    HW124005   3.939   3.052   8.828 -2.2646  0.8422  2.2378
 4123SOL    HW224006   3.924   3.004   8.961 -0.9689 -0.6496 -1.5299
 4124SOL     OW24007   4.079   2.350  16.799 -0.7725  0.1723 -0.0671
 4124SOL    HW124008   3.992   2.318  16.775 -1.0137  1.6080 -1.0604
 4124SOL    HW224009   4.105   2.385  16.713 -0.7370 -2.7699 -1.2681
 4125SOL     OW24010   0.605   0.796  10.629  0.9969  0.4712  0.1129
 4125SOL    HW124011   0.640   0.710  10.606 -1.0251 -0.6083  1.0783
 4125SOL    HW224012   0.522   0.763  10.664  0.3427  0.6819 -1.2666
 4126SOL     OW24013   3.013   3.605   3.453  0.2487 -0.3424 -0.3034
 4126SOL    HW124014   3.038   3.690   3.490 -1.0291 -0.7205  1.4392
 4126SOL    HW224015   3.001   3.553   3.533  0.3453 -1.1578 -0.8262
 4127SOL     OW24016   3.601   0.125  16.435  0.0761  0.7028 -0.2528
 4127SOL    HW124017   3.532   0.179  16.474 -0.4580  0.0046 -0.2275
 4127SOL    HW224018   3.556   0.040  16.435 -0.9228  1.2293 -2.1288
 4128SOL     OW24019   3.041   1.446  12.003  0.0982 -0.1758 -0.0797
 4128SOL    HW124020   3.120   1.500  12.008  0.1858 -0.2010 -1.1448
 4128SOL    HW224021   2.993   1.499  11.939 -0.5326 -0.8136 -0.1272
 4129SOL     OW24022   1.902   1.613   4.545 -0.4917 -0.5512  0.4407
 4129SOL    HW124023   1.996   1.594   4.554 -0.4640 -1.1441 -1.0147
 4129SOL    HW224024   1.893   1.704   4.575 -0.0437  0.0303 -1.1376
 4130SOL     OW24025   0.125   0.348   4.096 -0.7574  0.1106 -0.0047
 4130SOL    HW124026   0.075   0.322   4.174  0.3969 -3.2404 -0.4143
 4130SOL    HW224027   0.054   0.371   4.037  0.7173  1.1067 -1.3838
 4131SOL     OW24028   1.616   2.723  11.000  0.0413  0.6254  0.1183
 4131SOL    HW124029   1.539   2.675  10.970  0.8780  0.4627 -1.7869
 4131SOL    HW224030   1.670   2.651  11.034 -0.6698  0.9849  2.0168
 4132SOL     OW24031   4.694   3.704   4.175  0.1598 -0.2118 -0.0498
 4132SOL    HW124032   0.050   3.713   4.194 -0.0614  2.0783 -0.1042
 4132SOL    HW224033   4.660   3.631   4.227  0.4433 -0.1935  0.1603
 4133SOL     OW24034   2.741   2.835   7.336  0.5001 -0.4208 -0.1031
 4133SOL    HW124035   2.730   2.776   7.261  0.7576 -1.4785  0.6853
 4133SOL    HW224036   2.823   2.802   7.372  2.4670  2.6242 -1.7531
 4134SOL     OW24037   3.833   3.851   3.999 -0.0618  0.2295  0.7031
 4134SOL    HW124038   3.867   3.889   3.918 -1.5769 -0.0278 -0.0493
 4134SOL    HW224039   3.746   3.822   3.971 -0.1244 -0.4303  1.5720
 4135SOL     OW24040   0.503   0.201   2.561  0.4752 -0.8637  0.2850
 4135SOL    HW124041   0.534   0.187   2.472  1.5067  1.2974  0.3042
 4135SOL    HW224042   0.542   0.288   2.573 -2.2607  0.2217  1.3879
 4136SOL     OW24043   0.949   3.248   7.743  0.4626 -0.7728 -0.2452
 4136SOL    HW124044   0.873   3.209   7.787 -2.0899  2.0183 -2.1797
 4136SOL    HW224045   0.912   3.256   7.655 -1.0028  0.6943  0.4996
 4137SOL     OW24046   1.515   4.325   9.004  0.1390  0.4740  0.4458
 4137SOL    HW124047   1.433   4.338   9.051  1.6212  1.8548  2.6627
 4137SOL    HW224048   1.502   4.246   8.952 -1.2929  0.1807  1.2434
 4138SOL     OW24049   1.326   4.082   1.995 -0.3660 -0.2544  0.4843
 4138SOL    HW124050   1.267   4.144   1.953 -1.5688 -0.8607  1.2673
 4138SOL    HW224051   1.267   4.025   2.044  0.4883 -0.5766  1.1324
 4139SOL     OW24052   4.729   2.364   4.692 -0.3276  0.1331 -0.2035
 4139SOL    HW124053   4.634   2.375   4.689 -0.2475  1.0038  0.3162
 4139SOL    HW224054   0.017   2.424   4.622  1.8250 -0.7978 -0.2478
 4140SOL     OW24055   1.093   1.094  12.722  0.1349 -0.1528  0.1110
 4140SOL    HW124056   1.080   0.999  12.726 -2.8943  0.3382  2.3465
 4140SOL    HW224057   1.137   1.103  12.807 -2.8909  1.4125  1.5236
 4141SOL     OW24058   2.445   2.219   2.861 -0.4032 -0.4341  0.6482
 4141SOL    HW124059   2.508   2.244   2.928  0.2325 -1.0636  0.2957
 4141SOL    HW224060   2.493   2.158   2.805  2.3855  0.5882  1.9342
 4142SOL     OW24061   3.927   1.743  13.164  0.2508  0.6206  0.3242
 4142SOL    HW124062   3.995   1.760  13.098 -1.7381  0.7406 -1.7019
 4142SOL    HW224063   3.961   1.661  13.198  0.3810 -0.1917 -1.7279
 4143SOL     OW24064   1.369   1.436  16.422 -0.4616 -0.2937 -0.0710
 4143SOL    HW124065   1.372   1.344  16.398  1.7407  0.4628 -2.6528
 4143SOL    HW224066   1.305   1.468  16.358  0.3613  1.5082  0.0139
 4144SOL     OW24067   0.368   0.448   3.368  0.1622 -0.1664 -0.5819
 4144SOL    HW124068   0.459   0.449   3.340  0.7062 -1.4567  1.1306
 4144SOL    HW224069   0.328   0.521   3.320 -0.4548  1.8562  3.0687
 4145SOL     OW24070   1.169   0.008  16.732 -0.2497  0.6366 -0.5628
 4145SOL    HW124071   1.076   0.017  16.711 -0.1850  1.0129 -0.6920
 4145SOL    HW224072   1.204   0.007  16.643  2.6673  2.1100  0.5309
 4146SOL     OW24073   2.394   1.662   9.488  0.0846 -0.2051  0.4517
 4146SOL    HW124074   2.339   1.650   9.566  0.6083  1.8435  1.1474
 4146SOL    HW224075   2.356   1.730   9.432  2.3429  1.5170  0.9786
 4147SOL     OW24076   0.228   1.990  13.684  0.0585 -0.0274 -0.0001
 4147SOL    HW124077   0.174   2.006  13.607  0.6597  3.8981  0.3719
 4147SOL    HW224078   0.283   2.067  13.698 -0.2193  0.1007  0.3817
 4148SOL     OW24079   1.431   0.722   0.368  0.1073  0.1246  0.5753
 4148SOL    HW124080   1.472   0.644   0.405 -0.9348 -1.1650 -0.9622
 4148SOL    HW224081   1.419   0.772   0.449 -2.1112  0.5778 -0.0355
 4149SOL     OW24082   1.131   0.841  12.970 -0.6918 -0.1906  0.2210
 4149SOL    HW124083   1.173   0.916  13.012 -0.5587  0.7647 -1.6362
 4149SOL    HW224084   1.098   0.794  13.047  2.9794 -0.0811  1.8678
 4150SOL     OW24085   1.788   0.809   9.653 -0.8505 -0.2693  0.3633
 4150SOL    HW124086   1.879   0.780   9.647 -1.1285 -1.2718  1.0322
 4150SOL    HW224087   1.796   0.901   9.630  0.6939 -1.0082 -2.0599
 4151SOL     OW24088   3.617   1.324   1.811  0.1809  0.1404 -0.5758
 4151SOL    HW124089   3.583   1.238   1.785 -0.7033  0.3737 -0.1965
 4151SOL    HW224090   3.553   1.354   1.875  0.1873 -0.6491 -0.1917
 4152SOL     OW24091   4.145   2.731   5.655  0.1528  0.2202  0.5664
 4152SOL    HW124092   4.219   2.674   5.675  0.3328 -0.0703 -0.9333
 4152SOL    HW224093   4.077   2.705   5.717 -0.2549  1.0109  0.4459
 4153SOL     OW24094   4.352   3.091   0.781 -0.4061 -0.6265  0.0529
 4153SOL    HW124095   4.265   3.068   0.816  0.0180  1.0424  2.2114
 4153SOL    HW224096   4.346   3.177   0.739  0.1473 -0.2878  0.6760
 4154SOL     OW24097   4.167   0.342  15.762 -0.0153 -0.1997 -0.0594
 4154SOL    HW124098   4.164   0.385  15.847  0.3109  1.9321 -1.1391
 4154SOL    HW224099   4.249   0.293  15.772 -0.0696 -0.2342  0.1960
 4155SOL     OW24100   3.783   4.312   2.657  0.0385  0.1901  0.4308
 4155SOL    HW124101   3.713   4.374   2.637  0.0220 -0.2675 -0.9688
 4155SOL    HW224102   3.733   4.257   2.716 -0.4378  0.6331  0.4438
 4156SOL     OW24103   4.130   4.687  14.228 -0.0071 -0.2399 -0.7604
 4156SOL    HW124104   4.127   4.690  14.324  0.8107  0.2435 -0.7582
 4156SOL    HW224105   4.035   4.691  14.214  0.2486  2.9488 -1.4820
 4157SOL     OW24106   2.118   0.786   8.096  0.1102 -0.3892  0.2566
 4157SOL    HW124107   2.055   0.848   8.058  0.5345  1.3329  2.4003
 4157SOL    HW224108   2.056   0.754   8.161 -1.8621 -0.9149 -1.8709
 4158SOL     OW24109   1.847   3.193   5.833 -0.2338 -0.2105 -0.0706
 4158SOL    HW124110   1.831   3.146   5.751 -0.6521 -0.0137 -0.1008
 4158SOL    HW224111   1.935   3.162   5.854 -1.2592 -3.7843 -0.9627
 4159SOL     OW24112   1.221   0.466   2.109 -0.4248 -0.3011 -0.1558
 4159SOL    HW124113   1.190   0.546   2.066  1.5311  0.3721 -0.3421
 4159SOL    HW224114   1.313   0.454   2.086 -0.4901  0.0264 -0.5990
 4160SOL     OW24115   3.951   3.465   1.893  0.1859 -0.5222 -0.0088
 4160SOL    HW124116   3.880   3.472   1.829 -0.6232  0.5735  1.0023
 4160SOL    HW224117   3.944   3.546   1.944  0.4392 -0.2337 -0.4333
 4161SOL     OW24118   3.036   0.178   2.031  0.1491 -0.7782 -0.0280
 4161SOL    HW124119   3.101   0.141   2.091 -0.9273 -0.8219  1.0939
 4161SOL    HW224120   2.971   0.108   2.032 -2.6607  1.8125 -1.0923
 4162SOL     OW24121   3.738   1.407   3.223  0.2088 -0.0938 -0.4001
 4162SOL    HW124122   3.708   1.449   3.142 -0.3731  2.8742  1.3698
 4162SOL    HW224123   3.651   1.397   3.263  0.2261  0.6222 -0.1862
 4163SOL     OW24124   1.550   0.414   6.051  0.2423  0.0359  0.5213
 4163SOL    HW124125   1.500   0.353   6.105  0.4755  1.1030  1.9245
 4163SOL    HW224126   1.602   0.452   6.121  0.7867 -0.9422  0.6533
 4164SOL     OW24127   3.915   3.457   6.090  0.0690  0.4186  0.4453
 4164SOL    HW124128   3.949   3.541   6.120  0.3736  0.9942 -1.5005
 4164SOL    HW224129   3.943   3.468   5.999  0.2453  3.1022  0.8186
 4165SOL     OW24130   1.679   3.746   2.661  0.0928 -0.2162  0.8023
 4165SOL    HW124131   1.607   3.731   2.723 -1.5199  1.4602 -0.6648
 4165SOL    HW224132   1.645   3.831   2.634  1.7209  0.2456  0.2528
 4166SOL     OW24133   0.124   2.708   0.825 -0.6021  0.3131  0.0039
 4166SOL    HW124134   0.158   2.618   0.827 -0.0556  0.5051 -1.2464
 4166SOL    HW224135   0.035   2.705   0.788 -1.8608 -2.1472  3.1223
 4167SOL     OW24136   4.643   2.940   2.966  0.6610 -0.6473  0.2320
 4167SOL    HW124137   4.556   2.947   2.925  0.7846  0.6589  0.1978
 4167SOL    HW224138   4.694   2.993   2.905  2.1348 -2.4762 -0.1539
 4168SOL     OW24139   1.615   2.983   4.502  0.3345  0.5098 -0.3506
 4168SOL    HW124140   1.645   3.030   4.424  3.5657 -1.0811 -0.0423
 4168SOL    HW224141   1.557   3.045   4.545  2.9526  3.0451 -0.4829
 4169SOL     OW24142   4.289   2.109   1.280  0.0621 -0.0048 -0.0579
 4169SOL    HW124143   4.363   2.095   1.338  0.5724 -0.6462 -0.8576
 4169SOL    HW224144   4.327   2.108   1.192  0.7556  2.1287  0.2216
 4170SOL     OW24145   2.628   0.898   6.584 -0.2894 -0.1658  0.2699
 4170SOL    HW124146   2.617   0.951   6.663  0.9165 -1.6351  1.4129
 4170SOL    HW224147   2.539   0.865   6.567 -0.2619 -1.0460  1.8116
 4171SOL     OW24148   4.258   1.363   9.789 -0.1282 -0.8092 -0.1393
 4171SOL    HW124149   4.303   1.448   9.790  0.1104 -0.9416  0.2910
 4171SOL    HW224150   4.267   1.344   9.695  0.0714  1.7999 -0.6520
 4172SOL     OW24151   0.206   4.105   7.851  0.5560 -0.0704  0.0783
 4172SOL    HW124152   0.235   4.056   7.774 -1.7899 -1.4554  0.0574
 4172SOL    HW224153   0.285   4.154   7.874  1.2382 -2.3943  2.6623
 4173SOL     OW24154   4.352   1.946  10.187  0.1308 -0.1000 -0.0344
 4173SOL    HW124155   4.435   1.970  10.228  0.0622 -0.2449  0.1890
 4173SOL    HW224156   4.317   1.896  10.260  0.3491  0.3166  0.3565
 4174SOL     OW24157   3.992   4.234   4.008 -0.9076  0.1002 -0.2365
 4174SOL    HW124158   3.935   4.247   3.932  0.9432  1.4409 -1.3755
 4174SOL    HW224159   3.997   4.316   4.056 -0.2775 -0.3853  0.5233
 4175SOL     OW24160   1.030   0.830   6.391  0.2203  0.1947 -0.4297
 4175SOL    HW124161   1.012   0.915   6.430 -1.2283  0.2894 -1.2936
 4175SOL    HW224162   0.973   0.838   6.314  0.4524 -0.0572 -0.6301
 4176SOL     OW24163   1.577   2.046   1.442  0.3532  0.4202  0.2830
 4176SOL    HW124164   1.654   1.993   1.418 -1.7177 -2.1671 -0.6312
 4176SOL    HW224165   1.538   2.073   1.359 -0.2907  1.0519  0.8003
 4177SOL     OW24166   2.459   3.386   3.058  0.0273  0.3176  0.2771
 4177SOL    HW124167   2.546   3.407   3.090  0.1831 -0.2324  0.1993
 4177SOL    HW224168   2.452   3.453   2.989  1.2562  0.1009 -0.0471
 4178SOL     OW24169   3.271   1.210  12.121  0.5508  0.1223  0.3970
 4178SOL    HW124170   3.336   1.280  12.108  2.3489 -1.4375  1.0988
 4178SOL    HW224171   3.329   1.134  12.119  2.8812  1.9210 -1.3250
 4179SOL     OW24172   3.055   3.559   7.894  0.0469 -0.2460 -0.1553
 4179SOL    HW124173   3.065   3.479   7.842 -0.9454  1.4120 -2.8708
 4179SOL    HW224174   2.972   3.538   7.937 -0.7686  0.6197 -1.3057
 4180SOL     OW24175   4.581   2.197   9.583 -0.8157 -0.3689  0.2870
 4180SOL    HW124176   4.601   2.141   9.507 -0.6378 -1.0519  0.8357
 4180SOL    HW224177   4.536   2.264   9.532 -3.5326 -0.9151  1.9817
 4181SOL     OW24178   4.648   2.977  16.895 -0.1876 -0.4223 -0.4092
 4181SOL    HW124179   4.635   3.062  16.938 -0.5118 -1.7356  2.1098
 4181SOL    HW224180   4.591   2.928  16.954  0.2871  0.3085  0.6598
 4182SOL     OW24181   1.015   4.032   2.337 -0.3627  1.0815  0.1766
 4182SOL    HW124182   0.964   3.985   2.403  0.8726  0.4778  0.6979
 4182SOL    HW224183   1.024   4.118   2.378  1.0513 -0.0010  2.1325
 4183SOL     OW24184   0.796   0.987   4.916 -0.1172 -0.3576 -0.0138
 4183SOL    HW124185   0.741   0.914   4.945 -0.3861  0.2389  1.0067
 4183SOL    HW224186   0.875   0.933   4.910  0.3317  0.3065 -0.0755
 4184SOL     OW24187   2.810   4.131   9.849  1.2159  0.6536 -0.2072
 4184SOL    HW124188   2.858   4.048   9.853  2.0970  1.2276  1.3274
 4184SOL    HW224189   2.789   4.153   9.940 -1.9084 -0.0094 -0.7741
 4185SOL     OW24190   3.985   1.479  13.251 -0.0162  0.6234 -0.0413
 4185SOL    HW124191   3.979   1.398  13.201 -1.0098  0.3552  0.5073
 4185SOL    HW224192   3.954   1.447  13.336 -0.0544  0.8931  0.0478
 4186SOL     OW24193   1.350   0.025   7.974 -0.4475  0.1115  0.2292
 4186SOL    HW124194   1.361   4.709   7.895 -0.4432  1.8625 -0.9343
 4186SOL    HW224195   1.425   0.085   7.971 -1.4323  1.3601  0.6453
 4187SOL     OW24196   1.443   4.111   5.298 -0.3650  0.3027  0.2238
 4187SOL    HW124197   1.537   4.127   5.303 -0.4312  0.9593 -0.6757
 4187SOL    HW224198   1.417   4.089   5.209 -1.0238  1.1810  0.1964
 4188SOL     OW24199   2.569   1.058   2.804 -0.3363  0.1305 -0.5389
 4188SOL    HW124200   2.490   1.050   2.752 -0.1154 -2.1927 -0.4976
 4188SOL    HW224201   2.559   0.987   2.867  1.6622 -0.9337 -1.4116
 4189SOL     OW24202   4.126   3.049   1.728 -0.2100  0.2283 -0.1368
 4189SOL    HW124203   4.084   2.964   1.713 -1.8362  0.9449  0.4576
 4189SOL    HW224204   4.189   3.064   1.657 -1.2776  1.0756 -0.8941
 4190SOL     OW24205   0.691   1.281  13.280  0.2990  0.0318  0.1481
 4190SOL    HW124206   0.714   1.363  13.237  2.8482  0.0534  1.5916
 4190SOL    HW224207   0.739   1.214  13.232 -0.8614 -3.2534  3.6467
 4191SOL     OW24208   3.256   1.633   2.080  0.0294 -0.4978 -0.1895
 4191SOL    HW124209   3.289   1.632   1.990  1.4761  1.2278  0.3259
 4191SOL    HW224210   3.165   1.662   2.071  0.1520 -0.5001 -1.5037
 4192SOL     OW24211   4.041   2.467   7.481  0.3476 -0.5552  0.2987
 4192SOL    HW124212   4.058   2.520   7.559 -0.7220 -1.9246  1.4617
 4192SOL    HW224213   4.119   2.498   7.434 -1.3249  0.3982 -1.8168
 4193SOL     OW24214   0.287   3.779   2.345  0.0012 -0.0552  0.4572
 4193SOL    HW124215   0.374   3.743   2.362  0.4342  1.5635  1.6202
 4193SOL    HW224216   0.265   3.731   2.265 -0.3730  1.8299 -0.5743
 4194SOL     OW24217   2.171   4.403   3.136  0.4561 -0.2204  0.1324
 4194SOL    HW124218   2.149   4.323   3.184  0.0236  0.3295  0.8522
 4194SOL    HW224219   2.223   4.369   3.063  1.2419  0.0392  0.5657
 4195SOL     OW24220   1.211   3.669   3.183  0.0719  0.1426 -0.4955
 4195SOL    HW124221   1.172   3.582   3.174  1.2097 -0.6116  1.9234
 4195SOL    HW224222   1.234   3.695   3.094  3.2705  1.3008  0.6647
 4196SOL     OW24223   3.224   2.984   3.335  0.3830 -0.1041  0.1693
 4196SOL    HW124224   3.315   2.999   3.361 -0.1499  2.0107  0.7970
 4196SOL    HW224225   3.250   2.912   3.278 -0.0029 -0.7967  0.8709
 4197SOL     OW24226   1.316   3.073   6.722 -0.6340  0.2585 -0.3863
 4197SOL    HW124227   1.270   3.117   6.650 -1.4616 -2.4385 -1.5081
 4197SOL    HW224228   1.394   3.129   6.717 -1.5609  1.5353 -0.5642
 4198SOL     OW24229   2.967   2.329   1.668 -0.9525  0.3390 -0.0684
 4198SOL    HW124230   2.933   2.416   1.690  1.2665  1.1409  0.1370
 4198SOL    HW224231   2.948   2.328   1.574  0.2373 -1.2608 -0.2812
 4199SOL     OW24232   0.766   3.852  15.320  0.1927  0.1966  0.5293
 4199SOL    HW124233   0.713   3.832  15.397  0.6898 -1.1638  0.5095
 4199SOL    HW224234   0.691   3.885  15.271  0.4317  0.4752  0.3501
 4200SOL     OW24235   2.960   2.339   4.878  0.2453 -0.7625  0.4050
 4200SOL    HW124236   3.035   2.397   4.861  0.7260 -1.4506  0.1864
 4200SOL    HW224237   2.889   2.402   4.891  1.4988  0.6231  0.4606
 4201SOL     OW24238   3.464   2.478   6.503 -1.1072 -0.7683  0.3729
 4201SOL    HW124239   3.517   2.419   6.557  1.5395  0.6972 -0.6457
 4201SOL    HW224240   3.382   2.427   6.501 -1.2257 -0.6090  0.9527
 4202SOL     OW24241   1.651   1.740   2.316 -0.2213 -0.4220  0.3794
 4202SOL    HW124242   1.656   1.753   2.411  1.4898 -0.4784  0.2811
 4202SOL    HW224243   1.591   1.808   2.284 -1.0261 -1.6429 -0.7282
 4203SOL     OW24244   4.006   0.277   8.216 -0.4110 -0.4099  0.5599
 4203SOL    HW124245   4.002   0.240   8.304  2.4912  3.1869  2.2210
 4203SOL    HW224246   4.097   0.277   8.186 -0.4233 -0.7220  0.5272
 4204SOL     OW24247   0.518   2.626   8.857  0.3461  0.0387  0.4509
 4204SOL    HW124248   0.589   2.588   8.806  0.3542  0.1562  0.3735
 4204SOL    HW224249   0.520   2.582   8.942  1.5146 -2.0068 -0.6407
 4205SOL     OW24250   1.903   3.847  16.071 -0.3426  0.0385 -0.1780
 4205SOL    HW124251   1.975   3.818  16.015  0.1451 -1.0906  1.0196
 4205SOL    HW224252   1.949   3.911  16.125 -1.7046  1.6671 -0.9611
 4206SOL     OW24253   1.380   0.051   1.931 -0.3636  0.1107 -0.0391
 4206SOL    HW124254   1.410   0.102   2.007  1.1237 -0.7659 -0.0290
 4206SOL    HW224255   1.359   0.125   1.873 -0.3321  1.1646  1.2980
 4207SOL     OW24256   0.693   4.536   3.309  0.2587 -0.1578 -0.2391
 4207SOL    HW124257   0.711   4.444   3.290 -0.4352 -0.2696 -0.3732
 4207SOL    HW224258   0.602   4.544   3.279 -0.4488  0.1437  2.0177
 4208SOL     OW24259   3.095   2.607  13.894 -0.4398  0.2086  0.4955
 4208SOL    HW124260   3.139   2.692  13.891 -2.0579  1.1116  1.7077
 4208SOL    HW224261   3.066   2.615  13.985 -0.0138  0.5163  0.6060
 4209SOL     OW24262   4.399   0.072   8.364 -0.4898  0.4696  0.0714
 4209SOL    HW124263   4.452   0.089   8.285  2.1922 -0.6020  1.6477
 4209SOL    HW224264   4.466   0.035   8.420  0.1752  2.6599  0.7295
 4210SOL     OW24265   3.867   4.293  12.000  0.3335  0.3551  0.0123
 4210SOL    HW124266   3.806   4.351  11.955  0.0370  0.8528  1.0556
 4210SOL    HW224267   3.805   4.233  12.039  0.8942 -0.7675 -0.8338
 4211SOL     OW24268   1.566   4.334   7.015  0.5195  0.4502  0.0529
 4211SOL    HW124269   1.657   4.314   6.992  0.8415  1.9884  0.0131
 4211SOL    HW224270   1.556   4.293   7.101 -0.5577  0.0083 -0.2859
 4212SOL     OW24271   1.663   2.961   1.796 -0.2651  0.1149  0.0301
 4212SOL    HW124272   1.632   2.870   1.789  1.0004 -0.1302 -2.2980
 4212SOL    HW224273   1.710   2.946   1.878  2.1564  0.8550 -1.2527
 4213SOL     OW24274   1.384   0.515   3.319 -0.5693 -0.2820 -0.2175
 4213SOL    HW124275   1.343   0.429   3.323 -2.4772  0.6425  0.3400
 4213SOL    HW224276   1.305   0.561   3.290 -0.8534 -0.8513 -0.3361
 4214SOL     OW24277   2.830   1.890  11.967  0.2223  0.3388 -0.0433
 4214SOL    HW124278   2.921   1.896  11.997 -0.1052 -0.6952  1.1647
 4214SOL    HW224279   2.791   1.937  12.040 -1.0513 -2.3772  1.0155
 4215SOL     OW24280   0.814   2.324   8.114 -0.1642  0.5395 -0.2352
 4215SOL    HW124281   0.740   2.265   8.125 -0.0511  0.7650  1.6611
 4215SOL    HW224282   0.821   2.346   8.206  0.0494 -2.6291  0.4846
 4216SOL     OW24283   2.600   2.587   8.039 -0.0235  0.1354  0.3507
 4216SOL    HW124284   2.603   2.584   7.943  1.3702 -0.0844  0.4098
 4216SOL    HW224285   2.634   2.502   8.066 -0.6428 -1.0107 -2.4079
 4217SOL     OW24286   4.073   4.354  17.225 -0.0132 -0.0257 -0.6505
 4217SOL    HW124287   4.006   4.296  17.261  1.5697 -0.5850  1.3974
 4217SOL    HW224288   4.120   4.387  17.301  1.1650 -2.0305 -0.5165
 4218SOL     OW24289   0.661   4.518   7.140 -0.3864 -0.3570  0.5687
 4218SOL    HW124290   0.646   4.427   7.169 -1.9177  0.1091  1.2141
 4218SOL    HW224291   0.756   4.526   7.152 -0.7154 -0.2124  3.0823
 4219SOL     OW24292   4.247   2.447   2.819  0.0759 -0.5056 -0.7540
 4219SOL    HW124293   4.207   2.501   2.888 -1.0766  0.1894 -1.9755
 4219SOL    HW224294   4.228   2.502   2.744  1.9830  0.4409 -0.5261
 4220SOL     OW24295   2.427   4.689   1.092 -0.6266  0.0680  0.3656
 4220SOL    HW124296   2.334   4.668   1.104 -0.1001 -1.3605  1.9894
 4220SOL    HW224297   2.440   0.017   1.161 -1.3239 -1.1484  1.6469
 4221SOL     OW24298   0.244   3.721  14.905 -0.2982 -0.4335  0.2174
 4221SOL    HW124299   0.315   3.658  14.913  0.3754  0.5394  1.8125
 4221SOL    HW224300   0.291   3.802  14.885  0.7650 -0.9107  0.7925
 4222SOL     OW24301   1.578   4.521   2.192  0.6110  0.3292  0.2374
 4222SOL    HW124302   1.488   4.552   2.186  0.9144  1.0555 -0.5834
 4222SOL    HW224303   1.560   4.458   2.262  0.7312 -0.9595 -0.8894
 4223SOL     OW24304   2.676   2.502   5.105  0.0218 -0.4257  0.0710
 4223SOL    HW124305   2.586   2.480   5.080  0.2938 -0.9800 -0.4252
 4223SOL    HW224306   2.685   2.467   5.194 -2.4457  1.4819  1.0675
 4224SOL     OW24307   2.066   3.713   3.241  0.1677  0.2704 -0.4314
 4224SOL    HW124308   2.139   3.660   3.274  0.3411  0.3288 -0.7224
 4224SOL    HW224309   2.058   3.693   3.148 -2.7494 -0.8363  0.0725
 4225SOL     OW24310   2.433   3.253   7.784 -0.2122  0.0017 -0.2628
 4225SOL    HW124311   2.428   3.162   7.752  1.8342 -0.1882 -0.0410
 4225SOL    HW224312   2.424   3.306   7.705  1.4724  0.5832 -0.0554
 4226SOL     OW24313   4.504   3.762   8.977  0.0966 -0.0666 -0.0387
 4226SOL    HW124314   4.591   3.801   8.968 -0.1202 -0.1034 -2.2104
 4226SOL    HW224315   4.516   3.690   8.916 -1.4948 -0.2425 -0.1486
 4227SOL     OW24316   0.866   1.752   6.269 -0.0521  0.0825  0.4513
 4227SOL    HW124317   0.882   1.809   6.344 -0.2385 -0.3797  0.8409
 4227SOL    HW224318   0.804   1.685   6.297  1.0161 -0.9269  0.4305
 4228SOL     OW24319   1.999   1.503   0.991 -0.5005 -0.5787  0.1677
 4228SOL    HW124320   1.976   1.592   1.019 -2.8573 -0.9453 -0.6482
 4228SOL    HW224321   1.915   1.457   0.991  0.7553 -2.8498 -1.0453
 4229SOL     OW24322   0.703   3.456   7.887  0.1734  0.1252 -0.5145
 4229SOL    HW124323   0.616   3.482   7.919 -0.1677 -1.4676 -0.1437
 4229SOL    HW224324   0.742   3.543   7.881 -0.4664  0.5201  0.9272
 4230SOL     OW24325   3.661   0.275  13.122 -0.2105 -0.2418 -0.0563
 4230SOL    HW124326   3.586   0.261  13.064  0.4843  1.3682 -1.3101
 4230SOL    HW224327   3.625   0.247  13.207  0.5767  1.1551  0.7419
 4231SOL     OW24328   0.489   0.378  14.724  0.1935 -0.4946  0.1819
 4231SOL    HW124329   0.584   0.376  14.713  0.4083 -0.8797  2.1270
 4231SOL    HW224330   0.459   0.296  14.762  0.4598 -0.5667  0.2403
 4232SOL     OW24331   2.821   4.040   0.478 -0.6962  0.3481  0.0283
 4232SOL    HW124332   2.805   3.977   0.548  1.2263  0.5153  0.6302
 4232SOL    HW224333   2.883   4.100   0.521  0.6750 -1.6313  0.8172
 4233SOL     OW24334   0.417   1.889   3.313 -0.1234 -0.2465 -0.2339
 4233SOL    HW124335   0.341   1.832   3.330 -0.4410 -0.3125 -1.8461
 4233SOL    HW224336   0.388   1.942   3.238  0.8930  0.8507  0.1634
 4234SOL     OW24337   3.902   1.773   1.478  0.3537  0.0398 -0.3653
 4234SOL    HW124338   3.951   1.853   1.460 -1.3240  1.2047  0.2932
 4234SOL    HW224339   3.967   1.713   1.440  0.2505 -0.3494  0.0684
 4235SOL     OW24340   3.029   2.358  14.872 -0.2165 -0.5368  0.8278
 4235SOL    HW124341   2.940   2.392  14.888 -0.2326 -0.0440 -0.3104
 4235SOL    HW224342   3.069   2.378  14.956 -0.3515 -1.0466  1.0172
 4236SOL     OW24343   0.748   4.659  16.137 -0.0400 -0.4280 -0.4265
 4236SOL    HW124344   0.785   4.572  16.153  0.5086  0.2178  1.8584
 4236SOL    HW224345   0.721   4.640  16.048  1.2542 -2.1622 -0.4408
 4237SOL     OW24346   2.391   0.641   9.276 -0.6822 -0.1412 -0.7326
 4237SOL    HW124347   2.303   0.664   9.245 -0.4544 -0.3923 -1.5496
 4237SOL    HW224348   2.422   0.563   9.230 -1.5844 -0.7015 -0.3955
 4238SOL     OW24349   3.772   2.472   5.483  0.3416 -0.5711  0.5859
 4238SOL    HW124350   3.705   2.407   5.506 -0.5369 -0.7958 -2.6280
 4238SOL    HW224351   3.742   2.554   5.522  0.7065 -0.3950  0.4889
 4239SOL     OW24352   0.827   1.682   3.415  0.6512 -0.6679 -0.3573
 4239SOL    HW124353   0.866   1.725   3.490  1.3431  0.3031 -1.2674
 4239SOL    HW224354   0.742   1.726   3.425  0.2157 -1.3253 -1.0929
 4240SOL     OW24355   1.547   4.552   5.794  0.3222  0.1321  0.1889
 4240SOL    HW124356   1.467   4.502   5.810 -0.7849  1.5630 -0.8984
 4240SOL    HW224357   1.516   4.604   5.720 -1.0685 -1.2488 -0.1929
 4241SOL     OW24358   1.187   2.877   8.438  0.1088 -0.4598 -0.5985
 4241SOL    HW124359   1.230   2.801   8.401 -1.0344 -0.8581 -1.0897
 4241SOL    HW224360   1.098   2.843   8.446 -0.8571  1.7866 -1.9381
 4242SOL     OW24361   3.893   0.667   2.989 -0.3536 -0.4945 -0.1838
 4242SOL    HW124362   3.952   0.615   2.934  2.2775  1.7702  0.4960
 4242SOL    HW224363   3.883   0.612   3.067 -1.7953 -0.1568 -0.1392
 4243SOL     OW24364   4.656   2.388   2.793  0.0888  0.5893  0.6364
 4243SOL    HW124365   4.622   2.470   2.829  1.5608  2.1841 -1.6140
 4243SOL    HW224366   4.582   2.332   2.816 -0.0998  1.2467  1.6079
 4244SOL     OW24367   3.510   0.979   8.028  0.1369  0.2086 -0.4284
 4244SOL    HW124368   3.528   0.985   8.122  0.9328  1.8324 -0.6927
 4244SOL    HW224369   3.588   0.927   8.005  0.0752 -0.2958  0.4913
 4245SOL     OW24370   0.941   1.566   9.952  0.3101  0.0080  0.2943
 4245SOL    HW124371   0.921   1.474   9.970  1.4192 -0.4592 -0.8329
 4245SOL    HW224372   1.017   1.551   9.896 -1.3026  0.2361 -1.9626
 4246SOL     OW24373   3.246   2.299   6.384 -0.1472 -0.5712 -0.1696
 4246SOL    HW124374   3.192   2.373   6.357 -1.6167 -0.7930  2.1364
 4246SOL    HW224375   3.311   2.306   6.314 -1.9260 -0.7111 -1.8261
 4247SOL     OW24376   4.093   0.035  15.916 -0.0496 -0.0007  0.1840
 4247SOL    HW124377   4.068   4.729  15.998 -0.0362 -0.0384  0.1684
 4247SOL    HW224378   4.160   4.708  15.891  1.0743  0.5295  1.8001
 4248SOL     OW24379   1.199   1.454  16.205  0.0805  0.2435 -0.1449
 4248SOL    HW124380   1.197   1.461  16.109  0.3834 -1.0492 -0.2442
 4248SOL    HW224381   1.116   1.411  16.227  0.2531  0.6336  1.2239
 4249SOL     OW24382   0.656   3.481   0.841 -0.0934 -0.0519  0.2034
 4249SOL    HW124383   0.720   3.411   0.840 -0.9056 -0.8322  2.7314
 4249SOL    HW224384   0.598   3.473   0.764 -0.5123 -0.3407  0.5473
 4250SOL     OW24385   2.566   1.102   6.802  0.6985  0.7891  0.2588
 4250SOL    HW124386   2.498   1.156   6.761 -0.0646  0.4936  1.1268
 4250SOL    HW224387   2.638   1.164   6.791  2.4199 -1.2776 -0.1828
 4251SOL     OW24388   1.213   2.070   5.375 -0.2497  0.0289  0.2376
 4251SOL    HW124389   1.256   2.145   5.335 -2.3739 -0.3249 -2.7075
 4251SOL    HW224390   1.287   2.032   5.423 -0.7185  0.6049  1.4233
 4252SOL     OW24391   1.167   3.312  15.484 -0.0053  0.1672  0.0551
 4252SOL    HW124392   1.115   3.323  15.404 -0.5263 -1.1702  0.2210
 4252SOL    HW224393   1.237   3.261  15.444 -0.6788 -1.3811  0.8529
 4253SOL     OW24394   3.523   4.513   5.325  0.4960 -0.0420  0.4509
 4253SOL    HW124395   3.469   4.520   5.247  2.2928 -0.6308 -0.8482
 4253SOL    HW224396   3.610   4.522   5.286  0.4659 -2.4308 -0.1355
 4254SOL     OW24397   0.499   4.365   5.170 -0.0492  0.6360  0.9214
 4254SOL    HW124398   0.422   4.363   5.227 -1.5754 -0.9628 -1.1952
 4254SOL    HW224399   0.557   4.430   5.210 -1.0660  2.7140 -1.0005
 4255SOL     OW24400   2.288   4.185   6.263  0.4645  0.0735  0.1638
 4255SOL    HW124401   2.226   4.146   6.201 -0.2030  1.2665  0.0728
 4255SOL    HW224402   2.371   4.169   6.219  1.7278  1.7746  1.9189
 4256SOL     OW24403   4.357   4.208   0.909  0.3531  0.3855  0.0102
 4256SOL    HW124404   4.346   4.116   0.882  1.0704  0.5174 -0.7374
 4256SOL    HW224405   4.435   4.235   0.861 -0.1271 -1.7793 -2.0077
 4257SOL     OW24406   3.959   3.511  14.670  0.2498  0.2176  0.2397
 4257SOL    HW124407   3.872   3.484  14.639  0.1425  2.1718 -1.1330
 4257SOL    HW224408   3.925   3.560  14.745  1.8678  1.0274  0.4245
 4258SOL     OW24409   0.159   4.004   9.061 -0.3237  0.3486 -0.0579
 4258SOL    HW124410   0.162   4.091   9.100 -0.7736  0.8153 -1.0584
 4258SOL    HW224411   0.249   3.970   9.063 -0.1504  0.7767 -0.8914
 4259SOL     OW24412   1.689   0.747   1.366 -0.2355 -0.1726  0.1846
 4259SOL    HW124413   1.615   0.713   1.316 -0.0181 -0.1993 -0.1245
 4259SOL    HW224414   1.756   0.679   1.352  0.1240 -0.0769  1.4566
 4260SOL     OW24415   3.751   0.920  13.233  0.4527  0.4977 -0.2833
 4260SOL    HW124416   3.753   0.973  13.153 -2.9519  1.1690  0.0505
 4260SOL    HW224417   3.715   0.981  13.298  1.3810  2.1826 -1.3272
 4261SOL     OW24418   2.527   0.226   2.618  0.4958  0.1087  0.0712
 4261SOL    HW124419   2.529   0.316   2.587  1.2153 -0.2345 -0.8944
 4261SOL    HW224420   2.517   0.186   2.531  1.6342  1.4932 -0.6903
 4262SOL     OW24421   3.546   1.079  10.578  0.0550 -0.4790  0.1170
 4262SOL    HW124422   3.573   1.091  10.487  1.0681 -0.1867  0.4644
 4262SOL    HW224423   3.596   1.139  10.633  0.9470 -0.0268 -1.1977
 4263SOL     OW24424   3.719   3.017   8.765  0.2664 -0.5230 -0.0797
 4263SOL    HW124425   3.669   2.936   8.751 -0.8342  0.5601 -2.4613
 4263SOL    HW224426   3.681   3.036   8.851 -0.6001 -0.3256 -0.4989
 4264SOL     OW24427   1.117   0.559   6.368  0.1769 -0.3993 -0.1224
 4264SOL    HW124428   1.059   0.533   6.296  0.7364 -0.3404 -0.5985
 4264SOL    HW224429   1.096   0.651   6.388 -2.2200 -1.2888  1.4568
 4265SOL     OW24430   1.826   2.599   6.779 -0.6215  0.4898 -0.4123
 4265SOL    HW124431   1.832   2.509   6.810  1.0534  0.6165 -0.3719
 4265SOL    HW224432   1.762   2.627   6.844 -0.1533  0.7766 -0.0713
 4266SOL     OW24433   1.694   0.934   5.358 -0.1706 -0.1080 -0.3443
 4266SOL    HW124434   1.773   0.960   5.406 -1.3547 -0.3604  1.7478
 4266SOL    HW224435   1.691   0.991   5.281  0.7928  2.3629  1.4206
 4267SOL     OW24436   1.584   2.377  11.940 -0.0018 -0.4049  0.1374
 4267SOL    HW124437   1.594   2.358  12.033  0.6848  0.6319  0.2771
 4267SOL    HW224438   1.501   2.421  11.954  0.4143  0.6743 -0.7103
 4268SOL     OW24439   2.029   1.860   6.718  0.2771 -0.0059 -0.1932
 4268SOL    HW124440   2.014   1.948   6.682 -0.4407  0.3520  0.9650
 4268SOL    HW224441   2.026   1.805   6.640  3.3504  1.9148 -1.6575
 4269SOL     OW24442   1.961   0.052   1.967  0.1720 -0.5037  0.1723
 4269SOL    HW124443   1.896   4.722   1.988 -0.0560 -0.4649 -0.4219
 4269SOL    HW224444   1.984   0.037   1.875 -0.7719 -1.4264  0.1017
 4270SOL     OW24445   3.438   1.433  12.186  0.0657 -0.3052  0.0631
 4270SOL    HW124446   3.450   1.459  12.278  0.8698 -1.8261  0.3853
 4270SOL    HW224447   3.509   1.369  12.176  0.1556 -0.3778  1.1376
 4271SOL     OW24448   3.387   3.962   7.227 -0.4504  0.2861 -0.0134
 4271SOL    HW124449   3.296   3.969   7.200  0.1101  0.1754 -1.9648
 4271SOL    HW224450   3.383   3.959   7.322 -1.0404 -0.8131 -0.0760
 4272SOL     OW24451   1.676   3.033  13.948 -0.1377  0.3541 -0.1761
 4272SOL    HW124452   1.633   2.947  13.949  2.0757 -0.7243  0.6150
 4272SOL    HW224453   1.605   3.093  13.970 -0.4958  0.3243 -1.2349
 4273SOL     OW24454   4.698   3.927   0.841 -0.3602 -0.7045 -0.4093
 4273SOL    HW124455   4.676   3.921   0.934 -1.3673  2.5261 -0.4409
 4273SOL    HW224456   0.041   3.875   0.842 -0.0096 -0.1643 -0.5090
 4274SOL     OW24457   1.407   3.393  12.325  0.3718 -0.2110  0.3107
 4274SOL    HW124458   1.441   3.383  12.236 -0.9339  1.0674 -0.3328
 4274SOL    HW224459   1.458   3.463  12.366  0.7144 -0.0613 -0.3837
 4275SOL     OW24460   1.810   2.209   7.490 -0.3967 -0.0479  0.0522
 4275SOL    HW124461   1.776   2.298   7.479  1.7474  0.3848 -3.1228
 4275SOL    HW224462   1.735   2.170   7.535  0.0669 -0.8183  0.1589
 4276SOL     OW24463   3.721   2.710   7.539 -0.0750  0.5153 -0.2319
 4276SOL    HW124464   3.718   2.806   7.548 -0.1305  0.4243  0.6665
 4276SOL    HW224465   3.773   2.716   7.459  0.1660  2.1204  0.0448
 4277SOL     OW24466   0.165   2.795   6.337 -0.2065 -0.5181 -0.2589
 4277SOL    HW124467   0.206   2.711   6.318  1.3256  0.1331  0.2459
 4277SOL    HW224468   0.088   2.782   6.282  1.2913 -1.3586 -2.1307
 4278SOL     OW24469   2.749   0.930   6.102 -0.5643  0.2058 -0.5586
 4278SOL    HW124470   2.674   0.966   6.055 -0.4689  0.4719 -0.5045
 4278SOL    HW224471   2.763   0.988   6.177  1.1379  0.3462 -0.9774
 4279SOL     OW24472   2.814   3.524   4.329  0.5645 -0.0589 -0.4544
 4279SOL    HW124473   2.724   3.516   4.361  0.9254  0.3173  0.6532
 4279SOL    HW224474   2.819   3.619   4.323 -0.6709 -0.0224 -0.9155
 4280SOL     OW24475   3.181   1.343   7.636  0.1122 -0.4287 -0.2990
 4280SOL    HW124476   3.114   1.374   7.574 -1.9898 -0.5562  1.9003
 4280SOL    HW224477   3.138   1.386   7.710  1.0974  2.5805 -1.4688
 4281SOL     OW24478   2.819   1.120   8.669  0.1477  0.0901  0.3800
 4281SOL    HW124479   2.876   1.071   8.730 -0.5663 -0.5146  0.5649
 4281SOL    HW224480   2.870   1.199   8.655  1.0853 -0.5713  0.0064
 4282SOL     OW24481   4.192   1.100  16.891  0.1683  0.6441 -0.1722
 4282SOL    HW124482   4.282   1.133  16.882 -0.0610  0.7773 -1.9978
 4282SOL    HW224483   4.167   1.129  16.979 -1.0862 -0.0442 -0.3032
 4283SOL     OW24484   3.392   4.423  16.935 -0.6299 -0.0927  0.1511
 4283SOL    HW124485   3.313   4.476  16.926  0.0396  0.8382 -0.2891
 4283SOL    HW224486   3.435   4.459  17.013  1.6460  1.1070 -1.6501
 4284SOL     OW24487   2.984   2.953   4.343 -0.2129  0.6721 -0.3257
 4284SOL    HW124488   2.905   2.938   4.394  0.3236 -0.9297  0.0264
 4284SOL    HW224489   2.978   3.047   4.327  1.9484  0.9367  0.3631
 4285SOL     OW24490   4.472   0.668  15.765 -0.1127 -0.1712 -0.2835
 4285SOL    HW124491   4.427   0.753  15.765 -1.2131 -0.7443 -1.1147
 4285SOL    HW224492   4.411   0.614  15.714  1.1220 -0.3704 -1.5568
 4286SOL     OW24493   3.039   0.960   0.863  1.3092 -0.0995  0.0718
 4286SOL    HW124494   3.074   0.941   0.775 -1.4711  0.4303 -1.1452
 4286SOL    HW224495   2.961   1.013   0.849  0.8854 -0.1929  2.2465
 4287SOL     OW24496   3.513   1.828   3.136 -0.1819 -0.4633  0.9017
 4287SOL    HW124497   3.432   1.853   3.091  1.9573  2.6836 -1.2166
 4287SOL    HW224498   3.581   1.885   3.100 -1.9281  0.5923 -0.7020
 4288SOL     OW24499   0.298   0.136  17.135 -0.0277 -0.0917 -0.0638
 4288SOL    HW124500   0.297   0.042  17.153 -0.2742  0.0270  0.5524
 4288SOL    HW224501   0.271   0.173  17.219 -2.0316  0.7300 -1.0860
 4289SOL     OW24502   1.765   1.075   5.119 -0.1067  0.3106 -0.1930
 4289SOL    HW124503   1.745   1.144   5.056 -0.1287  1.4525  1.0628
 4289SOL    HW224504   1.752   0.999   5.062  2.9793 -0.4102  0.0767
 4290SOL     OW24505   0.279   4.366   5.395 -0.3989  0.3663  0.8614
 4290SOL    HW124506   0.286   4.456   5.428 -0.4177  0.8570 -0.4941
 4290SOL    HW224507   0.214   4.369   5.325 -1.4519  1.2528  1.8803
 4291SOL     OW24508   3.097   2.266   7.931  0.0747  0.1398 -0.1788
 4291SOL    HW124509   3.093   2.183   7.884  1.7851  0.6892 -1.2849
 4291SOL    HW224510   3.014   2.252   7.976  0.1871  0.1785  0.0394
 4292SOL     OW24511   2.785   2.598   9.554  0.5927 -0.0354 -0.6800
 4292SOL    HW124512   2.768   2.532   9.621  2.0123  2.4732  2.1622
 4292SOL    HW224513   2.758   2.555   9.473 -3.0583  1.4088 -0.2553
 4293SOL     OW24514   3.140   4.552   1.631 -0.3016  0.0466 -0.3344
 4293SOL    HW124515   3.148   4.636   1.676  0.2533 -0.8773  1.2686
 4293SOL    HW224516   3.046   4.553   1.611 -0.7116  1.2675  1.6657
 4294SOL     OW24517   4.354   1.079   2.688 -0.1683 -0.0664 -1.0219
 4294SOL    HW124518   4.364   1.048   2.778 -1.1635  0.4358 -0.7454
 4294SOL    HW224519   4.445   1.070   2.658 -0.2713  0.9574 -1.6309
 4295SOL     OW24520   4.012   2.701   8.230  0.2034  0.4484  0.0308
 4295SOL    HW124521   3.945   2.700   8.161  1.4852  4.3525 -1.2902
 4295SOL    HW224522   4.077   2.764   8.200 -1.2070  0.7294 -2.4691
 4296SOL     OW24523   2.589   3.863  14.468 -0.0170 -0.1083 -0.3585
 4296SOL    HW124524   2.514   3.819  14.508 -0.1574 -0.4822 -1.0276
 4296SOL    HW224525   2.661   3.839  14.525  0.9970  1.4444 -0.9812
 4297SOL     OW24526   3.681   2.419   8.063  0.3518  0.2505  0.4985
 4297SOL    HW124527   3.598   2.423   8.015  1.1054  1.1299 -0.7298
 4297SOL    HW224528   3.703   2.327   8.047  2.2225  0.8392 -0.3556
 4298SOL     OW24529   0.095   0.842   7.659 -0.3449 -0.4932  0.1571
 4298SOL    HW124530   0.055   0.789   7.727 -2.0757 -0.5945 -0.9409
 4298SOL    HW224531   0.022   0.901   7.639  0.2510  0.5777  1.1255
 4299SOL     OW24532   4.270   0.496   2.417  0.2378  0.3329 -0.2818
 4299SOL    HW124533   4.315   0.439   2.354 -0.2557 -1.2945  0.8177
 4299SOL    HW224534   4.287   0.440   2.493 -2.1664 -1.7972 -1.3028
 4300SOL     OW24535   1.145   1.144   4.794  0.0568  0.4706 -0.9254
 4300SOL    HW124536   1.218   1.083   4.812 -1.0767 -1.4794 -2.9646
 4300SOL    HW224537   1.140   1.194   4.875 -1.4836  1.6493 -1.7617
 4301SOL     OW24538   4.571   1.729   6.715  0.2478 -0.0428  0.3384
 4301SOL    HW124539   4.634   1.717   6.643 -2.9213 -0.1486 -2.4471
 4301SOL    HW224540   4.489   1.733   6.665  1.6460 -0.5261 -2.0294
 4302SOL     OW24541   1.303   0.154  13.389  0.2753 -0.1269  0.0734
 4302SOL    HW124542   1.322   0.086  13.454  2.8778  1.0258  0.5238
 4302SOL    HW224543   1.387   0.201  13.388  0.1007  0.2292  2.1516
 4303SOL     OW24544   1.690   2.727   4.420  0.2595 -0.3195 -0.0678
 4303SOL    HW124545   1.652   2.813   4.436 -1.5300 -1.4136  1.5956
 4303SOL    HW224546   1.781   2.731   4.393 -0.3337  0.1055 -2.0566
 4304SOL     OW24547   2.220   4.106   2.894  0.1066  0.1986 -0.7521
 4304SOL    HW124548   2.312   4.082   2.905 -0.2479 -0.9421 -0.2931
 4304SOL    HW224549   2.176   4.030   2.932  1.1306  0.7449  1.5523
 4305SOL     OW24550   1.250   0.385   6.533  0.1042  0.1329 -0.5541
 4305SOL    HW124551   1.209   0.459   6.489 -0.1897  0.3482  0.0808
 4305SOL    HW224552   1.319   0.430   6.581 -0.0551  0.2632 -0.4482
 4306SOL     OW24553   1.962   2.729   1.749  0.1923  0.1595  0.5363
 4306SOL    HW124554   1.870   2.704   1.738  0.6057 -0.8026 -0.6973
 4306SOL    HW224555   1.997   2.642   1.768 -2.0752 -0.6086  1.2046
 4307SOL     OW24556   0.888   4.134   5.008  0.1348  0.0536  0.6214
 4307SOL    HW124557   0.965   4.151   5.062  0.3150 -2.2716  1.1000
 4307SOL    HW224558   0.823   4.116   5.076  1.8362 -0.4863  2.1066
 4308SOL     OW24559   1.421   3.767   5.650 -0.1465  0.4589  0.6118
 4308SOL    HW124560   1.368   3.709   5.595  0.2762 -0.4015  1.1085
 4308SOL    HW224561   1.494   3.775   5.588 -1.6167  2.3749 -0.8552
 4309SOL     OW24562   1.588   0.970  10.432  0.7308 -0.1065 -0.0601
 4309SOL    HW124563   1.543   1.029  10.373  0.1346 -0.4445  0.0546
 4309SOL    HW224564   1.597   0.889  10.382  1.8807 -0.7187  1.1273
 4310SOL     OW24565   3.206   1.165  15.738  0.3727 -0.6579 -0.5458
 4310SOL    HW124566   3.253   1.209  15.667  2.3067 -0.9223  0.5915
 4310SOL    HW224567   3.140   1.233  15.747  2.1551  1.1048 -0.9697
 4311SOL     OW24568   0.282   1.481   3.912 -0.3247 -0.3921  0.3184
 4311SOL    HW124569   0.342   1.472   3.838 -2.1512 -2.7646 -0.8858
 4311SOL    HW224570   0.217   1.410   3.906  0.3126 -0.9955  0.5360
 4312SOL     OW24571   0.953   2.685   5.811  0.0697  0.5803  0.1598
 4312SOL    HW124572   0.973   2.592   5.811  0.1604  0.6042  1.5716
 4312SOL    HW224573   0.904   2.703   5.730  0.2945 -0.1257 -0.1323
 4313SOL     OW24574   2.260   3.480   1.282 -0.1583 -0.0714  0.4750
 4313SOL    HW124575   2.267   3.553   1.344 -2.9966  0.1775  0.5118
 4313SOL    HW224576   2.190   3.521   1.231 -1.1083 -1.8279  0.3904
 4314SOL     OW24577   3.628   3.808   8.875 -0.0644 -0.0438  0.0632
 4314SOL    HW124578   3.682   3.760   8.937 -2.3298  0.2744  2.2975
 4314SOL    HW224579   3.690   3.875   8.846 -0.3450  0.7890  1.4001
 4315SOL     OW24580   3.869   0.572   5.868  0.0425  0.5221 -0.2152
 4315SOL    HW124581   3.862   0.603   5.777 -0.4718 -1.3566 -0.8219
 4315SOL    HW224582   3.843   0.481   5.857 -0.3303  0.4626  1.1231
 4316SOL     OW24583   2.322   2.112   8.647  0.0319 -0.3520  0.1577
 4316SOL    HW124584   2.369   2.113   8.730 -2.9508 -0.6553  1.8748
 4316SOL    HW224585   2.254   2.177   8.665  1.3904  0.9764  0.4721
 4317SOL     OW24586   3.649   2.547   0.570 -0.3404 -0.1524  0.0668
 4317SOL    HW124587   3.564   2.583   0.596 -0.1522  0.1561  0.2547
 4317SOL    HW224588   3.657   2.475   0.632  1.4006 -0.7375 -0.8255
 4318SOL     OW24589   3.689   2.945  17.420  0.4752  0.5498  0.0008
 4318SOL    HW124590   3.667   3.019  17.364  0.7908  0.3823 -0.3461
 4318SOL    HW224591   3.662   2.869  17.369 -0.1836  0.2754  0.7686
 4319SOL     OW24592   1.149   0.856   2.884 -0.2809 -0.3855 -0.1971
 4319SOL    HW124593   1.172   0.948   2.901 -2.1066 -0.2555  1.6015
 4319SOL    HW224594   1.080   0.839   2.949  0.8114 -2.2186  0.4797
 4320SOL     OW24595   4.261   2.054   5.391  0.1216  0.2538 -0.0934
 4320SOL    HW124596   4.278   1.960   5.396  0.9248  0.3111 -1.5231
 4320SOL    HW224597   4.212   2.050   5.308  0.7337  0.6798 -0.4765
 4321SOL     OW24598   1.725   3.893   4.671  0.1405  0.1193  0.4730
 4321SOL    HW124599   1.752   3.906   4.762  0.9253 -1.2675  0.4433
 4321SOL    HW224600   1.795   3.834   4.643  1.6249  2.1348 -0.0004
 4322SOL     OW24601   3.520   1.864   4.520 -0.2957 -0.1909 -0.6443
 4322SOL    HW124602   3.578   1.828   4.453  1.1419  1.7761 -0.4243
 4322SOL    HW224603   3.434   1.852   4.477 -1.2673  3.5383  0.3199
 4323SOL     OW24604   2.883   2.657   2.893  0.4698  0.3101 -0.2665
 4323SOL    HW124605   2.793   2.640   2.864  1.9424  0.2638 -4.8092
 4323SOL    HW224606   2.897   2.572   2.935  0.5475  1.1927  1.4968
 4324SOL     OW24607   1.822   4.719   8.335  0.1159 -0.0308 -0.1268
 4324SOL    HW124608   1.821   0.060   8.279  0.3320  0.2816  0.3110
 4324SOL    HW224609   1.914   4.693   8.334  0.8357  2.4453  1.6009
 4325SOL     OW24610   0.832   3.830   6.909 -0.3147  0.1748  0.5585
 4325SOL    HW124611   0.878   3.907   6.875  1.8352 -1.8445 -1.0887
 4325SOL    HW224612   0.744   3.839   6.874  0.2047 -0.0523 -0.8330
 4326SOL     OW24613   4.113   3.151  15.054 -0.0023 -0.0467 -0.3550
 4326SOL    HW124614   4.108   3.075  14.996  0.5830 -0.0149 -0.4454
 4326SOL    HW224615   4.048   3.206  15.010  0.9723 -0.2041 -2.0116
 4327SOL     OW24616   0.491   1.514   3.119  0.1604 -0.1405 -0.4334
 4327SOL    HW124617   0.533   1.430   3.140 -0.2898 -0.3625 -0.4113
 4327SOL    HW224618   0.564   1.564   3.084  0.5012  0.1447  0.6652
 4328SOL     OW24619   2.978   0.748   3.930  0.1773 -0.0063 -0.1483
 4328SOL    HW124620   3.009   0.689   3.999  2.9555  0.1637 -1.2517
 4328SOL    HW224621   2.887   0.749   3.961  0.4388 -0.6380  0.6558
 4329SOL     OW24622   4.688   1.185  14.888  0.1869 -0.2365  0.4106
 4329SOL    HW124623   4.605   1.204  14.845 -0.2954  0.8688  1.8216
 4329SOL    HW224624   4.728   1.140  14.814  0.4314  0.0718  0.3602
 4330SOL     OW24625   3.416   3.079   0.729 -0.7330 -0.0552  0.5611
 4330SOL    HW124626   3.451   3.104   0.814  0.7631 -1.0511  0.2445
 4330SOL    HW224627   3.489   3.021   0.707 -0.4646 -0.4127  2.3888
 4331SOL     OW24628   1.364   4.093   5.950  0.0569  0.1500 -0.2999
 4331SOL    HW124629   1.328   4.102   6.038 -1.0454  3.1242 -1.0552
 4331SOL    HW224630   1.325   4.009   5.923  0.7209 -0.5221  0.8317
 4332SOL     OW24631   2.192   0.376   5.683 -0.1455  0.2403  0.7551
 4332SOL    HW124632   2.195   0.472   5.682 -1.2804  0.2633  0.0026
 4332SOL    HW224633   2.241   0.361   5.764 -0.8434  0.9808  1.3138
 4333SOL     OW24634   4.690   0.552   6.890 -0.0789 -0.6383 -0.2732
 4333SOL    HW124635   4.711   0.533   6.799  0.0916 -1.0488 -0.1456
 4333SOL    HW224636   4.597   0.573   6.887 -0.2017 -0.9467  1.3279
 4334SOL     OW24637   1.594   2.857  14.857  0.0469 -0.4843 -0.2245
 4334SOL    HW124638   1.682   2.849  14.821  0.4397  0.3894  0.5059
 4334SOL    HW224639   1.560   2.777  14.818  2.4387 -2.1019  1.0412
 4335SOL     OW24640   4.609   1.853  12.931 -0.3054  0.0440  0.4660
 4335SOL    HW124641   4.567   1.784  12.982  0.3001 -1.2204 -0.7793
 4335SOL    HW224642   4.562   1.932  12.959 -0.1753  0.3325 -0.1427
 4336SOL     OW24643   0.273   0.377   6.707  0.0389  0.3734  0.3072
 4336SOL    HW124644   0.276   0.422   6.623 -0.3310  0.3532  0.2809
 4336SOL    HW224645   0.187   0.334   6.712  0.5528 -0.7059 -0.0866
 4337SOL     OW24646   3.723   3.122  13.149  0.2073 -0.4126  0.7065
 4337SOL    HW124647   3.818   3.133  13.142 -0.0744  0.3689 -1.7408
 4337SOL    HW224648   3.693   3.184  13.215 -1.1626 -1.3466  0.9657
 4338SOL     OW24649   0.818   1.901   2.506  0.7751  0.0680 -0.1876
 4338SOL    HW124650   0.731   1.863   2.501  0.5066  0.5982  0.5110
 4338SOL    HW224651   0.814   1.969   2.439  2.2426 -1.7601 -2.1362
 4339SOL     OW24652   2.264   2.074   7.324 -0.2389 -0.3130  0.4802
 4339SOL    HW124653   2.232   2.104   7.409 -4.1195 -0.0918 -1.0795
 4339SOL    HW224654   2.358   2.062   7.340  0.0037 -2.1838 -2.4403
 4340SOL     OW24655   2.223   1.736  16.830  0.1944 -0.1513 -0.4937
 4340SOL    HW124656   2.250   1.807  16.888 -0.2853 -0.9150  0.6694
 4340SOL    HW224657   2.130   1.721  16.851  0.0204  2.9623  0.9428
 4341SOL     OW24658   4.000   2.537  15.548  0.1884  0.0897  0.3082
 4341SOL    HW124659   4.007   2.452  15.591  0.6839 -0.0447 -0.0398
 4341SOL    HW224660   4.025   2.516  15.458  1.0438  2.4568 -0.0096
 4342SOL     OW24661   3.760   0.841   3.484 -0.3580 -0.4845 -0.0858
 4342SOL    HW124662   3.767   0.754   3.525  0.4476 -0.6588 -0.5762
 4342SOL    HW224663   3.795   0.815   3.398 -0.1682 -0.1972 -0.0956
 4343SOL     OW24664   0.069   0.214   6.785 -0.5752 -0.2118 -0.7532
 4343SOL    HW124665   0.059   0.260   6.868 -1.6254 -0.6384 -0.6404
 4343SOL    HW224666   0.104   0.127   6.805  1.0859  0.7768  0.6058
 4344SOL     OW24667   0.276   3.796  11.192 -0.2970  0.7227 -0.2251
 4344SOL    HW124668   0.319   3.825  11.111 -1.4281  0.3024 -0.9634
 4344SOL    HW224669   0.216   3.868  11.212 -1.2948  0.1842 -1.3051
 4345SOL     OW24670   0.674   2.332  13.377 -0.1253  0.1025 -0.1867
 4345SOL    HW124671   0.685   2.413  13.328  2.6499  0.5681  1.1998
 4345SOL    HW224672   0.619   2.270  13.329 -0.9653 -0.2811  1.2771
 4346SOL     OW24673   1.262   3.441   6.486  0.5075 -0.1395 -0.1516
 4346SOL    HW124674   1.207   3.444   6.565  0.9491  0.2632  0.1444
 4346SOL    HW224675   1.303   3.355   6.496  0.9418 -0.0037 -0.7821
 4347SOL     OW24676   0.581   3.650   7.282  0.3467  0.3541 -0.1013
 4347SOL    HW124677   0.666   3.624   7.248  1.1555  0.0294  2.1311
 4347SOL    HW224678   0.554   3.704   7.208  1.8207  2.4766  0.9126
 4348SOL     OW24679   3.635   2.797   8.089  0.1663 -0.1665 -0.0799
 4348SOL    HW124680   3.593   2.806   8.003  0.6815  1.2341 -0.1780
 4348SOL    HW224681   3.713   2.747   8.064 -1.0094 -0.6233 -2.8949
 4349SOL     OW24682   0.235   2.419   5.762 -0.4624 -0.2978 -0.4345
 4349SOL    HW124683   0.245   2.334   5.806  1.6108  0.2595  0.1670
 4349SOL    HW224684   0.144   2.443   5.780 -0.5722  0.6169 -2.2781
 4350SOL     OW24685   2.019   2.775   8.145  0.2300 -0.3096 -0.7344
 4350SOL    HW124686   1.955   2.731   8.090  0.4931  0.0737 -1.3380
 4350SOL    HW224687   2.015   2.715   8.220 -1.2789  2.3504  1.3344
 4351SOL     OW24688   0.093   1.306  11.828  0.1415  0.1074  0.2191
 4351SOL    HW124689   0.084   1.354  11.910 -0.1030 -3.5367  2.3290
 4351SOL    HW224690   0.168   1.357  11.795  1.1808 -0.4107  1.7446
 4352SOL     OW24691   4.219   4.335   2.861 -0.0779  0.1418 -0.4073
 4352SOL    HW124692   4.213   4.393   2.937  0.3469 -0.3167 -0.0306
 4352SOL    HW224693   4.246   4.399   2.794  1.3754  0.5547  0.5740
 4353SOL     OW24694   2.286   2.281   9.860 -0.1837 -0.8428  0.2530
 4353SOL    HW124695   2.254   2.199   9.900  1.8058 -1.4208  0.6517
 4353SOL    HW224696   2.259   2.346   9.925 -1.3110 -0.9414 -0.1128
 4354SOL     OW24697   2.414   3.079   0.677  0.1676 -0.4580  0.0088
 4354SOL    HW124698   2.433   3.033   0.758  1.2095 -1.5614 -0.8588
 4354SOL    HW224699   2.498   3.070   0.632  0.5377  0.6198  0.4818
 4355SOL     OW24700   0.289   2.641  12.640  0.5233  0.1884 -0.2627
 4355SOL    HW124701   0.262   2.711  12.581 -3.2060 -0.6666  0.4285
 4355SOL    HW224702   0.382   2.657  12.655  0.3281  0.8720  0.2022
 4356SOL     OW24703   2.634   2.720   8.827 -0.0769  0.0500  0.2438
 4356SOL    HW124704   2.642   2.707   8.921 -1.6841  2.8280  0.7604
 4356SOL    HW224705   2.576   2.647   8.807 -0.2707  0.5470 -0.9959
 4357SOL     OW24706   0.111   4.392   1.856 -0.3898 -0.0927  0.0231
 4357SOL    HW124707   0.083   4.304   1.828 -1.4899  0.2358  0.0932
 4357SOL    HW224708   0.024   4.425   1.880  1.0003  4.8192 -1.8341
 4358SOL     OW24709   0.592   1.628   4.605  0.3050 -0.0272  0.4028
 4358SOL    HW124710   0.544   1.587   4.534 -1.0083  2.1500  0.0204
 4358SOL    HW224711   0.668   1.570   4.602  0.5742  0.2436  1.7155
 4359SOL     OW24712   2.259   2.440   1.110 -0.1929  0.0059  0.5450
 4359SOL    HW124713   2.203   2.396   1.046 -0.0555  0.7273 -0.0817
 4359SOL    HW224714   2.247   2.392   1.191  0.6285 -0.0276  0.6410
 4360SOL     OW24715   0.013   2.800   9.025  0.4906 -0.0023 -0.5467
 4360SOL    HW124716   0.109   2.793   9.019  0.5016  0.1679 -0.5697
 4360SOL    HW224717   4.736   2.856   8.950 -2.7537 -2.7141 -1.9485
 4361SOL     OW24718   0.585   3.681   2.136 -0.3733 -0.4771 -0.0204
 4361SOL    HW124719   0.576   3.595   2.178 -1.6697 -0.4035 -0.1493
 4361SOL    HW224720   0.660   3.720   2.180  0.7757  1.2135 -3.5007
 4362SOL     OW24721   4.172   3.676   4.711 -0.1116 -0.3875 -0.0440
 4362SOL    HW124722   4.215   3.747   4.759  1.3095 -0.1566 -1.6118
 4362SOL    HW224723   4.078   3.684   4.727  0.4341 -0.6684  3.3202
 4363SOL     OW24724   3.424   2.338   1.972  0.0554  0.3365  0.3787
 4363SOL    HW124725   3.337   2.345   1.931  1.1554  1.9104 -1.6438
 4363SOL    HW224726   3.409   2.283   2.050 -0.5294 -0.1522 -0.0689
 4364SOL     OW24727   4.597   0.376  12.936 -0.5868 -0.5845 -0.1043
 4364SOL    HW124728   4.538   0.439  12.894  0.5712 -1.0805 -2.4505
 4364SOL    HW224729   4.558   0.350  13.019  0.3054  0.8715  0.7814
 4365SOL     OW24730   0.052   0.055  16.155 -0.1272  0.2544  0.0128
 4365SOL    HW124731   4.734   0.134  16.159 -0.0101  0.3120  0.4042
 4365SOL    HW224732   0.134   0.088  16.192  0.8515 -0.5239 -1.4190
 4366SOL     OW24733   1.736   2.569  13.263 -0.4745 -0.2805  0.4523
 4366SOL    HW124734   1.728   2.475  13.245 -1.9883 -0.3711  1.5562
 4366SOL    HW224735   1.743   2.618  13.182 -2.1948  2.3089  1.8850
 4367SOL     OW24736   0.574   2.260   2.223 -0.1647  0.1365  0.1240
 4367SOL    HW124737   0.493   2.288   2.181 -0.5508 -0.3839  0.5146
 4367SOL    HW224738   0.538   2.191   2.279 -0.0891  0.5267  0.6537
 4368SOL     OW24739   2.348   0.426  10.315  0.5556 -0.1667  0.1322
 4368SOL    HW124740   2.331   0.425  10.409 -1.6994  0.1001 -0.2603
 4368SOL    HW224741   2.443   0.420  10.314  0.5693  0.5013 -2.1037
 4369SOL     OW24742   4.596   0.248   4.739  0.0420 -0.2297  0.9248
 4369SOL    HW124743   4.610   0.242   4.834  1.8389  0.5572  0.7032
 4369SOL    HW224744   4.555   0.163   4.723 -2.7761  1.1139  0.9705
 4370SOL     OW24745   1.099   3.764   2.776  0.1172 -0.0648  0.2138
 4370SOL    HW124746   1.132   3.748   2.865 -3.9004 -0.5366  1.6299
 4370SOL    HW224747   1.022   3.708   2.778 -0.4161  0.6336 -1.3113
 4371SOL     OW24748   1.452   2.680   2.836  0.5247 -0.2307 -0.3214
 4371SOL    HW124749   1.376   2.735   2.820 -0.8427 -1.9009  0.3995
 4371SOL    HW224750   1.516   2.749   2.850  0.1091 -0.0832  0.8229
 4372SOL     OW24751   3.628   0.103   4.405  0.1723  0.0049  0.4347
 4372SOL    HW124752   3.612   0.135   4.494  0.1038 -0.7920  0.7172
 4372SOL    HW224753   3.541   0.076   4.376 -0.3365  2.1714 -0.0448
 4373SOL     OW24754   0.008   1.909   2.473 -0.0684  0.8573  0.6544
 4373SOL    HW124755   4.656   1.938   2.493 -0.4233 -0.6779  1.3433
 4373SOL    HW224756   0.056   1.885   2.552 -1.3489  0.4029  1.3005
 4374SOL     OW24757   1.696   1.470   1.679  0.0011 -0.1993  0.1586
 4374SOL    HW124758   1.741   1.423   1.750  0.3257 -2.1102 -1.3189
 4374SOL    HW224759   1.631   1.403   1.657 -1.2935  1.5399 -1.2789
 4375SOL     OW24760   0.481   1.131  14.636  0.0637  0.2212 -0.2545
 4375SOL    HW124761   0.520   1.161  14.718  0.6989 -2.5869  0.4653
 4375SOL    HW224762   0.544   1.176  14.580 -0.1923  1.9722  0.8479
 4376SOL     OW24763   4.711   1.080   7.564  0.0894 -0.1310  0.2047
 4376SOL    HW124764   0.039   1.133   7.519 -0.2410  0.2330  0.1563
 4376SOL    HW224765   4.699   1.142   7.636  1.1423 -1.3587  1.4400
 4377SOL     OW24766   3.247   4.608   4.132  0.4514 -0.0685  0.1289
 4377SOL    HW124767   3.275   4.640   4.046 -1.8765  1.4876 -0.0659
 4377SOL    HW224768   3.158   4.643   4.139  0.1830 -1.1066  1.9276
 4378SOL     OW24769   1.636   1.559   3.351  0.3511  0.2427  0.2582
 4378SOL    HW124770   1.644   1.653   3.337  3.4802  0.1491  1.3379
 4378SOL    HW224771   1.576   1.535   3.281 -1.9301  2.7830  1.3629
 4379SOL     OW24772   3.693   1.692   5.112  0.0655  0.0992 -0.2288
 4379SOL    HW124773   3.651   1.622   5.062 -2.5638  1.1196  0.5629
 4379SOL    HW224774   3.678   1.780   5.078 -0.1959 -0.4293 -1.4672
 4380SOL     OW24775   3.785   0.125  15.137  0.1756  0.4620 -0.3007
 4380SOL    HW124776   3.698   0.085  15.135 -0.4153  1.4537  3.4380
 4380SOL    HW224777   3.820   0.101  15.052  0.2587  1.1753 -0.4733
 4381SOL     OW24778   2.464   3.671  16.575  0.1581  0.1997 -0.0512
 4381SOL    HW124779   2.460   3.765  16.592  0.4645  0.1156  0.5087
 4381SOL    HW224780   2.526   3.670  16.502  1.2661  1.9382  0.8495
 4382SOL     OW24781   3.939   0.855   1.022  0.8149  0.1620  0.5580
 4382SOL    HW124782   3.995   0.863   1.099  1.8311  0.7817 -0.2404
 4382SOL    HW224783   3.891   0.937   1.035 -0.3351 -0.3419 -0.6225
 4383SOL     OW24784   4.130   2.935  10.277 -0.2105 -0.0076 -0.3205
 4383SOL    HW124785   4.179   2.853  10.272 -1.0763 -0.6529  1.6399
 4383SOL    HW224786   4.164   2.969  10.195  0.6158 -2.0828 -0.8610
 4384SOL     OW24787   2.420   3.787   5.941 -0.4762 -0.1909 -0.6620
 4384SOL    HW124788   2.364   3.832   6.004  1.5896  0.5934  0.6021
 4384SOL    HW224789   2.352   3.746   5.888  1.1253 -3.5327 -0.1346
 4385SOL     OW24790   4.676   1.154   1.938  0.3526 -0.1578 -0.3437
 4385SOL    HW124791   4.701   1.244   1.917 -0.4826  0.5182  1.4776
 4385SOL    HW224792   4.725   1.131   2.018 -0.8216 -0.4188  0.2976
 4386SOL     OW24793   3.203   3.752   8.959 -0.7455 -0.4808 -0.2063
 4386SOL    HW124794   3.190   3.663   8.992 -2.9347  1.3042  3.7827
 4386SOL    HW224795   3.247   3.807   9.024 -0.5998  3.4388 -3.5647
 4387SOL     OW24796   0.277   3.646   5.922 -0.1243 -0.5483 -0.2555
 4387SOL    HW124797   0.345   3.582   5.902  0.3688 -0.5318  1.3711
 4387SOL    HW224798   0.233   3.644   5.837 -1.1183  3.0340  0.2062
 4388SOL     OW24799   0.247   1.486   4.208 -0.4007 -0.2798  0.3961
 4388SOL    HW124800   0.251   1.484   4.112 -2.3228  0.9601  0.3063
 4388SOL    HW224801   0.225   1.393   4.214 -1.7440 -0.0617 -1.3134
 4389SOL     OW24802   4.572   3.850  16.463  0.0232  0.5989  0.4235
 4389SOL    HW124803   4.503   3.808  16.515  0.2166  0.0304  0.2216
 4389SOL    HW224804   4.643   3.787  16.471 -0.2714 -0.0589 -2.1254
 4390SOL     OW24805   3.587   2.395   1.292  0.0985 -0.5802  0.7679
 4390SOL    HW124806   3.525   2.394   1.364 -0.5433  1.0675  0.2482
 4390SOL    HW224807   3.644   2.464   1.326  0.2690 -0.1955 -0.2808
 4391SOL     OW24808   3.065   1.185  11.967  0.5307 -0.2759 -0.1445
 4391SOL    HW124809   3.146   1.193  12.018  2.1511  0.5643 -2.8865
 4391SOL    HW224810   3.023   1.269  11.982 -0.8184 -0.6225 -1.9116
 4392SOL     OW24811   0.205   3.080   9.016 -0.1587 -0.5248  1.0649
 4392SOL    HW124812   0.142   3.152   9.025 -0.4056 -0.4937 -1.1229
 4392SOL    HW224813   0.185   3.025   9.093  1.0408 -0.2214  1.5838
 4393SOL     OW24814   3.520   0.862   4.264  0.7913 -0.6470 -0.2717
 4393SOL    HW124815   3.614   0.869   4.280  0.3911  0.6172  1.5118
 4393SOL    HW224816   3.511   0.953   4.237 -0.1193 -0.8430 -0.6179
 4394SOL     OW24817   0.323   2.808   9.621 -0.6868 -0.4145 -0.3526
 4394SOL    HW124818   0.404   2.772   9.657 -0.1696  0.8372 -0.2669
 4394SOL    HW224819   0.265   2.758   9.678 -0.3583 -1.3418 -0.8238
 4395SOL     OW24820   3.539   1.331   3.932 -0.2570 -0.0301 -0.3894
 4395SOL    HW124821   3.570   1.297   4.016 -0.9129 -0.3403 -0.2660
 4395SOL    HW224822   3.539   1.425   3.950 -0.2953 -0.1302  0.1300
 4396SOL     OW24823   4.211   4.101   8.368 -0.1427  0.2331  0.0447
 4396SOL    HW124824   4.298   4.088   8.331 -0.4592 -1.2796 -0.1837
 4396SOL    HW224825   4.216   4.054   8.452  0.0314 -1.5963 -0.9844
 4397SOL     OW24826   0.339   3.993  11.433 -0.4799 -0.2048  0.0037
 4397SOL    HW124827   0.316   4.062  11.370  2.1976 -0.7439 -1.5608
 4397SOL    HW224828   0.432   3.983  11.414 -0.4625  2.1144 -1.1103
 4398SOL     OW24829   1.046   1.016   8.371 -0.1375  0.0503  0.2996
 4398SOL    HW124830   1.062   0.983   8.459  0.3271  0.0936  0.2323
 4398SOL    HW224831   1.111   1.087   8.375 -1.0175  0.9552 -1.5951
 4399SOL     OW24832   3.348   3.317   2.300  0.2466 -0.0456 -0.2396
 4399SOL    HW124833   3.269   3.340   2.349  1.0395  0.4984  0.7863
 4399SOL    HW224834   3.401   3.393   2.324  2.4968 -0.9405 -2.4356
 4400SOL     OW24835   2.348   3.771  11.955  0.2697  0.3604  0.2217
 4400SOL    HW124836   2.269   3.721  11.934 -0.8437  1.9017  0.7542
 4400SOL    HW224837   2.333   3.851  11.905  0.8941  0.9601  0.9955
 4401SOL     OW24838   0.729   0.644   4.276  0.3503  0.2916 -0.1697
 4401SOL    HW124839   0.715   0.651   4.181 -1.6102  0.3265  0.1258
 4401SOL    HW224840   0.805   0.586   4.270  0.4815  0.3510  1.0385
 4402SOL     OW24841   0.947   4.203   3.835 -0.0118 -0.2463  0.3355
 4402SOL    HW124842   0.926   4.278   3.779  0.0746 -1.2510 -1.0299
 4402SOL    HW224843   0.901   4.235   3.913 -1.0949 -0.0323 -0.3948
 4403SOL     OW24844   1.047   4.270  16.194 -0.6160 -0.1331  0.7630
 4403SOL    HW124845   1.044   4.245  16.286 -0.7727  1.4835  1.1954
 4403SOL    HW224846   1.110   4.205  16.163 -2.4913 -1.8286  0.4541
 4404SOL     OW24847   3.824   3.776   8.583 -0.2120 -0.3689 -0.0982
 4404SOL    HW124848   3.837   3.690   8.545 -2.4133 -0.2889 -1.0411
 4404SOL    HW224849   3.728   3.778   8.582 -0.1932 -1.1450 -2.6286
 4405SOL     OW24850   1.753   2.836   4.743  0.3333 -0.3167  0.6405
 4405SOL    HW124851   1.727   2.750   4.709 -1.1686  0.0030  0.9814
 4405SOL    HW224852   1.732   2.897   4.673 -0.0294 -0.6770  0.4353
 4406SOL     OW24853   2.290   2.429   4.326  0.1708 -0.0431 -0.0386
 4406SOL    HW124854   2.296   2.523   4.310 -4.2361 -0.3360 -3.2997
 4406SOL    HW224855   2.352   2.395   4.263  0.1101  0.7763 -0.5363
 4407SOL     OW24856   1.387   0.572   9.726  0.2078  0.3123  0.7560
 4407SOL    HW124857   1.355   0.609   9.644 -1.4893 -0.2224  1.1672
 4407SOL    HW224858   1.457   0.630   9.752  0.9516 -0.0593 -0.4006
 4408SOL     OW24859   4.597   4.020   4.948  0.1291 -0.1882  0.2240
 4408SOL    HW124860   4.619   4.112   4.931  0.6098 -0.4861 -0.7153
 4408SOL    HW224861   4.686   3.986   4.946 -0.0236 -0.5835  0.2171
 4409SOL     OW24862   0.221   1.152   5.617 -0.0385 -0.0829 -0.4600
 4409SOL    HW124863   0.150   1.215   5.606  0.4580  0.6589  0.5834
 4409SOL    HW224864   0.216   1.136   5.712 -1.6682  0.8915 -0.3904
 4410SOL     OW24865   2.683   4.298   4.120 -0.7287  0.2591  0.0360
 4410SOL    HW124866   2.709   4.294   4.028 -1.9128 -1.2690 -0.2333
 4410SOL    HW224867   2.770   4.327   4.148 -0.1920  0.4081 -1.7635
 4411SOL     OW24868   3.356   2.453   9.087 -0.2056  0.0094  0.3248
 4411SOL    HW124869   3.391   2.393   9.021 -0.4395 -1.5612  1.6322
 4411SOL    HW224870   3.339   2.533   9.036  0.6945  0.4059  0.6300
 4412SOL     OW24871   1.343   4.342  16.013 -0.4169  0.5278 -0.2212
 4412SOL    HW124872   1.364   4.362  16.104 -2.4482  1.6293 -0.0107
 4412SOL    HW224873   1.365   4.426  15.971  0.8267  1.0035  1.3886
 4413SOL     OW24874   1.856   0.672   8.260 -0.5128  0.4484  0.6844
 4413SOL    HW124875   1.833   0.634   8.175 -2.2476 -1.0543  1.8249
 4413SOL    HW224876   1.774   0.661   8.308 -0.8973  0.4685  0.0320
 4414SOL     OW24877   2.872   1.337  13.154 -0.2812 -0.9282  0.3610
 4414SOL    HW124878   2.809   1.312  13.086 -0.0800 -1.0145  0.2063
 4414SOL    HW224879   2.944   1.291  13.113  0.3414 -0.7809  1.2967
 4415SOL     OW24880   0.745   2.473   2.213 -0.0770 -0.1333 -0.3221
 4415SOL    HW124881   0.676   2.409   2.232  0.0515 -0.1526  0.0765
 4415SOL    HW224882   0.820   2.413   2.221 -0.7113 -1.4322 -4.2161
 4416SOL     OW24883   1.672   3.458   7.791  0.1372  0.1835 -0.0459
 4416SOL    HW124884   1.614   3.513   7.842  1.3844  1.6292 -0.2023
 4416SOL    HW224885   1.647   3.483   7.702 -5.2250 -2.5901  0.6475
 4417SOL     OW24886   1.960   3.709   7.718 -0.3637  0.4859 -0.5344
 4417SOL    HW124887   1.914   3.725   7.636 -0.4928  1.3057 -0.2970
 4417SOL    HW224888   2.016   3.633   7.698  0.8469  1.2398  0.0215
 4418SOL     OW24889   2.573   3.728   9.584 -0.0898  0.4590 -0.2631
 4418SOL    HW124890   2.532   3.771   9.659 -0.9358 -1.1503  0.1806
 4418SOL    HW224891   2.565   3.797   9.518  3.7934  1.4042  0.2521
 4419SOL     OW24892   4.626   0.753  17.690 -0.3533  0.1076 -0.4348
 4419SOL    HW124893   4.567   0.809  17.741  0.0276  0.9510 -0.9289
 4419SOL    HW224894   4.572   0.708  17.626 -0.3633 -0.2424 -0.1819
 4420SOL     OW24895   0.685   2.088  17.066 -0.4393 -0.1987  0.1555
 4420SOL    HW124896   0.747   2.017  17.084  0.4526  0.5471  0.0629
 4420SOL    HW224897   0.600   2.046  17.053 -1.6646  1.6805  2.2200
 4421SOL     OW24898   3.952   1.513   8.321 -0.0217  0.6949 -0.3408
 4421SOL    HW124899   3.995   1.470   8.247  0.0965  0.9061 -0.3968
 4421SOL    HW224900   3.934   1.601   8.286  0.2495  1.1840  0.7589
 4422SOL     OW24901   1.553   0.287   1.716  0.4522 -0.1253 -0.4877
 4422SOL    HW124902   1.630   0.330   1.753 -0.6241  1.2734  0.1381
 4422SOL    HW224903   1.579   0.200   1.687  2.0980  0.4553 -0.7138
 4423SOL     OW24904   2.701   1.770   2.340  0.1294 -0.1890 -0.1513
 4423SOL    HW124905   2.793   1.788   2.359  0.2804  0.4869 -1.5315
 4423SOL    HW224906   2.696   1.714   2.262  1.6820 -1.2514  0.5149
 4424SOL     OW24907   2.096   0.912   5.115  0.2749  0.0038  0.4635
 4424SOL    HW124908   2.087   0.822   5.146 -0.5803 -0.1287 -0.1583
 4424SOL    HW224909   2.024   0.955   5.161  1.7026  0.9262  1.8460
 4425SOL     OW24910   4.720   3.242  17.433  0.2995 -0.0004  0.0384
 4425SOL    HW124911   4.676   3.162  17.407 -1.6835  0.9973  0.2850
 4425SOL    HW224912   4.722   3.294  17.352  5.5447 -2.5586 -1.4189
 4426SOL     OW24913   1.854   0.718   0.444 -0.1042 -0.0585  0.1522
 4426SOL    HW124914   1.839   0.810   0.426 -0.8265 -0.0138  0.9909
 4426SOL    HW224915   1.814   0.714   0.530  1.3107  1.0485  0.8571
 4427SOL     OW24916   4.441   3.089   0.213 -0.3218 -0.0858  0.4914
 4427SOL    HW124917   4.460   3.176   0.176  0.6454  0.9575  3.4122
 4427SOL    HW224918   4.529   3.051   0.206 -1.6634 -3.1070  0.1525
 4428SOL     OW24919   1.116   1.626   6.147  0.0339 -0.0774  0.0444
 4428SOL    HW124920   1.101   1.680   6.225  2.4862  1.8405 -0.7821
 4428SOL    HW224921   1.045   1.658   6.091 -0.7791 -2.5618 -0.3143
 4429SOL     OW24922   3.007   0.345  10.519  0.1494 -0.0452  0.3144
 4429SOL    HW124923   3.088   0.395  10.530 -0.6312  1.5662 -1.2922
 4429SOL    HW224924   3.023   0.270  10.578 -1.6479  0.0922  0.9690
 4430SOL     OW24925   2.875   4.724   0.033 -0.0497 -0.0179 -0.1607
 4430SOL    HW124926   2.949   0.039   0.003  1.7716 -2.8734 -0.6564
 4430SOL    HW224927   2.862   4.670  17.700 -0.7948  2.5494 -1.7985
 4431SOL     OW24928   0.635   1.960   4.220  0.0583  0.4396  0.0653
 4431SOL    HW124929   0.685   1.958   4.138  0.5554 -0.1024  0.3881
 4431SOL    HW224930   0.596   2.042   4.190 -1.0361 -0.0766  0.0634
 4432SOL     OW24931   1.903   0.862   1.601  0.1883 -0.2761 -0.0138
 4432SOL    HW124932   1.966   0.916   1.553  0.4837 -1.1583 -0.6143
 4432SOL    HW224933   1.843   0.839   1.530  2.4815  1.8309 -2.6530
 4433SOL     OW24934   1.262   3.470   4.179  0.0044 -0.0600 -0.0225
 4433SOL    HW124935   1.239   3.562   4.166  0.5100  0.1884  0.9204
 4433SOL    HW224936   1.199   3.424   4.122 -0.6138  2.2411 -1.2124
 4434SOL     OW24937   4.331   1.753   4.751  0.4927  0.1692  0.3146
 4434SOL    HW124938   4.245   1.753   4.709 -0.5325  0.9014  2.4130
 4434SOL    HW224939   4.383   1.760   4.671 -0.5851 -1.6816 -0.5591
 4435SOL     OW24940   1.103   2.078   6.285 -0.1470  1.0014 -0.6711
 4435SOL    HW124941   1.015   2.097   6.316 -1.1224  1.1361 -3.5377
 4435SOL    HW224942   1.152   2.139   6.341  1.0267  1.6178 -2.3820
 4436SOL     OW24943   2.990   1.034   3.939  0.8890  0.2721  0.3686
 4436SOL    HW124944   3.032   0.948   3.929  3.1839  1.3592  0.7195
 4436SOL    HW224945   2.983   1.039   4.034 -0.8385 -1.7784  0.3505
 4437SOL     OW24946   4.708   3.026   6.359 -0.5248  0.1427  0.3103
 4437SOL    HW124947   4.702   3.053   6.267  0.8875  0.2005  0.2357
 4437SOL    HW224948   0.058   2.988   6.349 -0.6896  0.3127 -1.8878
 4438SOL     OW24949   0.464   0.524   3.015 -0.1719 -0.1956  0.2485
 4438SOL    HW124950   0.516   0.604   3.026  2.5978 -2.1102  1.0360
 4438SOL    HW224951   0.389   0.537   3.072  1.2035  0.0970  2.0047
 4439SOL     OW24952   0.027   4.334  12.121 -0.0857  0.0915 -0.5249
 4439SOL    HW124953   0.076   4.416  12.132  0.5725 -0.6630  2.2587
 4439SOL    HW224954   4.678   4.338  12.162  2.0443 -0.5931  4.0537
 4440SOL     OW24955   1.472   3.801   1.268  0.7190 -0.3662 -0.2978
 4440SOL    HW124956   1.419   3.786   1.346  0.5108 -0.0396 -0.3737
 4440SOL    HW224957   1.516   3.879   1.301 -0.9172  0.6709 -0.5363
 4441SOL     OW24958   1.448   3.820   5.095 -0.1123 -0.4424 -0.2474
 4441SOL    HW124959   1.400   3.899   5.070 -0.6397 -0.5483  0.4333
 4441SOL    HW224960   1.383   3.760   5.058 -1.8306  2.2530 -1.5896
 4442SOL     OW24961   0.149   0.776  14.570  0.8237 -0.5894 -0.3169
 4442SOL    HW124962   0.196   0.841  14.518 -0.6157  1.2903  0.7042
 4442SOL    HW224963   0.198   0.768  14.651 -0.0810  2.2375  0.5169
 4443SOL     OW24964   3.512   2.276   9.377  0.2549  0.5872 -0.0276
 4443SOL    HW124965   3.590   2.250   9.327 -1.4269 -1.6624 -1.5134
 4443SOL    HW224966   3.548   2.352   9.422  0.5498  0.9380 -0.8630
 4444SOL     OW24967   4.677   4.275   4.946  0.0964 -0.5425 -0.2752
 4444SOL    HW124968   0.021   4.271   4.997 -0.3504  2.2328  0.6825
 4444SOL    HW224969   4.616   4.315   5.008  0.6627  1.7253 -1.1508
 4445SOL     OW24970   3.859   2.904   2.358  0.0614  0.5302  0.0704
 4445SOL    HW124971   3.788   2.967   2.366 -1.9888 -2.0420  1.7883
 4445SOL    HW224972   3.935   2.962   2.345 -0.2422  0.8460 -0.3032
 4446SOL     OW24973   3.081   3.316  11.822  0.2982  0.2515 -0.6227
 4446SOL    HW124974   3.169   3.281  11.813  0.0970 -0.4221 -0.0076
 4446SOL    HW224975   3.041   3.275  11.745  2.4963  0.3514 -1.7876
 4447SOL     OW24976   2.267   2.653   8.770 -0.2801  0.2343 -0.5091
 4447SOL    HW124977   2.347   2.603   8.785  0.5763  1.9503  0.6015
 4447SOL    HW224978   2.306   2.738   8.752  0.0169 -0.3597 -2.6566
 4448SOL     OW24979   4.693   1.302  14.487 -0.7423 -0.5281  0.2792
 4448SOL    HW124980   4.660   1.212  14.481 -0.6881 -0.4315 -1.3001
 4448SOL    HW224981   0.051   1.297  14.498 -1.0055 -0.2085  2.7301
 4449SOL     OW24982   2.557   3.359   1.288  0.0330 -0.1808  0.7177
 4449SOL    HW124983   2.465   3.354   1.264 -0.0820  2.1689  0.6682
 4449SOL    HW224984   2.558   3.350   1.383  0.3716  1.0198  0.8311
 4450SOL     OW24985   0.423   2.238   4.522 -0.0138  0.0715  0.4575
 4450SOL    HW124986   0.367   2.226   4.599  0.0296 -1.3709  0.2706
 4450SOL    HW224987   0.507   2.241   4.566 -0.2916 -0.7404  1.0429
 4451SOL     OW24988   1.976   3.427   7.680 -0.3425  0.7476  0.2249
 4451SOL    HW124989   1.935   3.341   7.688  1.3162 -0.0639 -0.0503
 4451SOL    HW224990   1.994   3.454   7.770  2.5218  1.2209 -0.4852
 4452SOL     OW24991   1.451   2.721   8.603 -0.7171  0.9711  0.4987
 4452SOL    HW124992   1.501   2.729   8.684 -2.3552  0.6363  1.5660
 4452SOL    HW224993   1.423   2.630   8.618 -3.9985  2.0335  0.9679
 4453SOL     OW24994   3.351   2.613   6.091  0.5111  0.2933  0.7551
 4453SOL    HW124995   3.325   2.703   6.113  0.9022  0.7216 -0.5418
 4453SOL    HW224996   3.360   2.625   5.997  2.7469  0.3158  0.9813
 4454SOL     OW24997   0.262   4.364  16.540  0.1087  0.0607  0.5307
 4454SOL    HW124998   0.193   4.428  16.557 -0.5208 -0.2993 -0.6612
 4454SOL    HW224999   0.216   4.303  16.481 -1.1086  0.3438  1.1737
 4455SOL     OW25000   1.161   4.320  11.835  0.0635  0.2174  0.4106
 4455SOL    HW125001   1.155   4.404  11.790  1.9853 -0.4729 -1.1507
 4455SOL    HW225002   1.224   4.341  11.904 -0.5345  0.2319  0.9608
 4456SOL     OW25003   2.786   3.412   2.176 -0.4810  0.2410  0.7632
 4456SOL    HW125004   2.853   3.470   2.212 -1.6351  3.1853 -1.8542
 4456SOL    HW225005   2.821   3.329   2.208 -1.2510 -0.0201  0.9173
 4457SOL     OW25006   0.212   2.352   3.817 -0.0137  0.0103  0.3392
 4457SOL    HW125007   0.214   2.311   3.731  1.6384 -1.4181  1.0584
 4457SOL    HW225008   0.286   2.412   3.818 -0.0280  0.0226  0.6334
 4458SOL     OW25009   1.492   4.150   8.072 -1.0539 -0.0085  0.1170
 4458SOL    HW125010   1.518   4.088   8.141 -0.1169  2.9134  2.3659
 4458SOL    HW225011   1.474   4.228   8.124 -1.8241  0.0966 -0.3093
 4459SOL     OW25012   0.308   1.514  13.652 -0.6314  0.1578 -0.3690
 4459SOL    HW125013   0.382   1.508  13.592  0.1700  1.9732  0.4409
 4459SOL    HW225014   0.324   1.607  13.670  2.2035 -0.4057  0.0224
 4460SOL     OW25015   1.708   3.442   4.412 -0.3533 -0.3275 -0.4064
 4460SOL    HW125016   1.702   3.441   4.508  1.5386  2.3737 -0.2701
 4460SOL    HW225017   1.619   3.467   4.390  0.0569  0.8403 -0.7316
 4461SOL     OW25018   4.173   0.608   5.756 -0.0256 -0.3270 -0.4874
 4461SOL    HW125019   4.086   0.590   5.722 -0.0038  0.1292 -0.7795
 4461SOL    HW225020   4.229   0.577   5.685 -0.6493  0.7385 -1.4403
 4462SOL     OW25021   4.414   2.006   5.090  0.0677  0.8858 -0.1635
 4462SOL    HW125022   4.470   1.984   5.015 -1.5211  0.2886 -1.1853
 4462SOL    HW225023   4.327   1.974   5.067  0.2510  0.7022 -0.6166
 4463SOL     OW25024   2.579   2.278  16.881  0.2326 -0.1336  0.3404
 4463SOL    HW125025   2.616   2.351  16.931  1.1869  1.5544 -2.8612
 4463SOL    HW225026   2.498   2.264  16.929 -1.0191 -0.6129 -1.8956
 4464SOL     OW25027   1.517   1.593   4.961  0.4333 -0.0694 -0.0354
 4464SOL    HW125028   1.539   1.608   4.868 -2.6510  1.2679 -0.5496
 4464SOL    HW225029   1.492   1.501   4.966  0.4650 -0.1211 -0.7303
 4465SOL     OW25030   3.565   0.550   3.806  0.2635  0.7013 -0.1355
 4465SOL    HW125031   3.550   0.574   3.897  1.6026 -1.9220  0.7793
 4465SOL    HW225032   3.478   0.563   3.769 -0.1761 -2.3610 -0.1483
 4466SOL     OW25033   3.152   2.262   9.944  0.4146 -0.2065  0.3889
 4466SOL    HW125034   3.201   2.259  10.027 -0.8115 -1.0369  1.0905
 4466SOL    HW225035   3.124   2.353   9.947 -0.0116 -0.2116 -3.2545
 4467SOL     OW25036   1.100   0.758   4.109  0.1309  0.4050 -0.1815
 4467SOL    HW125037   1.044   0.814   4.162  1.1620  0.8516  0.4540
 4467SOL    HW225038   1.184   0.805   4.114  0.7069 -0.6984  0.5348
 4468SOL     OW25039   4.679   1.222   3.431 -0.5005  0.4189 -0.0850
 4468SOL    HW125040   4.595   1.178   3.443 -1.1871  2.0458  0.9869
 4468SOL    HW225041   4.684   1.287   3.501  0.0134 -0.6227  0.8358
 4469SOL     OW25042   0.229   1.259   9.532 -0.2738 -0.7839 -0.2908
 4469SOL    HW125043   0.302   1.207   9.502  0.3878  0.2524 -0.4827
 4469SOL    HW225044   0.274   1.336   9.567  0.3557 -1.5005  0.4594
 4470SOL     OW25045   0.441   0.880   4.972  0.2173 -0.5275 -0.3564
 4470SOL    HW125046   0.451   0.969   4.938  0.6629  0.9611  3.6735
 4470SOL    HW225047   0.533   0.862   4.987  0.9650  0.7547 -3.4824
 4471SOL     OW25048   3.118   1.631  10.255  0.0208  0.4977  0.3290
 4471SOL    HW125049   3.099   1.708  10.309  0.4323  2.3384 -2.1394
 4471SOL    HW225050   3.158   1.673  10.179 -0.2705  1.0193  0.4582
 4472SOL     OW25051   4.228   0.882   2.526 -0.4159 -0.1226 -0.2922
 4472SOL    HW125052   4.274   0.895   2.608 -1.2913 -1.5688  0.4347
 4472SOL    HW225053   4.144   0.926   2.541 -0.5933 -0.8590  0.8428
 4473SOL     OW25054   0.023   3.097   8.431  0.3819  0.2579 -0.1835
 4473SOL    HW125055   0.085   3.077   8.361  0.1200 -1.3342  0.0423
 4473SOL    HW225056   0.073   3.153   8.490 -0.8573  1.5728 -0.3855
 4474SOL     OW25057   1.925   0.156   7.362  0.5380  0.3176 -0.5023
 4474SOL    HW125058   1.897   0.143   7.271 -1.8463 -1.4846  0.4922
 4474SOL    HW225059   1.854   0.109   7.406  0.6230  2.3424  1.7986
 4475SOL     OW25060   1.581   0.849   3.730 -0.0500 -0.0117 -0.0331
 4475SOL    HW125061   1.617   0.799   3.656 -0.7815 -1.1301  0.3680
 4475SOL    HW225062   1.542   0.926   3.688 -2.2124 -2.2465 -2.1478
 4476SOL     OW25063   2.683   3.988   3.796  0.2372 -0.3760  0.2546
 4476SOL    HW125064   2.610   3.945   3.841 -1.2707  1.0309 -0.8044
 4476SOL    HW225065   2.632   4.039   3.732  1.4515 -0.2459 -0.5942
 4477SOL     OW25066   2.174   2.037   3.957 -0.0959 -0.2455  0.2033
 4477SOL    HW125067   2.180   2.128   3.928 -1.2903 -0.3621 -0.4083
 4477SOL    HW225068   2.130   1.994   3.883 -0.6798 -2.4589  1.8583
 4478SOL     OW25069   2.441   0.416   3.686 -0.1619  0.1449 -0.0703
 4478SOL    HW125070   2.407   0.383   3.769  3.8279 -0.0734  1.5201
 4478SOL    HW225071   2.522   0.366   3.675 -0.3649  0.4825 -3.1126
 4479SOL     OW25072   0.974   1.046  10.059 -0.6407  0.9175 -0.4135
 4479SOL    HW125073   0.994   1.006  10.144  0.4013  0.9814 -0.6314
 4479SOL    HW225074   0.938   0.973  10.008 -2.6115  0.4041  1.6875
 4480SOL     OW25075   4.196   4.271  14.394 -0.1503  0.4395  0.0675
 4480SOL    HW125076   4.173   4.185  14.358  1.5016 -0.3206  0.8221
 4480SOL    HW225077   4.203   4.325  14.315 -2.1149  1.3253  0.4964
 4481SOL     OW25078   4.058   1.814   4.171  0.0482  0.3656 -0.0600
 4481SOL    HW125079   3.983   1.793   4.226 -0.2252 -1.7069 -1.2544
 4481SOL    HW225080   4.137   1.781   4.213 -0.7015  0.7706  1.6583
 4482SOL     OW25081   1.218   0.177   4.584 -0.5280 -0.3376  0.6799
 4482SOL    HW125082   1.175   0.253   4.622 -0.9368 -0.3476  0.2420
 4482SOL    HW225083   1.200   0.208   4.495 -0.8567 -0.5785  0.6621
 4483SOL     OW25084   0.587   0.206   3.236  0.0549 -0.2305  0.2225
 4483SOL    HW125085   0.567   0.294   3.202  0.2064  0.0124  0.7652
 4483SOL    HW225086   0.612   0.164   3.153 -2.2974  0.9274 -1.0645
 4484SOL     OW25087   4.552   4.295   4.045 -0.5387  0.2044 -0.6611
 4484SOL    HW125088   4.514   4.283   3.958 -1.9206 -0.1115 -0.0055
 4484SOL    HW225089   4.611   4.371   4.040  1.3623 -1.1354  1.5212
 4485SOL     OW25090   2.781   4.184   6.877  0.5036 -0.5515 -0.5281
 4485SOL    HW125091   2.701   4.131   6.885  0.0174  0.7127  3.0977
 4485SOL    HW225092   2.812   4.156   6.791 -1.3471  1.4200 -1.8359
 4486SOL     OW25093   3.329   1.897   5.117  0.1005 -0.0547  0.4726
 4486SOL    HW125094   3.359   1.819   5.072  0.1465  0.7737 -0.9487
 4486SOL    HW225095   3.239   1.897   5.084  0.8622  2.9354 -1.6878
 4487SOL     OW25096   1.141   2.044   9.544  0.2081 -0.0300 -0.1859
 4487SOL    HW125097   1.076   2.048   9.615  1.4667  0.8385  0.9101
 4487SOL    HW225098   1.145   2.130   9.502  0.1585  1.9327  3.8125
 4488SOL     OW25099   2.478   0.704   5.977  0.2090 -0.4771 -0.6052
 4488SOL    HW125100   2.418   0.778   5.964  1.2962  0.2782 -1.3985
 4488SOL    HW225101   2.501   0.708   6.069  2.1354 -0.0363 -1.0988
 4489SOL     OW25102   0.049   4.460   8.640  0.3883 -0.0563  0.4643
 4489SOL    HW125103   0.075   4.475   8.550 -0.9884 -0.7677 -0.0595
 4489SOL    HW225104   4.725   4.388   8.625 -1.7970  1.4344  2.0043
 4490SOL     OW25105   2.881   1.757  15.143  0.3454 -0.3817  0.1043
 4490SOL    HW125106   2.831   1.787  15.068  1.0601 -0.6136 -0.4733
 4490SOL    HW225107   2.893   1.845  15.177 -1.6259  0.6173 -1.8242
 4491SOL     OW25108   3.764   0.507   0.654  0.3249 -0.0461 -0.5320
 4491SOL    HW125109   3.809   0.543   0.731  1.9440 -1.2319 -0.9300
 4491SOL    HW225110   3.767   0.412   0.659 -1.4679 -0.0660  0.3134
 4492SOL     OW25111   0.951   3.561  15.710 -0.4919  0.8500 -0.2438
 4492SOL    HW125112   0.898   3.515  15.645 -1.2069  1.8762 -0.3818
 4492SOL    HW225113   0.947   3.498  15.782 -0.1862 -0.6448 -1.5392
 4493SOL     OW25114   1.098   4.716   2.208 -0.1904 -0.2023  0.2875
 4493SOL    HW125115   1.075   4.634   2.252 -1.9561 -0.9595 -2.0772
 4493SOL    HW225116   1.027   4.722   2.143  0.0153  4.2133  0.4549
 4494SOL     OW25117   3.515   0.235   7.394  0.0015  0.8060  0.2491
 4494SOL    HW125118   3.609   0.249   7.408  0.2699 -1.0002  0.2381
 4494SOL    HW225119   3.523   0.158   7.338 -2.1764  0.3092  0.6280
 4495SOL     OW25120   3.185   1.233   3.868  0.3139 -0.1688  0.1399
 4495SOL    HW125121   3.163   1.175   3.795 -1.4245 -0.9188  1.2829
 4495SOL    HW225122   3.116   1.209   3.930 -1.4212 -1.9916 -2.5238
 4496SOL     OW25123   1.667   4.015  13.021 -0.6608 -0.0514  0.5724
 4496SOL    HW125124   1.704   3.947  13.078 -1.8171 -0.3488  0.9517
 4496SOL    HW225125   1.592   4.038  13.075  0.9041  1.4889  2.1299
 4497SOL     OW25126   4.114   4.600   2.093  0.1157 -0.1817  0.1997
 4497SOL    HW125127   4.077   4.684   2.120 -0.2540 -0.7102  1.3041
 4497SOL    HW225128   4.092   4.542   2.166  1.6865  0.8328  1.4902
 4498SOL     OW25129   4.640   2.904   5.630 -0.0587  0.1332 -0.2049
 4498SOL    HW125130   4.547   2.888   5.643 -0.4821  0.4169 -2.7469
 4498SOL    HW225131   4.659   2.989   5.590 -2.1070  0.7484  0.1002
 4499SOL     OW25132   1.778   4.201   8.906  0.0379 -0.1758  0.1756
 4499SOL    HW125133   1.699   4.150   8.922  0.3314 -0.4259  0.8077
 4499SOL    HW225134   1.764   4.234   8.817 -0.9011 -1.2826 -0.0866
 4500SOL     OW25135   0.916   2.142  14.089  0.1766  0.0770 -0.0514
 4500SOL    HW125136   0.969   2.105  14.160 -0.2587  1.3460  0.9251
 4500SOL    HW225137   0.833   2.158  14.132  0.2070  0.0773  0.0069
 4501SOL     OW25138   1.602   0.269   8.860  0.1804 -0.2156  0.1705
 4501SOL    HW125139   1.551   0.275   8.779  1.3276 -2.7239 -0.7223
 4501SOL    HW225140   1.686   0.236   8.828  0.9012  1.0564  0.7537
 4502SOL     OW25141   1.238   3.663   5.026 -0.5423 -0.3477 -0.4726
 4502SOL    HW125142   1.281   3.579   5.008  1.9508  0.4219  1.8398
 4502SOL    HW225143   1.166   3.667   4.964 -0.1417 -0.5126 -0.9526
 4503SOL     OW25144   4.731   0.135   2.990 -0.5430  0.5239  0.5524
 4503SOL    HW125145   0.036   0.190   2.924  0.5492 -1.2560 -0.2397
 4503SOL    HW225146   0.020   0.187   3.067 -0.9685  1.4937  0.0334
 4504SOL     OW25147   3.738   2.339   4.711  0.1550  0.2540  0.2293
 4504SOL    HW125148   3.672   2.400   4.677 -0.5548 -0.9365 -0.5421
 4504SOL    HW225149   3.682   2.261   4.710 -0.8419  0.9937 -1.2546
 4505SOL     OW25150   0.095   3.991  14.723 -0.6153  0.2640 -0.0516
 4505SOL    HW125151   0.180   3.995  14.679 -1.2563 -1.4066 -1.4390
 4505SOL    HW225152   0.105   4.063  14.786  0.9013  0.4553 -0.5028
 4506SOL     OW25153   1.553   2.391   8.325 -0.2851  0.0431  0.1325
 4506SOL    HW125154   1.477   2.365   8.377 -0.9649  0.3632 -0.7158
 4506SOL    HW225155   1.555   2.307   8.279 -0.8389  0.9199 -1.4763
 4507SOL     OW25156   4.173   4.181   2.384 -0.0037 -0.1119 -0.1088
 4507SOL    HW125157   4.137   4.205   2.469  1.4159 -0.1820  0.5144
 4507SOL    HW225158   4.128   4.097   2.375 -0.7397  0.3206 -0.4725
 4508SOL     OW25159   2.394   3.128  14.245 -0.2949 -0.2720 -0.6513
 4508SOL    HW125160   2.478   3.166  14.217  0.6316 -0.4036  2.0010
 4508SOL    HW225161   2.356   3.120  14.158 -0.1729 -1.9095 -0.5671
 4509SOL     OW25162   4.655   3.904   7.738  0.0171 -0.4186 -0.8245
 4509SOL    HW125163   4.644   3.833   7.675 -0.2212 -1.1005 -0.0303
 4509SOL    HW225164   0.012   3.922   7.732 -0.1143  0.3794 -0.4123
 4510SOL     OW25165   3.144   3.981  17.675  0.1344  0.0779  0.1089
 4510SOL    HW125166   3.189   3.898  17.660 -1.2918 -0.7424  0.3409
 4510SOL    HW225167   3.145   4.012  17.584 -0.6159  0.1796  0.1350
 4511SOL     OW25168   2.154   0.838   0.695 -0.1424 -0.0538  0.1576
 4511SOL    HW125169   2.162   0.809   0.604 -1.5061  0.7573 -0.2226
 4511SOL    HW225170   2.095   0.913   0.691  1.4896  1.1760 -1.2386
 4512SOL     OW25171   0.798   3.553   2.682  0.1296  0.5974 -0.1984
 4512SOL    HW125172   0.710   3.518   2.671  0.7326 -1.1003  0.2780
 4512SOL    HW225173   0.789   3.585   2.771  1.5759  1.6564 -0.4209
 4513SOL     OW25174   3.804   3.884   2.065  0.1134  0.1780 -0.5578
 4513SOL    HW125175   3.746   3.876   1.989 -1.0189 -1.0223  0.4250
 4513SOL    HW225176   3.879   3.828   2.048 -0.6002 -0.5189 -1.4338
 4514SOL     OW25177   3.394   2.740   0.356 -0.0543  0.1530 -0.0005
 4514SOL    HW125178   3.382   2.778   0.269 -1.5479  0.8478  0.5154
 4514SOL    HW225179   3.473   2.779   0.392 -0.2612 -0.0904  0.7300
 4515SOL     OW25180   1.973   1.189   4.492 -0.6525  0.5164 -0.1281
 4515SOL    HW125181   1.926   1.252   4.547 -0.8987 -0.3578  0.6624
 4515SOL    HW225182   1.967   1.105   4.537  2.5763 -0.1907 -1.0396
 4516SOL     OW25183   3.976   2.879   4.947 -0.5139  0.6007  0.3434
 4516SOL    HW125184   3.912   2.922   4.889  0.7044 -1.9182 -2.8803
 4516SOL    HW225185   4.049   2.940   4.952  1.4801 -1.6929 -0.9053
 4517SOL     OW25186   2.479   3.051   1.937  0.1586  0.2191 -0.0989
 4517SOL    HW125187   2.524   3.040   2.021 -1.0365 -0.5418  0.4369
 4517SOL    HW225188   2.535   3.121   1.904 -1.6631  0.8120 -1.9085
 4518SOL     OW25189   4.532   4.260  15.221  0.0245  0.2540  0.7795
 4518SOL    HW125190   4.497   4.300  15.141  1.3546  0.5612  0.3554
 4518SOL    HW225191   4.528   4.335  15.282  0.6926  0.1048  1.0030
 4519SOL     OW25192   1.634   1.919   4.692  0.1589 -0.3074  0.5302
 4519SOL    HW125193   1.634   1.952   4.602  1.5167  0.1312  0.6869
 4519SOL    HW225194   1.546   1.944   4.721 -0.5800 -0.3937 -1.6726
 4520SOL     OW25195   3.666   0.583  14.862 -0.0117 -0.1691  0.2778
 4520SOL    HW125196   3.689   0.670  14.895 -1.8570  0.5615 -0.3693
 4520SOL    HW225197   3.708   0.527  14.927 -4.1271 -1.5064  1.7719
 4521SOL     OW25198   0.888   1.280   6.725 -0.8522  0.6664 -0.1619
 4521SOL    HW125199   0.968   1.272   6.777  0.3390 -1.8520 -2.3422
 4521SOL    HW225200   0.919   1.322   6.644 -0.5150  0.3637 -0.1900
 4522SOL     OW25201   4.592   4.097  10.270  0.0491 -0.8514  0.4697
 4522SOL    HW125202   4.687   4.092  10.259 -0.1991 -0.7026 -1.6478
 4522SOL    HW225203   4.559   4.043  10.199 -3.6262  3.0804 -0.8337
 4523SOL     OW25204   0.778   3.846   9.738 -0.1333 -0.0004  0.0599
 4523SOL    HW125205   0.773   3.848   9.643 -1.5163 -0.6308  0.1138
 4523SOL    HW225206   0.708   3.905   9.764  0.4247  0.6039  0.1850
 4524SOL     OW25207   4.411   3.665   2.073 -1.0317 -0.1883 -0.1799
 4524SOL    HW125208   4.365   3.748   2.086  0.5111  0.1473  3.0648
 4524SOL    HW225209   4.433   3.672   1.980  0.8741 -0.3374  0.2479
 4525SOL     OW25210   2.820   3.299   3.673 -0.4466  0.0860  0.0837
 4525SOL    HW125211   2.794   3.380   3.628  1.9350 -0.0537 -1.5353
 4525SOL    HW225212   2.767   3.298   3.752 -2.7474 -1.1886 -1.4527
 4526SOL     OW25213   0.625   1.650   7.254  0.5328 -0.2537  0.1291
 4526SOL    HW125214   0.555   1.593   7.224  0.0864 -0.0398  0.7588
 4526SOL    HW225215   0.655   1.604   7.332 -0.4187 -0.0145  0.6329
 4527SOL     OW25216   4.492   1.426   3.349 -0.0627  0.2628  0.6053
 4527SOL    HW125217   4.403   1.394   3.362 -0.4980  1.7964  1.3928
 4527SOL    HW225218   4.530   1.433   3.436  0.9739 -0.6985  0.2286
 4528SOL     OW25219   3.635   0.639  10.793 -0.0082  0.1898  0.0089
 4528SOL    HW125220   3.668   0.728  10.782 -0.9841  0.9331  3.1968
 4528SOL    HW225221   3.685   0.602  10.720  0.4744  1.7140 -0.4342
 4529SOL     OW25222   3.620   3.034   2.845 -0.3087 -0.2627  0.1462
 4529SOL    HW125223   3.654   3.112   2.799 -0.4752  0.1440  0.7082
 4529SOL    HW225224   3.531   3.029   2.812 -0.1638 -0.8353 -0.1534
 4530SOL     OW25225   2.880   2.739   5.342 -0.8517  0.4757  0.0641
 4530SOL    HW125226   2.802   2.759   5.290 -0.2607  0.6558 -0.7358
 4530SOL    HW225227   2.945   2.729   5.273  1.5208 -0.8581  2.4805
 4531SOL     OW25228   3.481   0.386   2.020  0.1469  0.4630 -0.2516
 4531SOL    HW125229   3.506   0.467   2.066  0.7519 -2.9230  5.3794
 4531SOL    HW225230   3.386   0.393   2.029  0.0527 -1.1927 -0.0111
 4532SOL     OW25231   0.341   2.363   4.996  0.3442 -0.5101  0.0265
 4532SOL    HW125232   0.313   2.451   4.972 -1.5892 -1.1796 -0.1506
 4532SOL    HW225233   0.292   2.351   5.078 -0.5397 -1.1598 -0.6005
 4533SOL     OW25234   2.092   2.461  15.117 -0.0165  0.3648  0.3652
 4533SOL    HW125235   2.102   2.393  15.050 -0.6282  1.0284 -0.4068
 4533SOL    HW225236   2.098   2.402  15.192  0.4847 -1.1816 -0.8709
 4534SOL     OW25237   2.896   2.010   2.195 -0.1672  0.3476  0.2495
 4534SOL    HW125238   2.902   2.018   2.099 -0.3343 -1.3942  0.0890
 4534SOL    HW225239   2.857   2.093   2.222  0.4265 -0.3161  3.1332
 4535SOL     OW25240   3.225   0.859   3.234  0.1657  0.3363  0.1221
 4535SOL    HW125241   3.209   0.889   3.145 -1.6457 -2.6607 -0.5588
 4535SOL    HW225242   3.320   0.846   3.229  0.4523  1.9585  1.0706
 4536SOL     OW25243   3.214   4.290   7.451 -0.5071 -0.0470 -0.2326
 4536SOL    HW125244   3.138   4.321   7.402 -0.2199 -0.7632 -1.1243
 4536SOL    HW225245   3.223   4.365   7.510 -1.7444  0.0536 -0.1613
 4537SOL     OW25246   3.379   0.783   5.787 -0.0162  0.2534 -0.0542
 4537SOL    HW125247   3.285   0.795   5.777  0.4117  4.1218  0.7206
 4537SOL    HW225248   3.412   0.870   5.765  0.0428  0.1052 -0.5494
 4538SOL     OW25249   4.641   2.961  10.987  0.6043 -0.3668  0.5283
 4538SOL    HW125250   4.724   2.976  10.941 -0.3874 -0.6733 -1.3439
 4538SOL    HW225251   4.576   2.986  10.922  0.2319 -0.9571  0.6736
 4539SOL     OW25252   3.211   0.810   9.982 -0.4156 -0.1579 -0.3097
 4539SOL    HW125253   3.143   0.873  10.009 -1.3566 -0.8756 -1.0015
 4539SOL    HW225254   3.160   0.734   9.955 -0.4640 -0.4402  0.5628
 4540SOL     OW25255   0.083   2.729  17.619  0.1664  0.3223 -0.5164
 4540SOL    HW125256   0.124   2.685  17.546  1.0925  0.1188  0.1239
 4540SOL    HW225257   0.127   2.812  17.638  0.1744 -0.0519  1.1060
 4541SOL     OW25258   0.984   3.534   8.815 -0.1996  0.2407 -0.2266
 4541SOL    HW125259   0.915   3.489   8.865 -0.2623  0.9123  0.2832
 4541SOL    HW225260   1.039   3.456   8.819 -1.2489 -0.3595  2.7261
 4542SOL     OW25261   3.136   0.119  10.391  0.3006 -0.1837 -0.2337
 4542SOL    HW125262   3.138   0.137  10.485 -0.7080  2.3932 -0.6880
 4542SOL    HW225263   3.085   0.038  10.396  0.3344 -0.2112 -0.3407
 4543SOL     OW25264   0.578   4.652   9.989  0.1065  0.1867 -0.1423
 4543SOL    HW125265   0.632   4.731   9.990  1.1659 -0.4871 -2.7789
 4543SOL    HW225266   0.531   4.659  10.072  1.4780  1.7131  0.5133
 4544SOL     OW25267   2.391   1.698   5.117  0.1153 -0.1974 -0.0621
 4544SOL    HW125268   2.306   1.654   5.123  0.3301 -0.8870 -1.8190
 4544SOL    HW225269   2.382   1.780   5.069  1.6132 -0.6592 -1.1309
 4545SOL     OW25270   0.840   0.195   1.568  0.6141  0.1652 -0.4148
 4545SOL    HW125271   0.925   0.214   1.608 -0.4465  1.8712  1.0042
 4545SOL    HW225272   0.872   0.172   1.481  0.6844  0.5934 -0.4982
 4546SOL     OW25273   4.389   3.471   6.089 -0.0437  0.4912 -0.4005
 4546SOL    HW125274   4.408   3.497   6.179  2.3642 -1.1588 -0.4226
 4546SOL    HW225275   4.323   3.536   6.066 -0.8453  0.1869  1.0613
 4547SOL     OW25276   0.902   4.263   6.067  0.8292 -0.0133 -0.5346
 4547SOL    HW125277   0.911   4.178   6.111  0.1687  0.0386 -0.2865
 4547SOL    HW225278   0.880   4.324   6.137  0.3964 -1.0699  0.2457
 4548SOL     OW25279   1.626   0.458   7.926  0.0169  0.2442  0.5765
 4548SOL    HW125280   1.589   0.503   8.002  3.1650  1.1706  1.5558
 4548SOL    HW225281   1.714   0.436   7.955 -0.1159 -0.2003  0.6380
 4549SOL     OW25282   2.080   1.397   3.632 -0.4204  0.6353  0.0567
 4549SOL    HW125283   2.175   1.385   3.621 -0.5152  1.1545 -1.4122
 4549SOL    HW225284   2.049   1.373   3.544 -0.0207  0.7587 -0.1239
 4550SOL     OW25285   2.120   4.710   4.996  0.2729  0.1466  0.1168
 4550SOL    HW125286   2.182   0.038   5.028 -0.9587  0.3960  2.0086
 4550SOL    HW225287   2.128   4.736   4.904 -1.6370 -0.5300 -0.2411
 4551SOL     OW25288   4.650   0.272   1.701 -0.1909  0.2649  0.7079
 4551SOL    HW125289   4.689   0.258   1.787  1.0372 -0.3933  0.0392
 4551SOL    HW225290   4.618   0.360   1.719 -2.0519  0.0088 -1.3885
 4552SOL     OW25291   1.592   0.464   6.615 -0.2336  0.2391  0.0048
 4552SOL    HW125292   1.686   0.476   6.605  0.0391 -0.0308  2.3716
 4552SOL    HW225293   1.562   0.555   6.606 -0.3134  0.1583 -0.5673
 4553SOL     OW25294   3.795   2.797  16.985  0.0351 -0.6780  0.3541
 4553SOL    HW125295   3.704   2.825  16.999 -0.0126 -0.4291 -0.4386
 4553SOL    HW225296   3.780   2.729  16.919 -1.3908  2.2074 -2.3126
 4554SOL     OW25297   0.439   4.103   3.149  0.6511  0.0855  0.1965
 4554SOL    HW125298   0.359   4.051   3.148  0.2195  0.7710 -0.8050
 4554SOL    HW225299   0.475   4.064   3.229 -0.0479  0.3148  0.6193
 4555SOL     OW25300   4.414   2.049   3.350  0.0260  0.3009 -0.3652
 4555SOL    HW125301   4.419   1.967   3.399  0.3224  0.5466  0.0187
 4555SOL    HW225302   4.324   2.076   3.373  0.6111  4.1341 -2.5686
 4556SOL     OW25303   4.376   1.191  11.646 -0.5494  0.5747  0.2085
 4556SOL    HW125304   4.387   1.251  11.719  3.5783  2.1495 -1.7105
 4556SOL    HW225305   4.456   1.143  11.671  0.5661  2.9578  1.1550
 4557SOL     OW25306   0.290   0.471   7.148  0.5038  0.0587  0.9226
 4557SOL    HW125307   0.340   0.506   7.074  1.6772  1.1025  2.2064
 4557SOL    HW225308   0.330   0.521   7.219  1.9151  0.4324 -0.1397
 4558SOL     OW25309   4.021   0.188   3.769 -0.5235 -0.0824  0.0005
 4558SOL    HW125310   4.051   0.131   3.839 -1.4991 -0.9869 -0.3085
 4558SOL    HW225311   3.975   0.256   3.818 -1.2889  1.4849 -2.8899
 4559SOL     OW25312   3.403   4.531  17.740 -0.4617  0.3165 -0.3047
 4559SOL    HW125313   3.471   4.580   0.041 -1.3683  1.0425  0.2595
 4559SOL    HW225314   3.336   4.581   0.041 -1.7676 -2.5350  0.8314
 4560SOL     OW25315   0.578   4.053   4.815 -0.2953  0.0331  0.1061
 4560SOL    HW125316   0.640   4.122   4.791  1.2710 -1.4439  0.0102
 4560SOL    HW225317   0.579   4.066   4.910 -2.0149  1.5553 -0.0623
 4561SOL     OW25318   3.839   2.224   8.728 -0.1698 -0.4798 -0.3010
 4561SOL    HW125319   3.773   2.174   8.680 -0.3643  0.3168 -0.8605
 4561SOL    HW225320   3.823   2.306   8.682  1.6456  0.1695  0.2427
 4562SOL     OW25321   2.035   1.200   5.356 -0.7341  0.2853  0.5225
 4562SOL    HW125322   2.034   1.295   5.363  1.0065  0.6178 -3.2891
 4562SOL    HW225323   2.032   1.192   5.260  1.6602 -2.2320  0.6251
 4563SOL     OW25324   1.899   2.462  14.796  0.6506  0.4109 -0.4395
 4563SOL    HW125325   1.962   2.534  14.803  0.5074  0.7020 -2.3383
 4563SOL    HW225326   1.829   2.518  14.763 -1.8710 -0.6218  3.0661
 4564SOL     OW25327   3.836   3.988  11.841  0.0985 -0.0785  0.0905
 4564SOL    HW125328   3.859   4.054  11.775 -2.1840 -1.6636 -2.2545
 4564SOL    HW225329   3.925   3.967  11.870  0.6321  0.0922 -1.4289
 4565SOL     OW25330   3.060   4.067   2.486 -0.4300  0.1503 -0.3893
 4565SOL    HW125331   3.116   4.078   2.409 -1.3619 -0.8640 -1.2123
 4565SOL    HW225332   3.130   4.062   2.551 -0.2400  2.5135 -0.4032
 4566SOL     OW25333   1.174   0.304   4.106 -0.5924 -0.1067  0.2392
 4566SOL    HW125334   1.143   0.303   4.197 -0.9272 -0.5411  0.1128
 4566SOL    HW225335   1.216   0.218   4.099  0.3777  0.5630 -2.1672
 4567SOL     OW25336   2.608   0.664   7.899  0.1339 -0.5358  0.6554
 4567SOL    HW125337   2.593   0.609   7.822 -2.6352  0.5885  0.3808
 4567SOL    HW225338   2.699   0.639   7.918  0.2371 -1.5306 -1.0977
 4568SOL     OW25339   1.681   0.250   1.310  0.7461 -0.1883 -0.0441
 4568SOL    HW125340   1.769   0.276   1.339  1.1476 -0.5904 -0.9235
 4568SOL    HW225341   1.688   0.157   1.329  0.2204  0.0114  1.1077
 4569SOL     OW25342   3.569   1.567   3.024 -0.0329 -0.1542 -0.1093
 4569SOL    HW125343   3.559   1.638   3.088  1.4495 -0.3172  0.2845
 4569SOL    HW225344   3.644   1.604   2.979  0.6257 -0.2856  0.8635
 4570SOL     OW25345   3.827   0.522   3.243  0.3430 -0.2159  0.4165
 4570SOL    HW125346   3.858   0.440   3.280 -1.2551 -1.1094 -0.2006
 4570SOL    HW225347   3.731   0.515   3.239  0.3189  0.9392 -1.0945
 4571SOL     OW25348   4.065   2.272   8.448 -0.2548  0.0203 -0.0822
 4571SOL    HW125349   4.080   2.366   8.460 -0.4512 -0.0199  0.4685
 4571SOL    HW225350   4.066   2.246   8.540  2.1291  2.3545  0.5603
 4572SOL     OW25351   0.945   4.038   6.800 -0.4293  0.2310 -0.2111
 4572SOL    HW125352   0.967   3.988   6.721 -3.0957  1.4913 -1.7235
 4572SOL    HW225353   0.939   4.130   6.777 -0.1974  0.3875  0.3566
 4573SOL     OW25354   0.907   1.959   4.890  0.1396 -0.2880 -0.0492
 4573SOL    HW125355   0.830   1.949   4.835 -1.2236  0.9747  1.6163
 4573SOL    HW225356   0.977   1.960   4.825  0.4389 -1.0057  0.2605
 4574SOL     OW25357   4.391   4.207   7.326  0.4415 -1.2091  0.0245
 4574SOL    HW125358   4.461   4.267   7.352 -0.1616 -0.8896  0.9008
 4574SOL    HW225359   4.397   4.202   7.231  0.0815  1.8031 -0.1526
 4575SOL     OW25360   3.531   0.376   8.331  0.5031  0.1185  0.1111
 4575SOL    HW125361   3.490   0.462   8.317  0.7077  0.0394 -1.0004
 4575SOL    HW225362   3.620   0.381   8.296  1.5634 -1.7936  2.5225
 4576SOL     OW25363   0.281   3.229   3.210 -0.4657  0.1131 -0.2233
 4576SOL    HW125364   0.205   3.249   3.264 -1.6479 -3.6454 -0.4400
 4576SOL    HW225365   0.238   3.236   3.125 -0.4014 -0.8630 -0.3465
 4577SOL     OW25366   0.928   2.653  14.663  0.2512  0.3048  0.0973
 4577SOL    HW125367   0.919   2.656  14.758 -0.5434 -0.3704  0.0473
 4577SOL    HW225368   0.888   2.570  14.636  2.6118 -1.4973  2.1536
 4578SOL     OW25369   1.497   0.138   4.529 -0.2198 -0.1544 -0.4228
 4578SOL    HW125370   1.409   0.128   4.566  0.5530  1.2088  1.7671
 4578SOL    HW225371   1.552   0.150   4.606 -0.4449 -0.2378 -0.2476
 4579SOL     OW25372   2.847   1.133  15.829 -0.5492  0.0298 -0.2262
 4579SOL    HW125373   2.777   1.183  15.869  2.3610  2.9034  1.3149
 4579SOL    HW225374   2.804   1.075  15.765 -0.3835 -1.4175  0.9684
 4580SOL     OW25375   1.398   0.539   9.024  0.4595  0.2097 -0.0421
 4580SOL    HW125376   1.452   0.545   8.945  0.0528  0.5400 -0.2960
 4580SOL    HW225377   1.407   0.624   9.066 -1.3262  0.2775  0.2152
 4581SOL     OW25378   2.287   1.998   7.781 -0.0752  0.5432 -0.2453
 4581SOL    HW125379   2.207   2.030   7.739 -0.1704 -4.4031 -3.7718
 4581SOL    HW225380   2.342   2.077   7.788 -2.0844  2.1495 -2.8200
 4582SOL     OW25381   4.268   2.701   8.538 -0.4926  0.2192  0.2076
 4582SOL    HW125382   4.232   2.746   8.615 -0.6658 -0.0851  0.3036
 4582SOL    HW225383   4.362   2.707   8.555 -0.5064  0.8977  0.0223
 4583SOL     OW25384   4.236   3.906   2.143 -0.2486  0.1970 -0.3369
 4583SOL    HW125385   4.185   3.987   2.134  0.5341  0.7957  0.6790
 4583SOL    HW225386   4.316   3.937   2.185 -1.3719  2.6938 -0.0462
 4584SOL     OW25387   3.369   1.145   5.418 -0.2163  0.1312 -0.0087
 4584SOL    HW125388   3.332   1.184   5.497 -1.2152 -3.0304  1.0909
 4584SOL    HW225389   3.295   1.121   5.362 -0.5791  2.0381 -0.3418
 4585SOL     OW25390   1.075   1.319  11.312  0.3526 -0.0636  0.0288
 4585SOL    HW125391   1.114   1.242  11.271  0.2385  0.4951 -1.1288
 4585SOL    HW225392   1.057   1.291  11.402 -1.2733  3.7315  0.8869
 4586SOL     OW25393   2.220   1.083  11.860 -0.1949 -0.6128 -0.2107
 4586SOL    HW125394   2.289   1.023  11.889  0.2921  0.7839  1.5521
 4586SOL    HW225395   2.253   1.167  11.891 -1.9244 -0.0890  0.1971
 4587SOL     OW25396   4.376   4.445   9.440 -0.4642  0.2382 -0.3408
 4587SOL    HW125397   4.342   4.464   9.527  0.4590  0.0880  0.0496
 4587SOL    HW225398   4.298   4.413   9.395 -1.2554 -0.1486  1.3063
 4588SOL     OW25399   1.488   1.989   5.548 -0.0615  0.2823 -0.0597
 4588SOL    HW125400   1.494   2.045   5.626 -1.2526  0.5337 -0.1596
 4588SOL    HW225401   1.497   1.907   5.596 -2.2917  0.7855  1.1923
 4589SOL     OW25402   4.215   3.321   1.560  1.2159 -0.1300 -0.2609
 4589SOL    HW125403   4.200   3.394   1.500 -1.0308 -1.1290 -0.9408
 4589SOL    HW225404   4.130   3.277   1.558  0.3161  1.6262 -0.6185
 4590SOL     OW25405   3.384   3.878  17.293 -0.1667 -0.4301 -0.4051
 4590SOL    HW125406   3.373   3.957  17.345 -1.4531 -0.9505  0.1370
 4590SOL    HW225407   3.307   3.821  17.308 -0.2711  0.3899  2.1844
 4591SOL     OW25408   3.070   2.100   1.496 -0.1173  0.3516 -0.4809
 4591SOL    HW125409   3.162   2.077   1.489 -0.9608 -2.4785 -2.1871
 4591SOL    HW225410   3.065   2.188   1.458  1.4783 -0.0587 -1.6172
 4592SOL     OW25411   0.826   1.922   9.173 -0.1018  0.3688 -0.5533
 4592SOL    HW125412   0.887   1.992   9.150  0.8673  0.1021  1.1782
 4592SOL    HW225413   0.860   1.887   9.256 -0.8608  0.2511 -0.2938
 4593SOL     OW25414   2.352   1.349   3.572  0.2540 -0.4537  0.0751
 4593SOL    HW125415   2.375   1.394   3.491  0.4032 -0.2568  0.2262
 4593SOL    HW225416   2.332   1.256   3.557  0.8523 -0.3992 -1.0658
 4594SOL     OW25417   4.123   3.089  11.819 -0.5349 -0.0770  0.1312
 4594SOL    HW125418   4.086   3.168  11.780 -1.0571 -0.1977  0.3767
 4594SOL    HW225419   4.042   3.048  11.849 -0.5012 -0.7867 -0.7398
 4595SOL     OW25420   4.122   1.068   8.562 -0.5759 -0.1858 -0.3756
 4595SOL    HW125421   4.124   1.164   8.569  0.9784 -0.2154 -0.4845
 4595SOL    HW225422   4.058   1.053   8.632  0.7681 -1.0250  0.6573
 4596SOL     OW25423   1.083   1.524   3.582  0.3364  0.1862  0.3170
 4596SOL    HW125424   1.036   1.478   3.513  2.0127  1.4708 -1.6827
 4596SOL    HW225425   1.147   1.461   3.614 -0.7728 -1.1439 -0.0814
 4597SOL     OW25426   3.462   0.540   4.674 -0.2587 -0.8067 -0.0563
 4597SOL    HW125427   3.437   0.628   4.646  1.3177 -0.0445  0.9552
 4597SOL    HW225428   3.375   0.507   4.700 -1.4119  0.1068 -2.8078
 4598SOL     OW25429   3.935   4.520   7.503 -0.7814  0.0846 -0.6821
 4598SOL    HW125430   3.883   4.586   7.548 -1.7672 -0.0591 -1.6354
 4598SOL    HW225431   3.951   4.452   7.569  0.4513  0.6182 -0.4293
 4599SOL     OW25432   0.060   3.231   3.064  0.1284  0.2615  0.2746
 4599SOL    HW125433   0.009   3.310   3.082  0.7931  1.4742 -3.2920
 4599SOL    HW225434   4.731   3.179   3.019 -0.1374  1.7730 -1.0738
 4600SOL     OW25435   0.184   3.220   0.227 -0.1661  0.3641 -0.0176
 4600SOL    HW125436   0.236   3.241   0.150  0.0965 -0.5506 -0.0991
 4600SOL    HW225437   0.238   3.152   0.267  0.3073  1.0259  0.4647
 4601SOL     OW25438   0.379   4.636   1.708  0.5040 -0.1509  0.3133
 4601SOL    HW125439   0.428   4.716   1.689  0.1875 -0.0834 -0.2338
 4601SOL    HW225440   0.292   4.661   1.676  1.6093 -0.4820 -2.9444
 4602SOL     OW25441   1.356   4.723   4.736 -0.0857 -0.1047  0.2739
 4602SOL    HW125442   1.350   4.638   4.693  1.3156  0.7570 -1.6292
 4602SOL    HW225443   1.289   0.042   4.697  0.1215 -0.3181 -0.3878
 4603SOL     OW25444   2.890   3.422   8.306  0.1432 -0.2543 -0.3752
 4603SOL    HW125445   2.957   3.468   8.357  0.2631 -0.5116 -0.2977
 4603SOL    HW225446   2.868   3.482   8.235 -2.3192 -1.8968 -0.9701
 4604SOL     OW25447   0.655   0.080   7.591  0.0588 -0.1246  0.6200
 4604SOL    HW125448   0.703   0.147   7.640  0.0870  0.8372 -0.7132
 4604SOL    HW225449   0.597   0.139   7.542  0.4603  0.2654  0.6150
 4605SOL     OW25450   0.368   2.224  13.828 -0.1438  0.1659  0.4060
 4605SOL    HW125451   0.371   2.319  13.842 -1.5474  0.0757  1.2275
 4605SOL    HW225452   0.399   2.190  13.912  1.4661 -0.6486 -0.5234
 4606SOL     OW25453   1.742   2.252  15.323 -0.1095  0.0008  0.1675
 4606SOL    HW125454   1.666   2.198  15.346  1.1609 -1.0876  1.7893
 4606SOL    HW225455   1.713   2.340  15.346  3.5240  1.3309 -0.2588
 4607SOL     OW25456   0.168   0.223  13.540  0.3004 -0.2885 -0.3742
 4607SOL    HW125457   0.100   0.156  13.545 -1.8223  2.1129  3.8864
 4607SOL    HW225458   0.173   0.234  13.445  0.7484 -1.1845 -0.4472
 4608SOL     OW25459   4.363   2.650   7.041  0.2558 -0.2193 -0.3658
 4608SOL    HW125460   4.376   2.728   7.095  1.0986 -0.3376 -0.4028
 4608SOL    HW225461   4.272   2.663   7.014  0.0660  1.0962  0.8672
 4609SOL     OW25462   3.728   0.017   9.416  0.2747  0.0892 -0.2383
 4609SOL    HW125463   3.722   0.084   9.484  0.4448 -0.2855  0.1478
 4609SOL    HW225464   3.818   0.035   9.393 -0.2841  4.1190  0.7132
 4610SOL     OW25465   2.858   3.415  11.158 -0.0455  0.3233 -0.1639
 4610SOL    HW125466   2.833   3.395  11.248  1.4068 -1.1457 -0.0829
 4610SOL    HW225467   2.847   3.510  11.163 -0.7195  0.2763 -0.7722
 4611SOL     OW25468   2.628   1.899   2.069 -0.3214  0.1945  0.4359
 4611SOL    HW125469   2.601   1.981   2.028 -3.7020 -1.9457 -1.7020
 4611SOL    HW225470   2.668   1.929   2.151 -0.4119 -0.1927  0.6214
 4612SOL     OW25471   1.996   4.143   1.533 -0.5359 -0.0007 -0.5006
 4612SOL    HW125472   2.065   4.204   1.559 -1.4128  0.5537  0.5146
 4612SOL    HW225473   1.953   4.126   1.616  3.1197  0.3246  1.4794
 4613SOL     OW25474   4.563   1.253   6.534  0.4267 -0.7172 -0.3439
 4613SOL    HW125475   4.645   1.287   6.570  0.9787 -0.9632 -1.3705
 4613SOL    HW225476   4.512   1.241   6.614  0.6658  2.4479  0.2736
 4614SOL     OW25477   1.253   2.086   6.051 -0.4947  0.7554  0.2110
 4614SOL    HW125478   1.219   2.080   6.140 -0.8325 -2.5311 -0.1480
 4614SOL    HW225479   1.304   2.005   6.055 -0.0386  0.9762 -1.1643
 4615SOL     OW25480   3.763   3.037   5.860  0.1401  0.2889  0.0769
 4615SOL    HW125481   3.701   3.017   5.790 -1.5193  2.1026  1.0133
 4615SOL    HW225482   3.806   3.116   5.827 -0.1804  1.1882  1.8324
 4616SOL     OW25483   4.573   1.933   1.317 -0.0306  0.1820 -0.1643
 4616SOL    HW125484   4.548   1.843   1.294 -2.6049  0.8284  0.0343
 4616SOL    HW225485   4.638   1.938   1.387  0.5842  0.1861 -0.7327
 4617SOL     OW25486   0.431   2.943  15.770 -0.2429  0.3093  0.3563
 4617SOL    HW125487   0.413   2.912  15.681 -0.6028 -0.1150  0.5714
 4617SOL    HW225488   0.434   3.037  15.756 -0.1656  0.2356 -0.1282
 4618SOL     OW25489   1.901   3.103   5.257 -0.0949 -0.1162 -0.0169
 4618SOL    HW125490   1.980   3.154   5.240 -0.8427  1.3257  0.8418
 4618SOL    HW225491   1.922   3.032   5.196  3.6826  1.8418 -0.9822
 4619SOL     OW25492   1.324   0.884   9.057  0.2026  0.0146 -0.3073
 4619SOL    HW125493   1.269   0.860   9.131 -0.1737 -2.2944 -1.3348
 4619SOL    HW225494   1.258   0.904   8.990  0.4124 -0.9052 -0.7788
 4620SOL     OW25495   3.514   0.475   6.039  0.4637 -0.0475  0.7303
 4620SOL    HW125496   3.525   0.457   5.946  0.5478 -2.9448  1.3098
 4620SOL    HW225497   3.418   0.473   6.041  0.5161 -2.9323 -0.6495
 4621SOL     OW25498   4.156   3.904  12.840 -0.0172 -0.0194  0.9290
 4621SOL    HW125499   4.094   3.951  12.784  0.8837 -0.8536 -0.7463
 4621SOL    HW225500   4.097   3.895  12.915 -0.9176 -1.4643  0.0405
 4622SOL     OW25501   3.209   2.119   7.249  0.2437 -0.0860  0.2148
 4622SOL    HW125502   3.184   2.208   7.222 -5.9931 -1.8101  0.3683
 4622SOL    HW225503   3.123   2.079   7.247  0.3654 -0.2913 -0.8800
 4623SOL     OW25504   2.594   0.480   2.840  0.2514  0.0866  0.0029
 4623SOL    HW125505   2.609   0.414   2.907  2.2662 -2.2625 -2.7472
 4623SOL    HW225506   2.654   0.552   2.862  0.7938  0.2386 -1.9045
 4624SOL     OW25507   2.462   2.632   5.887  0.1391  0.0175 -0.4497
 4624SOL    HW125508   2.479   2.664   5.975 -0.0627 -1.1991  0.0412
 4624SOL    HW225509   2.547   2.601   5.855 -1.3292 -4.3374 -0.2107
 4625SOL     OW25510   0.228   3.634   2.629  0.0187 -0.6457 -0.1229
 4625SOL    HW125511   0.238   3.691   2.553 -0.9770  0.9545  0.9415
 4625SOL    HW225512   0.223   3.550   2.583 -0.8862 -0.1885 -0.8479
 4626SOL     OW25513   1.941   4.121  13.108  0.1039  0.0612  0.1838
 4626SOL    HW125514   1.922   4.068  13.185 -1.0088  1.6621  0.9879
 4626SOL    HW225515   1.855   4.156  13.085  0.3702  0.3145 -0.4566
 4627SOL     OW25516   1.103   1.863   4.689 -0.3306 -0.0685  0.4420
 4627SOL    HW125517   1.152   1.938   4.722  1.7302 -0.7055 -1.2025
 4627SOL    HW225518   1.145   1.849   4.604 -0.8586  0.2897  0.1208
 4628SOL     OW25519   3.963   3.289  14.861 -0.9826  0.0311  0.7913
 4628SOL    HW125520   3.947   3.219  14.798 -1.7748  1.5099 -0.6474
 4628SOL    HW225521   3.962   3.373  14.814 -2.0562 -0.7974 -0.6536
 4629SOL     OW25522   2.732   3.053   8.479  0.2383  0.0076  0.2049
 4629SOL    HW125523   2.673   3.004   8.535  0.4052 -0.0836  0.3019
 4629SOL    HW225524   2.749   3.137   8.522  0.7564 -0.1664  0.3439
 4630SOL     OW25525   2.195   2.749   7.226 -0.5034  0.1973 -0.5684
 4630SOL    HW125526   2.141   2.738   7.148  0.9682 -0.5417 -1.4780
 4630SOL    HW225527   2.170   2.837   7.256 -0.4035 -0.2046  0.6698
 4631SOL     OW25528   0.432   1.151   4.800 -0.5786  0.1334  0.5159
 4631SOL    HW125529   0.342   1.179   4.783 -0.9407 -1.5349 -0.3023
 4631SOL    HW225530   0.469   1.232   4.837 -0.7764  1.7305 -2.7639
 4632SOL     OW25531   4.105   3.028   3.974 -0.4722  0.5184  0.0732
 4632SOL    HW125532   4.143   3.049   4.059  1.5672 -1.3948 -0.3622
 4632SOL    HW225533   4.023   2.989   4.004  1.1316 -1.0408  2.4915
 4633SOL     OW25534   0.602   0.466   9.098  0.4711 -0.0019  0.6320
 4633SOL    HW125535   0.528   0.471   9.159  0.8647 -1.1386  1.2149
 4633SOL    HW225536   0.646   0.545   9.130 -1.0505  1.4803 -0.9878
 4634SOL     OW25537   2.493   3.833   3.917  0.1057  0.3037  0.0344
 4634SOL    HW125538   2.466   3.828   4.009  0.2477  1.6825  0.1469
 4634SOL    HW225539   2.575   3.787   3.937  0.0956 -0.5983 -1.9998
 4635SOL     OW25540   2.977   3.710   6.107 -0.4919  0.5101  0.1173
 4635SOL    HW125541   3.019   3.785   6.064 -1.9714  3.3584  3.6509
 4635SOL    HW225542   2.942   3.656   6.036  1.7436 -1.3080  0.4261
 4636SOL     OW25543   1.260   2.749   3.576  0.1704  0.4601 -1.0343
 4636SOL    HW125544   1.275   2.695   3.498  0.4776  0.7458 -1.1720
 4636SOL    HW225545   1.283   2.689   3.647  1.7051  1.1424 -0.9771
 4637SOL     OW25546   3.687   4.354  13.120  0.3289 -0.2704 -0.5649
 4637SOL    HW125547   3.737   4.324  13.196 -1.9437 -0.0411  1.0325
 4637SOL    HW225548   3.621   4.286  13.105 -0.5864 -0.1549  2.8404
 4638SOL     OW25549   1.520   1.687   0.880 -0.2026  0.1854  0.0021
 4638SOL    HW125550   1.582   1.671   0.951  0.0283 -0.4114 -0.3432
 4638SOL    HW225551   1.503   1.598   0.851  0.0227  0.7087 -1.7507
 4639SOL     OW25552   2.314   4.343   3.545 -0.3510  0.1950  0.2474
 4639SOL    HW125553   2.264   4.261   3.537  2.6788 -1.4683 -1.6864
 4639SOL    HW225554   2.342   4.350   3.454 -1.5552  0.6856 -0.0745
 4640SOL     OW25555   3.636   4.700   7.750 -0.3041  0.7729 -0.1253
 4640SOL    HW125556   3.718   4.718   7.703 -0.3955 -1.3885 -1.1427
 4640SOL    HW225557   3.589   4.668   7.673  2.6760  1.9272 -2.4347
 4641SOL     OW25558   2.287   4.330   7.693  0.1118 -0.5215 -0.5252
 4641SOL    HW125559   2.256   4.239   7.695 -2.0082  0.2817  2.4421
 4641SOL    HW225560   2.374   4.318   7.731 -0.5022  0.3427  1.1301
 4642SOL     OW25561   4.503   1.661   7.647 -0.1189 -0.4216  0.3155
 4642SOL    HW125562   4.577   1.684   7.704 -0.3117  2.4112 -0.5866
 4642SOL    HW225563   4.541   1.695   7.567  1.1654 -0.2327  0.9983
 4643SOL     OW25564   1.884   3.449   2.832 -0.5187 -0.1258 -0.1791
 4643SOL    HW125565   1.820   3.519   2.843 -1.4177 -1.0013  0.2171
 4643SOL    HW225566   1.890   3.424   2.924  1.8468  2.2698  0.3053
 4644SOL     OW25567   2.183   4.476   3.744 -0.3402  0.1732 -0.5296
 4644SOL    HW125568   2.241   4.428   3.685  0.5145  1.4903 -0.7508
 4644SOL    HW225569   2.246   4.532   3.789  0.9793 -0.1587 -1.9828
 4645SOL     OW25570   3.506   1.729   1.931  0.3661 -0.1166 -0.1137
 4645SOL    HW125571   3.488   1.685   1.847 -0.4997  1.3006 -0.6682
 4645SOL    HW225572   3.432   1.788   1.916  1.1197  0.4419 -1.6259
 4646SOL     OW25573   3.360   2.336   1.596  0.3189  0.4091  0.2497
 4646SOL    HW125574   3.308   2.410   1.566 -1.2048 -0.7113  0.1287
 4646SOL    HW225575   3.438   2.385   1.623 -0.6647  1.7650  0.6047
 4647SOL     OW25576   3.378   2.271   6.709 -0.0862  0.1780 -0.2901
 4647SOL    HW125577   3.472   2.253   6.715 -0.3349 -1.0421 -0.2098
 4647SOL    HW225578   3.339   2.204   6.764 -1.6247  1.6444  0.4002
 4648SOL     OW25579   2.910   4.196  14.487  0.2395  0.4879 -0.0659
 4648SOL    HW125580   2.825   4.198  14.530  0.2120  1.3680 -0.1567
 4648SOL    HW225581   2.894   4.131  14.418 -1.8675 -0.1638  1.0317
 4649SOL     OW25582   3.399   1.148  17.071  0.3529  0.4755  0.5709
 4649SOL    HW125583   3.412   1.105  16.987  0.3511  0.9362  0.3316
 4649SOL    HW225584   3.306   1.168  17.067  0.6315  1.5024 -0.7930
 4650SOL     OW25585   2.189   2.018   0.271 -0.4171  0.2386 -0.0091
 4650SOL    HW125586   2.226   2.058   0.193 -1.8251 -0.8077 -1.2181
 4650SOL    HW225587   2.258   2.027   0.336 -1.1094  0.6265  0.6789
 4651SOL     OW25588   2.980   1.794   2.342  0.3376  0.6276  0.6847
 4651SOL    HW125589   2.977   1.875   2.291 -0.4061 -0.3956 -0.9154
 4651SOL    HW225590   3.055   1.791   2.401 -1.3331  0.4666  2.7961
 4652SOL     OW25591   3.021   4.651   2.334  0.1208 -0.0981  0.4613
 4652SOL    HW125592   2.926   4.667   2.334  0.8417  4.1468  0.7959
 4652SOL    HW225593   3.020   4.557   2.315  1.3325  0.0073 -0.0719
 4653SOL     OW25594   4.185   4.074   3.356  0.1271 -0.4242 -0.1343
 4653SOL    HW125595   4.151   3.986   3.372 -0.8747  0.1099  0.7023
 4653SOL    HW225596   4.124   4.093   3.285  0.9068 -2.9298 -1.4581
 4654SOL     OW25597   2.461   4.344   3.321 -0.1383  0.1556 -0.7181
 4654SOL    HW125598   2.512   4.414   3.278 -0.1814 -0.8088 -2.3341
 4654SOL    HW225599   2.432   4.299   3.241  0.2543  1.2251 -1.4696
 4655SOL     OW25600   2.191   2.303   7.752  0.0785  0.3320  0.2356
 4655SOL    HW125601   2.175   2.397   7.748  0.7171  0.4570  0.7364
 4655SOL    HW225602   2.283   2.294   7.775  0.2309 -0.5377 -0.7326
 4656SOL     OW25603   3.399   3.210   1.576  0.3409 -0.3554  0.5092
 4656SOL    HW125604   3.337   3.179   1.643  2.0081 -2.1243  1.2477
 4656SOL    HW225605   3.376   3.303   1.567  4.2849  0.9873  4.1144
 4657SOL     OW25606   1.043   0.982   2.501 -0.6504  0.4651 -0.5607
 4657SOL    HW125607   1.075   0.915   2.562  0.5201  1.7305  0.2023
 4657SOL    HW225608   1.021   0.924   2.427 -0.7711 -0.7595  0.4258
 4658SOL     OW25609   1.558   0.278   4.135 -0.2518 -0.2041  0.7655
 4658SOL    HW125610   1.634   0.230   4.169  1.3532  2.8382  1.4565
 4658SOL    HW225611   1.592   0.367   4.123  0.0233 -0.4604 -0.3836
 4659SOL     OW25612   4.042   4.442   4.160 -0.0820  0.1000  0.5483
 4659SOL    HW125613   3.975   4.438   4.227 -0.5328  0.2498  0.1032
 4659SOL    HW225614   4.109   4.402   4.217 -0.6288 -0.3159  0.8963
 4660SOL     OW25615   3.411   4.411   5.670  0.1111 -0.4129 -0.0523
 4660SOL    HW125616   3.469   4.454   5.733 -0.9934  0.7975  0.1060
 4660SOL    HW225617   3.475   4.355   5.624 -1.3174 -1.7808 -0.3539
 4661SOL     OW25618   3.867   2.248  14.851 -0.4168  0.1099 -0.5894
 4661SOL    HW125619   3.884   2.162  14.812  2.6834  0.5545 -0.2011
 4661SOL    HW225620   3.844   2.303  14.776 -0.6978  1.1846  0.2814
 4662SOL     OW25621   4.316   2.520   0.380  0.4604  0.6649  0.1401
 4662SOL    HW125622   4.312   2.426   0.397  1.0172  0.4937 -0.6412
 4662SOL    HW225623   4.224   2.537   0.359  0.8356  2.4220 -0.0893
 4663SOL     OW25624   3.710   0.780  10.382  0.5505  0.4059  0.6440
 4663SOL    HW125625   3.720   0.701  10.435  1.0473  1.7832  2.6065
 4663SOL    HW225626   3.793   0.827  10.393 -0.5073  2.7229 -1.5570
 4664SOL     OW25627   2.387   0.911   5.245 -0.2721 -0.0561 -0.3914
 4664SOL    HW125628   2.386   0.899   5.150  0.5682 -1.8540 -0.1780
 4664SOL    HW225629   2.363   1.003   5.251  0.1311 -0.0179  0.6436
 4665SOL     OW25630   1.503   1.416   0.853 -0.5459  0.2499 -0.1572
 4665SOL    HW125631   1.413   1.387   0.868  0.2567 -2.8878 -1.2242
 4665SOL    HW225632   1.513   1.368   0.770 -1.4213  0.5369 -0.4344
 4666SOL     OW25633   3.591   0.260   2.870 -0.4614 -0.5916 -0.5438
 4666SOL    HW125634   3.515   0.217   2.830  0.8040 -2.0804 -1.3522
 4666SOL    HW225635   3.544   0.334   2.908 -0.5033 -0.9913  0.1782
 4667SOL     OW25636   3.377   1.196   2.508  0.3612  0.5775 -0.6464
 4667SOL    HW125637   3.459   1.194   2.557  0.7873  0.6680 -1.3572
 4667SOL    HW225638   3.355   1.279   2.551  0.1326  0.1881 -0.0182
 4668SOL     OW25639   3.036   2.034   3.403 -0.0745  0.2594  0.4450
 4668SOL    HW125640   2.969   2.014   3.337 -0.2626  1.8701  0.1358
 4668SOL    HW225641   3.107   2.073   3.351  2.5252 -0.3143  3.6036
 4669SOL     OW25642   3.279   0.850  15.972  0.1957 -0.2434 -0.0404
 4669SOL    HW125643   3.345   0.909  15.935  1.0735 -1.5153 -0.4981
 4669SOL    HW225644   3.199   0.898  15.947  0.5611  0.8821  0.9450
 4670SOL     OW25645   2.546   1.516   9.789 -0.1013 -0.5378 -0.3999
 4670SOL    HW125646   2.591   1.499   9.706 -2.5925 -3.3116 -1.1567
 4670SOL    HW225647   2.509   1.434   9.820  0.7054 -1.3490 -1.5800
 4671SOL     OW25648   0.284   3.694   7.585 -0.3740  0.1370  0.0336
 4671SOL    HW125649   0.324   3.660   7.505  2.0868  2.1979  0.3939
 4671SOL    HW225650   0.268   3.617   7.639 -1.5920 -1.0087 -1.9565
 4672SOL     OW25651   4.599   4.477  12.414 -0.2140  0.4563  0.0665
 4672SOL    HW125652   4.542   4.428  12.355  0.3641 -0.4306  0.2522
 4672SOL    HW225653   4.642   4.400  12.452 -0.8739  0.0163 -0.0854
 4673SOL     OW25654   1.421   1.745   6.311  0.2249  0.4063  0.5039
 4673SOL    HW125655   1.495   1.771   6.366  2.2995  0.5733 -2.3784
 4673SOL    HW225656   1.459   1.669   6.266 -0.2791  2.2295 -2.9572
 4674SOL     OW25657   2.974   3.947   4.205  0.3987  0.3321  0.4906
 4674SOL    HW125658   3.030   3.879   4.241 -0.1936  0.3324  1.3979
 4674SOL    HW225659   3.043   3.994   4.157 -1.2343  0.6726 -1.5520
 4675SOL     OW25660   1.519   3.190  14.116 -0.0711 -0.0051 -0.2310
 4675SOL    HW125661   1.461   3.240  14.059 -1.5765 -1.8982 -0.3580
 4675SOL    HW225662   1.560   3.266  14.157 -0.5039  0.9156 -1.4990
 4676SOL     OW25663   4.332   2.659   6.649 -0.2406 -0.2431 -0.2518
 4676SOL    HW125664   4.398   2.665   6.719 -1.2574  1.2949  0.5855
 4676SOL    HW225665   4.285   2.743   6.648 -0.3394 -0.3388 -2.3446
 4677SOL     OW25666   3.990   2.471  11.712 -0.0117  0.3678  0.2238
 4677SOL    HW125667   4.045   2.428  11.777 -3.1771 -0.2756  2.4571
 4677SOL    HW225668   3.947   2.400  11.664  0.7481  0.9977 -1.4006
 4678SOL     OW25669   3.569   0.574   6.850  0.6274  0.4996 -0.4619
 4678SOL    HW125670   3.636   0.522   6.805  1.6329  1.5193 -0.1496
 4678SOL    HW225671   3.490   0.539   6.809 -0.5331 -0.0781  2.2806
 4679SOL     OW25672   2.117   0.744  12.000  0.3632 -0.1499 -0.7501
 4679SOL    HW125673   2.194   0.687  12.009  0.8829 -0.0436 -4.5143
 4679SOL    HW225674   2.123   0.762  11.906 -0.8926 -0.4842 -0.8885
 4680SOL     OW25675   4.454   0.079   5.649  0.0702  0.3420 -0.2784
 4680SOL    HW125676   4.392   0.152   5.655  0.0639  0.3901 -0.9026
 4680SOL    HW225677   4.401   4.736   5.647  0.8497 -0.2306  1.9383
 4681SOL     OW25678   1.965   0.316   1.350 -0.3041  0.5115  0.2789
 4681SOL    HW125679   2.046   0.342   1.394  0.0605 -0.0133 -0.0877
 4681SOL    HW225680   1.925   0.402   1.334 -2.6498 -0.8283 -1.0068
 4682SOL     OW25681   0.108   1.399   1.368  0.2367 -0.8132  0.7525
 4682SOL    HW125682   0.088   1.384   1.460 -0.2928 -0.2736  0.7218
 4682SOL    HW225683   0.094   1.491   1.348  0.1091 -1.1525 -0.7758
 4683SOL     OW25684   3.201   3.155   1.755 -0.4673 -0.9019  0.1437
 4683SOL    HW125685   3.173   3.232   1.806  0.0541 -0.3276 -0.4337
 4683SOL    HW225686   3.130   3.131   1.695 -0.2210 -0.5099 -0.3136
 4684SOL     OW25687   1.539   1.135  10.047  0.3965  0.3677  0.0295
 4684SOL    HW125688   1.495   1.147  10.132  2.0939 -1.3574  1.1378
 4684SOL    HW225689   1.603   1.069  10.074 -1.3700 -1.1835  0.4323
 4685SOL     OW25690   4.141   1.384   1.290 -1.2835 -0.4961 -0.3907
 4685SOL    HW125691   4.196   1.307   1.299 -0.0756  0.2272 -1.5422
 4685SOL    HW225692   4.120   1.364   1.199  0.3859  0.3095 -0.9625
 4686SOL     OW25693   3.861   4.644  14.266 -0.3474 -0.2083  0.6480
 4686SOL    HW125694   3.791   4.669  14.325 -0.7618  0.2420 -0.0350
 4686SOL    HW225695   3.909   4.591  14.330 -0.1258 -0.0391  0.6220
 4687SOL     OW25696   1.149   0.625   1.161 -0.3516 -0.2514  0.7257
 4687SOL    HW125697   1.109   0.709   1.139  0.1229  0.3036  2.0150
 4687SOL    HW225698   1.087   0.571   1.210  0.0342 -2.2389 -0.9563
 4688SOL     OW25699   2.052   2.110  16.749 -0.1103  0.1692 -0.7004
 4688SOL    HW125700   2.053   2.205  16.761  0.6383  0.2322 -1.2365
 4688SOL    HW225701   1.968   2.105  16.703  1.0090 -3.0886 -2.3502
 4689SOL     OW25702   1.532   2.146   7.222  0.5049  0.3678  0.7695
 4689SOL    HW125703   1.486   2.142   7.306 -0.1311  1.8759  0.5026
 4689SOL    HW225704   1.609   2.093   7.243 -0.3777 -0.5047  1.8073
 4690SOL     OW25705   4.570   2.722   5.097 -0.5085  0.3375  0.1500
 4690SOL    HW125706   4.575   2.773   5.016  1.0368  0.1452  0.1144
 4690SOL    HW225707   4.535   2.639   5.067  3.6430 -2.0154  1.8852
 4691SOL     OW25708   1.176   3.728   4.151 -0.0188  0.0358 -0.2686
 4691SOL    HW125709   1.256   3.774   4.126 -0.4384  0.8656 -0.0716
 4691SOL    HW225710   1.120   3.746   4.075  2.5396  0.6672 -1.9981
 4692SOL     OW25711   1.494   2.644   6.661 -0.2973  0.0948 -0.4360
 4692SOL    HW125712   1.478   2.727   6.618  1.4960 -0.2538 -1.7811
 4692SOL    HW225713   1.413   2.624   6.709  2.2434 -0.8323  3.5312
 4693SOL     OW25714   2.365   1.480   3.335  0.2297  0.5183 -0.4440
 4693SOL    HW125715   2.308   1.477   3.258  0.2355 -2.5143 -0.3293
 4693SOL    HW225716   2.439   1.447   3.285  0.1475 -1.1584  0.5254
 4694SOL     OW25717   2.794   2.755   8.084 -0.0139  0.3718  0.0360
 4694SOL    HW125718   2.763   2.846   8.088  0.2097  0.4617 -0.2908
 4694SOL    HW225719   2.711   2.708   8.090 -0.7303  1.8820  1.8355
 4695SOL     OW25720   1.813   0.529   1.255 -0.0730  0.5050  0.1898
 4695SOL    HW125721   1.818   0.585   1.177 -0.9941  0.0156 -0.2177
 4695SOL    HW225722   1.744   0.468   1.229  0.9722 -0.5094 -0.2072
 4696SOL     OW25723   3.015   3.909   7.781  0.0598 -0.0122  0.3598
 4696SOL    HW125724   2.988   3.818   7.786  0.8364 -0.0936  2.7125
 4696SOL    HW225725   2.940   3.960   7.748  0.6732  0.0086 -1.0038
 4697SOL     OW25726   1.035   0.034  12.172 -0.1161  0.3111  0.0085
 4697SOL    HW125727   1.077   4.734  12.249 -0.2446  2.7303  1.2268
 4697SOL    HW225728   1.093   4.736  12.103  1.2894  1.8291  0.4275
 4698SOL     OW25729   0.806   4.598  14.355 -0.3029 -0.2294 -0.5062
 4698SOL    HW125730   0.898   4.623  14.355  0.1306 -1.7976  2.7991
 4698SOL    HW225731   0.801   4.505  14.377 -1.5415  0.5515  2.5919
 4699SOL     OW25732   3.464   3.525  11.032 -0.3605 -0.3008  0.1498
 4699SOL    HW125733   3.527   3.524  11.104  1.5033 -2.7299 -1.4708
 4699SOL    HW225734   3.380   3.536  11.075  0.0364  1.6878  0.4121
 4700SOL     OW25735   4.415   3.313   3.902  0.0333  0.5472 -0.3574
 4700SOL    HW125736   4.460   3.372   3.842 -0.4469  0.0990 -1.1535
 4700SOL    HW225737   4.333   3.362   3.914 -1.7268 -2.7643  1.2198
 4701SOL     OW25738   0.815   1.548  13.416  0.2909 -0.5823 -0.1748
 4701SOL    HW125739   0.800   1.552  13.322  0.4753  0.1543 -0.1702
 4701SOL    HW225740   0.807   1.640  13.441  0.5382  0.0824 -2.6186
 4702SOL     OW25741   1.055   4.055   2.847 -0.0443  0.2554 -0.4127
 4702SOL    HW125742   1.055   3.960   2.847 -1.7312  0.2434 -0.8919
 4702SOL    HW225743   1.148   4.068   2.830 -0.1333  1.7993  0.2668
 4703SOL     OW25744   1.339   2.349   3.543  0.2370 -0.1992  0.1472
 4703SOL    HW125745   1.394   2.311   3.612 -0.2775  1.6332  1.5679
 4703SOL    HW225746   1.253   2.318   3.573  0.3533  0.1411  0.8266
 4704SOL     OW25747   1.785   1.870  17.736  0.3373  0.0831 -0.5704
 4704SOL    HW125748   1.832   1.867  17.653  1.8790  0.8146  0.2686
 4704SOL    HW225749   1.709   1.813  17.728  1.3561 -1.2064 -1.0741
 4705SOL     OW25750   3.532   2.528   1.672  0.1277 -0.6177 -0.4262
 4705SOL    HW125751   3.626   2.537   1.687 -0.1552  0.2213  0.7969
 4705SOL    HW225752   3.491   2.595   1.727  0.8576  0.4111 -1.1220
 4706SOL     OW25753   2.878   2.195   3.586  0.2009 -0.3566 -0.2702
 4706SOL    HW125754   2.840   2.121   3.633 -2.2035  1.1786  0.1997
 4706SOL    HW225755   2.941   2.152   3.528 -0.6369 -0.9922 -0.7048
 4707SOL     OW25756   1.740   3.561   1.299  0.5691  0.3140  0.0384
 4707SOL    HW125757   1.744   3.547   1.393 -0.9649  2.5394  0.4265
 4707SOL    HW225758   1.754   3.656   1.291  0.1791  0.3543 -0.1356
 4708SOL     OW25759   3.699   1.232   0.054 -0.1131 -0.1406  0.2382
 4708SOL    HW125760   3.646   1.312   0.056  1.8676  1.2607 -1.7663
 4708SOL    HW225761   3.657   1.182  17.730  0.6066 -1.1008  0.4864
 4709SOL     OW25762   2.139   0.435   1.523 -0.0445 -0.0781 -0.2798
 4709SOL    HW125763   2.125   0.530   1.529  0.5437 -0.0164  0.1578
 4709SOL    HW225764   2.149   0.418   1.617 -0.3873  0.6383 -0.1131
 4710SOL     OW25765   1.083   2.225   3.571  0.2046 -0.2044 -0.3596
 4710SOL    HW125766   1.107   2.226   3.478 -0.1950 -1.5026 -0.4739
 4710SOL    HW225767   1.075   2.130   3.580 -0.0901 -0.2978 -1.5934
 4711SOL     OW25768   0.000   0.195  11.244 -0.1659 -0.3810 -0.0116
 4711SOL    HW125769   0.023   0.282  11.278  0.4304 -0.9957  1.1512
 4711SOL    HW225770   4.729   0.220  11.152  0.1326  0.8115  0.2904
 4712SOL     OW25771   3.388   4.509   4.628 -0.0436  0.1502 -0.1864
 4712SOL    HW125772   3.310   4.471   4.667 -0.9467  3.3774  1.1051
 4712SOL    HW225773   3.409   4.564   4.703  0.8533  0.4577 -0.6556
 4713SOL     OW25774   1.030   0.668   3.851 -0.6134 -0.4288 -0.3415
 4713SOL    HW125775   1.044   0.687   3.944 -0.1998  3.8058 -1.2812
 4713SOL    HW225776   1.024   0.574   3.834  2.1624 -0.7088  0.2290
 4714SOL     OW25777   0.125   1.009  11.179 -0.2044  0.0373 -0.3087
 4714SOL    HW125778   0.084   1.057  11.251 -0.4074 -1.7941  0.7878
 4714SOL    HW225779   0.190   0.960  11.228  0.5368  2.4455  1.1261
 4715SOL     OW25780   0.019   1.755   9.223 -0.1803 -0.0790  0.2447
 4715SOL    HW125781   4.682   1.749   9.162 -0.5663 -1.0784  0.8229
 4715SOL    HW225782   0.053   1.843   9.207  0.5965 -0.1146  1.6488
 4716SOL     OW25783   4.647   2.676  14.868  0.5172  0.2143  0.3795
 4716SOL    HW125784   0.005   2.690  14.863  0.4083  0.1215 -1.7784
 4716SOL    HW225785   4.626   2.719  14.951 -0.8192  1.5766 -0.6716
 4717SOL     OW25786   3.833   3.750  16.539 -0.0801 -0.2267  0.0919
 4717SOL    HW125787   3.764   3.708  16.591 -0.1942  0.1648  0.2608
 4717SOL    HW225788   3.889   3.676  16.516  0.1092 -0.5675  1.6826
 4718SOL     OW25789   4.406   3.663   2.788  0.3060  0.8552  0.1196
 4718SOL    HW125790   4.463   3.733   2.817 -1.2868  1.7349  1.1524
 4718SOL    HW225791   4.346   3.653   2.862 -1.2720  2.2120 -0.9732
 4719SOL     OW25792   4.120   3.161   5.394 -0.1469  0.1511 -0.2076
 4719SOL    HW125793   4.080   3.075   5.394  0.2076 -0.0132  0.1014
 4719SOL    HW225794   4.141   3.165   5.487  0.4477  2.1246 -0.4228
 4720SOL     OW25795   0.093   0.104   6.019 -0.1422 -0.6211  0.3005
 4720SOL    HW125796   0.089   0.116   6.114 -0.3532 -1.8276  0.4427
 4720SOL    HW225797   0.004   0.126   5.993  0.1283  2.2036  1.7129
 4721SOL     OW25798   2.350   2.790  14.828  0.5473 -0.1216 -0.1666
 4721SOL    HW125799   2.383   2.877  14.850 -3.0905  1.0575  0.7059
 4721SOL    HW225800   2.364   2.743  14.910 -1.0469  3.0402  1.9358
 4722SOL     OW25801   0.328   1.369  12.475  0.2484  0.1384  0.5851
 4722SOL    HW125802   0.348   1.276  12.480 -0.7820 -0.0585  1.0864
 4722SOL    HW225803   0.389   1.406  12.539 -0.7598 -0.1133  1.6867
 4723SOL     OW25804   2.265   2.452   5.713  0.0468  0.1601  0.6493
 4723SOL    HW125805   2.281   2.387   5.781 -4.6997  0.7353  2.3156
 4723SOL    HW225806   2.336   2.444   5.650 -1.4418 -1.3582 -0.8211
 4724SOL     OW25807   3.489   0.567   4.984 -0.5509 -0.1346 -0.0987
 4724SOL    HW125808   3.476   0.517   4.903  1.8192 -1.2986  0.2536
 4724SOL    HW225809   3.399   0.579   5.015 -0.1660 -0.0498  0.9695
 4725SOL     OW25810   2.031   0.820  11.054 -0.0577 -0.0392 -0.0773
 4725SOL    HW125811   2.082   0.893  11.020 -0.7375  0.6271  0.3534
 4725SOL    HW225812   1.951   0.844  11.007 -0.1423  0.3803  0.2882
 4726SOL     OW25813   3.891   2.369   6.739 -0.3909  0.0262 -0.1035
 4726SOL    HW125814   3.923   2.454   6.710 -0.5252 -0.3682 -1.4148
 4726SOL    HW225815   3.933   2.365   6.826  0.1127 -0.1494 -0.3547
 4727SOL     OW25816   0.229   3.490  11.500  0.2143 -0.0010  0.5648
 4727SOL    HW125817   0.269   3.575  11.480  0.4450 -0.5173 -1.1911
 4727SOL    HW225818   0.270   3.474  11.585 -0.5328 -1.3281  0.6807
 4728SOL     OW25819   0.307   2.868  15.483  0.6293  0.3917  0.1366
 4728SOL    HW125820   0.384   2.860  15.427  1.1364 -0.2817  0.9475
 4728SOL    HW225821   0.254   2.920  15.422 -0.5608  0.1713  0.9904
 4729SOL     OW25822   4.419   1.760   5.897  0.2730  0.7839 -0.0879
 4729SOL    HW125823   4.328   1.767   5.926  0.2436 -0.9126  0.2615
 4729SOL    HW225824   4.438   1.668   5.917  0.0806  1.0637  1.3364
 4730SOL     OW25825   1.587   4.047   1.540 -0.0353 -0.0096  0.6514
 4730SOL    HW125826   1.597   4.004   1.624 -0.7232 -2.4155 -0.5139
 4730SOL    HW225827   1.493   4.064   1.543  0.2913  1.9069  0.2393
 4731SOL     OW25828   1.401   0.951  13.302  0.6319  0.1274  0.3453
 4731SOL    HW125829   1.380   0.942  13.395  0.3185 -0.0883  0.2534
 4731SOL    HW225830   1.497   0.952  13.309  0.6205 -1.9791  0.8479
 4732SOL     OW25831   3.386   4.297  16.239  0.0159 -0.2570  0.2627
 4732SOL    HW125832   3.431   4.240  16.301 -0.6557 -0.1101  0.8739
 4732SOL    HW225833   3.453   4.351  16.198  0.7768 -0.6260  1.0245
 4733SOL     OW25834   4.116   3.478   8.653  0.4326  0.1954 -0.6268
 4733SOL    HW125835   4.172   3.537   8.602  2.2093  0.2421  1.3821
 4733SOL    HW225836   4.066   3.447   8.577 -0.4942  0.2989 -0.0563
 4734SOL     OW25837   3.545   0.950   5.112  0.1378 -0.0571 -0.1768
 4734SOL    HW125838   3.477   0.911   5.168  1.2594  0.7684  1.7862
 4734SOL    HW225839   3.592   1.000   5.179 -0.9677  1.1033 -0.2501
 4735SOL     OW25840   4.262   0.441   4.745  0.2267  0.1112 -0.4125
 4735SOL    HW125841   4.182   0.493   4.749  1.3790  1.8312  0.5276
 4735SOL    HW225842   4.227   0.368   4.795 -0.7960 -0.3049 -1.7354
 4736SOL     OW25843   1.174   0.655   3.226  0.2337 -0.3788 -0.2920
 4736SOL    HW125844   1.083   0.674   3.245  1.4495  0.2545  4.6660
 4736SOL    HW225845   1.169   0.615   3.139  1.1841 -0.0751 -0.4931
 4737SOL     OW25846   0.953   2.941  15.677  0.2553 -0.4683  0.3310
 4737SOL    HW125847   0.869   2.898  15.657 -0.3120  0.0767  1.5065
 4737SOL    HW225848   0.982   2.956  15.587 -0.7296 -1.4822 -0.1590
 4738SOL     OW25849   0.003   1.861   8.388  0.1647 -0.0678  0.0191
 4738SOL    HW125850   4.694   1.934   8.430 -1.1731  0.2148 -1.8938
 4738SOL    HW225851   0.080   1.913   8.366  0.3613  0.1012  1.1564
 4739SOL     OW25852   2.297   1.727  14.890  0.3662  0.0811 -0.1364
 4739SOL    HW125853   2.335   1.772  14.814 -1.0916  2.3629  0.4853
 4739SOL    HW225854   2.241   1.663  14.847  0.6941  1.1348 -2.1446
 4740SOL     OW25855   4.020   4.176   4.447  0.3391 -0.0839 -0.6180
 4740SOL    HW125856   3.950   4.235   4.418  0.4696 -1.0443 -2.8214
 4740SOL    HW225857   4.064   4.151   4.366  0.0922 -1.8482 -0.1965
 4741SOL     OW25858   3.684   2.688   5.634 -0.2722 -0.1456 -0.3607
 4741SOL    HW125859   3.703   2.751   5.565  4.0268  0.8934  1.7685
 4741SOL    HW225860   3.593   2.712   5.650 -0.9340 -2.5860 -0.4885
 4742SOL     OW25861   4.245   3.077   1.985  0.2303  0.0386  0.7237
 4742SOL    HW125862   4.239   3.079   1.889 -1.3423  1.2997  0.8474
 4742SOL    HW225863   4.217   3.166   2.007  0.3000  0.2894 -0.1654
 4743SOL     OW25864   0.315   3.662   1.334  0.2909  0.3416 -0.3418
 4743SOL    HW125865   0.252   3.691   1.269 -0.6981 -2.6923 -0.7343
 4743SOL    HW225866   0.289   3.570   1.340 -0.1965  0.4916 -0.1778
 4744SOL     OW25867   1.969   4.069   4.399 -0.0990  0.7365  0.1969
 4744SOL    HW125868   2.003   4.114   4.321 -0.7845 -0.9603 -1.0834
 4744SOL    HW225869   2.049   4.079   4.450  0.9228  1.5647 -1.5516
 4745SOL     OW25870   4.257   0.436   8.395 -0.4220 -0.4881  0.1115
 4745SOL    HW125871   4.319   0.395   8.336  1.1210  0.2962  1.1865
 4745SOL    HW225872   4.193   0.365   8.406 -1.1252  0.3942  1.6753
 4746SOL     OW25873   3.823   2.829   3.570  0.2052  0.2463 -0.8031
 4746SOL    HW125874   3.896   2.820   3.633 -1.1924  0.6745  0.8845
 4746SOL    HW225875   3.860   2.767   3.507  0.6077  1.2305 -1.5463
 4747SOL     OW25876   4.359   4.438   2.088  0.2448 -0.3933 -0.1436
 4747SOL    HW125877   4.347   4.398   2.174  2.4860 -0.2047  0.2572
 4747SOL    HW225878   4.282   4.495   2.082 -0.4986 -1.2352  1.2363
 4748SOL     OW25879   4.320   2.864  13.179  0.1364 -0.2340  0.0104
 4748SOL    HW125880   4.338   2.939  13.235  0.9921 -0.3674 -0.0841
 4748SOL    HW225881   4.269   2.815  13.244  0.5137 -0.6317  0.0092
 4749SOL     OW25882   1.852   0.535   6.536 -0.8620 -0.1762 -0.0292
 4749SOL    HW125883   1.904   0.614   6.551 -1.0266 -0.2958  1.1512
 4749SOL    HW225884   1.808   0.563   6.455  1.8213  2.5588 -0.5635
 4750SOL     OW25885   1.898   4.577  16.411 -0.3390  0.0506 -0.1384
 4750SOL    HW125886   1.823   4.538  16.367  0.3658 -0.9940 -0.4154
 4750SOL    HW225887   1.910   4.655  16.357  0.8550 -2.6966 -3.8330
 4751SOL     OW25888   1.382   2.777   7.665  0.2688 -0.2210  0.1165
 4751SOL    HW125889   1.437   2.793   7.589 -0.5230 -2.1700 -0.8613
 4751SOL    HW225890   1.409   2.857   7.710 -1.0138 -0.2140  0.8788
 4752SOL     OW25891   0.773   0.373   0.107 -0.4803  0.1070 -0.0125
 4752SOL    HW125892   0.866   0.352   0.118 -1.2269 -1.7514  2.6660
 4752SOL    HW225893   0.738   0.310   0.170 -0.9407 -0.2387 -0.6091
 4753SOL     OW25894   3.454   2.660   8.947  0.1526  0.7350 -0.1512
 4753SOL    HW125895   3.454   2.626   8.857 -1.4602  2.0011 -0.6467
 4753SOL    HW225896   3.548   2.674   8.956  0.2444 -0.9269  1.2438
 4754SOL     OW25897   1.767   4.588   2.012 -0.0472 -0.4278  0.6724
 4754SOL    HW125898   1.727   4.558   1.931 -0.1800  0.0526  0.5622
 4754SOL    HW225899   1.689   4.581   2.068 -1.2936  0.0272 -0.9981
 4755SOL     OW25900   4.218   1.789   1.690 -0.4239  0.6722 -0.7337
 4755SOL    HW125901   4.203   1.700   1.723 -2.2460  1.2786  0.0980
 4755SOL    HW225902   4.258   1.760   1.608  0.6416 -4.1518  1.4501
 4756SOL     OW25903   1.306   0.892   5.202 -0.0925  0.3911 -0.2724
 4756SOL    HW125904   1.366   0.877   5.275  0.0873  0.0027 -0.4986
 4756SOL    HW225905   1.328   0.821   5.142 -3.0903 -1.3749  0.7370
 4757SOL     OW25906   1.999   2.179  11.966  0.5010 -0.3838 -0.5864
 4757SOL    HW125907   2.018   2.223  12.048 -2.3648 -0.6617  0.2112
 4757SOL    HW225908   2.086   2.141  11.953  0.9295 -0.4814  2.5725
 4758SOL     OW25909   3.883   3.055   8.550 -0.2910 -0.4129 -0.3586
 4758SOL    HW125910   3.839   2.981   8.509  0.0912 -1.3519  0.9444
 4758SOL    HW225911   3.837   3.048   8.633 -0.4487  0.9337 -0.3285
 4759SOL     OW25912   4.276   2.083   4.641  0.9091 -0.0378  0.2717
 4759SOL    HW125913   4.298   1.991   4.656  2.0503  0.4180  1.4651
 4759SOL    HW225914   4.282   2.089   4.545 -0.0043  2.5211  0.3781
 4760SOL     OW25915   4.641   3.246  16.950 -0.0159 -0.3023 -0.1698
 4760SOL    HW125916   4.626   3.280  17.039  2.0012 -0.1995  0.1348
 4760SOL    HW225917   4.698   3.317  16.922 -0.3613 -0.4891 -1.3409
 4761SOL     OW25918   0.735   3.436   7.182 -0.1887  0.0200  0.2965
 4761SOL    HW125919   0.713   3.456   7.091 -1.3246 -3.0927 -0.1465
 4761SOL    HW225920   0.823   3.401   7.172 -0.1464  0.7387 -1.7718
 4762SOL     OW25921   1.252   2.546   6.803 -0.3324  0.1439  0.0308
 4762SOL    HW125922   1.176   2.533   6.745  1.2030 -1.1371 -1.7173
 4762SOL    HW225923   1.244   2.641   6.810  1.5202  0.2010  1.2933
 4763SOL     OW25924   1.353   3.017  15.125 -0.4394  0.2537 -0.5048
 4763SOL    HW125925   1.445   2.995  15.115 -0.6951 -1.5077  0.8114
 4763SOL    HW225926   1.315   2.965  15.054  0.5369 -0.0458 -0.7981
 4764SOL     OW25927   2.859   3.517   2.549 -0.2328 -0.7513  0.0036
 4764SOL    HW125928   2.918   3.456   2.505 -0.5067 -2.4271  1.9366
 4764SOL    HW225929   2.799   3.446   2.573 -0.1245 -0.6474  0.5799
 4765SOL     OW25930   3.629   0.575   2.172 -0.2542  0.3517  0.0394
 4765SOL    HW125931   3.582   0.655   2.196 -1.0136 -0.2375  0.5260
 4765SOL    HW225932   3.698   0.622   2.125 -1.7883 -1.6839 -4.2063
 4766SOL     OW25933   0.913   2.838  14.481  0.2527  0.5276 -0.0353
 4766SOL    HW125934   0.937   2.764  14.538 -0.4164  0.7125  0.4835
 4766SOL    HW225935   0.847   2.877  14.538 -0.9092 -1.4114 -0.0274
 4767SOL     OW25936   2.721   4.157   9.563 -0.8366  0.4766 -0.1455
 4767SOL    HW125937   2.773   4.232   9.534 -2.9556  1.7189 -0.7190
 4767SOL    HW225938   2.744   4.145   9.655 -2.4298 -1.6106 -0.0180
 4768SOL     OW25939   4.036   2.581   6.639 -0.1948  0.4691 -0.2941
 4768SOL    HW125940   4.090   2.535   6.575  2.8263  0.1613  2.4131
 4768SOL    HW225941   4.013   2.659   6.588 -0.9176  1.2862  1.2592
 4769SOL     OW25942   4.481   1.605   4.960  0.5635  0.0367 -0.0808
 4769SOL    HW125943   4.483   1.641   5.049 -0.0894 -1.2230  0.4456
 4769SOL    HW225944   4.433   1.664   4.902 -1.6766 -0.9485  0.7662
 4770SOL     OW25945   2.743   3.759   3.578  0.8353 -0.5920  0.3232
 4770SOL    HW125946   2.670   3.706   3.544 -0.0783  0.2050  1.0439
 4770SOL    HW225947   2.710   3.769   3.668 -1.3473 -2.3028 -0.2845
 4771SOL     OW25948   2.081   3.072   8.596  0.2321 -0.0219  0.3108
 4771SOL    HW125949   2.014   3.062   8.664  1.4507 -2.1632  1.2138
 4771SOL    HW225950   2.038   3.139   8.542  1.7741 -0.1799 -1.1209
 4772SOL     OW25951   3.291   3.043   1.971 -0.1031  0.1045  0.1727
 4772SOL    HW125952   3.249   3.068   1.889 -0.2221 -0.9697 -0.0976
 4772SOL    HW225953   3.349   2.972   1.943  0.6888 -0.4334  3.1848
 4773SOL     OW25954   0.224   1.534   3.412 -0.3090 -0.3627 -0.0606
 4773SOL    HW125955   0.172   1.462   3.377  1.3463 -1.1284 -0.9404
 4773SOL    HW225956   0.172   1.605   3.376 -2.5047 -0.0508  3.7376
 4774SOL     OW25957   1.800   1.132   2.430 -0.0077 -1.0809  0.6243
 4774SOL    HW125958   1.844   1.097   2.353 -1.9016  0.3216 -1.1019
 4774SOL    HW225959   1.856   1.100   2.501  0.1773 -1.0709  0.4808
 4775SOL     OW25960   2.133   4.383   4.519 -0.6814 -0.4065  0.1669
 4775SOL    HW125961   2.221   4.408   4.489 -1.1291  1.2153  0.2016
 4775SOL    HW225962   2.144   4.288   4.515  0.7264 -0.0180 -4.6889
 4776SOL     OW25963   0.717   0.228   9.149  0.0715  0.2697 -0.0678
 4776SOL    HW125964   0.722   0.175   9.069  0.6388  1.3732 -0.7573
 4776SOL    HW225965   0.675   0.305   9.110  0.4184  0.0909 -0.7905
 4777SOL     OW25966   1.821   3.771  16.315 -0.4930 -0.8096  0.0714
 4777SOL    HW125967   1.831   3.806  16.227  1.3580 -0.2063  0.4982
 4777SOL    HW225968   1.728   3.780  16.336 -0.4491  0.2017 -0.1356
 4778SOL     OW25969   1.079   0.718   1.675  0.4079 -0.1908  0.1329
 4778SOL    HW125970   1.053   0.628   1.653  1.4990 -0.4588 -0.0761
 4778SOL    HW225971   1.043   0.753   1.593  1.2069 -1.7204 -0.8677
 4779SOL     OW25972   0.839   3.093  15.133 -0.1393 -0.2578 -0.3030
 4779SOL    HW125973   0.930   3.066  15.118  0.1568 -0.1427  1.3017
 4779SOL    HW225974   0.835   3.156  15.061 -0.9313  0.8380  0.6956
 4780SOL     OW25975   4.574   4.333  10.433  1.0107  0.0725  0.0212
 4780SOL    HW125976   4.528   4.271  10.490  0.5267  0.6945  0.3054
 4780SOL    HW225977   4.599   4.281  10.357  1.5717  0.8726 -0.3410
 4781SOL     OW25978   4.214   4.422  14.181  0.4220  0.5339 -0.2396
 4781SOL    HW125979   4.131   4.422  14.132  1.4548  2.5498 -1.9861
 4781SOL    HW225980   4.222   4.516  14.199 -0.2765 -0.1778  3.6380
 4782SOL     OW25981   2.899   2.994   7.692 -0.0816 -0.2696 -0.2404
 4782SOL    HW125982   2.921   3.028   7.779  1.4289 -0.5537 -0.5221
 4782SOL    HW225983   2.947   3.056   7.638  1.6772 -0.5000  1.0682
 4783SOL     OW25984   0.721   0.964   5.368 -0.6867 -0.0936  0.1991
 4783SOL    HW125985   0.710   0.951   5.462  0.3067  0.1882  0.3523
 4783SOL    HW225986   0.685   1.050   5.345 -0.5990  0.1057  0.8241
 4784SOL     OW25987   1.262   3.601  13.789  0.7264  0.3415  0.2901
 4784SOL    HW125988   1.190   3.659  13.814 -0.9132 -1.8179  0.5899
 4784SOL    HW225989   1.218   3.561  13.713 -0.6611  0.0066  1.2726
 4785SOL     OW25990   4.472   0.932  11.879 -0.5310 -0.4759  0.4354
 4785SOL    HW125991   4.468   0.904  11.788  2.3963  0.5427 -0.0029
 4785SOL    HW225992   4.500   0.854  11.926 -0.9820 -1.1642 -0.4593
 4786SOL     OW25993   3.439   1.421   5.526 -0.1243  0.6206 -0.3217
 4786SOL    HW125994   3.371   1.381   5.580 -0.3056 -0.2259 -1.1680
 4786SOL    HW225995   3.502   1.436   5.596  0.6119  0.2399 -0.9104
 4787SOL     OW25996   2.905   3.291  17.007 -0.5563 -0.1550  0.1366
 4787SOL    HW125997   2.866   3.204  17.013  1.5202 -1.2002 -1.5893
 4787SOL    HW225998   2.835   3.352  16.983  0.9133  2.0029  1.2673
 4788SOL     OW25999   0.036   3.378   1.042 -0.1459  0.7602 -0.8792
 4788SOL    HW126000   0.041   3.284   1.058 -2.1994  0.6783 -0.6986
 4788SOL    HW226001   4.681   3.392   1.018 -0.3421 -3.2227 -2.4410
 4789SOL     OW26002   0.139   4.522   0.497  0.2166  0.1169  0.1978
 4789SOL    HW126003   0.222   4.489   0.533  0.2587 -1.0107 -0.9420
 4789SOL    HW226004   0.082   4.446   0.489  0.0645  0.1415  0.9999
 4790SOL     OW26005   3.420   1.398  12.716 -0.1323  0.3180 -0.3007
 4790SOL    HW126006   3.401   1.483  12.755  2.6315  0.2566  1.1160
 4790SOL    HW226007   3.348   1.399  12.652 -2.5200  0.6983  2.3689
 4791SOL     OW26008   4.290   2.391   9.315 -0.1529 -0.0373 -0.1788
 4791SOL    HW126009   4.239   2.328   9.365 -0.5127  0.0579 -0.4326
 4791SOL    HW226010   4.356   2.418   9.379 -0.4616  0.3299 -0.0166
 4792SOL     OW26011   4.310   1.979   8.836  0.5218 -0.2400  0.0627
 4792SOL    HW126012   4.293   2.032   8.913 -0.1556  0.7276 -0.7518
 4792SOL    HW226013   4.406   1.978   8.840  0.4789  1.2997  1.4362
 4793SOL     OW26014   2.254   1.512  13.552  0.1655  0.0626  0.0712
 4793SOL    HW126015   2.289   1.554  13.474 -0.5203  0.1796 -0.1735
 4793SOL    HW226016   2.220   1.589  13.599  0.0629  1.5569 -2.4865
 4794SOL     OW26017   2.061   4.429  16.863  0.2476  0.4929  0.3487
 4794SOL    HW126018   2.115   4.371  16.810 -1.0466  0.5612 -1.0445
 4794SOL    HW226019   2.014   4.478  16.795 -0.4578  0.2763  0.6740
 4795SOL     OW26020   3.475   3.127   7.505 -0.0272 -0.2320  0.1526
 4795SOL    HW126021   3.557   3.169   7.477  0.2023 -1.6945 -1.3604
 4795SOL    HW226022   3.502   3.036   7.497  0.2587 -0.2316  1.0345
 4796SOL     OW26023   0.643   4.052   6.523  0.1328 -0.3813  0.4672
 4796SOL    HW126024   0.607   4.080   6.438  0.6529 -1.3476 -0.0810
 4796SOL    HW226025   0.709   3.991   6.489  0.2819  1.0738 -1.8888
 4797SOL     OW26026   0.073   1.710   4.272  0.1505  0.5350 -0.5262
 4797SOL    HW126027   0.128   1.631   4.274 -0.7043 -0.0588 -0.5277
 4797SOL    HW226028   4.727   1.675   4.303  1.5138 -1.7485  0.5441
 4798SOL     OW26029   1.602   2.234   4.307  0.1686 -0.0606 -0.0758
 4798SOL    HW126030   1.666   2.260   4.240  2.0115 -1.6716  1.0437
 4798SOL    HW226031   1.577   2.320   4.341  1.0628 -0.3469  1.3091
 4799SOL     OW26032   1.968   1.279   1.590  0.0569 -0.0598  0.1280
 4799SOL    HW126033   1.878   1.256   1.568 -0.2364  0.9802  0.2306
 4799SOL    HW226034   2.021   1.235   1.523  1.2484 -0.6617  1.4763
 4800SOL     OW26035   0.701   1.710   5.782  0.0883  0.4076  0.4251
 4800SOL    HW126036   0.751   1.724   5.701  1.8837  1.9791  1.8280
 4800SOL    HW226037   0.622   1.761   5.768  0.2031  0.3250 -0.5215
 4801SOL     OW26038   2.599   4.494  14.698  0.8590 -0.7278  0.5400
 4801SOL    HW126039   2.646   4.548  14.762  0.5579  0.8358 -0.5741
 4801SOL    HW226040   2.547   4.438  14.756  0.1787 -1.5615 -0.8894
 4802SOL     OW26041   4.411   2.722   0.514  0.3159 -0.3176 -0.2357
 4802SOL    HW126042   4.378   2.644   0.471  0.7844 -0.4211 -0.4085
 4802SOL    HW226043   4.366   2.796   0.472 -2.9350 -2.5978 -0.6931
 4803SOL     OW26044   1.449   2.033   6.820  0.3601 -0.3104 -0.3190
 4803SOL    HW126045   1.534   2.077   6.827  2.1368 -3.7483 -0.6185
 4803SOL    HW226046   1.403   2.089   6.883 -0.9225 -2.0121  0.2521
 4804SOL     OW26047   3.214   3.452   9.024 -0.8543  0.3898  0.0257
 4804SOL    HW126048   3.197   3.389   9.094  0.6057 -0.1946 -0.1322
 4804SOL    HW226049   3.309   3.449   9.011 -0.6355  0.2925  1.6991
 4805SOL     OW26050   2.107   3.980   8.824 -0.1760  0.0042  0.1985
 4805SOL    HW126051   2.179   3.977   8.888 -0.8474 -3.3054  0.7646
 4805SOL    HW226052   2.027   3.997   8.874 -0.4804 -0.8936  0.0122
 4806SOL     OW26053   1.214   0.913  14.111 -0.1117  0.1855  0.4894
 4806SOL    HW126054   1.151   0.913  14.039  1.4295 -0.6618 -0.8497
 4806SOL    HW226055   1.168   0.848  14.165  1.0627  0.1056  1.3890
 4807SOL     OW26056   3.594   1.804  10.110 -0.0357  0.3375  0.5654
 4807SOL    HW126057   3.579   1.781  10.018  0.1983 -2.5424  1.2431
 4807SOL    HW226058   3.503   1.822  10.132 -0.1955 -0.5998  0.6959
 4808SOL     OW26059   1.543   1.154   7.124 -0.2979  0.4427  0.7511
 4808SOL    HW126060   1.571   1.215   7.192 -3.0838  1.2841  1.1306
 4808SOL    HW226061   1.595   1.076   7.142 -1.9068 -0.9314 -0.5444
 4809SOL     OW26062   3.472   1.613   8.733 -0.1236 -0.1060 -0.1453
 4809SOL    HW126063   3.396   1.584   8.683  1.2705 -1.2658 -1.6009
 4809SOL    HW226064   3.443   1.700   8.761  0.7946  0.5186 -1.1356
 4810SOL     OW26065   0.737   4.210   7.850 -0.2399  0.5423  0.1863
 4810SOL    HW126066   0.817   4.262   7.858  0.2390 -0.0161 -0.8802
 4810SOL    HW226067   0.735   4.142   7.917 -0.7135 -0.3605 -0.7451
 4811SOL     OW26068   3.978   2.839   5.375 -0.0746 -0.0155  0.1970
 4811SOL    HW126069   3.988   2.792   5.292 -1.0077 -0.2383  0.2059
 4811SOL    HW226070   4.048   2.807   5.431 -0.5926  1.3064  1.6185
 4812SOL     OW26071   2.793   3.480   9.802  0.1338 -0.0664  0.0980
 4812SOL    HW126072   2.719   3.533   9.830  0.5575  0.3031  0.5158
 4812SOL    HW226073   2.849   3.551   9.770 -0.9420  0.8699  0.3227
 4813SOL     OW26074   3.439   1.236   7.740 -0.5253  0.0847  0.1591
 4813SOL    HW126075   3.346   1.256   7.751 -0.5973 -0.7375  1.0427
 4813SOL    HW226076   3.463   1.321   7.705 -0.6388  0.0144 -0.0892
 4814SOL     OW26077   0.073   3.423   9.950  0.5768 -0.2400 -0.0891
 4814SOL    HW126078   4.722   3.451   9.975  1.0541  0.7064  0.4969
 4814SOL    HW226079   0.068   3.421   9.855 -2.0866  0.2614  0.0346
 4815SOL     OW26080   1.213   3.350  14.971 -0.0969  0.7597  0.0484
 4815SOL    HW126081   1.176   3.367  15.058 -0.9578  2.1009 -0.5735
 4815SOL    HW226082   1.271   3.426  14.975  1.2151 -0.1440 -2.1813
 4816SOL     OW26083   3.846   1.962   2.851 -0.2602 -0.0970 -0.1264
 4816SOL    HW126084   3.840   2.057   2.857  0.3822 -0.0359 -0.5333
 4816SOL    HW226085   3.869   1.940   2.761  1.3974  1.5512 -0.1011
 4817SOL     OW26086   1.355   1.579  15.222 -0.1907 -0.0291  0.1203
 4817SOL    HW126087   1.326   1.499  15.179  0.8074  0.2553 -1.0602
 4817SOL    HW226088   1.276   1.611  15.266  0.9320 -1.7225  3.4040
 4818SOL     OW26089   0.565   3.894   6.771  0.0557  0.4961  0.0196
 4818SOL    HW126090   0.595   3.971   6.818 -1.3397  0.2514  1.3187
 4818SOL    HW226091   0.541   3.930   6.685  0.5076  0.6695 -0.0340
 4819SOL     OW26092   3.446   1.453   4.627  0.6860 -0.0330 -0.4259
 4819SOL    HW126093   3.397   1.514   4.682 -0.7600 -2.0819  0.5716
 4819SOL    HW226094   3.398   1.371   4.639  0.1111  0.3521 -0.1095
 4820SOL     OW26095   0.587   2.092  17.671 -0.4313  0.2217  0.2738
 4820SOL    HW126096   0.557   2.079  17.581 -2.6495 -0.3381  1.0813
 4820SOL    HW226097   0.540   2.171  17.696 -0.1935  0.5655 -0.3683
 4821SOL     OW26098   4.227   0.531   3.925  0.2785 -0.6176 -0.0068
 4821SOL    HW126099   4.150   0.578   3.893  0.4138 -0.6009 -0.3117
 4821SOL    HW226100   4.240   0.471   3.851 -0.6242 -0.8738  0.0366
 4822SOL     OW26101   3.759   1.515   1.214 -0.7464 -0.3260 -0.2847
 4822SOL    HW126102   3.688   1.499   1.153 -0.5637  2.0093 -1.0779
 4822SOL    HW226103   3.708   1.503   1.294  0.8554 -1.0603  0.6466
 4823SOL     OW26104   1.771   1.144   1.219 -0.6764  0.1248 -0.3727
 4823SOL    HW126105   1.807   1.153   1.307  0.0927 -1.0640 -0.5783
 4823SOL    HW226106   1.686   1.187   1.226 -0.1943  0.8093  1.1198
 4824SOL     OW26107   1.979   1.832   8.473 -0.3975  0.0770  0.1859
 4824SOL    HW126108   1.975   1.923   8.501 -0.2523  0.0804  0.1957
 4824SOL    HW226109   1.957   1.826   8.380 -1.9043  2.3709  0.4117
 4825SOL     OW26110   2.414   2.848   3.797 -0.0168  0.3732  0.5508
 4825SOL    HW126111   2.507   2.864   3.812 -0.1298 -1.0995  2.7585
 4825SOL    HW226112   2.401   2.770   3.849  1.8721  0.4137  1.0996
 4826SOL     OW26113   3.657   3.795  17.585 -0.3621  0.4071  0.3795
 4826SOL    HW126114   3.734   3.844  17.558 -1.0308  1.6877  0.7830
 4826SOL    HW226115   3.594   3.866  17.578  0.6753  1.3825  1.0166
 4827SOL     OW26116   3.769   1.845   6.287  0.1989 -0.0127 -0.3056
 4827SOL    HW126117   3.725   1.872   6.367  0.2668  0.5802 -0.4683
 4827SOL    HW226118   3.694   1.836   6.227 -0.7595  3.2766  0.4052
 4828SOL     OW26119   4.562   3.356  17.195 -0.1780 -0.5196  0.1574
 4828SOL    HW126120   4.568   3.452  17.188 -0.5894 -0.2633  3.1477
 4828SOL    HW226121   4.477   3.349  17.239  0.3798 -0.1558  1.2740
 4829SOL     OW26122   3.313   0.979  14.802  0.1799  0.2641 -0.0315
 4829SOL    HW126123   3.268   0.896  14.787  3.1246 -1.5248  0.8872
 4829SOL    HW226124   3.400   0.969  14.763  0.0797  1.2256 -0.5067
 4830SOL     OW26125   4.606   4.430   7.237 -0.4080  0.2054 -0.1902
 4830SOL    HW126126   4.659   4.367   7.286 -2.6000  0.7419  2.8253
 4830SOL    HW226127   4.602   4.397   7.147  1.2941  1.6808 -0.8063
 4831SOL     OW26128   2.135   3.196   4.164  0.6005 -1.4684  0.2955
 4831SOL    HW126129   2.102   3.111   4.137 -4.8730  0.3384  1.3298
 4831SOL    HW226130   2.061   3.235   4.211  2.5436  2.3501  0.1956
 4832SOL     OW26131   1.048   2.428   7.721  0.0734 -0.2945 -0.3572
 4832SOL    HW126132   1.074   2.350   7.673  1.2152  0.7604 -1.4576
 4832SOL    HW226133   1.096   2.495   7.673 -1.4457  0.0992 -1.3373
 4833SOL     OW26134   3.987   3.773  17.046  0.7189 -0.1511  0.5207
 4833SOL    HW126135   3.895   3.761  17.068 -0.2014 -0.6788 -3.5880
 4833SOL    HW226136   4.005   3.867  17.056 -0.9060  0.1640  0.4103
 4834SOL     OW26137   0.475   3.238   4.159  0.6818 -0.4559 -0.0312
 4834SOL    HW126138   0.402   3.196   4.204 -1.4953  1.9719 -1.2345
 4834SOL    HW226139   0.447   3.209   4.072 -1.3722  2.8919 -0.5113
 4835SOL     OW26140   3.696   0.857   7.747  0.5273  0.1031 -0.2340
 4835SOL    HW126141   3.663   0.933   7.699  0.4560  0.8566  0.9954
 4835SOL    HW226142   3.616   0.809   7.769 -0.0812  0.5376 -1.5170
 4836SOL     OW26143   2.402   0.340   4.506  0.2980 -0.1963 -0.8696
 4836SOL    HW126144   2.318   0.307   4.473  0.5525  1.0622 -2.7616
 4836SOL    HW226145   2.439   0.270   4.560  0.2409  1.3745  1.2123
 4837SOL     OW26146   1.366   1.843   6.047  0.5836  0.1883 -0.0186
 4837SOL    HW126147   1.399   1.818   6.133  1.3995 -0.1069 -0.4224
 4837SOL    HW226148   1.351   1.755   6.012 -0.6711 -0.1658  1.4054
 4838SOL     OW26149   2.048   2.690   3.427 -0.1959 -0.0338  0.0207
 4838SOL    HW126150   2.078   2.600   3.444  0.6214  0.3332  0.5369
 4838SOL    HW226151   2.127   2.723   3.383 -1.9957  2.0455 -1.6195
 4839SOL     OW26152   2.365   0.596   7.076  0.7825  0.3099 -0.0260
 4839SOL    HW126153   2.372   0.505   7.049 -2.4350 -0.0246  0.1949
 4839SOL    HW226154   2.388   0.586   7.168 -0.8360 -0.7024  0.2806
 4840SOL     OW26155   1.741   2.224   3.823  0.2615 -0.3435  0.1571
 4840SOL    HW126156   1.754   2.149   3.881  0.3529  0.6903  1.4813
 4840SOL    HW226157   1.819   2.270   3.855  0.1903  1.0008 -1.6103
 4841SOL     OW26158   2.181   1.432   4.209  0.1574  0.1142  0.0807
 4841SOL    HW126159   2.115   1.494   4.240 -0.1145 -0.7051  1.1319
 4841SOL    HW226160   2.119   1.393   4.148 -0.5153  1.9267 -0.4024
 4842SOL     OW26161   3.952   4.032   5.030 -0.6597  0.2081  0.3749
 4842SOL    HW126162   3.926   4.050   4.939 -0.1185  0.0418  0.1875
 4842SOL    HW226163   3.889   4.080   5.083 -1.3047 -1.2911  0.9824
 4843SOL     OW26164   0.933   3.839   1.446  0.0730  0.2738 -0.1059
 4843SOL    HW126165   0.881   3.800   1.517  1.0851 -1.5827 -0.4038
 4843SOL    HW226166   0.871   3.889   1.393 -0.7537 -0.3341  0.2884
 4844SOL     OW26167   1.620   0.943   1.529 -0.5815 -0.0779 -0.0974
 4844SOL    HW126168   1.541   0.904   1.567 -0.8747 -1.9347 -2.6364
 4844SOL    HW226169   1.646   0.873   1.470 -0.5117  0.6558 -0.9249
 4845SOL     OW26170   1.777   3.801  12.194  0.3474  0.1933 -0.1469
 4845SOL    HW126171   1.808   3.785  12.283  1.1983 -1.9429 -0.8264
 4845SOL    HW226172   1.729   3.720  12.178 -1.2355  1.4394 -1.7272
 4846SOL     OW26173   4.501   3.302   4.340  0.4742 -0.2970  0.8934
 4846SOL    HW126174   4.556   3.375   4.366  0.0242 -0.2608  1.7653
 4846SOL    HW226175   4.456   3.278   4.421 -0.5467  0.6012  0.5960
 4847SOL     OW26176   4.707   3.449  11.083 -0.5971  0.1598  0.1791
 4847SOL    HW126177   0.064   3.464  11.094 -0.7549  1.1481  0.1645
 4847SOL    HW226178   4.690   3.407  11.168 -0.4295  1.9510  1.0902
 4848SOL     OW26179   2.392   1.308  13.660  0.5608  0.0005 -0.2757
 4848SOL    HW126180   2.351   1.379  13.611 -2.5888 -0.2949  1.8877
 4848SOL    HW226181   2.467   1.304  13.602  1.0516  2.7382  0.1606
 4849SOL     OW26182   2.673   3.437   4.839  0.0365  0.1577 -0.5999
 4849SOL    HW126183   2.706   3.460   4.926 -0.0899 -4.1067  0.5767
 4849SOL    HW226184   2.710   3.350   4.828 -2.9282 -1.0231 -1.1621
 4850SOL     OW26185   4.008   0.702   8.712 -0.5319  0.0291 -0.0439
 4850SOL    HW126186   4.035   0.679   8.624  0.5715  0.0692  0.2917
 4850SOL    HW226187   3.935   0.645   8.738 -0.2634 -1.1183 -1.8721
 4851SOL     OW26188   0.454   4.491   5.906  0.1795 -0.6421  0.1079
 4851SOL    HW126189   0.490   4.497   5.994  0.2795 -2.7781  0.2278
 4851SOL    HW226190   0.397   4.566   5.894  0.9748 -0.2688 -1.3530
 4852SOL     OW26191   3.258   1.921  15.869  0.5791 -0.3256 -0.7261
 4852SOL    HW126192   3.208   1.952  15.794  1.0344 -0.1107 -0.9382
 4852SOL    HW226193   3.178   1.889  15.911  1.0739  1.7520  1.8359
 4853SOL     OW26194   2.718   0.032   9.230  0.2835 -0.1077  0.4053
 4853SOL    HW126195   2.775   0.062   9.300  1.0841  0.9116 -0.6859
 4853SOL    HW226196   2.753   4.682   9.208  0.5550  0.3563 -0.9736
 4854SOL     OW26197   2.008   1.068   0.681 -0.6645 -0.3422 -0.2936
 4854SOL    HW126198   1.998   1.156   0.646 -0.2547 -0.0704  0.2682
 4854SOL    HW226199   1.962   1.027   0.608 -1.6188 -0.3723  0.3282
 4855SOL     OW26200   3.738   4.543  14.042  0.1645 -0.2375  0.2332
 4855SOL    HW126201   3.786   4.583  14.115 -1.0929  0.3997  0.6997
 4855SOL    HW226202   3.661   4.511  14.087 -0.9023  0.0501 -1.3775
 4856SOL     OW26203   3.606   3.966   4.896  0.1813 -0.3178 -0.6234
 4856SOL    HW126204   3.568   3.879   4.908 -1.6459  0.3497 -1.5295
 4856SOL    HW226205   3.671   3.941   4.830  0.8160 -0.1579 -0.0564
 4857SOL     OW26206   4.356   2.133  11.702 -0.2535 -0.3694  0.3232
 4857SOL    HW126207   4.280   2.130  11.760 -1.2276 -1.0865 -1.0050
 4857SOL    HW226208   4.348   2.220  11.664 -1.3574 -1.2484 -1.4130
 4858SOL     OW26209   4.307   2.784  11.825  0.3138 -0.0051  0.0426
 4858SOL    HW126210   4.211   2.782  11.827  0.2770  0.3458 -0.8313
 4858SOL    HW226211   4.314   2.722  11.752 -1.9563  0.3477 -0.4777
 4859SOL     OW26212   2.688   1.126   8.425 -0.4620  0.4109  0.0490
 4859SOL    HW126213   2.727   1.128   8.513 -0.5244  0.5037  0.0748
 4859SOL    HW226214   2.658   1.036   8.413 -0.9950  0.7169 -0.9462
 4860SOL     OW26215   0.478   1.284  12.125  0.2432 -0.4364  0.0650
 4860SOL    HW126216   0.507   1.326  12.043  1.5932  1.9700  1.7531
 4860SOL    HW226217   0.458   1.196  12.096  0.5476 -0.9230  1.3426
 4861SOL     OW26218   2.914   1.634  11.862  0.3830  0.1547 -0.3407
 4861SOL    HW126219   2.920   1.708  11.922  0.6409  0.0623 -0.2510
 4861SOL    HW226220   2.922   1.687  11.783 -0.8430 -0.1380 -0.6652
 4862SOL     OW26221   3.753   1.075  16.002 -0.0422  0.2161  0.5473
 4862SOL    HW126222   3.831   1.100  16.051  0.0226 -0.7606  0.9498
 4862SOL    HW226223   3.785   1.009  15.941 -1.2664  0.8774 -0.8082
 4863SOL     OW26224   3.320   3.079   7.050 -0.1159 -1.0474  0.3303
 4863SOL    HW126225   3.264   3.089   6.973  1.2234 -0.6065 -0.5838
 4863SOL    HW226226   3.401   3.055   7.005 -0.3016 -2.1490  0.5858
 4864SOL     OW26227   0.328   0.909  11.334 -0.0235  0.4659  0.0460
 4864SOL    HW126228   0.343   0.954  11.418 -0.3494 -0.1602  0.4459
 4864SOL    HW226229   0.400   0.931  11.275  0.0008 -0.4397 -0.2549
 4865SOL     OW26230   4.493   2.916   8.965 -0.1932  0.5350 -0.3816
 4865SOL    HW126231   4.502   2.874   9.050  1.4154 -1.7836 -1.6873
 4865SOL    HW226232   4.412   2.967   8.965  0.9566  2.3869 -2.2669
 4866SOL     OW26233   3.855   1.772   5.576 -0.4545 -0.0658 -0.2253
 4866SOL    HW126234   3.797   1.717   5.629  0.0845 -1.1932 -0.7930
 4866SOL    HW226235   3.800   1.798   5.503 -0.1491  1.2639  0.0221
 4867SOL     OW26236   0.929   3.311   0.693 -0.2086 -0.1723 -0.2359
 4867SOL    HW126237   1.017   3.275   0.692  1.3223  3.5400  0.3714
 4867SOL    HW226238   0.900   3.296   0.783 -1.1553  0.3089 -0.4579
 4868SOL     OW26239   2.818   4.569   3.816 -0.8109 -0.5023 -0.8171
 4868SOL    HW126240   2.772   4.613   3.888 -0.0650 -0.0196 -0.6385
 4868SOL    HW226241   2.787   4.630   3.749 -2.4830  0.5485  0.9257
 4869SOL     OW26242   3.024   4.581  12.740 -0.2617  0.6159  0.4580
 4869SOL    HW126243   3.038   4.601  12.833 -1.4813  0.9027  0.5809
 4869SOL    HW226244   2.940   4.535  12.740 -0.8631  1.7170  1.1500
 4870SOL     OW26245   1.309   0.207   3.298  0.4719 -0.3757  0.1738
 4870SOL    HW126246   1.367   0.180   3.369 -1.7587 -0.6721  1.8617
 4870SOL    HW226247   1.222   0.214   3.337  0.6898 -0.5792  0.6844
 4871SOL     OW26248   4.427   1.881   5.643  0.3562 -0.1245  0.9884
 4871SOL    HW126249   4.384   1.964   5.661  0.4133  0.2562 -0.6136
 4871SOL    HW226250   4.421   1.842   5.731  1.6469  0.3878  1.2949
 4872SOL     OW26251   4.041   4.670   5.470 -0.3373  0.3686  0.3814
 4872SOL    HW126252   3.975   4.725   5.428  0.7978  1.7608  0.4191
 4872SOL    HW226253   4.006   4.660   5.559  0.4363  1.1607  0.7720
 4873SOL     OW26254   3.199   4.624  17.108  0.0416 -0.1494  0.7261
 4873SOL    HW126255   3.227   4.601  17.020  0.4167 -0.8649  1.0274
 4873SOL    HW226256   3.273   4.607  17.167  1.5798 -0.3485 -1.2887
 4874SOL     OW26257   0.707   1.053   6.373 -0.2766 -0.5012 -0.6212
 4874SOL    HW126258   0.740   0.990   6.309 -2.3636 -1.0434 -1.1595
 4874SOL    HW226259   0.616   1.027   6.384  0.3776 -2.9195 -1.0015
 4875SOL     OW26260   4.295   2.442   5.283 -0.1456 -0.0867 -1.1861
 4875SOL    HW126261   4.230   2.451   5.213 -0.6348 -0.8855 -0.8375
 4875SOL    HW226262   4.348   2.372   5.244  0.7666  0.6844 -1.3373
 4876SOL     OW26263   1.201   4.715  16.181 -0.4011  0.6389 -0.2328
 4876SOL    HW126264   1.142   4.641  16.197  0.2198  0.2644  0.3602
 4876SOL    HW226265   1.196   4.727  16.086  2.0142  2.2143 -0.1564
 4877SOL     OW26266   4.209   2.627   3.504 -0.0483  0.2409 -0.3524
 4877SOL    HW126267   4.293   2.593   3.474  0.4041  0.3168  0.8332
 4877SOL    HW226268   4.235   2.678   3.580  2.3074  0.2217 -1.1583
 4878SOL     OW26269   2.585   1.520   6.923  0.0311  0.4742  0.1457
 4878SOL    HW126270   2.521   1.566   6.869  0.3063 -0.8975 -1.3423
 4878SOL    HW226271   2.537   1.451   6.968  0.2722 -1.7556 -2.9840
 4879SOL     OW26272   0.404   3.417  11.275 -0.1447  0.6576 -0.0116
 4879SOL    HW126273   0.416   3.324  11.256 -0.6111  0.4919  0.5083
 4879SOL    HW226274   0.472   3.428  11.342  1.3085  1.2832 -1.5725
 4880SOL     OW26275   2.534   1.959   9.161 -0.6198  0.1535  0.4124
 4880SOL    HW126276   2.551   1.952   9.254  0.4911 -2.3198  0.0138
 4880SOL    HW226277   2.469   2.029   9.147 -1.6992 -0.8743  0.2493
 4881SOL     OW26278   4.420   2.121   5.800 -0.1986  0.2311  0.2503
 4881SOL    HW126279   4.399   2.178   5.726  0.2831  2.2700  1.6871
 4881SOL    HW226280   4.337   2.114   5.847 -1.1343  0.0063 -1.4205
 4882SOL     OW26281   3.576   2.911   4.261  0.7933  0.0875 -0.1602
 4882SOL    HW126282   3.559   2.934   4.170 -0.7662 -0.5400 -0.0339
 4882SOL    HW226283   3.577   2.999   4.299  1.1168  0.0011  0.0309
 4883SOL     OW26284   2.962   3.944   3.251  0.0835 -0.2219  1.0475
 4883SOL    HW126285   3.045   3.966   3.208 -2.2796  1.5096 -2.6466
 4883SOL    HW226286   2.982   3.870   3.308  2.4659  0.7294  1.4860
 4884SOL     OW26287   1.803   1.248   3.554 -0.4057 -0.0531  0.4522
 4884SOL    HW126288   1.776   1.162   3.519  1.8501 -0.3270 -0.5654
 4884SOL    HW226289   1.842   1.286   3.475  1.0316 -3.3083 -0.4010
 4885SOL     OW26290   3.248   4.308  17.286 -0.0106  0.5607 -0.1048
 4885SOL    HW126291   3.275   4.386  17.334  0.5387 -0.5477  1.4137
 4885SOL    HW226292   3.163   4.335  17.253 -0.2609 -0.5616 -0.4055
 4886SOL     OW26293   2.219   1.937   6.255  0.3897  0.2685  0.9699
 4886SOL    HW126294   2.279   1.998   6.298  1.4759  0.0522 -0.2769
 4886SOL    HW226295   2.139   1.985   6.278  0.9389  0.7145  1.9648
 4887SOL     OW26296   3.544   0.142   8.439 -0.6116  0.1178 -0.4104
 4887SOL    HW126297   3.537   0.181   8.526 -0.4094 -1.0091  0.1054
 4887SOL    HW226298   3.538   0.229   8.399 -1.5013 -0.0978 -0.7443
 4888SOL     OW26299   4.038   2.852   7.483  0.5022 -0.3349  0.2519
 4888SOL    HW126300   4.061   2.786   7.548 -2.2442  0.3231  1.8605
 4888SOL    HW226301   4.075   2.822   7.399 -0.3559 -1.7721  0.3833
 4889SOL     OW26302   0.318   0.882   5.574 -1.2563 -0.4542  0.1135
 4889SOL    HW126303   0.275   0.961   5.607  2.8587  2.1473 -0.7484
 4889SOL    HW226304   0.400   0.894   5.621 -0.2477 -1.5338 -1.3675
 4890SOL     OW26305   1.855   2.961   3.119 -0.0302 -0.0251 -0.1989
 4890SOL    HW126306   1.890   2.995   3.037 -2.7922 -1.0715 -1.7962
 4890SOL    HW226307   1.921   2.995   3.180  0.7337 -1.3799 -0.2767
 4891SOL     OW26308   2.149   4.380  14.059 -0.4238  0.6616  0.3867
 4891SOL    HW126309   2.159   4.416  14.147  0.4212 -0.5167  0.7605
 4891SOL    HW226310   2.070   4.329  14.078 -0.2640 -0.0781 -0.9470
 4892SOL     OW26311   1.728   0.797  16.317 -0.5085 -0.1541 -0.1598
 4892SOL    HW126312   1.748   0.809  16.224 -0.6163 -0.7149 -0.2581
 4892SOL    HW226313   1.808   0.752  16.345 -0.2332 -1.6472 -3.3696
 4893SOL     OW26314   3.398   4.625   5.103 -0.3214  0.2867  0.3803
 4893SOL    HW126315   3.323   4.674   5.137  0.5132  1.3513  0.6805
 4893SOL    HW226316   3.457   4.699   5.091  0.8539 -0.5932  0.7531
 4894SOL     OW26317   3.647   0.470   7.714  0.3522 -0.2176  0.1069
 4894SOL    HW126318   3.598   0.527   7.774 -0.0305  0.9193 -1.3151
 4894SOL    HW226319   3.679   0.411   7.783  1.1946  1.8747  1.5210
 4895SOL     OW26320   0.059   4.136   1.755 -0.2998 -0.1770 -0.5309
 4895SOL    HW126321   0.049   4.108   1.664 -0.4268  1.4274 -1.0071
 4895SOL    HW226322   0.012   4.071   1.807  0.5185  0.8438  1.5021
 4896SOL     OW26323   0.590   0.372   6.515 -0.2836  0.0127 -0.3776
 4896SOL    HW126324   0.639   0.419   6.447  0.9167  0.6000  0.8927
 4896SOL    HW226325   0.559   0.446   6.567 -1.1146 -1.3373  1.0351
 4897SOL     OW26326   4.375   4.646   7.301  0.3410  0.4741  0.3281
 4897SOL    HW126327   4.372   4.657   7.206 -1.3631 -1.1186  0.1919
 4897SOL    HW226328   4.282   4.629   7.316  0.7028 -0.3562  1.6718
 4898SOL     OW26329   1.465   1.214   8.012 -0.4894  0.2110  0.5532
 4898SOL    HW126330   1.534   1.168   8.060 -0.3704 -0.1440  0.0506
 4898SOL    HW226331   1.500   1.211   7.923  0.4971  0.7797  0.9271
 4899SOL     OW26332   2.725   4.733   3.628  0.3445  0.6763  0.4336
 4899SOL    HW126333   2.698   4.705   3.541  0.0305 -0.3756  0.8726
 4899SOL    HW226334   2.685   0.081   3.645 -0.2504 -0.4019  4.3820
 4900SOL     OW26335   2.167   1.225   7.891  0.2674  0.2254 -0.1212
 4900SOL    HW126336   2.079   1.261   7.881 -0.3410 -1.3811 -0.4390
 4900SOL    HW226337   2.152   1.172   7.969  1.7180 -2.5513 -1.7150
 4901SOL     OW26338   4.610   2.405   2.134 -0.0562 -0.2503 -0.2186
 4901SOL    HW126339   4.652   2.364   2.059 -1.1519 -2.1837  0.2472
 4901SOL    HW226340   4.638   2.496   2.121  0.2407 -0.1139  1.4041
 4902SOL     OW26341   0.851   4.681   7.873 -0.2473 -0.3810 -0.3083
 4902SOL    HW126342   0.792   4.726   7.813 -1.3585  0.8675  1.7559
 4902SOL    HW226343   0.919   0.011   7.881 -2.2434  1.7207 -0.9767
 4903SOL     OW26344   1.255   2.576  12.229  0.5421 -0.0251  0.5583
 4903SOL    HW126345   1.221   2.645  12.171  1.2434  0.9633  1.3194
 4903SOL    HW226346   1.349   2.597  12.231  0.0471  2.1064  2.0245
 4904SOL     OW26347   0.550   4.230   8.536  0.2326  0.1401  0.0074
 4904SOL    HW126348   0.586   4.263   8.454 -2.8213  2.5196 -0.4195
 4904SOL    HW226349   0.496   4.305   8.562  0.2453  0.3607 -0.6142
 4905SOL     OW26350   3.884   4.426   7.083 -0.1936 -0.4778 -0.0588
 4905SOL    HW126351   3.823   4.412   7.155  0.5661 -0.5549  0.5629
 4905SOL    HW226352   3.818   4.403   7.018 -0.4214 -1.0701  0.3827
 4906SOL     OW26353   4.554   4.075   5.728  0.1732 -0.1098 -0.1280
 4906SOL    HW126354   4.572   4.124   5.808 -1.6752  0.8393 -0.2778
 4906SOL    HW226355   4.512   4.140   5.672  0.0575 -0.8941 -0.9505
 4907SOL     OW26356   2.247   0.199   3.407 -0.0771  0.1792  0.2753
 4907SOL    HW126357   2.168   0.151   3.385 -0.5198  0.2004  1.8064
 4907SOL    HW226358   2.303   0.173   3.334  0.8260 -4.1650  2.5296
 4908SOL     OW26359   1.205   2.319   8.265  0.6918 -0.2608  0.2558
 4908SOL    HW126360   1.144   2.250   8.293 -1.3265  1.2039 -0.5300
 4908SOL    HW226361   1.160   2.350   8.186  1.6985  0.7473  0.0780
 4909SOL     OW26362   1.044   3.933   7.296  0.0581  0.5994  0.1134
 4909SOL    HW126363   1.068   3.992   7.225 -3.0164  1.8741  0.1346
 4909SOL    HW226364   1.081   3.850   7.267 -1.2334  0.4906 -1.1906
 4910SOL     OW26365   3.369   4.456   3.116  0.1241  0.2585 -0.2968
 4910SOL    HW126366   3.321   4.511   3.054 -1.8834  0.3743  1.3649
 4910SOL    HW226367   3.343   4.503   3.196 -0.3075 -1.1787  0.3951
 4911SOL     OW26368   0.473   0.698   3.847  0.5053  0.3011  0.2058
 4911SOL    HW126369   0.434   0.772   3.800  0.8041 -0.2513 -0.8993
 4911SOL    HW226370   0.391   0.657   3.875  1.9177 -2.0444  0.9209
 4912SOL     OW26371   2.958   2.917   4.952 -0.2602  0.9200 -0.0011
 4912SOL    HW126372   3.045   2.948   4.979 -0.0366  0.2160  0.1096
 4912SOL    HW226373   2.937   2.854   5.020  2.8403 -0.1081  0.0385
 4913SOL     OW26374   2.576   2.570   4.715 -0.0096  0.3117  0.2655
 4913SOL    HW126375   2.552   2.478   4.700 -3.1058  1.0833  0.3498
 4913SOL    HW226376   2.617   2.594   4.632 -0.4802 -0.1524 -0.1001
 4914SOL     OW26377   1.509   0.244   0.951 -0.7537 -0.2395  0.8448
 4914SOL    HW126378   1.417   0.258   0.932  0.2782 -0.7056 -4.5224
 4914SOL    HW226379   1.506   0.161   0.997 -1.4329  0.4705  2.0740
 4915SOL     OW26380   4.464   0.836  10.802 -0.1755  0.0912  0.7355
 4915SOL    HW126381   4.388   0.778  10.805 -0.0491 -0.0716  0.7770
 4915SOL    HW226382   4.533   0.776  10.830  1.0472  1.4971  0.8101
 4916SOL     OW26383   3.585   2.809   2.295  0.1895 -0.1445  0.2490
 4916SOL    HW126384   3.557   2.744   2.231 -1.3240  0.3709  0.3674
 4916SOL    HW226385   3.554   2.894   2.265 -1.3873 -0.4159  1.0758
 4917SOL     OW26386   3.275   3.476   2.078 -0.1053 -0.3697  0.0832
 4917SOL    HW126387   3.296   3.429   2.159 -0.5553 -0.0968  0.3629
 4917SOL    HW226388   3.365   3.482   2.047 -0.1552  1.9477  0.3957
 4918SOL     OW26389   4.385   4.268   9.829  0.4145 -0.5727 -0.2299
 4918SOL    HW126390   4.332   4.235   9.903  1.8471 -1.6605  0.3154
 4918SOL    HW226391   4.466   4.288   9.875  0.8388 -2.4716 -0.1524
 4919SOL     OW26392   1.470   1.885  11.073  0.2676 -0.0945 -0.9323
 4919SOL    HW126393   1.390   1.848  11.035 -0.2428 -0.4076  0.4741
 4919SOL    HW226394   1.452   1.890  11.167  0.2830  0.9995 -0.9780
 4920SOL     OW26395   0.599   0.788   0.229  0.8800  0.3525 -0.1119
 4920SOL    HW126396   0.524   0.754   0.279  1.3823 -0.7872 -0.1340
 4920SOL    HW226397   0.609   0.725   0.158 -0.1279  0.1968 -0.1254
 4921SOL     OW26398   3.844   4.287  14.335 -0.5281 -0.1152 -0.3490
 4921SOL    HW126399   3.765   4.339  14.353  1.5944  2.5856  1.1009
 4921SOL    HW226400   3.894   4.296  14.416  0.0906  0.8049 -0.8309
 4922SOL     OW26401   3.098   3.328  11.326  0.0284  0.4939 -0.4262
 4922SOL    HW126402   3.114   3.253  11.270 -0.6510 -0.7174  1.0032
 4922SOL    HW226403   3.005   3.315  11.345  0.2483  1.4159  1.3955
 4923SOL     OW26404   1.275   2.890  14.881 -0.0326 -0.3725  0.1190
 4923SOL    HW126405   1.277   2.800  14.848 -0.2768  0.1060 -1.2312
 4923SOL    HW226406   1.356   2.919  14.838  1.3998  1.8127  4.3915
 4924SOL     OW26407   4.477   0.613   3.864 -0.3068 -0.0603  0.6950
 4924SOL    HW126408   4.458   0.665   3.786 -0.8864 -2.1073 -0.5176
 4924SOL    HW226409   4.391   0.602   3.904 -1.6854 -2.6697 -2.9777
 4925SOL     OW26410   3.558   3.444   3.249  0.8072 -0.3714 -0.1678
 4925SOL    HW126411   3.620   3.398   3.307 -2.6310 -1.6538  2.4651
 4925SOL    HW226412   3.494   3.376   3.228  1.0890 -1.3720  2.2049
 4926SOL     OW26413   2.938   2.458   3.934  0.5084 -0.1291 -0.1660
 4926SOL    HW126414   2.993   2.535   3.954 -0.8388  0.9276 -0.5396
 4926SOL    HW226415   2.886   2.451   4.014 -2.3259 -0.5115 -2.0495
 4927SOL     OW26416   2.671   3.795  12.544 -0.7072  0.4413 -0.1395
 4927SOL    HW126417   2.591   3.765  12.501 -0.3087 -0.2010 -0.4187
 4927SOL    HW226418   2.680   3.718  12.599  0.3628 -0.0741 -1.0357
 4928SOL     OW26419   2.575   0.019   5.878  0.3526 -0.5339  0.4652
 4928SOL    HW126420   2.597   4.734   5.969 -1.6231 -5.4184 -0.2309
 4928SOL    HW226421   2.482   0.028   5.896  0.5325  2.0053  0.1709
 4929SOL     OW26422   0.302   0.054   4.749  0.2172 -0.9323 -0.0735
 4929SOL    HW126423   0.371   0.054   4.682 -1.5611 -0.1157 -1.8912
 4929SOL    HW226424   0.319   0.146   4.768 -0.2665 -0.5154 -1.6140
 4930SOL     OW26425   0.628   3.961   7.392 -0.2036  0.3795  0.2869
 4930SOL    HW126426   0.539   3.978   7.362  0.0751  1.0747 -0.1316
 4930SOL    HW226427   0.674   3.940   7.311 -2.8808  1.6501 -1.5355
 4931SOL     OW26428   2.829   4.123   8.073  0.5774 -0.2510 -0.1230
 4931SOL    HW126429   2.742   4.125   8.113 -0.3821  0.8272 -2.2809
 4931SOL    HW226430   2.883   4.090   8.145 -1.0373 -1.4517  0.5765
 4932SOL     OW26431   0.324   0.400   8.670 -0.1747  0.1304  0.4191
 4932SOL    HW126432   0.322   0.358   8.756 -0.9646 -0.0858  0.2947
 4932SOL    HW226433   0.367   0.479   8.704  0.6389  0.3821 -1.1703
 4933SOL     OW26434   3.424   4.438  15.110 -0.0957  0.3924 -0.2243
 4933SOL    HW126435   3.367   4.414  15.183  0.6482  2.9480  1.1771
 4933SOL    HW226436   3.481   4.506  15.145  1.3628  0.0603 -1.9568
 4934SOL     OW26437   1.919   1.743   2.330  0.0533 -1.0193 -0.5201
 4934SOL    HW126438   1.900   1.735   2.424  1.9811 -1.7921 -0.1987
 4934SOL    HW226439   1.830   1.729   2.297  0.9092 -1.1005 -2.7851
 4935SOL     OW26440   4.081   3.653   6.739 -0.0998  0.0397  0.4517
 4935SOL    HW126441   4.062   3.677   6.830  1.3807 -1.2159  1.0861
 4935SOL    HW226442   3.997   3.635   6.698  0.8002  1.6523 -2.1066
 4936SOL     OW26443   3.035   4.491  17.294 -0.0541 -0.2952 -0.0569
 4936SOL    HW126444   2.947   4.528  17.298  0.1490  0.1870 -0.0470
 4936SOL    HW226445   3.075   4.549  17.228 -0.1681 -0.0964  0.0475
 4937SOL     OW26446   0.066   4.434   5.791  0.4644  0.3225  0.7658
 4937SOL    HW126447   0.043   4.388   5.711  1.2593  1.9718 -0.3985
 4937SOL    HW226448   0.121   4.506   5.760  2.6671 -1.5195  0.4849
 4938SOL     OW26449   2.732   3.814   4.321  0.2178  0.1482  0.0841
 4938SOL    HW126450   2.675   3.867   4.265 -0.4298 -0.4038  0.2193
 4938SOL    HW226451   2.816   3.859   4.309  0.8469 -1.4529 -1.5805
 4939SOL     OW26452   4.660   3.331   8.949  0.3139 -0.2795  0.0121
 4939SOL    HW126453   4.646   3.329   8.854 -3.4994  0.3908  0.5588
 4939SOL    HW226454   0.018   3.338   8.954  0.2246 -0.7358  2.0797
 4940SOL     OW26455   4.636   0.031   6.609  0.2639  0.1266  0.4649
 4940SOL    HW126456   4.561   0.059   6.662 -0.4734 -2.9537  1.0720
 4940SOL    HW226457   4.702   0.088   6.650  0.2808 -0.1602  0.8336
 4941SOL     OW26458   3.729   4.359   3.305 -0.4239 -0.1363 -0.7218
 4941SOL    HW126459   3.743   4.278   3.256 -0.3549  0.1577 -1.1836
 4941SOL    HW226460   3.741   4.426   3.238  1.4589  0.1263 -0.1191
 4942SOL     OW26461   0.759   2.966   5.547  0.0882  0.3475 -0.2910
 4942SOL    HW126462   0.697   2.978   5.476 -0.0813  0.6574 -0.0943
 4942SOL    HW226463   0.761   3.057   5.579 -2.8707  1.0278 -2.0676
 4943SOL     OW26464   1.068   3.718   5.707  1.0114  0.0270 -0.2277
 4943SOL    HW126465   1.014   3.656   5.757  0.3516  1.0927  0.3791
 4943SOL    HW226466   1.103   3.654   5.644  1.9672  0.1341  0.2005
 4944SOL     OW26467   2.854   4.524  17.585  0.4528 -0.2587 -0.5946
 4944SOL    HW126468   2.859   4.570  17.501 -3.2157  0.6879 -0.2913
 4944SOL    HW226469   2.866   4.433  17.559 -1.0673 -0.6576  0.1312
 4945SOL     OW26470   0.388   4.282  16.028  0.6026  0.2149 -0.6311
 4945SOL    HW126471   0.472   4.243  16.050  0.6822  1.7871  1.8955
 4945SOL    HW226472   0.362   4.309  16.116 -1.7127 -1.4803 -0.7945
 4946SOL     OW26473   0.038   0.705  12.660  0.1352  0.2880 -0.2195
 4946SOL    HW126474   0.060   0.732  12.750 -2.0935  2.2144 -0.2381
 4946SOL    HW226475   0.021   0.794  12.630  0.5498  0.0729 -1.0637
 4947SOL     OW26476   1.490   2.845  10.412 -0.6859  0.6402 -0.4720
 4947SOL    HW126477   1.535   2.832  10.496 -1.3634 -1.9203 -0.5116
 4947SOL    HW226478   1.569   2.873  10.364 -1.0443  1.6881 -0.4516
 4948SOL     OW26479   1.747   1.971  11.482 -0.2833 -0.6477 -0.0820
 4948SOL    HW126480   1.817   1.959  11.547  0.0083  1.0006 -0.0926
 4948SOL    HW226481   1.759   1.892  11.430  1.4152  1.2213 -2.5301
 4949SOL     OW26482   1.667   2.573   3.025 -0.1530  0.0978  0.0706
 4949SOL    HW126483   1.719   2.599   2.950 -0.8693 -0.3133 -0.5690
 4949SOL    HW226484   1.668   2.648   3.085 -0.8197  0.8156 -0.8245
 4950SOL     OW26485   1.779   4.257  15.223  0.0422 -0.1702  0.2321
 4950SOL    HW126486   1.830   4.190  15.177 -0.3562 -0.4699  0.2275
 4950SOL    HW226487   1.827   4.256  15.306 -0.7001  0.2913  0.6665
 4951SOL     OW26488   0.768   4.535  10.216  0.1828  0.1805  0.4908
 4951SOL    HW126489   0.788   4.454  10.169  0.9128  0.7234 -0.1229
 4951SOL    HW226490   0.702   4.563  10.152 -0.3738 -2.0792  0.0568
 4952SOL     OW26491   3.760   4.724   2.701 -0.4347  0.8304 -0.3962
 4952SOL    HW126492   3.756   0.074   2.742 -0.0976  0.2489  0.8763
 4952SOL    HW226493   3.850   4.697   2.718 -1.4973 -2.1266  0.6882
 4953SOL     OW26494   2.231   3.106   6.453  0.3550  0.2186  0.3623
 4953SOL    HW126495   2.144   3.137   6.477  1.5922  2.1027  2.3969
 4953SOL    HW226496   2.229   3.018   6.490  0.7111  0.0687  0.0206
 4954SOL     OW26497   3.473   1.436   3.317  0.3386 -0.1958  0.2295
 4954SOL    HW126498   3.380   1.418   3.330 -0.1585  2.3531  0.1825
 4954SOL    HW226499   3.501   1.479   3.397 -0.4121  1.2005 -0.2536
 4955SOL     OW26500   2.673   3.516   8.692 -0.1126 -0.0109 -0.2403
 4955SOL    HW126501   2.748   3.559   8.650 -0.9460  0.9676 -0.7293
 4955SOL    HW226502   2.704   3.501   8.781 -0.3617  2.4099  0.2636
 4956SOL     OW26503   2.835   2.433   1.999  0.0551 -0.2530  0.6223
 4956SOL    HW126504   2.765   2.487   2.037  0.7162  1.1792 -0.1746
 4956SOL    HW226505   2.878   2.506   1.954 -0.7442  0.1860  0.5689
 4957SOL     OW26506   3.715   4.563   1.537 -0.4529  0.0943 -0.0036
 4957SOL    HW126507   3.643   4.593   1.592  0.5209  2.0300  0.1933
 4957SOL    HW226508   3.709   4.628   1.467 -1.2106  2.0270  1.8765
 4958SOL     OW26509   3.631   2.742  17.265 -0.3502  0.3013  0.1811
 4958SOL    HW126510   3.721   2.722  17.239 -0.8760 -1.6467 -0.0924
 4958SOL    HW226511   3.588   2.760  17.181  1.4232 -1.9310 -1.1829
 4959SOL     OW26512   0.537   1.351   0.207 -0.1032  0.4350  0.3721
 4959SOL    HW126513   0.531   1.263   0.243 -1.4971 -0.8658 -3.1345
 4959SOL    HW226514   0.553   1.398   0.289 -0.9693 -0.5515  1.1097
 4960SOL     OW26515   0.550   2.024  12.748  0.0064  0.0127  0.0661
 4960SOL    HW126516   0.616   2.072  12.698 -1.5246 -0.0399 -1.9887
 4960SOL    HW226517   0.465   2.061  12.724  1.0572  2.2143 -0.2553
 4961SOL     OW26518   3.629   1.964   7.100 -0.5610  0.3057  0.5159
 4961SOL    HW126519   3.672   2.048   7.111  0.8406 -0.5581  1.5928
 4961SOL    HW226520   3.648   1.927   7.186  2.8512  0.3474 -0.2387
 4962SOL     OW26521   3.076   4.109  15.004 -0.5940 -0.2430  0.1309
 4962SOL    HW126522   3.165   4.132  14.977 -0.3888 -1.3234 -0.1096
 4962SOL    HW226523   3.061   4.142  15.092 -0.8787  1.9756 -0.7710
 4963SOL     OW26524   2.697   4.479  12.741 -0.1622  0.5105 -0.3457
 4963SOL    HW126525   2.728   4.399  12.782  0.0482 -0.7636 -3.0009
 4963SOL    HW226526   2.729   4.455  12.654 -0.4491  1.3421 -0.6781
 4964SOL     OW26527   2.902   4.264   7.599  0.5988 -0.7302  0.1744
 4964SOL    HW126528   2.924   4.241   7.509  3.1702 -5.0185  1.9076
 4964SOL    HW226529   2.845   4.197   7.637 -1.5780 -0.1277 -2.0654
 4965SOL     OW26530   3.053   3.816  10.236  0.1477 -0.2871 -0.0975
 4965SOL    HW126531   3.077   3.898  10.193  1.0072 -0.1970  0.5681
 4965SOL    HW226532   3.034   3.841  10.327  2.1832 -1.8359  0.7355
 4966SOL     OW26533   4.459   2.363  11.577 -0.8079  0.2778 -0.4223
 4966SOL    HW126534   4.554   2.359  11.566 -0.6412  0.5885  0.8936
 4966SOL    HW226535   4.423   2.313  11.504  1.3459  2.0091 -2.7046
 4967SOL     OW26536   1.973   2.922  12.261  0.2034 -0.0355  0.4894
 4967SOL    HW126537   2.009   2.975  12.333 -1.0059 -0.1307  1.1581
 4967SOL    HW226538   2.047   2.865  12.240  2.3191  1.2966  4.3411
 4968SOL     OW26539   1.280   1.840  17.106 -0.3958 -0.4023 -0.1164
 4968SOL    HW126540   1.201   1.892  17.091  0.5413  1.0387 -0.0618
 4968SOL    HW226541   1.246   1.752  17.123  1.8355 -1.0994  0.7645
 4969SOL     OW26542   2.814   2.909   1.972 -0.8659  0.3522  0.0529
 4969SOL    HW126543   2.733   2.871   1.937 -0.4704  0.3468 -0.8508
 4969SOL    HW226544   2.878   2.851   1.931 -1.0420 -0.1668  0.5045
 4970SOL     OW26545   1.870   1.847   5.132  1.1869  0.8003 -0.1115
 4970SOL    HW126546   1.776   1.842   5.150  0.5113  3.7965 -2.7725
 4970SOL    HW226547   1.867   1.872   5.040 -2.0485  0.8395 -0.0000
 4971SOL     OW26548   4.604   0.372   3.425  0.2117  0.4261 -0.1730
 4971SOL    HW126549   4.568   0.351   3.511  1.4676 -2.6766 -0.3994
 4971SOL    HW226550   4.569   0.459   3.408 -0.5965 -0.3236 -2.4785
 4972SOL     OW26551   0.282   2.999  16.523  0.7686 -0.4041 -0.4031
 4972SOL    HW126552   0.202   3.011  16.575 -0.3306 -0.3430 -2.0969
 4972SOL    HW226553   0.249   2.938  16.457 -1.4364 -0.3446  0.6418
 4973SOL     OW26554   3.569   1.173   2.715 -0.2980 -0.3152  0.2222
 4973SOL    HW126555   3.648   1.171   2.770 -1.5181 -2.1173  1.8828
 4973SOL    HW226556   3.533   1.252   2.755 -1.7258  0.9752 -3.5729
 4974SOL     OW26557   0.028   3.306   3.675 -0.0597  0.3989 -0.1084
 4974SOL    HW126558   0.002   3.221   3.710 -1.4629  0.0413 -2.0357
 4974SOL    HW226559   0.123   3.298   3.675 -0.0924 -0.0115  0.5980
 4975SOL     OW26560   3.647   0.756   8.468 -0.3272  0.5228  0.5610
 4975SOL    HW126561   3.658   0.810   8.546 -0.9970  1.4380  0.0225
 4975SOL    HW226562   3.614   0.816   8.401 -0.5822 -1.3546 -1.0108
 4976SOL     OW26563   3.455   3.663   6.573 -0.3257  0.0600 -0.0736
 4976SOL    HW126564   3.431   3.756   6.570  0.1415  0.1625 -0.6534
 4976SOL    HW226565   3.378   3.615   6.544  0.4244 -1.4585  0.4416
 4977SOL     OW26566   4.189   1.542   1.779  0.3090  0.8472  0.2518
 4977SOL    HW126567   4.249   1.506   1.845  1.1853 -1.5864 -1.8678
 4977SOL    HW226568   4.146   1.467   1.739 -1.9275  1.5658  1.3747
 4978SOL     OW26569   4.428   0.914   8.153  0.3394 -0.0033  0.1455
 4978SOL    HW126570   4.338   0.883   8.142 -0.7760  3.2235  0.3157
 4978SOL    HW226571   4.463   0.925   8.065 -1.5628 -0.2467 -0.6498
 4979SOL     OW26572   0.793   1.065   2.222 -0.3458 -0.2115  0.1910
 4979SOL    HW126573   0.703   1.074   2.253 -0.6877  0.4972 -0.9897
 4979SOL    HW226574   0.783   0.990   2.164 -1.0983  0.1921 -0.1924
 4980SOL     OW26575   1.503   0.557   2.561 -0.2272 -0.0612 -0.3863
 4980SOL    HW126576   1.541   0.470   2.565 -1.1343 -0.3933  1.1078
 4980SOL    HW226577   1.467   0.561   2.472  2.3632  0.3513 -1.4051
 4981SOL     OW26578   2.688   2.229   2.257  0.3881 -0.0754 -0.3807
 4981SOL    HW126579   2.650   2.225   2.345  3.1107  0.6903  0.8436
 4981SOL    HW226580   2.602   2.219   2.217 -0.4668  0.9001  1.2093
 4982SOL     OW26581   2.394   2.450  17.613  0.6145  0.1133 -0.5573
 4982SOL    HW126582   2.364   2.472  17.701 -0.8873  2.7043 -1.7094
 4982SOL    HW226583   2.461   2.386  17.632 -1.2300 -1.0822  1.8467
 4983SOL     OW26584   2.918   2.197   6.440 -0.5074 -0.1618 -0.6915
 4983SOL    HW126585   2.987   2.259   6.461 -0.8688 -0.5522  1.7128
 4983SOL    HW226586   2.891   2.176   6.529  1.9425 -0.2822  0.0296
 4984SOL     OW26587   3.230   3.837   5.177  0.6932  0.1548 -0.0824
 4984SOL    HW126588   3.241   3.875   5.090 -0.7747  2.1514  0.6103
 4984SOL    HW226589   3.303   3.883   5.218 -0.1241  0.3113  1.1793
 4985SOL     OW26590   2.390   1.592   0.858  0.8494 -0.2063  0.4744
 4985SOL    HW126591   2.389   1.673   0.807 -2.1723 -1.9575 -2.2120
 4985SOL    HW226592   2.481   1.571   0.878  1.2040 -1.3650 -2.3214
 4986SOL     OW26593   1.031   3.733   0.314 -0.5354 -0.4326 -0.2009
 4986SOL    HW126594   0.990   3.739   0.227 -1.4395  1.1897  0.3418
 4986SOL    HW226595   0.951   3.732   0.367  0.6100  1.6709  1.5438
 4987SOL     OW26596   3.814   4.641   8.596 -0.1907  0.3446  0.2333
 4987SOL    HW126597   3.861   4.564   8.627 -0.4470  0.7575  1.6817
 4987SOL    HW226598   3.872   4.710   8.629  1.1928 -0.4963 -0.4562
 4988SOL     OW26599   4.292   4.538  17.693 -0.3400  0.4677 -0.0114
 4988SOL    HW126600   4.385   4.515  17.694 -0.6610 -0.9144 -1.7480
 4988SOL    HW226601   4.271   4.548  17.600 -0.2454 -0.8040 -0.1720
 4989SOL     OW26602   3.697   1.910  13.251  0.4463 -0.0779  0.6964
 4989SOL    HW126603   3.635   1.837  13.252  0.8521 -0.4256 -1.0540
 4989SOL    HW226604   3.778   1.881  13.208  0.1478 -0.3416  0.3187
 4990SOL     OW26605   4.401   3.750   8.074  0.1659  0.7680 -0.5186
 4990SOL    HW126606   4.323   3.731   8.022  1.4445 -0.9850 -1.7958
 4990SOL    HW226607   4.432   3.818   8.014 -0.5762  2.9019  1.5224
 4991SOL     OW26608   0.573   2.219  16.651  0.1120 -0.2784  0.0927
 4991SOL    HW126609   0.583   2.127  16.629 -1.1092 -1.8354  6.0070
 4991SOL    HW226610   0.609   2.228  16.740  1.4583  0.5455 -0.5373
 4992SOL     OW26611   1.977   4.631   5.515  0.2285  0.3903  0.2427
 4992SOL    HW126612   1.951   4.616   5.424  0.5395 -0.6974  0.3304
 4992SOL    HW226613   1.926   4.578   5.576  0.2813  0.0709  0.0077
 4993SOL     OW26614   3.234   4.635   0.165  0.0300  0.4500 -0.1522
 4993SOL    HW126615   3.163   4.572   0.175 -0.8160  1.5721  1.0399
 4993SOL    HW226616   3.263   4.657   0.254 -1.7764  0.5036  0.4339
 4994SOL     OW26617   2.053   1.017   0.939  0.2423  0.2467 -0.1643
 4994SOL    HW126618   2.033   1.035   0.847  0.8769  1.2341 -0.1060
 4994SOL    HW226619   1.968   0.978   0.961 -0.1771  0.9054 -0.6276
 4995SOL     OW26620   1.745   1.486  11.907 -0.1514 -0.2009 -0.3901
 4995SOL    HW126621   1.728   1.546  11.979 -0.1189 -0.1583 -0.4174
 4995SOL    HW226622   1.732   1.550  11.836 -0.3514  0.4553  0.2336
 4996SOL     OW26623   3.458   0.710   7.809 -0.0348 -0.1233  0.3633
 4996SOL    HW126624   3.395   0.674   7.871 -0.3756 -0.0077  0.0927
 4996SOL    HW226625   3.395   0.752   7.750  1.8307 -1.3226 -2.4731
 4997SOL     OW26626   2.546   2.100   6.075  0.1738 -0.2482 -0.1280
 4997SOL    HW126627   2.621   2.117   6.131  1.4529  2.4030 -2.6381
 4997SOL    HW226628   2.482   2.158   6.114 -1.8025 -2.8315  0.4823
 4998SOL     OW26629   3.431   2.538   5.812  0.3164 -0.3103  0.0857
 4998SOL    HW126630   3.404   2.495   5.731 -0.0790  1.8823 -0.9643
 4998SOL    HW226631   3.511   2.494   5.840 -0.5086 -0.9719  1.3718
 4999SOL     OW26632   3.832   3.196   4.075 -0.4806 -0.1720 -0.2148
 4999SOL    HW126633   3.846   3.263   4.142 -0.7824  0.4036 -0.7222
 4999SOL    HW226634   3.798   3.121   4.124  0.7288 -0.6294 -0.0847
 5000SOL     OW26635   3.782   0.126   3.087  0.5844  0.5691  0.2632
 5000SOL    HW126636   3.720   0.127   3.161  4.3753  1.2224  3.4465
 5000SOL    HW226637   3.750   0.198   3.034 -1.0937 -0.0215  0.4739
 5001SOL     OW26638   4.564   3.397   9.498  0.6070 -0.1084  0.3736
 5001SOL    HW126639   4.551   3.408   9.593 -2.6060  1.6299 -0.2857
 5001SOL    HW226640   4.538   3.478   9.454 -1.2842 -0.0801  1.5437
 5002SOL     OW26641   2.488   4.202   4.352 -0.1600 -0.3412  0.0617
 5002SOL    HW126642   2.416   4.264   4.362  1.6060  1.8438 -0.5369
 5002SOL    HW226643   2.537   4.241   4.279 -0.3333  1.8650  1.1460
 5003SOL     OW26644   1.520   1.149   2.377 -0.1216 -0.3133  0.1966
 5003SOL    HW126645   1.529   1.240   2.403 -1.7963  0.2085 -1.1006
 5003SOL    HW226646   1.613   1.127   2.390  0.2624  0.6678 -0.9116
 5004SOL     OW26647   2.535   4.065   6.663 -0.6713 -0.2554  0.9801
 5004SOL    HW126648   2.451   4.020   6.662 -0.5129 -0.4200 -2.5781
 5004SOL    HW226649   2.520   4.138   6.723  0.9010  1.9970 -1.3897
 5005SOL     OW26650   2.261   0.600   7.692 -0.2836 -0.0680  0.1382
 5005SOL    HW126651   2.317   0.677   7.699  0.4976 -0.6606  0.3328
 5005SOL    HW226652   2.267   0.576   7.599 -0.2662 -0.2751  0.1923
 5006SOL     OW26653   2.592   3.638   9.875  0.2105  0.2725 -0.1989
 5006SOL    HW126654   2.498   3.651   9.881 -0.0958 -1.6039 -0.9414
 5006SOL    HW226655   2.617   3.635   9.967  1.7653  1.0292 -0.5920
 5007SOL     OW26656   3.964   4.314   5.325  0.3896 -0.1460 -0.1748
 5007SOL    HW126657   3.879   4.355   5.307  0.8210  0.6416 -0.4386
 5007SOL    HW226658   3.942   4.222   5.312  1.5090  0.0247 -3.1861
 5008SOL     OW26659   4.173   3.513   1.368 -0.0744 -0.2937 -0.5803
 5008SOL    HW126660   4.188   3.596   1.412 -2.1177 -0.2538  0.0400
 5008SOL    HW226661   4.210   3.526   1.280  4.6848  2.7456  1.8785
 5009SOL     OW26662   2.672   1.204   8.886  0.5346  0.1858  0.6142
 5009SOL    HW126663   2.650   1.127   8.939 -0.7616 -0.2686 -0.5665
 5009SOL    HW226664   2.706   1.151   8.814  0.8830  2.3985 -0.8467
 5010SOL     OW26665   4.048   4.181   1.476 -0.6727  0.1361  0.3337
 5010SOL    HW126666   4.031   4.103   1.528  2.6508 -1.0537 -0.4058
 5010SOL    HW226667   3.990   4.241   1.524 -1.4817 -2.0027  2.0454
 5011SOL     OW26668   0.922   1.424   3.375  0.5321 -0.2380 -0.5432
 5011SOL    HW126669   0.876   1.381   3.303 -1.6233  0.3015  0.5238
 5011SOL    HW226670   0.863   1.495   3.401  0.3884 -1.5456  2.7334
 5012SOL     OW26671   2.572   1.464  17.128 -0.0929  0.2797  0.4035
 5012SOL    HW126672   2.623   1.390  17.160  1.4349  0.5604 -1.4304
 5012SOL    HW226673   2.626   1.541  17.147 -1.2209  1.1523  0.1046
 5013SOL     OW26674   0.767   3.084  14.313 -0.1257 -0.1419 -0.0712
 5013SOL    HW126675   0.790   3.001  14.355 -1.4217 -0.4643  0.0021
 5013SOL    HW226676   0.809   3.081  14.227  0.1773 -0.3846  0.0852
 5014SOL     OW26677   1.285   4.639  15.364 -0.4976 -0.2919  0.0724
 5014SOL    HW126678   1.312   4.590  15.287  1.1400  1.2417 -0.3441
 5014SOL    HW226679   1.216   4.701  15.341 -0.3515  0.7399  2.4537
 5015SOL     OW26680   2.022   1.999  10.681 -0.1570  0.4056 -0.6960
 5015SOL    HW126681   2.018   1.977  10.774 -2.7138 -0.4004 -0.9968
 5015SOL    HW226682   2.015   2.094  10.678  1.0906  0.5444  0.9260
 5016SOL     OW26683   4.263   3.119  16.557 -0.0702 -0.6380  1.2444
 5016SOL    HW126684   4.215   3.088  16.634  0.0875 -0.5191  1.3896
 5016SOL    HW226685   4.266   3.212  16.579 -2.4605 -0.1184 -0.6057
 5017SOL     OW26686   1.112   2.432   0.898  0.3996  0.3473  0.2302
 5017SOL    HW126687   1.046   2.419   0.830 -1.5998  1.1883  2.0085
 5017SOL    HW226688   1.182   2.423   0.833  0.4969 -0.8965  0.5061
 5018SOL     OW26689   1.115   2.768   3.877 -0.1009 -0.1242 -0.3152
 5018SOL    HW126690   1.044   2.733   3.932 -0.4634  0.2814 -0.5249
 5018SOL    HW226691   1.153   2.683   3.855 -1.5053 -0.3858 -1.7054
 5019SOL     OW26692   1.382   1.364   5.958 -0.1473 -0.2591  0.5059
 5019SOL    HW126693   1.288   1.379   5.965  0.5299  4.0228  0.5102
 5019SOL    HW226694   1.389   1.399   6.047 -0.3976 -0.2916  0.5388
 5020SOL     OW26695   0.456   1.264   7.357  0.5242  0.4804  0.6360
 5020SOL    HW126696   0.539   1.217   7.349 -0.3411 -1.1616  1.2558
 5020SOL    HW226697   0.457   1.328   7.286  0.4195  2.8597  2.7805
 5021SOL     OW26698   0.184   3.879   8.016  0.3348  0.0504  0.2636
 5021SOL    HW126699   0.142   3.953   7.973 -0.7575 -1.9235 -2.0662
 5021SOL    HW226700   0.264   3.864   7.965  0.4859 -2.7284  1.2726
 5022SOL     OW26701   3.039   1.241  10.518 -0.5746 -1.0338 -0.1938
 5022SOL    HW126702   3.102   1.174  10.543  0.2344 -0.0206  0.4795
 5022SOL    HW226703   3.058   1.248  10.425  0.5036  0.2814  0.1252
 5023SOL     OW26704   0.682   1.311   9.354 -0.2577  0.2040 -0.5179
 5023SOL    HW126705   0.631   1.328   9.275 -2.1286  0.6147  0.7776
 5023SOL    HW226706   0.640   1.237   9.398 -1.0750  0.1902 -1.3110
 5024SOL     OW26707   4.209   3.355  16.954 -0.0033 -0.1208 -0.5620
 5024SOL    HW126708   4.209   3.449  16.971 -1.8115 -0.3721  0.7458
 5024SOL    HW226709   4.206   3.318  17.042 -2.1442  1.3055 -0.0326
 5025SOL     OW26710   3.191   1.437   4.930 -0.4282 -0.1313  0.1287
 5025SOL    HW126711   3.164   1.395   4.848  0.9977  1.8549 -1.3662
 5025SOL    HW226712   3.110   1.423   4.980 -0.5736  0.9926  0.2021
 5026SOL     OW26713   0.037   0.373  11.028 -0.3846 -0.2237 -0.7228
 5026SOL    HW126714   0.067   0.331  10.948  0.6498 -2.4709  0.8421
 5026SOL    HW226715   0.045   0.461  10.991 -2.0881 -0.5123 -1.7457
 5027SOL     OW26716   4.225   3.392   1.832  0.0867  0.6943  0.2383
 5027SOL    HW126717   4.227   3.383   1.737 -0.7658  1.5784  0.1349
 5027SOL    HW226718   4.132   3.414   1.840  0.0351  0.7893 -0.6388
 5028SOL     OW26719   1.896   4.612   5.148 -0.1028  0.6706  0.3175
 5028SOL    HW126720   1.953   4.670   5.097 -0.6471 -0.7844 -1.9463
 5028SOL    HW226721   1.966   4.550   5.169 -1.0802  0.2693  2.3973
 5029SOL     OW26722   4.505   3.076   3.972  0.4253  0.2209  0.3492
 5029SOL    HW126723   4.504   3.162   3.929 -0.1548  0.8834  1.6834
 5029SOL    HW226724   4.422   3.079   4.020 -0.5030 -1.1871 -1.1698
 5030SOL     OW26725   0.663   1.359   5.897  0.0991 -0.3255 -0.0709
 5030SOL    HW126726   0.730   1.348   5.830 -1.9798 -0.4743 -2.1184
 5030SOL    HW226727   0.588   1.379   5.842 -0.2408 -0.3630  0.3741
 5031SOL     OW26728   2.408   4.536  14.271 -0.2650  0.2378 -0.5410
 5031SOL    HW126729   2.367   4.617  14.240 -0.9470  0.5786  1.2261
 5031SOL    HW226730   2.331   4.488  14.302  0.0325 -0.4189 -0.8114
 5032SOL     OW26731   4.296   3.300  11.705 -0.2406 -0.6933  0.2105
 5032SOL    HW126732   4.337   3.376  11.745  0.3017  0.4319 -2.4860
 5032SOL    HW226733   4.297   3.234  11.775  0.9597  1.6031  2.3599
 5033SOL     OW26734   2.682   1.010  15.639  0.3584 -0.4006 -0.6523
 5033SOL    HW126735   2.663   1.004  15.545 -0.4521  0.9649 -0.5773
 5033SOL    HW226736   2.609   1.068  15.661  1.0167  0.2794 -0.2598
 5034SOL     OW26737   3.868   2.703   2.889 -0.2347  0.3635  0.7253
 5034SOL    HW126738   3.806   2.723   2.819  1.0190  1.7466  0.0394
 5034SOL    HW226739   3.872   2.790   2.928 -2.6840  1.3989 -1.2847
 5035SOL     OW26740   2.908   1.750   4.431  0.3352  0.1785 -0.0085
 5035SOL    HW126741   2.974   1.680   4.426 -0.1763 -0.1958 -1.4674
 5035SOL    HW226742   2.890   1.760   4.525  1.9417  0.4713  0.2850
 5036SOL     OW26743   0.144   3.623   3.729 -0.1734 -0.6472  0.3436
 5036SOL    HW126744   0.102   3.659   3.651  0.7529  0.1928  0.2383
 5036SOL    HW226745   0.169   3.537   3.694  1.8919 -0.0848  0.4568
 5037SOL     OW26746   2.251   0.695   1.511  0.3025 -0.2797  0.1616
 5037SOL    HW126747   2.288   0.661   1.430 -2.4229 -0.4691 -1.0160
 5037SOL    HW226748   2.241   0.788   1.490  3.0570  0.4705  2.1898
 5038SOL     OW26749   0.324   3.232  10.534  0.5891 -0.0053  0.5206
 5038SOL    HW126750   0.410   3.202  10.503  0.4759  1.0372 -0.8118
 5038SOL    HW226751   0.292   3.166  10.596  0.4303 -1.0584 -0.6956
 5039SOL     OW26752   4.276   1.144   2.097  0.4615 -0.2968  0.5965
 5039SOL    HW126753   4.293   1.059   2.136 -1.4556 -1.0873 -0.3198
 5039SOL    HW226754   4.328   1.130   2.018 -0.5972 -1.3495  0.0998
 5040SOL     OW26755   1.067   2.155   6.619 -0.3381 -0.2776 -0.2286
 5040SOL    HW126756   0.990   2.127   6.570 -0.1060  1.8218 -1.7965
 5040SOL    HW226757   1.054   2.094   6.691  2.1246 -1.3896 -0.7405
 5041SOL     OW26758   3.872   1.776   3.824 -0.0421  0.5000  0.6368
 5041SOL    HW126759   3.871   1.798   3.730  1.9103  2.7955  1.1474
 5041SOL    HW226760   3.937   1.837   3.859 -0.4112  1.5239 -0.4328
 5042SOL     OW26761   0.845   1.676   4.053  0.4485  0.0726 -0.3222
 5042SOL    HW126762   0.875   1.642   4.138  0.7332  0.2363 -0.3552
 5042SOL    HW226763   0.889   1.609   4.001 -2.4607 -1.2437 -1.0818
 5043SOL     OW26764   0.549   0.164   5.201 -0.1239  0.1670 -0.2306
 5043SOL    HW126765   0.499   0.191   5.278 -0.0389 -0.3222 -0.0022
 5043SOL    HW226766   0.582   0.082   5.238 -1.0326  0.0044  0.2238
 5044SOL     OW26767   1.222   1.580   4.260 -0.7122  0.2930  0.0396
 5044SOL    HW126768   1.257   1.558   4.173  1.6992  1.2504  0.7761
 5044SOL    HW226769   1.252   1.507   4.314 -1.4831  0.5889  0.8547
 5045SOL     OW26770   1.705   3.096   8.099  0.3545  0.6812  0.3082
 5045SOL    HW126771   1.714   3.001   8.096 -0.8706  0.5646  0.4358
 5045SOL    HW226772   1.636   3.112   8.163  0.4938 -3.2211  1.3895
 5046SOL     OW26773   3.034   3.601   1.673  0.5737 -0.4582  0.4197
 5046SOL    HW126774   3.055   3.674   1.614 -2.1215  0.1020  0.1470
 5046SOL    HW226775   3.002   3.528   1.621 -0.4918 -1.8986  3.1487
 5047SOL     OW26776   1.527   1.681   2.982 -0.5761  0.6226 -0.0560
 5047SOL    HW126777   1.526   1.734   3.061  0.3696 -0.0865  0.4324
 5047SOL    HW226778   1.459   1.724   2.931 -1.9605 -0.7797  0.5997
 5048SOL     OW26779   2.682   2.410   9.394  0.0183 -0.7809 -0.0209
 5048SOL    HW126780   2.643   2.323   9.394 -2.0254  0.1425 -2.1397
 5048SOL    HW226781   2.771   2.380   9.376  0.5239  1.0497 -0.5938
 5049SOL     OW26782   3.967   3.203   1.509 -0.0481 -0.2455 -0.2386
 5049SOL    HW126783   3.890   3.167   1.467  0.5285 -0.9288 -0.7211
 5049SOL    HW226784   3.969   3.137   1.579 -1.2892 -0.2737 -0.2308
 5050SOL     OW26785   2.407   1.587   7.233 -0.7493 -0.4534  0.0292
 5050SOL    HW126786   2.316   1.617   7.226  0.0236  2.0076  0.6433
 5050SOL    HW226787   2.452   1.662   7.194 -1.2538 -0.1176  0.0933
 5051SOL     OW26788   2.468   4.177   3.095  0.0781  0.0829 -0.2940
 5051SOL    HW126789   2.484   4.115   3.023  0.5471 -0.5520  0.3565
 5051SOL    HW226790   2.440   4.111   3.159 -0.8323  0.2455 -0.5292
 5052SOL     OW26791   1.335   2.100   2.835  0.1554 -0.3138 -0.0457
 5052SOL    HW126792   1.279   2.178   2.841  1.4962  0.5893  0.5246
 5052SOL    HW226793   1.383   2.120   2.915  0.8798 -3.1816  0.2495
 5053SOL     OW26794   2.362   3.772   3.420  0.1464 -0.2225 -0.0494
 5053SOL    HW126795   2.338   3.791   3.510  0.2212  0.0072 -0.0777
 5053SOL    HW226796   2.424   3.704   3.443 -0.3966 -1.3180 -1.8143
 5054SOL     OW26797   1.329   0.791  12.788 -0.5901  0.2290 -0.0244
 5054SOL    HW126798   1.382   0.859  12.829  0.1078 -0.9821  1.0867
 5054SOL    HW226799   1.249   0.784  12.840 -1.0396  1.5974 -0.5394
 5055SOL     OW26800   4.059   3.920   2.471  0.1654 -0.3855  0.1409
 5055SOL    HW126801   4.078   3.828   2.484  0.8644 -0.0129  1.6944
 5055SOL    HW226802   4.012   3.949   2.549 -0.8837  2.3200 -1.5000
 5056SOL     OW26803   0.489   0.844   3.275  0.2023  0.3130  0.3622
 5056SOL    HW126804   0.535   0.919   3.314  2.4720  0.4937 -2.6435
 5056SOL    HW226805   0.439   0.818   3.352  0.5753  0.4069  0.6332
 5057SOL     OW26806   3.960   1.002   5.589 -0.6493 -0.2459 -0.2756
 5057SOL    HW126807   3.974   1.096   5.598  2.3525 -0.6832 -0.4152
 5057SOL    HW226808   3.952   0.999   5.494 -0.9905 -0.4507 -0.2386
 5058SOL     OW26809   0.874   2.211  17.207  0.2828 -0.1983  0.3485
 5058SOL    HW126810   0.824   2.189  17.286  1.0746 -3.1473  0.0383
 5058SOL    HW226811   0.816   2.176  17.140 -0.4907  1.0629  0.3578
 5059SOL     OW26812   0.666   1.495   7.492  0.4029  0.2534 -0.7538
 5059SOL    HW126813   0.724   1.419   7.488 -0.5746 -0.6096  1.8971
 5059SOL    HW226814   0.638   1.487   7.583  2.3423  0.1873 -0.1582
 5060SOL     OW26815   3.244   2.986   4.943 -0.2410  0.0736 -0.7802
 5060SOL    HW126816   3.258   3.012   5.034 -0.8517 -1.6124 -0.2074
 5060SOL    HW226817   3.284   2.900   4.941 -1.4795 -0.5242  0.0837
 5061SOL     OW26818   0.687   2.132   9.407 -0.3562  0.0913 -0.2786
 5061SOL    HW126819   0.615   2.184   9.443  0.7961  0.5523  1.3586
 5061SOL    HW226820   0.750   2.201   9.387  0.8137 -0.5270  1.2269
 5062SOL     OW26821   4.736   1.891   9.652 -0.2267 -0.0520 -0.0569
 5062SOL    HW126822   4.680   1.924   9.722 -0.5429  0.3631 -0.4976
 5062SOL    HW226823   4.728   1.943   9.571  0.5127  2.7108  1.6469
 5063SOL     OW26824   3.218   4.269   3.415  0.0671  0.4015 -0.4068
 5063SOL    HW126825   3.298   4.250   3.365  1.7846 -0.6620  2.7823
 5063SOL    HW226826   3.247   4.245   3.503 -3.1981 -2.2875 -0.0525
 5064SOL     OW26827   2.404   4.325   8.509  0.0904  0.1573 -0.2463
 5064SOL    HW126828   2.381   4.232   8.507 -1.4291  0.4826  1.5806
 5064SOL    HW226829   2.323   4.374   8.522  2.0646  3.2407  0.2163
 5065SOL     OW26830   2.988   3.485   5.170 -0.5252  0.2426  0.4894
 5065SOL    HW126831   2.995   3.397   5.208  2.6598 -0.0849 -0.8758
 5065SOL    HW226832   3.016   3.540   5.243  1.2874 -0.1280  0.0660
 5066SOL     OW26833   0.089   1.747   8.752  0.1865 -0.2252 -0.0859
 5066SOL    HW126834   0.178   1.759   8.786  0.6008  0.0827 -1.2887
 5066SOL    HW226835   0.102   1.697   8.671 -0.6035  0.5198 -0.6658
 5067SOL     OW26836   4.541   0.580   5.088  0.1024 -0.0693  0.1457
 5067SOL    HW126837   4.525   0.574   4.994 -1.5870  2.0628  0.2990
 5067SOL    HW226838   4.632   0.604   5.077  0.4232 -0.0273  2.8077
 5068SOL     OW26839   2.863   2.145   3.858 -0.5488 -0.4746  0.5955
 5068SOL    HW126840   2.869   2.060   3.814 -1.9811 -2.4487  4.1453
 5068SOL    HW226841   2.874   2.201   3.781 -0.4600 -0.0082  0.9471
 5069SOL     OW26842   1.300   3.771   3.671 -0.0847  0.4818 -0.0657
 5069SOL    HW126843   1.344   3.692   3.702 -5.0672 -1.7791  1.1614
 5069SOL    HW226844   1.254   3.734   3.595 -0.3010 -1.7007  1.1331
 5070SOL     OW26845   3.058   3.590  11.488 -0.1301 -0.1653  0.1724
 5070SOL    HW126846   3.128   3.649  11.459 -0.8518  0.2374 -0.7493
 5070SOL    HW226847   3.091   3.511  11.445 -0.3538 -1.6703  2.7972
 5071SOL     OW26848   0.902   4.555  12.375  0.0926 -0.8292 -0.1274
 5071SOL    HW126849   0.947   4.525  12.296 -1.4206 -1.5295 -0.7032
 5071SOL    HW226850   0.971   4.612  12.411  1.6168 -1.6855 -1.6831
 5072SOL     OW26851   4.206   3.689   6.050  0.6444  0.0187  0.7116
 5072SOL    HW126852   4.226   3.761   5.990  2.3359 -1.1368 -0.0753
 5072SOL    HW226853   4.115   3.703   6.079  1.2159  1.6627  1.6844
 5073SOL     OW26854   2.043   3.749   9.174 -0.0034 -0.3429  0.4488
 5073SOL    HW126855   1.997   3.667   9.156  0.2251 -0.2339 -0.6065
 5073SOL    HW226856   2.137   3.729   9.168  0.7261  3.1422  0.0905
 5074SOL     OW26857   3.722   1.219   4.636 -0.3952  0.2813  0.0403
 5074SOL    HW126858   3.745   1.308   4.611  0.0814  1.1760  3.5920
 5074SOL    HW226859   3.789   1.205   4.704  0.9814 -0.6497 -1.5254
 5075SOL     OW26860   0.275   1.134   8.990  0.3682  0.5001  0.8064
 5075SOL    HW126861   0.182   1.112   8.984  0.7985 -0.6749 -1.3567
 5075SOL    HW226862   0.278   1.225   8.960  0.3545  0.8655  1.9101
 5076SOL     OW26863   0.586   3.894   7.999  0.1159 -0.5402  0.5161
 5076SOL    HW126864   0.656   3.913   7.937  2.2079 -3.0636  2.1013
 5076SOL    HW226865   0.532   3.844   7.937 -1.2319 -1.9288  2.7836
 5077SOL     OW26866   2.508   2.366   6.974 -0.2304 -0.2348  0.2600
 5077SOL    HW126867   2.480   2.370   7.066 -2.6082  1.4085 -0.5438
 5077SOL    HW226868   2.485   2.453   6.942  2.0633  0.8855  1.6387
 5078SOL     OW26869   2.225   4.338   1.959  0.0181  0.4433  0.5868
 5078SOL    HW126870   2.155   4.396   1.987 -0.1322  0.9214 -0.7809
 5078SOL    HW226871   2.266   4.325   2.044 -2.2667 -0.1207  1.5847
 5079SOL     OW26872   1.677   1.742   1.566  0.1671 -0.2710 -0.3446
 5079SOL    HW126873   1.704   1.651   1.556 -1.8908 -0.8256 -0.9547
 5079SOL    HW226874   1.757   1.781   1.601 -0.1872  0.9024 -0.8210
 5080SOL     OW26875   3.460   3.226  11.036  0.1820 -0.2745 -0.2482
 5080SOL    HW126876   3.527   3.295  11.036 -0.1551  0.0498 -1.2522
 5080SOL    HW226877   3.393   3.256  10.975  1.1494 -0.3113 -1.3202
 5081SOL     OW26878   0.969   4.337   3.413  0.0932 -0.7260  0.1886
 5081SOL    HW126879   1.023   4.275   3.462 -1.0092  0.5274  3.0143
 5081SOL    HW226880   0.882   4.333   3.452 -0.2969  1.7180 -0.4402
 5082SOL     OW26881   3.283   4.276   7.956 -0.1022  0.3702 -0.2363
 5082SOL    HW126882   3.259   4.184   7.947 -0.7798  0.3103  2.2645
 5082SOL    HW226883   3.262   4.304   8.045  0.7615 -1.7226  0.6124
 5083SOL     OW26884   3.956   2.030   6.136  0.4358  0.2242 -0.3721
 5083SOL    HW126885   3.908   1.952   6.163  1.7730  0.2727  2.1248
 5083SOL    HW226886   4.035   2.019   6.189 -0.0071  0.6993  0.3901
 5084SOL     OW26887   0.566   2.620  14.451 -0.0236  0.0169  0.2011
 5084SOL    HW126888   0.586   2.709  14.422 -0.3721 -0.5182 -1.7364
 5084SOL    HW226889   0.521   2.604  14.367  1.5592 -1.4140 -0.3818
 5085SOL     OW26890   2.168   0.217   1.158 -0.0018  0.0526  0.2087
 5085SOL    HW126891   2.114   0.233   1.235 -1.4427 -0.4437 -0.6897
 5085SOL    HW226892   2.176   0.124   1.180 -1.2348 -0.6343 -2.2823
 5086SOL     OW26893   4.142   4.682  16.412  0.0440 -0.2722  0.4346
 5086SOL    HW126894   4.204   4.717  16.476 -0.7393 -0.8470  1.5265
 5086SOL    HW226895   4.208   4.642  16.356  0.0712 -0.1291  0.3665
 5087SOL     OW26896   3.591   3.616   7.975 -0.3928 -0.0965 -0.2260
 5087SOL    HW126897   3.507   3.648   8.009 -0.0516  1.7512 -1.1303
 5087SOL    HW226898   3.606   3.551   8.044  3.3714 -0.4429 -1.3366
 5088SOL     OW26899   3.013   0.198   6.582 -0.0587  0.0270 -0.1343
 5088SOL    HW126900   2.998   0.280   6.629  0.6149  0.8218 -1.2993
 5088SOL    HW226901   2.943   0.138   6.607  1.6754 -1.8897  0.1452
 5089SOL     OW26902   0.726   3.728   1.686  0.1800 -0.1681  0.0029
 5089SOL    HW126903   0.797   3.727   1.751  0.1284 -1.0957  0.0560
 5089SOL    HW226904   0.655   3.769   1.736 -0.5250 -0.4284 -0.7936
 5090SOL     OW26905   4.527   0.213   8.071  0.0553  0.5442  0.2359
 5090SOL    HW126906   4.581   0.140   8.103  1.0201  0.7894 -0.8522
 5090SOL    HW226907   4.521   0.190   7.979  0.2798 -0.7182  0.5337
 5091SOL     OW26908   2.667   2.598   4.086  0.2070 -0.3290  0.1149
 5091SOL    HW126909   2.603   2.612   4.016 -0.4874 -0.2722  0.7651
 5091SOL    HW226910   2.680   2.691   4.105  0.9819 -0.7829  1.7497
 5092SOL     OW26911   4.140   0.212  14.398  0.4182 -0.0223  0.2415
 5092SOL    HW126912   4.190   0.289  14.370  1.8790 -1.2635 -0.5381
 5092SOL    HW226913   4.073   0.233  14.333  0.0391 -3.4706 -0.4739
 5093SOL     OW26914   1.019   3.380  15.270  0.7432  0.8399  0.0007
 5093SOL    HW126915   0.969   3.451  15.311 -1.8747 -1.1584  0.2243
 5093SOL    HW226916   0.967   3.363  15.192 -1.3724 -0.6488  1.7401
 5094SOL     OW26917   1.808   1.364   4.628  0.4359 -0.7350 -0.0491
 5094SOL    HW126918   1.764   1.364   4.713  0.9214  1.9481  0.2298
 5094SOL    HW226919   1.825   1.457   4.613 -1.3423 -0.3246  0.5167
 5095SOL     OW26920   2.183   3.238   3.065 -0.1019 -0.4569  0.0273
 5095SOL    HW126921   2.181   3.143   3.075 -0.7682 -0.5312 -0.8860
 5095SOL    HW226922   2.274   3.259   3.087 -0.5459  0.1983  1.2341
 5096SOL     OW26923   1.968   4.404   5.959  0.2968  0.2131 -0.0584
 5096SOL    HW126924   1.935   4.429   5.873 -2.6560 -1.0106  0.7041
 5096SOL    HW226925   1.916   4.459   6.017  1.1784  1.7050 -0.6983
 5097SOL     OW26926   4.214   4.159  16.508 -0.4023  0.6071 -0.2489
 5097SOL    HW126927   4.221   4.226  16.576 -1.4226 -0.9574  1.4161
 5097SOL    HW226928   4.137   4.179  16.455  0.9000  0.6925 -2.1122
 5098SOL     OW26929   0.415   3.650   4.816  0.1423  0.2071  0.4190
 5098SOL    HW126930   0.456   3.717   4.872 -1.6780  1.5352  0.1581
 5098SOL    HW226931   0.383   3.708   4.747 -0.5354  0.7447  1.1849
 5099SOL     OW26932   3.498   0.170   6.145 -0.2086 -0.2687  0.6446
 5099SOL    HW126933   3.484   0.259   6.113  0.4516 -0.1338  0.7312
 5099SOL    HW226934   3.563   0.127   6.088  0.2360  2.7442 -1.0985
 5100SOL     OW26935   3.764   3.377   8.589  0.0950  0.3225  0.7044
 5100SOL    HW126936   3.844   3.399   8.540 -1.0080  0.6223 -0.9548
 5100SOL    HW226937   3.771   3.283   8.607  1.0339  0.6177  1.8928
 5101SOL     OW26938   2.816   1.615   2.081 -0.5689 -0.3893 -0.0777
 5101SOL    HW126939   2.889   1.671   2.055 -1.6418  1.6237  1.2643
 5101SOL    HW226940   2.752   1.643   2.016  1.7252  0.2976 -2.0485
 5102SOL     OW26941   2.541   1.048   4.179  0.1242  0.1178  0.2003
 5102SOL    HW126942   2.544   1.052   4.084  2.9075  1.0764  0.3122
 5102SOL    HW226943   2.448   1.034   4.195  0.4912 -0.7411  1.6056
 5103SOL     OW26944   1.555   1.535  16.594  0.3095  0.3945 -0.1640
 5103SOL    HW126945   1.620   1.526  16.524  0.8788  0.6947  0.3168
 5103SOL    HW226946   1.484   1.513  16.535  1.5130  2.4313 -2.3531
 5104SOL     OW26947   0.999   3.294   2.185  0.5599  0.8068  0.1087
 5104SOL    HW126948   0.990   3.225   2.120 -1.2668  0.1507  1.0380
 5104SOL    HW226949   1.094   3.295   2.182  0.6116 -0.7980  1.3815
 5105SOL     OW26950   4.428   1.526  11.466  0.3735  0.3275  0.1521
 5105SOL    HW126951   4.503   1.518  11.525 -1.2203  0.5155  2.2073
 5105SOL    HW226952   4.465   1.599  11.415  0.9830  0.6855  1.0976
 5106SOL     OW26953   3.065   0.983  15.892 -0.3154 -0.1296 -0.6773
 5106SOL    HW126954   2.983   1.034  15.892  1.4016  2.6203 -0.4690
 5106SOL    HW226955   3.110   1.046  15.836 -1.1194  2.4491  1.5626
 5107SOL     OW26956   4.048   3.233   9.742 -0.3552 -0.3987 -0.1758
 5107SOL    HW126957   3.971   3.235   9.685 -0.2274  0.5759 -0.3272
 5107SOL    HW226958   4.120   3.236   9.679 -0.7320 -2.3425 -0.6985
 5108SOL     OW26959   3.287   1.751   6.078 -0.0267  0.4059 -0.4554
 5108SOL    HW126960   3.237   1.806   6.139  2.3533  0.7187  1.1980
 5108SOL    HW226961   3.211   1.731   6.023  1.5381 -3.1413 -1.3323
 5109SOL     OW26962   4.127   0.313   6.513 -0.1537 -0.1531  0.2982
 5109SOL    HW126963   4.139   0.311   6.608 -0.4943 -1.6260  0.3106
 5109SOL    HW226964   4.212   0.274   6.491  0.3627 -0.1891  2.3591
 5110SOL     OW26965   0.618   2.480   5.966 -0.1437 -0.3570  0.0821
 5110SOL    HW126966   0.697   2.428   5.979  0.0692 -0.2481 -0.8122
 5110SOL    HW226967   0.564   2.453   6.041  0.4443  0.3405  0.7487
 5111SOL     OW26968   1.357   2.016   3.773  0.1775 -0.2883  0.0882
 5111SOL    HW126969   1.346   1.967   3.855  1.2378  4.9701  3.3931
 5111SOL    HW226970   1.280   1.982   3.728  1.9391 -0.8795 -2.4650
 5112SOL     OW26971   2.193   3.761  13.109 -0.4221  0.1449 -0.1172
 5112SOL    HW126972   2.254   3.758  13.035 -0.7021  2.3576 -0.4211
 5112SOL    HW226973   2.239   3.703  13.170 -2.3784 -1.2903 -0.0374
 5113SOL     OW26974   2.762   2.870  16.185 -0.1155 -0.2741 -0.6088
 5113SOL    HW126975   2.845   2.884  16.140  0.7002  1.1102  1.3215
 5113SOL    HW226976   2.722   2.802  16.132 -1.5494 -0.3674  0.5950
 5114SOL     OW26977   0.677   1.721   2.816  0.6489 -0.3251 -0.8573
 5114SOL    HW126978   0.698   1.675   2.897  0.1518  1.8680  0.5054
 5114SOL    HW226979   0.728   1.675   2.749  2.1137 -2.0959  1.4396
 5115SOL     OW26980   0.130   2.443   6.314 -0.3592 -0.0368 -0.4450
 5115SOL    HW126981   0.144   2.387   6.238 -0.4136 -0.5509 -0.0773
 5115SOL    HW226982   0.072   2.511   6.279 -1.8876 -1.1329 -0.0480
 5116SOL     OW26983   2.769   1.809   5.150  0.0127 -0.0426 -0.2737
 5116SOL    HW126984   2.756   1.903   5.164 -1.9514 -0.3859  0.2059
 5116SOL    HW226985   2.806   1.819   5.062  0.9680  0.0077  0.1317
 5117SOL     OW26986   4.319   1.958  12.054  0.2314 -0.2083 -0.6519
 5117SOL    HW126987   4.247   2.000  12.009  0.2817  0.8415  0.2657
 5117SOL    HW226988   4.388   1.943  11.988  0.8278 -0.2769 -0.0150
 5118SOL     OW26989   0.251   1.168   1.020  0.6088  0.0839  0.3443
 5118SOL    HW126990   0.192   1.155   1.094 -0.2837  0.7369 -0.2523
 5118SOL    HW226991   0.215   1.108   0.955  1.2168 -3.4252  3.3002
 5119SOL     OW26992   2.886   2.527   8.236  0.0035  0.0552  0.2404
 5119SOL    HW126993   2.844   2.605   8.200  0.1964  0.4359  0.8446
 5119SOL    HW226994   2.808   2.472   8.250  0.8377 -1.2223 -0.0977
 5120SOL     OW26995   0.677   0.393   6.892  0.5212  0.2155 -0.2423
 5120SOL    HW126996   0.681   0.379   6.986  0.9602  0.2110 -0.2659
 5120SOL    HW226997   0.649   0.310   6.853 -0.6584  0.6196 -0.2802
 5121SOL     OW26998   2.483   3.522   6.187  0.1756 -0.2954  0.0057
 5121SOL    HW126999   2.439   3.510   6.272 -0.7905 -1.0605 -0.5944
 5121SOL    HW227000   2.435   3.595   6.149 -0.9182 -0.5855  0.8144
 5122SOL     OW27001   0.683   0.483   8.630  0.5310 -0.2127  0.0791
 5122SOL    HW127002   0.702   0.392   8.611 -0.0136 -0.2304 -0.3953
 5122SOL    HW227003   0.636   0.500   8.548 -0.1768  0.6643  0.6589
 5123SOL     OW27004   1.185   4.279   1.892  0.1570  0.5002  0.1737
 5123SOL    HW127005   1.183   4.374   1.908  4.5483  0.6801 -0.3109
 5123SOL    HW227006   1.101   4.251   1.927  0.8021 -2.5337 -0.7057
 5124SOL     OW27007   4.558   2.223  14.226 -0.4046  0.4084 -0.5604
 5124SOL    HW127008   4.587   2.301  14.274  3.7443 -1.6607  0.3177
 5124SOL    HW227009   4.483   2.264  14.184 -0.9300  0.6498  0.6045
 5125SOL     OW27010   2.496   3.701   6.559 -0.5186 -0.6177  0.0561
 5125SOL    HW127011   2.508   3.788   6.522  0.1468 -0.5983  0.3212
 5125SOL    HW227012   2.439   3.720   6.634 -0.7810 -0.2573 -0.2350
 5126SOL     OW27013   2.457   3.248   9.472  0.4875  0.7624  0.2421
 5126SOL    HW127014   2.408   3.197   9.537 -2.4823 -0.6720 -3.1838
 5126SOL    HW227015   2.466   3.325   9.528  1.5301 -1.6248  3.4306
 5127SOL     OW27016   2.700   3.013   8.045 -0.0324  0.3518 -0.3538
 5127SOL    HW127017   2.759   3.079   8.082 -0.5309  0.0278  1.0365
 5127SOL    HW227018   2.619   3.051   8.079  0.1691  1.2252 -0.8729
 5128SOL     OW27019   0.911   1.385   7.158  0.1514  0.4137 -0.1616
 5128SOL    HW127020   0.918   1.423   7.245 -0.1888  0.4971 -0.1726
 5128SOL    HW227021   0.832   1.332   7.158  0.4651 -0.0551 -1.2955
 5129SOL     OW27022   4.305   0.029  13.533  0.4853 -0.0572  0.1114
 5129SOL    HW127023   4.257   4.691  13.498 -2.2415  1.7492 -0.0531
 5129SOL    HW227024   4.247   0.041  13.609  3.6679  0.3644  2.4865
 5130SOL     OW27025   3.316   1.019   3.014 -0.7908  0.0970  0.1692
 5130SOL    HW127026   3.372   1.092   3.044 -0.1445 -0.0608 -0.6464
 5130SOL    HW227027   3.361   0.993   2.934  0.5931 -1.7778  1.5443
 5131SOL     OW27028   4.706   1.201   5.098  0.6145  0.1000  0.0636
 5131SOL    HW127029   4.613   1.181   5.094  0.5927 -0.3614  3.1963
 5131SOL    HW227030   4.705   1.288   5.138 -3.2753 -0.6468  1.5374
 5132SOL     OW27031   0.066   3.236   7.847 -0.3043 -0.1263  0.5466
 5132SOL    HW127032   0.041   3.172   7.914  0.9842 -1.4083 -0.2039
 5132SOL    HW227033   4.723   3.286   7.828 -0.1666  0.4759  1.5902
 5133SOL     OW27034   3.016   2.993  16.132  0.5263 -0.2636 -0.4038
 5133SOL    HW127035   3.050   3.078  16.160  1.2558 -0.2511 -1.3280
 5133SOL    HW227036   3.015   3.015  16.039 -4.2070  0.3046 -0.1769
 5134SOL     OW27037   0.186   1.670  11.701  0.1431 -0.1100  0.0727
 5134SOL    HW127038   0.214   1.583  11.727  0.4631  0.0694  0.3370
 5134SOL    HW227039   0.258   1.723  11.735  1.3311 -1.1850 -0.7780
 5135SOL     OW27040   3.080   3.177   7.215  0.4672 -0.2640  0.3045
 5135SOL    HW127041   3.043   3.190   7.127 -2.6986  0.3657  1.7275
 5135SOL    HW227042   3.166   3.139   7.197  0.5113  0.9270 -1.9821
 5136SOL     OW27043   0.428   2.897  11.800 -0.1693  0.3331  0.0686
 5136SOL    HW127044   0.493   2.832  11.772 -0.2703  0.0420  0.5100
 5136SOL    HW227045   0.359   2.872  11.737  0.7758 -1.2204 -0.3547
 5137SOL     OW27046   0.667   2.103   1.669 -0.6695  0.3495  0.0083
 5137SOL    HW127047   0.626   2.183   1.702 -0.5857 -0.2451  1.5998
 5137SOL    HW227048   0.585   2.053   1.672 -0.1590 -0.4985 -0.0984
 5138SOL     OW27049   1.286   2.239   8.541 -0.4128 -0.0189  0.1775
 5138SOL    HW127050   1.240   2.273   8.464 -0.0580 -0.7071 -0.3368
 5138SOL    HW227051   1.215   2.224   8.603 -1.7507  1.3616 -1.0004
 5139SOL     OW27052   2.428   4.076   2.148  0.3967 -0.2326 -0.6002
 5139SOL    HW127053   2.451   3.990   2.113 -0.0548  0.3591 -2.3439
 5139SOL    HW227054   2.516   4.111   2.162  0.4146 -0.5851  0.1515
 5140SOL     OW27055   2.958   2.628   1.564  0.2633  0.0936  0.0619
 5140SOL    HW127056   2.909   2.625   1.482  0.6356  1.3162 -0.2051
 5140SOL    HW227057   3.049   2.621   1.538  0.2238  0.5590 -0.1979
 5141SOL     OW27058   2.849   1.954  15.363  0.7077  0.1325 -0.1886
 5141SOL    HW127059   2.889   2.032  15.324  1.7474  0.3790  1.3952
 5141SOL    HW227060   2.763   1.995  15.370  0.8477  0.0690  1.8753
 5142SOL     OW27061   3.976   2.671   2.482 -0.6260  0.2723  0.2512
 5142SOL    HW127062   3.969   2.593   2.426  0.3275 -0.5866  1.3370
 5142SOL    HW227063   3.949   2.750   2.433  0.8923 -0.0123 -1.0593
 5143SOL     OW27064   0.391   1.728   2.844  0.1903 -0.1551  0.4232
 5143SOL    HW127065   0.348   1.706   2.926  1.9402 -2.3366  0.7471
 5143SOL    HW227066   0.478   1.761   2.866  0.4566  0.2968 -1.3203
 5144SOL     OW27067   2.745   2.486   1.273 -0.1639 -0.5536  0.0131
 5144SOL    HW127068   2.759   2.577   1.297 -2.6308 -0.5598  1.5625
 5144SOL    HW227069   2.688   2.490   1.196 -1.5817 -1.3277  1.0046
 5145SOL     OW27070   3.978   3.553   8.903 -0.3576 -0.1177  0.4577
 5145SOL    HW127071   4.002   3.493   8.974 -0.3158 -0.2008  0.3745
 5145SOL    HW227072   4.029   3.524   8.827  0.5203 -1.5198  1.5696
 5146SOL     OW27073   0.057   4.212   9.727 -0.1088  0.1262 -0.0303
 5146SOL    HW127074   0.006   4.202   9.808 -1.6731 -0.7485 -1.1117
 5146SOL    HW227075   0.045   4.306   9.719 -1.7125  0.0388  1.3371
 5147SOL     OW27076   1.794   1.562   1.403 -0.1786  0.7048  0.4826
 5147SOL    HW127077   1.837   1.540   1.486 -0.1669 -3.3738 -0.5860
 5147SOL    HW227078   1.789   1.477   1.359 -2.2241  1.3140 -0.4272
 5148SOL     OW27079   3.660   3.385  10.722 -0.5079 -0.4967 -0.0540
 5148SOL    HW127080   3.641   3.308  10.775  1.2108  0.5272  2.0292
 5148SOL    HW227081   3.703   3.350  10.644  0.9923  1.0458  0.0670
 5149SOL     OW27082   3.330   4.044   2.621 -0.1875 -0.1439 -0.0335
 5149SOL    HW127083   3.371   3.985   2.558  2.9382  0.7929  1.1623
 5149SOL    HW227084   3.340   3.995   2.702  1.1784  2.2147  1.2291
 5150SOL     OW27085   2.091   2.079   5.336  0.3117 -0.6030 -0.3894
 5150SOL    HW127086   2.175   2.039   5.312  0.3393 -0.0622 -1.1809
 5150SOL    HW227087   2.093   2.146   5.267 -0.4805 -0.1929 -0.0158
 5151SOL     OW27088   0.857   2.228   2.969  0.3235 -0.0992  0.3401
 5151SOL    HW127089   0.860   2.289   2.895  0.8285 -0.3631  0.1424
 5151SOL    HW227090   0.793   2.165   2.936 -0.3183  0.2763  0.8652
 5152SOL     OW27091   4.523   4.409  17.727  0.5934  0.1033 -0.1931
 5152SOL    HW127092   4.571   4.327  17.717 -0.5702 -1.0762  3.6206
 5152SOL    HW227093   4.549   4.471  17.659  1.5309 -0.1363 -0.0544
 5153SOL     OW27094   1.507   1.439   7.503 -0.0347  0.3112 -0.0008
 5153SOL    HW127095   1.442   1.379   7.540  0.4268 -0.2554 -0.1013
 5153SOL    HW227096   1.558   1.472   7.578  2.3447 -0.0354 -1.4483
 5154SOL     OW27097   3.382   4.221   0.446 -0.1573 -0.6427  0.7068
 5154SOL    HW127098   3.378   4.135   0.405 -0.5393 -1.4231  2.3703
 5154SOL    HW227099   3.300   4.261   0.417  0.9210 -1.1386 -3.0500
 5155SOL     OW27100   2.801   2.082   3.279 -0.2145  0.3333  0.1625
 5155SOL    HW127101   2.749   2.156   3.309 -2.3156 -0.9307 -0.3498
 5155SOL    HW227102   2.741   2.008   3.282  2.5505 -1.8782  1.1243
 5156SOL     OW27103   0.840   4.716   1.819  0.0655  0.1209  0.2061
 5156SOL    HW127104   0.751   0.013   1.817  0.2495  0.5059 -1.3578
 5156SOL    HW227105   0.889   0.045   1.770 -2.1189  1.3632 -0.2946
 5157SOL     OW27106   2.419   3.274   6.697  0.4101 -0.0540 -0.4247
 5157SOL    HW127107   2.337   3.284   6.650 -0.1058  0.8563  0.6624
 5157SOL    HW227108   2.443   3.359   6.736 -0.0793  0.1105 -0.4905
 5158SOL     OW27109   3.169   1.600  11.256  0.3044 -0.5443  0.0450
 5158SOL    HW127110   3.165   1.590  11.351  1.0449 -2.3571 -0.1048
 5158SOL    HW227111   3.096   1.659  11.239  0.9716 -0.1051 -1.3212
 5159SOL     OW27112   3.788   3.424   9.192 -0.0275 -0.2950 -0.1135
 5159SOL    HW127113   3.879   3.394   9.194 -0.1334 -0.5693  0.9302
 5159SOL    HW227114   3.750   3.373   9.264  1.0533  0.5322  1.0416
 5160SOL     OW27115   3.841   2.956  11.444 -0.3644  0.1045  0.0676
 5160SOL    HW127116   3.816   3.034  11.394 -1.7833  0.8341  1.9062
 5160SOL    HW227117   3.922   2.994  11.480  0.4078  0.8698 -2.5027
 5161SOL     OW27118   0.475   2.658   2.533  0.0320  0.3391 -0.3648
 5161SOL    HW127119   0.481   2.598   2.607 -1.3037  3.3106  2.1698
 5161SOL    HW227120   0.504   2.742   2.569 -2.0146  0.9515 -0.1810
 5162SOL     OW27121   0.234   3.772   8.258  0.0374  0.3662  0.4238
 5162SOL    HW127122   0.217   3.823   8.179  2.0316 -0.2868 -0.4362
 5162SOL    HW227123   0.301   3.821   8.307  2.3332  0.9089 -3.2678
 5163SOL     OW27124   2.772   1.704   9.288  0.0518 -1.1036 -0.5323
 5163SOL    HW127125   2.860   1.703   9.325  0.4448 -0.2928 -1.4479
 5163SOL    HW227126   2.725   1.708   9.372  1.4974 -0.5746  0.2471
 5164SOL     OW27127   0.564   0.189  17.204  0.2167  0.2059  0.0059
 5164SOL    HW127128   0.473   0.184  17.233 -0.0796 -0.2092 -0.9838
 5164SOL    HW227129   0.563   0.196  17.109  1.6326 -0.9361 -0.1092
 5165SOL     OW27130   1.356   2.028   1.175 -0.1427 -0.3920 -0.2903
 5165SOL    HW127131   1.264   2.026   1.201 -0.2509  1.4779 -0.5952
 5165SOL    HW227132   1.365   2.114   1.135 -1.9185 -0.8033 -1.6015
 5166SOL     OW27133   3.219   0.143   6.212 -0.2829  0.6800  0.2698
 5166SOL    HW127134   3.186   0.231   6.192 -2.3203 -0.5712 -1.9000
 5166SOL    HW227135   3.313   0.147   6.194 -0.3300  1.0639  0.1010
 5167SOL     OW27136   4.144   1.525   4.005 -0.1447 -0.4202 -0.1013
 5167SOL    HW127137   4.176   1.492   4.089 -1.0816  0.3604  0.5538
 5167SOL    HW227138   4.051   1.533   4.025  0.0463 -1.2074  1.1110
 5168SOL     OW27139   1.016   4.187   5.491  0.0277 -0.0335 -0.2575
 5168SOL    HW127140   1.035   4.279   5.470  1.5355  0.1292  1.8597
 5168SOL    HW227141   0.939   4.199   5.545 -1.6551  0.4199 -2.7596
 5169SOL     OW27142   1.819   1.899   5.978  0.7004  0.1049  0.6671
 5169SOL    HW127143   1.761   1.933   6.046  1.1523 -0.5576  1.3857
 5169SOL    HW227144   1.806   1.951   5.899  0.1906  0.9291  1.2881
 5170SOL     OW27145   0.210   2.910   8.266 -0.1953  0.6644  0.5060
 5170SOL    HW127146   0.229   2.816   8.277  2.3273  1.1097 -0.2065
 5170SOL    HW227147   0.296   2.946   8.286  0.4037 -1.1641  1.2792
 5171SOL     OW27148   3.031   2.507   8.780  0.0786 -0.4186  1.0006
 5171SOL    HW127149   2.998   2.541   8.697 -0.6766 -0.4391  1.3002
 5171SOL    HW227150   3.117   2.548   8.770 -1.0824  1.3292 -1.7512
 5172SOL     OW27151   1.781   0.967   0.992 -0.1290 -0.4036  0.0985
 5172SOL    HW127152   1.769   1.027   1.066  0.6706 -0.1591  0.0336
 5172SOL    HW227153   1.691   0.974   0.959  0.7603  1.7908 -1.8411
 5173SOL     OW27154   3.082   2.862   2.047  0.0298  0.3883  0.3403
 5173SOL    HW127155   3.130   2.943   2.068 -0.7722  0.0529  3.4589
 5173SOL    HW227156   3.098   2.809   2.125 -1.5527  0.5976  0.7977
 5174SOL     OW27157   4.418   2.255   2.906  0.2025  0.5527  0.1322
 5174SOL    HW127158   4.428   2.276   2.998  2.5992  2.4484 -0.5581
 5174SOL    HW227159   4.355   2.320   2.876 -1.0365 -0.3464  0.7790
 5175SOL     OW27160   2.099   2.223   1.844 -0.5724  0.1084 -0.2425
 5175SOL    HW127161   2.137   2.192   1.925 -0.6369  1.6473  0.3901
 5175SOL    HW227162   2.129   2.147   1.795 -0.0460  0.4439 -0.4408
 5176SOL     OW27163   3.951   1.541   4.337  0.2447 -0.1439  0.1046
 5176SOL    HW127164   4.041   1.509   4.326  0.3659  0.3724 -0.3912
 5176SOL    HW227165   3.918   1.492   4.262  0.9908 -1.7916  0.8484
 5177SOL     OW27166   4.458   4.655   8.839 -0.2753  0.1863 -0.8683
 5177SOL    HW127167   4.485   4.567   8.866 -0.0378  0.0995 -1.3900
 5177SOL    HW227168   4.538   4.691   8.801 -0.2467 -0.1639 -1.1356
 5178SOL     OW27169   0.287   0.033   7.433 -0.1283  0.0327 -0.6661
 5178SOL    HW127170   0.376   0.062   7.453 -0.3018 -0.4341  0.7971
 5178SOL    HW227171   0.295   4.688   7.384  2.0333  0.4504 -1.0230
 5179SOL     OW27172   1.590   2.470   4.439  0.5070  0.1348  0.0575
 5179SOL    HW127173   1.571   2.473   4.533  0.0808  0.6708 -0.0418
 5179SOL    HW227174   1.655   2.541   4.433 -0.9880  1.5452  0.4314
 5180SOL     OW27175   0.217   1.873  11.323 -0.3313 -0.2295  0.4287
 5180SOL    HW127176   0.153   1.802  11.322  1.2804 -1.6707 -0.6401
 5180SOL    HW227177   0.285   1.848  11.386  0.3427  1.7044  0.4570
 5181SOL     OW27178   3.990   2.869   0.580  0.3957 -0.7138 -0.3386
 5181SOL    HW127179   4.001   2.944   0.638 -3.6098 -2.6286  2.8772
 5181SOL    HW227180   3.929   2.826   0.640  0.9940 -0.3488  0.5237
 5182SOL     OW27181   0.174   3.552   0.531  0.0421  0.1111 -0.2323
 5182SOL    HW127182   0.125   3.633   0.544 -0.4115 -0.1496 -0.3127
 5182SOL    HW227183   0.100   3.496   0.554  0.4464 -0.4113 -0.1947
 5183SOL     OW27184   4.250   3.148  17.673  0.1428 -0.2179 -0.0626
 5183SOL    HW127185   4.185   3.079  17.659 -0.1951  0.5572 -2.3054
 5183SOL    HW227186   4.318   3.103  17.723 -1.0308 -2.7504 -0.7404
 5184SOL     OW27187   4.000   2.767   3.758  0.1531 -0.6181  0.3309
 5184SOL    HW127188   4.087   2.746   3.791 -0.4868 -1.8976  1.2141
 5184SOL    HW227189   3.973   2.815   3.837 -0.7235 -0.8616  0.1859
 5185SOL     OW27190   2.451   2.046   4.373  0.0628 -0.1480 -0.3043
 5185SOL    HW127191   2.462   2.048   4.277  0.1230  0.4710 -0.2841
 5185SOL    HW227192   2.507   2.121   4.397  0.2143  0.0749 -1.3201
 5186SOL     OW27193   2.361   4.086  14.754 -0.5452  0.5541  0.3465
 5186SOL    HW127194   2.272   4.101  14.721 -0.4712  1.7462  0.6945
 5186SOL    HW227195   2.396   4.066  14.668 -1.6748  0.5445 -0.1162
 5187SOL     OW27196   0.749   0.416  14.682  0.1505  0.5846  0.4329
 5187SOL    HW127197   0.831   0.429  14.635 -1.0684  2.2356 -1.2093
 5187SOL    HW227198   0.791   0.384  14.762  0.7659 -1.4162 -0.6989
 5188SOL     OW27199   1.200   3.186   7.676  0.2483 -0.2521  0.4116
 5188SOL    HW127200   1.115   3.229   7.675 -0.0279 -0.8085  0.1603
 5188SOL    HW227201   1.256   3.264   7.670  0.1777 -0.3559 -1.5455
 5189SOL     OW27202   2.426   1.523   3.960  1.0858  0.0772  0.0476
 5189SOL    HW127203   2.383   1.524   4.045  0.3356 -1.6228 -0.3149
 5189SOL    HW227204   2.356   1.556   3.904  0.6152 -1.0359 -0.0320
 5190SOL     OW27205   2.154   1.543   4.604 -0.2771 -0.6033  0.0524
 5190SOL    HW127206   2.179   1.452   4.590  0.1015 -0.3179 -1.1287
 5190SOL    HW227207   2.243   1.579   4.609 -0.5039 -0.0930  0.4554
 5191SOL     OW27208   3.181   0.994   9.730  0.2499 -0.4397 -0.4230
 5191SOL    HW127209   3.276   1.005   9.723 -0.0034  2.6414  0.9787
 5191SOL    HW227210   3.173   0.951   9.815 -0.1326  1.0136  0.2795
 5192SOL     OW27211   0.113   3.515   1.942 -0.0308 -0.7010  0.0008
 5192SOL    HW127212   0.040   3.571   1.919  1.3257  1.9782  2.2708
 5192SOL    HW227213   0.157   3.569   2.008  0.7042  1.2294 -2.0744
 5193SOL     OW27214   4.002   4.377   6.506  0.6293 -0.1115  0.3331
 5193SOL    HW127215   3.986   4.434   6.581 -0.1868  0.5157 -0.3177
 5193SOL    HW227216   3.952   4.296   6.514 -0.4291  0.6079  1.0390
 5194SOL     OW27217   0.004   0.243   1.959  0.6483  0.2939  0.7255
 5194SOL    HW127218   4.686   0.315   1.991 -2.3855 -1.7545  0.1402
 5194SOL    HW227219   0.089   0.287   1.958 -0.0376  1.6628  2.6787
 5195SOL     OW27220   4.549   4.060  17.563 -0.0979  0.0768  0.2668
 5195SOL    HW127221   4.626   4.093  17.516 -0.3371 -0.4237 -0.4770
 5195SOL    HW227222   4.585   4.069  17.651  1.1901  0.6933 -0.3278
 5196SOL     OW27223   2.889   3.963  12.484  0.0725  0.3026  0.6173
 5196SOL    HW127224   2.817   3.904  12.505  1.0475 -0.2725  2.3913
 5196SOL    HW227225   2.958   3.918  12.533 -0.8042 -0.0289  1.5627
 5197SOL     OW27226   2.342   3.214   9.183  0.2661 -0.2710  0.3530
 5197SOL    HW127227   2.374   3.299   9.153  1.3492 -0.4787  0.9136
 5197SOL    HW227228   2.388   3.199   9.266 -1.7977  2.7847  2.0137
 5198SOL     OW27229   0.536   2.733   8.529 -0.1882 -0.4168 -0.6933
 5198SOL    HW127230   0.613   2.676   8.541 -0.6524 -1.0749 -0.8614
 5198SOL    HW227231   0.561   2.813   8.575 -1.8975 -0.5643  0.4780
 5199SOL     OW27232   0.840   2.468   7.885 -0.0262 -0.0505 -0.9084
 5199SOL    HW127233   0.934   2.453   7.884 -0.0502 -0.4372  2.0852
 5199SOL    HW227234   0.811   2.432   7.969  0.1987 -0.3517 -0.9591
 5200SOL     OW27235   2.058   2.693   7.003 -0.4869 -0.0692 -0.5850
 5200SOL    HW127236   2.074   2.624   6.939 -0.5617 -0.9039  0.2918
 5200SOL    HW227237   1.963   2.705   6.998 -0.3159  0.2529 -2.9389
 5201SOL     OW27238   1.330   0.001   8.276 -0.0731 -0.2735 -0.0620
 5201SOL    HW127239   1.413   4.698   8.249  0.4191  1.8636 -1.7064
 5201SOL    HW227240   1.352   0.089   8.246 -3.1763 -0.2670 -2.3662
 5202SOL     OW27241   2.696   2.620   6.645  0.2508 -0.2384 -0.3329
 5202SOL    HW127242   2.772   2.591   6.594  1.2871 -1.2136  1.7940
 5202SOL    HW227243   2.682   2.701   6.596 -0.8931  0.4696  1.1879
 5203SOL     OW27244   4.268   2.506  17.252  0.2642 -0.1647  0.6623
 5203SOL    HW127245   4.242   2.414  17.251  2.5508 -0.8093  0.0744
 5203SOL    HW227246   4.216   2.532  17.177 -1.4970 -0.1879  1.8888
 5204SOL     OW27247   1.197   2.160  13.872 -0.0704 -0.4164  0.0467
 5204SOL    HW127248   1.112   2.182  13.834 -0.6824  0.1534  1.7448
 5204SOL    HW227249   1.212   2.073  13.836  0.0355 -0.7432  0.8698
 5205SOL     OW27250   1.060   4.661  14.392 -0.3011  0.0691 -0.1340
 5205SOL    HW127251   1.043   4.698  14.479  1.1462 -0.0853  0.2150
 5205SOL    HW227252   1.145   4.697  14.366 -0.4706 -0.1794 -1.0257
 5206SOL     OW27253   4.530   1.270   8.058  0.0837  0.1191 -0.2971
 5206SOL    HW127254   4.435   1.270   8.069  0.1731  0.8449  0.5048
 5206SOL    HW227255   4.560   1.325   8.130 -0.4827  1.0404 -0.7693
 5207SOL     OW27256   3.580   3.337   3.668  0.1199 -0.4684 -0.1245
 5207SOL    HW127257   3.637   3.272   3.627 -0.8303 -2.0889  1.1481
 5207SOL    HW227258   3.639   3.363   3.738  0.7088  0.3792 -0.9351
 5208SOL     OW27259   0.055   4.176  13.589  0.1486  0.2059 -0.2736
 5208SOL    HW127260   0.046   4.224  13.506 -1.4077  2.1033  0.9933
 5208SOL    HW227261   0.149   4.183  13.600 -0.5025  4.3970  2.4523
 5209SOL     OW27262   1.756   2.437   0.215  0.3567 -0.3301  0.1733
 5209SOL    HW127263   1.713   2.442   0.129  0.3926 -1.2311  0.1003
 5209SOL    HW227264   1.832   2.381   0.202 -0.7010 -2.0598  1.3753
 5210SOL     OW27265   4.699   2.296   2.556  0.9594 -0.1276  0.1701
 5210SOL    HW127266   4.634   2.355   2.517  0.0152 -0.7489  0.7786
 5210SOL    HW227267   4.697   2.322   2.648 -0.9336 -3.3192  1.0428
 5211SOL     OW27268   2.694   1.691  17.255  0.1443  0.4187 -0.0946
 5211SOL    HW127269   2.758   1.748  17.299 -2.6133  1.8497  2.0582
 5211SOL    HW227270   2.614   1.727  17.294 -0.6185 -1.0885 -0.2978
 5212SOL     OW27271   2.831   3.477  13.052  0.5181 -0.2943 -0.3066
 5212SOL    HW127272   2.738   3.456  13.064  1.2230 -2.5732  1.0859
 5212SOL    HW227273   2.858   3.422  13.125  0.2004 -0.1748 -0.0988
 5213SOL     OW27274   1.839   2.624   0.433  0.0594  0.9802 -0.1301
 5213SOL    HW127275   1.800   2.692   0.377 -1.1055 -0.7335 -1.4204
 5213SOL    HW227276   1.792   2.545   0.406  0.2536  0.0091  2.3766
 5214SOL     OW27277   0.779   4.252   7.081  0.3772  0.0595 -0.2919
 5214SOL    HW127278   0.796   4.238   7.175 -1.2460 -1.0254 -0.1533
 5214SOL    HW227279   0.842   4.319   7.053 -1.6918  0.7153 -3.3092
 5215SOL     OW27280   1.705   1.848   4.399  0.3721  0.4280 -0.0533
 5215SOL    HW127281   1.638   1.780   4.403  1.0711 -0.2895 -0.5773
 5215SOL    HW227282   1.698   1.872   4.307 -2.3975  1.9001  0.5273
 5216SOL     OW27283   2.379   2.614  12.877 -0.2799  0.2978  0.1707
 5216SOL    HW127284   2.352   2.706  12.883 -1.4787 -0.0990  0.7488
 5216SOL    HW227285   2.334   2.577  12.952  0.6127 -0.3739  0.3690
 5217SOL     OW27286   3.938   0.648  15.998  0.0140 -0.0726  0.2358
 5217SOL    HW127287   3.991   0.710  15.948  1.4725 -1.4735  0.0323
 5217SOL    HW227288   3.853   0.652  15.956 -0.3961 -1.9151  0.9179
 5218SOL     OW27289   2.315   4.332   2.211  0.7624 -0.2972  0.0122
 5218SOL    HW127290   2.354   4.245   2.199  2.5337  0.5577 -0.4068
 5218SOL    HW227291   2.257   4.319   2.286 -0.3359 -0.2466 -0.8299
 5219SOL     OW27292   0.655   4.101   8.767  0.2110 -0.1020  0.7420
 5219SOL    HW127293   0.638   4.175   8.710 -0.7671  0.2958  1.5487
 5219SOL    HW227294   0.689   4.035   8.706  0.2781  1.5739 -1.0043
 5220SOL     OW27295   2.218   1.929  12.621  0.1628  0.2856  0.0097
 5220SOL    HW127296   2.151   1.934  12.552  1.4768 -0.2919 -1.3231
 5220SOL    HW227297   2.295   1.898  12.574  0.0223 -0.5056  0.3084
 5221SOL     OW27298   0.400   4.454   8.026  0.0329  0.1995  0.5595
 5221SOL    HW127299   0.345   4.527   7.998 -1.2897 -1.4238 -1.0177
 5221SOL    HW227300   0.488   4.480   7.999  0.6702 -0.4627  1.9399
 5222SOL     OW27301   2.552   3.987   5.236 -0.1670 -0.2544 -0.1133
 5222SOL    HW127302   2.591   4.061   5.189  1.9455 -2.2546 -1.5007
 5222SOL    HW227303   2.461   3.999   5.208  0.6210  0.9837 -2.1932
 5223SOL     OW27304   3.662   3.146   1.564 -0.8873 -0.0133 -0.0801
 5223SOL    HW127305   3.572   3.175   1.555 -1.1822 -0.3664  1.8972
 5223SOL    HW227306   3.672   3.078   1.497 -1.8084  0.1666 -0.3949
 5224SOL     OW27307   2.021   3.240   7.326  0.3532 -0.0737 -0.4737
 5224SOL    HW127308   2.049   3.323   7.287 -1.2539  1.4132  1.5015
 5224SOL    HW227309   2.064   3.240   7.412  1.2156 -1.6747 -0.9060
 5225SOL     OW27310   0.952   2.514  14.382  0.0667  0.2564 -0.2362
 5225SOL    HW127311   0.907   2.597  14.375  1.3100  1.0321  0.8472
 5225SOL    HW227312   0.978   2.489  14.293 -1.3302 -2.3012  0.0541
 5226SOL     OW27313   3.774   3.124   4.652 -0.3252 -0.2100  0.2090
 5226SOL    HW127314   3.767   3.209   4.607 -2.1070 -1.1129 -1.2088
 5226SOL    HW227315   3.802   3.142   4.742  0.2143 -1.1253  0.2171
 5227SOL     OW27316   3.517   2.578   9.303  0.1265  0.9074 -0.3017
 5227SOL    HW127317   3.474   2.518   9.242  0.2280 -2.5036  2.9783
 5227SOL    HW227318   3.441   2.632   9.325 -1.8869 -1.6544 -0.9185
 5228SOL     OW27319   3.543   2.519   4.668 -0.6822 -0.0986  0.6378
 5228SOL    HW127320   3.561   2.588   4.731  4.4163 -2.2414  1.5143
 5228SOL    HW227321   3.473   2.561   4.618 -0.4398 -1.1496 -0.5854
 5229SOL     OW27322   3.483   0.359   3.499  0.1352 -0.2296  0.0405
 5229SOL    HW127323   3.416   0.343   3.433 -0.0106  0.9712 -0.1104
 5229SOL    HW227324   3.425   0.358   3.575 -1.2308  2.3518 -0.9581
 5230SOL     OW27325   1.956   2.284   1.309  0.3706  0.1669 -1.0119
 5230SOL    HW127326   1.975   2.209   1.253  0.6438  0.2171 -0.9852
 5230SOL    HW227327   1.919   2.349   1.250  0.3826  1.3718  0.3012
 5231SOL     OW27328   4.170   4.671   7.555  0.8784 -0.3048  0.6324
 5231SOL    HW127329   4.100   4.628   7.507  1.1442 -1.0446  0.8893
 5231SOL    HW227330   4.127   4.666   7.641 -0.9891  2.9552 -0.1419
 5232SOL     OW27331   4.052   2.683  11.861  0.7210 -0.6377  0.0550
 5232SOL    HW127332   4.032   2.616  11.796  1.3990  0.6437 -1.4852
 5232SOL    HW227333   4.026   2.644  11.944 -0.4458 -0.1267 -0.0684
 5233SOL     OW27334   4.024   2.086   5.577 -0.2011  0.3065 -0.0649
 5233SOL    HW127335   4.108   2.112   5.539 -1.3442  1.2210 -1.9449
 5233SOL    HW227336   4.027   2.156   5.643  1.3756 -0.6653  0.8883
 5234SOL     OW27337   0.009   0.671  15.712 -0.2356 -0.4483  0.0683
 5234SOL    HW127338   4.720   0.673  15.620  3.9490 -1.8979 -1.1397
 5234SOL    HW227339   4.658   0.659  15.747  0.0224 -3.4256 -0.2997
 5235SOL     OW27340   2.759   1.440   7.972  0.1838 -0.3357  0.4587
 5235SOL    HW127341   2.669   1.472   7.967 -0.1691 -1.4428 -0.3797
 5235SOL    HW227342   2.773   1.445   8.066  0.7085  0.5072  0.3343
 5236SOL     OW27343   4.132   3.103  16.876  0.5826  0.0190 -0.0213
 5236SOL    HW127344   4.063   3.068  16.933 -0.7910 -0.2105 -1.8406
 5236SOL    HW227345   4.133   3.196  16.895 -0.8966  0.5532 -2.5596
 5237SOL     OW27346   2.070   4.715  13.188  0.0285  0.3067 -0.1323
 5237SOL    HW127347   2.037   0.057  13.145 -2.3695 -1.3289 -1.3504
 5237SOL    HW227348   2.118   0.019  13.260 -1.2521  0.7886  0.4456
 5238SOL     OW27349   1.401   4.113  11.506  0.2565 -0.1019 -0.1440
 5238SOL    HW127350   1.490   4.148  11.512 -0.2668  1.0424  0.8124
 5238SOL    HW227351   1.372   4.121  11.596  0.0032  0.5228 -0.2815
 5239SOL     OW27352   4.588   4.454   1.241  0.0682  1.0645 -0.1301
 5239SOL    HW127353   4.526   4.517   1.278  0.1894  0.4910  1.0519
 5239SOL    HW227354   4.529   4.384   1.212 -3.1375  3.1606  1.3190
 5240SOL     OW27355   4.114   3.127  10.551 -0.1367  0.3017  0.2686
 5240SOL    HW127356   4.175   3.053  10.547 -1.0113 -0.2583 -2.5257
 5240SOL    HW227357   4.158   3.175  10.621 -2.0052  2.3007  0.0882
 5241SOL     OW27358   4.341   1.676   1.461 -0.1099  0.0076 -0.2332
 5241SOL    HW127359   4.421   1.648   1.504 -1.1024 -2.5297 -0.0240
 5241SOL    HW227360   4.375   1.678   1.372 -0.3350 -1.5711 -0.3597
 5242SOL     OW27361   4.288   3.865  16.816  0.1740 -0.5108 -0.1047
 5242SOL    HW127362   4.310   3.950  16.778  2.4920 -0.7432  0.7097
 5242SOL    HW227363   4.239   3.879  16.897  0.3205  1.5012 -0.3525
 5243SOL     OW27364   4.448   0.569  11.301 -0.6881 -0.5642  0.4425
 5243SOL    HW127365   4.492   0.518  11.369 -1.8476 -1.6784  0.3558
 5243SOL    HW227366   4.356   0.555  11.323 -0.9226  0.5640  0.1574
 5244SOL     OW27367   0.228   4.671   7.972  0.0121 -0.1309  0.4394
 5244SOL    HW127368   0.255   0.021   7.944  0.8340 -0.8960 -1.1142
 5244SOL    HW227369   0.140   4.662   7.936 -0.3802  1.0963  1.1119
 5245SOL     OW27370   1.031   1.376  13.063  0.5444  0.0457  0.4972
 5245SOL    HW127371   1.028   1.459  13.014 -0.4215 -0.4502 -0.2711
 5245SOL    HW227372   1.037   1.409  13.153  0.2061  0.3306  0.4157
 5246SOL     OW27373   2.911   1.493   4.600 -0.3818  0.4353 -0.0069
 5246SOL    HW127374   2.867   1.545   4.667 -2.1626 -1.7815  0.5633
 5246SOL    HW227375   2.866   1.408   4.603 -0.2940  0.4739  2.4497
 5247SOL     OW27376   3.830   2.398  14.611 -0.1966 -0.0741 -0.4885
 5247SOL    HW127377   3.792   2.367  14.529 -1.0989 -1.0824  0.3032
 5247SOL    HW227378   3.917   2.422  14.580  0.2752 -0.1825  0.7478
 5248SOL     OW27379   3.956   3.369   1.271  0.4628 -0.4459 -0.0723
 5248SOL    HW127380   3.997   3.449   1.302  1.1174 -0.4684 -0.8465
 5248SOL    HW227381   3.997   3.306   1.331  0.9106  1.3759  1.5044
 5249SOL     OW27382   1.692   2.641   0.771  0.3617 -0.3586  0.0033
 5249SOL    HW127383   1.638   2.704   0.723 -0.5849 -1.0274  0.1900
 5249SOL    HW227384   1.671   2.556   0.733  0.8525  1.0394 -3.3779
 5250SOL     OW27385   2.099   1.646  14.716  0.0389 -0.3579 -0.6384
 5250SOL    HW127386   2.144   1.677  14.638  1.8702 -2.5029 -0.4187
 5250SOL    HW227387   2.013   1.680  14.692  0.1707  0.4703  0.0588
 5251SOL     OW27388   1.174   1.210   2.439 -0.2330 -0.6866  0.0250
 5251SOL    HW127389   1.119   1.137   2.465 -0.0333  0.3019  3.2194
 5251SOL    HW227390   1.244   1.196   2.503 -0.1034 -0.5642 -0.0893
 5252SOL     OW27391   1.701   2.652   8.330 -0.2817  0.2226  0.4940
 5252SOL    HW127392   1.636   2.582   8.325  0.7184 -0.6964  0.5563
 5252SOL    HW227393   1.780   2.602   8.347 -0.5809 -0.4396 -0.0769
 5253SOL     OW27394   2.818   1.645   8.749 -0.3692 -0.6927 -0.1968
 5253SOL    HW127395   2.866   1.727   8.740 -1.7098  0.3314  2.1309
 5253SOL    HW227396   2.814   1.637   8.844 -1.3013 -1.2061 -0.2776
 5254SOL     OW27397   3.306   1.896  10.047 -0.8301  0.2600  0.7215
 5254SOL    HW127398   3.224   1.917  10.091 -1.9006  2.6190 -2.3586
 5254SOL    HW227399   3.281   1.814  10.004  0.9228  0.5062 -0.7787
 5255SOL     OW27400   0.040   2.374  10.962  0.3655 -0.1339  0.1475
 5255SOL    HW127401   4.713   2.369  10.891 -1.7255 -3.0199  2.2618
 5255SOL    HW227402   0.076   2.460  10.939  1.3245 -0.3355  0.8982
 5256SOL     OW27403   0.623   3.176   2.557  0.2532  0.0479 -0.1411
 5256SOL    HW127404   0.604   3.127   2.637  2.3266  0.6049  0.6810
 5256SOL    HW227405   0.700   3.126   2.529  0.5587  0.1822  0.4726
 5257SOL     OW27406   1.790   1.162  14.893  0.0133  0.1543  0.1498
 5257SOL    HW127407   1.862   1.165  14.955 -0.2276  0.8714  0.3904
 5257SOL    HW227408   1.835   1.199  14.817  1.1413 -1.8587 -0.1380
 5258SOL     OW27409   4.233   0.436  12.355  0.0342 -0.5112  0.4505
 5258SOL    HW127410   4.238   0.373  12.284 -2.0962 -0.4245  0.2241
 5258SOL    HW227411   4.323   0.434  12.388 -0.0982 -1.7214  0.7506
 5259SOL     OW27412   2.575   1.645  11.637  0.5773  0.6206 -0.1541
 5259SOL    HW127413   2.501   1.625  11.580  0.0782  1.9447  0.0087
 5259SOL    HW227414   2.640   1.642  11.567 -0.5554 -3.2031 -0.9905
 5260SOL     OW27415   2.750   3.479   0.133  1.6743  0.1814  0.1713
 5260SOL    HW127416   2.747   3.384   0.123  1.3625  0.3315 -1.1239
 5260SOL    HW227417   2.839   3.473   0.168  1.2142  4.5028  2.1158
 5261SOL     OW27418   4.366   4.548  16.839  0.1488  0.0509 -0.1735
 5261SOL    HW127419   4.451   4.528  16.878 -1.4575 -2.1256  2.2036
 5261SOL    HW227420   4.320   4.581  16.915  1.9595 -1.1178  1.4361
 5262SOL     OW27421   2.446   4.606   5.672  0.0924 -0.3064  0.0705
 5262SOL    HW127422   2.450   4.699   5.651 -0.5974 -0.3256 -0.1561
 5262SOL    HW227423   2.509   4.605   5.744  1.8451 -0.6641 -1.4686
 5263SOL     OW27424   2.781   0.795   5.162  0.0435  0.3226 -0.6765
 5263SOL    HW127425   2.766   0.803   5.256 -0.6880 -0.7794 -0.6931
 5263SOL    HW227426   2.712   0.855   5.133 -0.7582 -0.1474  0.2555
 5264SOL     OW27427   1.398   0.139   8.974  0.3288 -0.0420 -0.1274
 5264SOL    HW127428   1.429   0.066   9.028 -1.0390 -0.0392  0.6786
 5264SOL    HW227429   1.486   0.152   8.939  1.0706  1.0257  2.0873
 5265SOL     OW27430   2.841   1.272  10.686  0.0264 -0.4315 -0.1326
 5265SOL    HW127431   2.802   1.346  10.640  2.0800  0.5358 -0.2753
 5265SOL    HW227432   2.911   1.263  10.622 -0.1837  0.9497 -0.5548
 5266SOL     OW27433   2.405   1.360   4.364 -0.3050  0.6642  0.2400
 5266SOL    HW127434   2.338   1.372   4.296  0.5049 -1.0015 -0.8651
 5266SOL    HW227435   2.476   1.416   4.331  0.5423 -0.0051  0.9415
 5267SOL     OW27436   0.675   4.018  10.833 -0.2639  0.7014 -0.2023
 5267SOL    HW127437   0.700   3.964  10.758  0.9366  3.4262 -1.7830
 5267SOL    HW227438   0.638   3.957  10.897 -1.1401 -1.6292 -2.9211
 5268SOL     OW27439   0.975   1.671   8.133 -0.2260  0.2044 -0.1290
 5268SOL    HW127440   0.959   1.638   8.222  0.0406 -0.3840 -0.2971
 5268SOL    HW227441   1.020   1.597   8.093  0.4223 -1.2069  3.1645
 5269SOL     OW27442   0.501   4.634  12.153 -0.1900  0.5512 -0.0687
 5269SOL    HW127443   0.553   4.713  12.163 -2.6174  2.1291  0.0636
 5269SOL    HW227444   0.498   4.603  12.063 -0.9197  0.0210  0.1316
 5270SOL     OW27445   4.354   0.693   7.563 -0.0594 -0.3018 -0.1230
 5270SOL    HW127446   4.409   0.767   7.536 -0.1644 -0.1793 -0.0076
 5270SOL    HW227447   4.338   0.697   7.658 -1.4760 -0.4715 -0.3571
 5271SOL     OW27448   1.569   0.568   0.558  0.7872 -0.3867  0.3442
 5271SOL    HW127449   1.661   0.594   0.564  0.8992 -0.2510 -2.0004
 5271SOL    HW227450   1.582   0.496   0.496 -1.4365  0.4842 -1.1447
 5272SOL     OW27451   2.856   1.933   4.236  0.6329  0.3907 -0.3220
 5272SOL    HW127452   2.857   1.877   4.314  0.9808 -2.4529 -2.3354
 5272SOL    HW227453   2.949   1.935   4.215  0.6927 -0.2856 -0.1380
 5273SOL     OW27454   2.971   2.828  12.640  0.0294  0.1735 -0.6628
 5273SOL    HW127455   2.888   2.867  12.667 -0.0884  0.0984 -0.9090
 5273SOL    HW227456   3.035   2.891  12.671 -0.0758 -0.9173  1.7325
 5274SOL     OW27457   3.001   3.727   5.770  0.2894 -0.5446  0.3636
 5274SOL    HW127458   3.089   3.728   5.734  0.6439  0.4999  1.2763
 5274SOL    HW227459   2.972   3.814   5.743 -1.1479 -1.4266 -0.9745
 5275SOL     OW27460   1.034   4.160  16.436  0.3294 -0.0112  0.1215
 5275SOL    HW127461   1.106   4.098  16.445 -0.9890 -1.1925  2.4997
 5275SOL    HW227462   0.984   4.130  16.512 -0.1439  1.4183  0.3723
 5276SOL     OW27463   0.252   4.223   2.019 -0.2004  0.4336 -0.5434
 5276SOL    HW127464   0.328   4.252   1.969  1.4087 -1.6192  0.7125
 5276SOL    HW227465   0.186   4.284   1.987 -0.4239 -0.1544 -1.1872
 5277SOL     OW27466   2.027   2.458   1.994  0.0231 -0.3552  0.2228
 5277SOL    HW127467   1.943   2.415   1.984  1.0275 -1.8122 -1.8778
 5277SOL    HW227468   2.087   2.395   1.954 -0.4117 -2.1116  2.3856
 5278SOL     OW27469   0.193   0.212  14.616 -0.1671  0.3241 -0.2272
 5278SOL    HW127470   0.189   0.124  14.654 -1.6344  1.4772  2.2901
 5278SOL    HW227471   0.268   0.242  14.668  0.5514  3.3635 -3.0037
 5279SOL     OW27472   2.202   2.986  12.052  0.4994 -0.3734  0.3361
 5279SOL    HW127473   2.203   2.905  12.102  1.5918 -0.8140 -0.4177
 5279SOL    HW227474   2.210   2.950  11.964 -0.2295  1.8240 -0.6230
 5280SOL     OW27475   4.581   0.785   3.095  0.2134 -0.8565  1.0851
 5280SOL    HW127476   4.524   0.798   3.170 -1.4824 -1.0923 -0.1703
 5280SOL    HW227477   4.663   0.765   3.142  0.9602 -0.9689 -0.2598
 5281SOL     OW27478   2.687   3.005   6.242  0.1016 -0.2484  0.0585
 5281SOL    HW127479   2.747   3.014   6.316 -0.3822 -0.0619  0.4289
 5281SOL    HW227480   2.616   3.056   6.280  1.3062  1.6448 -0.2703
 5282SOL     OW27481   3.643   1.089   5.352  0.3122  0.4447 -0.4135
 5282SOL    HW127482   3.566   1.144   5.364  1.2786  1.9080 -0.9309
 5282SOL    HW227483   3.623   1.027   5.423 -3.2682 -1.0946 -2.7475
 5283SOL     OW27484   1.515   3.500   8.701 -0.1004 -0.3149 -0.1184
 5283SOL    HW127485   1.521   3.476   8.794  2.8010 -1.9414 -0.7409
 5283SOL    HW227486   1.607   3.511   8.677 -0.0106 -4.3105 -1.4882
 5284SOL     OW27487   0.629   1.000   3.452 -0.0885  0.2772 -0.8517
 5284SOL    HW127488   0.695   0.938   3.421 -1.1932 -0.8721 -0.9485
 5284SOL    HW227489   0.685   1.076   3.465 -2.8280  2.4114 -1.4215
 5285SOL     OW27490   0.377   1.042   6.501  0.3109  0.4367 -0.1472
 5285SOL    HW127491   0.406   0.991   6.577 -0.6346 -1.6076 -1.1586
 5285SOL    HW227492   0.291   1.077   6.524  0.1729 -0.2250  0.3164
 5286SOL     OW27493   3.396   4.085   6.281 -0.2717 -0.3320  0.2096
 5286SOL    HW127494   3.470   4.142   6.262 -2.3830  2.0258 -0.9476
 5286SOL    HW227495   3.439   4.003   6.305  0.8383 -0.2711 -1.5882
 5287SOL     OW27496   3.097   1.646  17.243  0.0162 -0.1248 -0.6989
 5287SOL    HW127497   3.117   1.554  17.261 -0.1807  0.4102  2.2954
 5287SOL    HW227498   3.180   1.693  17.246 -1.5479  2.6340 -0.9766
 5288SOL     OW27499   1.489   3.498   6.059  0.2525 -0.2918 -0.1254
 5288SOL    HW127500   1.502   3.592   6.043  0.3241 -0.4134 -0.7645
 5288SOL    HW227501   1.404   3.498   6.104  0.1695  0.8073 -0.2814
 5289SOL     OW27502   0.263   1.405   8.882  0.1661 -0.5610 -0.3649
 5289SOL    HW127503   0.258   1.494   8.917 -3.1704 -0.8452 -0.0854
 5289SOL    HW227504   0.200   1.416   8.810  0.1796  2.3076  0.0590
 5290SOL     OW27505   0.100   3.841  17.188 -0.0872  0.0657  0.3533
 5290SOL    HW127506   0.081   3.787  17.111  0.3934 -0.1526  0.3866
 5290SOL    HW227507   0.168   3.900  17.155 -0.6229  0.1496 -0.6152
 5291SOL     OW27508   2.739   0.939   2.134  0.1779  0.1741 -0.1369
 5291SOL    HW127509   2.745   1.003   2.205 -3.5017  1.4315 -0.9718
 5291SOL    HW227510   2.645   0.919   2.133 -0.2908  2.3873  0.9975
 5292SOL     OW27511   2.528   0.378   6.315 -0.4241 -0.3463  0.4501
 5292SOL    HW127512   2.454   0.385   6.254  2.2047  1.5627 -2.5211
 5292SOL    HW227513   2.517   0.286   6.340 -0.6555  0.1861  2.2763
 5293SOL     OW27514   0.179   4.263  15.830  0.0106  0.6044 -0.7651
 5293SOL    HW127515   0.261   4.284  15.874  0.5662  0.0389 -1.5451
 5293SOL    HW227516   0.140   4.192  15.881 -0.2929 -0.2656 -2.2275
 5294SOL     OW27517   0.963   4.482  10.921 -0.7189  0.6394 -0.1022
 5294SOL    HW127518   0.909   4.413  10.962 -0.8680  0.6563 -0.2716
 5294SOL    HW227519   0.916   4.486  10.838 -0.9806  1.4844  0.0949
 5295SOL     OW27520   1.389   4.492   4.622 -0.3719 -0.3965 -0.3980
 5295SOL    HW127521   1.384   4.398   4.603 -3.0867 -0.5336  1.0595
 5295SOL    HW227522   1.425   4.532   4.543 -1.5436 -0.5763 -1.0258
 5296SOL     OW27523   1.923   2.620   8.574 -0.3033  0.6058  0.1916
 5296SOL    HW127524   1.971   2.599   8.494 -3.0193 -0.7439 -1.0656
 5296SOL    HW227525   1.997   2.606   8.633 -0.0894 -1.8305 -0.6725
 5297SOL     OW27526   3.893   1.288   1.375 -0.2325  0.0465 -0.7331
 5297SOL    HW127527   3.835   1.329   1.310  0.8214  1.5346 -0.7345
 5297SOL    HW227528   3.981   1.320   1.352  0.1392  0.6759  1.5988
 5298SOL     OW27529   1.836   0.220  12.280 -0.4721 -0.0853  0.3631
 5298SOL    HW127530   1.852   0.154  12.347 -0.7960  2.4193  2.9191
 5298SOL    HW227531   1.864   0.293  12.334  0.4923 -2.3268  2.8694
 5299SOL     OW27532   0.614   2.885  12.895 -0.2364 -0.1263 -0.5955
 5299SOL    HW127533   0.564   2.808  12.871  1.2431 -1.0401 -0.7450
 5299SOL    HW227534   0.687   2.866  12.837  0.0407 -0.9610  0.0337
 5300SOL     OW27535   0.281   0.787   9.127  0.0324  0.3797 -0.7090
 5300SOL    HW127536   0.320   0.734   9.057  1.4363 -0.9384  1.0746
 5300SOL    HW227537   0.187   0.775   9.111 -0.1383  0.5674  0.1566
 5301SOL     OW27538   4.641   2.388   4.259 -0.0308  0.0625 -0.6516
 5301SOL    HW127539   4.702   2.403   4.332 -0.9340 -2.7508  0.7108
 5301SOL    HW227540   4.701   2.381   4.185  1.0984  0.4581  0.2166
 5302SOL     OW27541   0.366   4.716  16.916 -0.2598  0.1697  0.0579
 5302SOL    HW127542   0.423   4.662  16.971 -1.3146 -2.3795 -1.3625
 5302SOL    HW227543   0.407   0.064  16.933  1.4040 -0.3978 -1.1253
 5303SOL     OW27544   1.512   0.776   8.061  0.1879  0.0427  0.3980
 5303SOL    HW127545   1.569   0.843   8.099 -0.9098  1.5176 -0.5495
 5303SOL    HW227546   1.435   0.828   8.039  0.5311  1.2564  2.0833
 5304SOL     OW27547   1.514   2.766   5.105  0.4767 -0.3492 -0.3978
 5304SOL    HW127548   1.541   2.786   5.194  1.1560  0.4922 -0.7935
 5304SOL    HW227549   1.552   2.835   5.051  2.3576  0.1702  1.5937
 5305SOL     OW27550   0.485   3.328  16.231 -0.1285 -0.3440  0.2735
 5305SOL    HW127551   0.391   3.325  16.249  0.4983 -1.0335  3.3876
 5305SOL    HW227552   0.509   3.244  16.190 -0.2058  0.0407 -0.5562
 5306SOL     OW27553   1.221   2.022   8.299  0.5652  0.2822 -0.0383
 5306SOL    HW127554   1.204   1.950   8.238 -0.1670  1.9053 -1.7352
 5306SOL    HW227555   1.264   1.969   8.366 -0.9565 -0.8165  0.0761
 5307SOL     OW27556   2.520   2.968   0.889 -0.5872 -0.1336  0.0727
 5307SOL    HW127557   2.614   2.971   0.910 -1.4593  0.9599  3.8417
 5307SOL    HW227558   2.489   3.019   0.964  0.5070  1.5958 -0.6527
 5308SOL     OW27559   1.545   4.201   3.367  0.2970 -0.1696 -0.1130
 5308SOL    HW127560   1.513   4.183   3.455  1.3650  0.3299  0.3749
 5308SOL    HW227561   1.467   4.251   3.341 -1.0832 -1.6718  1.1288
 5309SOL     OW27562   0.743   1.544  12.826 -0.1986 -0.0329 -0.2276
 5309SOL    HW127563   0.693   1.625  12.816 -0.6172 -0.2580  0.0172
 5309SOL    HW227564   0.666   1.489  12.843  2.1452 -2.6075  2.0925
 5310SOL     OW27565   0.287   3.189   2.782 -0.1177  0.3323 -0.5034
 5310SOL    HW127566   0.310   3.127   2.712 -0.4031  0.7476 -0.9685
 5310SOL    HW227567   0.351   3.173   2.851  0.5728 -0.9895 -1.4570
 5311SOL     OW27568   3.060   2.253   4.369 -0.2991 -0.0500 -0.0348
 5311SOL    HW127569   3.134   2.245   4.309 -1.1023 -3.5084 -0.5815
 5311SOL    HW227570   2.991   2.256   4.303  0.1069  2.9878 -0.3311
 5312SOL     OW27571   1.496   1.929   5.122 -0.2601  0.2514 -0.0564
 5312SOL    HW127572   1.512   1.836   5.105  0.5482  0.3589  0.1035
 5312SOL    HW227573   1.401   1.931   5.117 -0.2091  1.3214 -0.6171
 5313SOL     OW27574   3.811   1.815   9.059  0.3973  0.1724 -0.2921
 5313SOL    HW127575   3.850   1.745   9.007  1.0073 -0.5400  1.1288
 5313SOL    HW227576   3.887   1.873   9.064  1.1903 -0.7991 -1.2380
 5314SOL     OW27577   4.377   4.148   8.980  0.2480  0.6010  0.1127
 5314SOL    HW127578   4.362   4.065   8.933 -1.4673  0.4374  0.9723
 5314SOL    HW227579   4.386   4.129   9.073 -0.8883 -0.3273  0.0356
 5315SOL     OW27580   3.108   2.899   0.081  0.0651 -0.2088  0.4707
 5315SOL    HW127581   3.103   2.804   0.084 -1.6292 -0.1465 -0.3597
 5315SOL    HW227582   3.131   2.931   0.168 -2.1337 -0.8660  1.3000
 5316SOL     OW27583   3.363   2.658   7.669  0.0193  0.5366 -0.0053
 5316SOL    HW127584   3.324   2.745   7.679 -1.4793  0.1574 -2.5906
 5316SOL    HW227585   3.291   2.595   7.675  0.2145  0.3718  0.5499
 5317SOL     OW27586   4.432   4.102  16.725  0.0545  0.0624  0.8835
 5317SOL    HW127587   4.359   4.164  16.724  0.8997  1.0396  1.0136
 5317SOL    HW227588   4.443   4.101  16.630 -0.0666  0.0736  0.8685
 5318SOL     OW27589   4.014   0.583   4.812  0.5305 -0.2430  0.5875
 5318SOL    HW127590   3.966   0.631   4.744  1.4725 -1.5852 -1.0223
 5318SOL    HW227591   4.046   0.648   4.874 -1.4588  0.8631  0.4875
 5319SOL     OW27592   2.049   3.011   1.764  0.2168 -0.2092  0.1304
 5319SOL    HW127593   2.047   2.918   1.788  1.4622 -0.5980 -1.2689
 5319SOL    HW227594   2.110   3.049   1.827  0.6720  0.7584 -0.8999
 5320SOL     OW27595   4.554   2.309   9.215 -0.3786  0.1820 -0.0221
 5320SOL    HW127596   4.601   2.355   9.145  0.6130  0.4137  0.7942
 5320SOL    HW227597   4.546   2.222   9.177 -1.0280 -0.5370  1.7726
 5321SOL     OW27598   0.273   2.240   0.123 -0.5788 -0.6231  0.3705
 5321SOL    HW127599   0.352   2.278   0.085 -1.0150 -0.1222 -0.0457
 5321SOL    HW227600   0.268   2.155   0.080  0.1596  0.3885 -1.7220
 5322SOL     OW27601   1.546   4.646   2.520  0.4068 -0.3587 -0.9106
 5322SOL    HW127602   1.466   4.599   2.496  0.2703 -0.9026  0.5763
 5322SOL    HW227603   1.553   4.637   2.615 -0.7769  2.1641 -0.5873
 5323SOL     OW27604   2.399   0.211   9.812 -0.1157 -0.1353  0.3084
 5323SOL    HW127605   2.388   0.244   9.901  1.3252  4.3611 -1.1541
 5323SOL    HW227606   2.314   0.239   9.778  1.1612  1.2035 -1.7774
 5324SOL     OW27607   1.332   0.288   9.763  0.0216  0.0474 -0.6342
 5324SOL    HW127608   1.343   0.381   9.743 -0.5912  1.2805  4.6355
 5324SOL    HW227609   1.419   0.258   9.790 -0.5880 -2.2593 -1.2446
 5325SOL     OW27610   0.032   0.969  16.708  0.2403 -0.2623  0.2868
 5325SOL    HW127611   0.050   0.994  16.799  0.6787  1.0514 -0.1509
 5325SOL    HW227612   0.026   1.055  16.665  0.4207 -0.4951 -0.2005
 5326SOL     OW27613   4.726   3.939   8.865  0.3307 -0.2602 -0.1439
 5326SOL    HW127614   0.032   3.971   8.944  0.3047 -0.1917 -0.1576
 5326SOL    HW227615   0.053   3.873   8.839 -0.1947 -0.9464  0.2929
 5327SOL     OW27616   4.603   4.407  14.764  0.3592  0.5161 -0.1317
 5327SOL    HW127617   4.608   4.424  14.670 -2.0592 -4.0567 -1.0493
 5327SOL    HW227618   4.696   4.394  14.779 -0.2462 -3.2579  0.3284
 5328SOL     OW27619   3.081   2.016  10.180 -0.2589 -0.1333 -0.5009
 5328SOL    HW127620   2.998   1.969  10.166 -0.5344  0.7845 -1.9775
 5328SOL    HW227621   3.050   2.106  10.181  1.8682  0.5657  0.5902
 5329SOL     OW27622   2.673   3.351  15.342 -0.0560 -0.0295  0.0022
 5329SOL    HW127623   2.598   3.299  15.371  0.2083 -0.1913  0.4074
 5329SOL    HW227624   2.656   3.441  15.371 -2.3974  0.1543 -1.9592
 5330SOL     OW27625   2.781   1.011   7.213  0.3610  0.0039 -0.2305
 5330SOL    HW127626   2.819   1.007   7.125  0.2769  0.1944 -0.2739
 5330SOL    HW227627   2.794   1.103   7.235  1.1153 -0.5354  1.5439
 5331SOL     OW27628   4.594   0.078   4.497 -0.2436  0.5219  0.1500
 5331SOL    HW127629   4.531   0.134   4.452  0.4184  2.0077  1.0698
 5331SOL    HW227630   4.665   0.061   4.435  0.4712 -1.6519  1.5714
 5332SOL     OW27631   0.937   3.001   6.606  0.4673 -0.0252  0.7117
 5332SOL    HW127632   0.896   2.920   6.577 -0.9778  0.7515  0.5945
 5332SOL    HW227633   0.972   3.027   6.520  0.8615 -0.3487  0.7756
 5333SOL     OW27634   0.679   0.911   5.620  0.7915  0.0954 -0.4441
 5333SOL    HW127635   0.659   0.911   5.713  0.9475  0.5570 -0.4088
 5333SOL    HW227636   0.656   0.820   5.604 -1.4831  0.9084 -1.7758
 5334SOL     OW27637   3.004   0.302   7.160  1.2587  0.1274 -0.4160
 5334SOL    HW127638   3.006   0.392   7.191 -0.2691  0.3034 -0.8534
 5334SOL    HW227639   3.044   0.315   7.074 -1.3757  1.1105 -1.4940
 5335SOL     OW27640   1.443   4.339  16.293  0.4529 -0.3329 -0.1817
 5335SOL    HW127641   1.397   4.334  16.376 -3.3236 -1.8997 -2.3821
 5335SOL    HW227642   1.493   4.259  16.311 -0.9388 -0.8303  1.4717
 5336SOL     OW27643   1.275   3.409   8.347 -0.0050  1.0471 -0.3995
 5336SOL    HW127644   1.347   3.468   8.324  1.9015 -0.1280  2.6493
 5336SOL    HW227645   1.308   3.359   8.421 -0.8721 -0.3171 -0.9404
 5337SOL     OW27646   2.223   1.272   4.554 -0.7151  0.6020 -0.4219
 5337SOL    HW127647   2.291   1.291   4.489 -2.5444 -0.7670 -2.7254
 5337SOL    HW227648   2.163   1.213   4.510 -1.1172  0.1969  0.6763
 5338SOL     OW27649   3.118   4.640   3.149  0.6393  0.1688  0.0355
 5338SOL    HW127650   3.160   4.611   3.230  1.0630 -1.0694 -0.6216
 5338SOL    HW227651   3.045   4.579   3.139  1.2535 -0.7487  1.1278
 5339SOL     OW27652   0.480   0.661  13.576 -0.1834  0.0050  0.1691
 5339SOL    HW127653   0.440   0.612  13.648 -0.0987 -1.5830 -0.8467
 5339SOL    HW227654   0.555   0.603  13.558  0.7233  1.4148 -0.5872
 5340SOL     OW27655   1.564   1.496   2.784  0.1880 -0.0002 -0.3000
 5340SOL    HW127656   1.552   1.532   2.872  2.1235 -1.3184  0.4949
 5340SOL    HW227657   1.606   1.412   2.803  0.7805  0.5184  0.6451
 5341SOL     OW27658   1.791   3.825   9.227  0.2171 -0.5296  0.4037
 5341SOL    HW127659   1.734   3.782   9.163 -2.7633  1.9743  1.4250
 5341SOL    HW227660   1.881   3.797   9.209 -0.1481 -1.1379 -0.4929
 5342SOL     OW27661   0.459   2.798   6.814  0.5105  0.4206  0.3442
 5342SOL    HW127662   0.530   2.842   6.768  0.8233  1.1319  1.5126
 5342SOL    HW227663   0.413   2.879   6.836  0.6582  0.6417 -0.1536
 5343SOL     OW27664   1.959   4.154  14.079 -0.0987 -0.7880 -0.0169
 5343SOL    HW127665   1.888   4.217  14.089 -0.6572 -1.3630 -0.3246
 5343SOL    HW227666   1.961   4.138  13.985 -1.6100 -1.1255  0.0128
 5344SOL     OW27667   2.883   3.730   7.466 -0.0639  0.4178  0.2270
 5344SOL    HW127668   2.911   3.648   7.506 -0.8309  0.8453  1.6422
 5344SOL    HW227669   2.828   3.755   7.540 -0.2032  0.5256  0.0851
 5345SOL     OW27670   3.258   1.314  12.500  0.1024 -0.2428  0.1348
 5345SOL    HW127671   3.180   1.338  12.451  0.6102  1.2216  0.0326
 5345SOL    HW227672   3.298   1.242  12.451 -0.1155 -0.4502  0.2655
 5346SOL     OW27673   4.032   2.578  11.045 -0.8113 -0.4570 -0.1972
 5346SOL    HW127674   3.976   2.504  11.068 -0.7551  0.4026  2.6153
 5346SOL    HW227675   4.053   2.614  11.131 -0.4885  1.3457 -1.0422
 5347SOL     OW27676   0.505   4.372   2.502  0.1867 -0.2750  0.3841
 5347SOL    HW127677   0.568   4.349   2.434  1.1000  1.1543  0.7274
 5347SOL    HW227678   0.466   4.455   2.475  1.5095 -0.8718 -3.3389
 5348SOL     OW27679   0.078   0.115   9.039 -0.5745  0.0607  0.0098
 5348SOL    HW127680   0.059   0.092   9.130  0.3563  3.2240  0.9924
 5348SOL    HW227681   4.728   0.144   9.011 -0.6442 -0.5439 -0.4018
 5349SOL     OW27682   2.030   2.427  11.306 -0.2769  0.0044 -0.1437
 5349SOL    HW127683   1.950   2.384  11.336 -0.4842  1.5631  1.5924
 5349SOL    HW227684   2.034   2.515  11.345  1.3327 -1.2899  2.6214
 5350SOL     OW27685   0.680   2.946   6.729  0.0588 -0.0298 -0.7376
 5350SOL    HW127686   0.757   2.920   6.678  0.7632  1.1555 -0.2574
 5350SOL    HW227687   0.716   2.970   6.814  0.3299 -2.2780 -0.2015
 5351SOL     OW27688   2.208   2.644  13.368 -0.3021  0.4494 -0.1698
 5351SOL    HW127689   2.268   2.683  13.432 -0.9750 -0.2649  0.8994
 5351SOL    HW227690   2.126   2.689  13.386 -0.4255  0.6853 -1.3456
 5352SOL     OW27691   3.645   4.346   6.243 -0.7641  0.2131  0.1745
 5352SOL    HW127692   3.611   4.431   6.213 -0.0032  0.8809  1.2276
 5352SOL    HW227693   3.617   4.341   6.334 -1.2963 -2.8599 -0.1754
 5353SOL     OW27694   4.515   2.394   7.849 -0.4166 -0.2225  0.6597
 5353SOL    HW127695   4.595   2.444   7.868 -0.5355 -0.8720  2.8365
 5353SOL    HW227696   4.551   2.313   7.813  1.5340  0.5404  0.8724
 5354SOL     OW27697   2.896   1.665   0.083 -0.4946 -0.0659 -0.2668
 5354SOL    HW127698   2.807   1.634   0.072 -1.0450  1.2163  0.6200
 5354SOL    HW227699   2.944   1.603   0.029  1.8461 -0.9981  2.8565
 5355SOL     OW27700   3.533   3.866   3.408  0.5511  0.1297  0.0073
 5355SOL    HW127701   3.507   3.814   3.332 -1.5869 -1.0537  1.5338
 5355SOL    HW227702   3.566   3.795   3.463  1.9578  1.4651  0.8646
 5356SOL     OW27703   1.316   1.628   7.973  0.6090  0.6063  0.8871
 5356SOL    HW127704   1.257   1.625   7.898  0.9707  1.2371  0.5798
 5356SOL    HW227705   1.299   1.709   8.021 -0.8898  0.5196  0.5021
 5357SOL     OW27706   1.759   1.854   6.997 -0.7058 -0.3452  0.0476
 5357SOL    HW127707   1.769   1.941   6.959 -0.1816  0.2143  1.4822
 5357SOL    HW227708   1.784   1.800   6.922  0.0959 -1.8124  1.3612
 5358SOL     OW27709   2.288   3.638   9.285 -0.3409 -0.5981  0.2233
 5358SOL    HW127710   2.292   3.601   9.197 -1.4964  2.2381 -1.0345
 5358SOL    HW227711   2.383   3.654   9.285 -0.5573  0.6511 -0.3613
 5359SOL     OW27712   0.031   2.653   8.704  0.5328  0.3559  0.4588
 5359SOL    HW127713   0.044   2.652   8.799  1.3030 -1.0821  0.3304
 5359SOL    HW227714   0.061   2.743   8.692  2.1044 -0.1432  0.6568
 5360SOL     OW27715   1.482   0.275   8.609  0.3670 -0.3542  0.1277
 5360SOL    HW127716   1.403   0.226   8.588  0.0396 -0.5033  1.7544
 5360SOL    HW227717   1.554   0.221   8.575  0.4086  0.1264 -0.5572
 5361SOL     OW27718   3.556   0.355  10.828 -0.1672 -0.1689  0.3244
 5361SOL    HW127719   3.553   0.440  10.871  0.2905  0.0389 -0.0382
 5361SOL    HW227720   3.556   0.381  10.735 -0.8215 -0.3672  0.2730
 5362SOL     OW27721   1.297   0.619   5.550  0.3358  0.2387  0.2328
 5362SOL    HW127722   1.348   0.692   5.516 -0.9275  0.8969 -0.2405
 5362SOL    HW227723   1.242   0.610   5.473  1.4042 -0.8714 -0.4075
 5363SOL     OW27724   0.858   1.738   2.109 -0.3091  0.0418  0.4182
 5363SOL    HW127725   0.952   1.741   2.092 -0.4176  0.0639 -0.1852
 5363SOL    HW227726   0.861   1.705   2.198  0.6424  1.1227  0.7851
 5364SOL     OW27727   2.321   1.782   0.692  0.4291  0.0639 -0.0402
 5364SOL    HW127728   2.335   1.794   0.598 -0.6051  2.7729  0.1742
 5364SOL    HW227729   2.226   1.791   0.702  0.2713 -1.4245 -0.1986
 5365SOL     OW27730   2.059   0.917   4.064 -0.0648 -0.3013 -0.4678
 5365SOL    HW127731   2.100   0.843   4.020  2.3016  1.2135 -0.7915
 5365SOL    HW227732   2.056   0.887   4.155  1.1479 -0.9245 -0.6361
 5366SOL     OW27733   4.108   2.290   8.080  0.8339  0.9312  0.8262
 5366SOL    HW127734   4.045   2.314   8.013 -0.0008  1.5526  1.8308
 5366SOL    HW227735   4.054   2.270   8.156 -0.8437  0.7134 -0.4278
 5367SOL     OW27736   0.439   4.205   7.946 -0.5814  0.1861  0.1675
 5367SOL    HW127737   0.525   4.230   7.912 -1.4122  1.1721 -1.2317
 5367SOL    HW227738   0.406   4.292   7.970 -0.5049  0.7224 -1.6233
 5368SOL     OW27739   4.547   1.093   1.596 -0.0325 -0.1062  0.1479
 5368SOL    HW127740   4.625   1.119   1.644  1.0864 -0.6344 -1.3722
 5368SOL    HW227741   4.574   1.009   1.557 -0.4159 -0.0288 -0.2828
 5369SOL     OW27742   3.858   4.327   5.718 -0.1036  0.3516 -0.2090
 5369SOL    HW127743   3.827   4.274   5.645 -1.3408 -0.7930  1.1454
 5369SOL    HW227744   3.892   4.260   5.777 -1.6073 -0.5373 -0.3295
 5370SOL     OW27745   1.971   4.070  13.831 -0.2570 -0.1213  0.1215
 5370SOL    HW127746   1.989   4.063  13.737 -1.9511 -0.5464 -0.1649
 5370SOL    HW227747   1.995   3.979  13.850  0.4252 -0.2219 -1.1973
 5371SOL     OW27748   4.260   2.602  15.287 -0.3290 -0.1993 -0.0138
 5371SOL    HW127749   4.194   2.554  15.237  0.1523 -0.5991 -0.2720
 5371SOL    HW227750   4.309   2.526  15.319 -0.1918 -0.2810 -0.4202
 5372SOL     OW27751   2.676   0.083  12.084  0.4510  0.3626 -0.4452
 5372SOL    HW127752   2.661   0.123  12.170 -1.3159 -1.2228 -0.0250
 5372SOL    HW227753   2.671   0.156  12.021  3.6172  1.2857  0.3929
 5373SOL     OW27754   0.311   3.485   7.187  0.2155  0.1585  0.4922
 5373SOL    HW127755   0.367   3.499   7.110  1.2656 -0.3831  1.1648
 5373SOL    HW227756   0.374   3.493   7.258 -0.5109  0.9156  1.0520
 5374SOL     OW27757   1.586   2.968   9.343  0.3270  0.5803 -0.5869
 5374SOL    HW127758   1.513   2.996   9.399 -0.1588 -0.6638 -0.5896
 5374SOL    HW227759   1.660   3.002   9.393 -1.5507 -1.7354  3.7916
 5375SOL     OW27760   3.078   1.116   7.152  0.2158  0.1914 -0.4468
 5375SOL    HW127761   3.016   1.130   7.224 -1.4545  2.5136 -2.3295
 5375SOL    HW227762   3.140   1.053   7.188  0.5570  0.3719 -0.7263
 5376SOL     OW27763   3.258   3.373   2.731 -0.0368  0.3825  0.5422
 5376SOL    HW127764   3.181   3.363   2.787  0.2497 -2.6125  0.3901
 5376SOL    HW227765   3.325   3.401   2.792  1.7518 -1.9104 -0.3949
 5377SOL     OW27766   3.119   4.310  16.599 -0.6344  0.2727 -0.5199
 5377SOL    HW127767   3.105   4.227  16.552 -1.4166  0.8904 -1.3771
 5377SOL    HW227768   3.203   4.286  16.638 -0.9129  1.3861  0.7455
 5378SOL     OW27769   0.971   1.029   3.574  0.1551 -0.3105  0.3870
 5378SOL    HW127770   1.007   1.091   3.511 -2.3964  0.1848 -0.5743
 5378SOL    HW227771   1.042   0.967   3.587  1.0423  0.7333  0.4671
 5379SOL     OW27772   2.659   2.896   2.961 -0.3755  0.5135 -0.7162
 5379SOL    HW127773   2.658   2.943   2.878 -1.4759  0.4262 -0.7473
 5379SOL    HW227774   2.717   2.823   2.938  0.2268  0.5757  0.6186
 5380SOL     OW27775   1.663   0.423   4.527 -0.5163 -0.3338 -0.2328
 5380SOL    HW127776   1.743   0.429   4.580 -0.8695 -1.3821  0.4419
 5380SOL    HW227777   1.672   0.352   4.464 -0.1870 -0.9684  0.5242
 5381SOL     OW27778   2.558   2.031   5.359 -0.1184  0.1415 -0.4904
 5381SOL    HW127779   2.566   1.968   5.430 -0.3754  0.9614  0.2623
 5381SOL    HW227780   2.468   2.011   5.333  0.1194 -2.6945  0.9167
 5382SOL     OW27781   3.217   0.432   6.167 -0.5347  0.4247 -0.3945
 5382SOL    HW127782   3.200   0.426   6.261  0.5171 -0.5888 -0.2675
 5382SOL    HW227783   3.132   0.450   6.127 -0.7489 -0.3934 -0.3078
 5383SOL     OW27784   1.746   3.301   7.386  0.4847  0.1922 -0.0559
 5383SOL    HW127785   1.837   3.272   7.388  0.6717  0.8087  0.3013
 5383SOL    HW227786   1.749   3.366   7.315 -1.0088 -0.0497 -0.3556
 5384SOL     OW27787   0.906   0.960   0.806 -0.0872 -0.2888  0.1927
 5384SOL    HW127788   0.956   1.031   0.846  0.2719  0.1864 -1.0857
 5384SOL    HW227789   0.826   0.963   0.859  0.6430 -0.1373  1.2830
 5385SOL     OW27790   3.599   3.747   7.158 -0.1799 -0.3058 -0.0972
 5385SOL    HW127791   3.533   3.817   7.159  0.6568  0.4858  0.0663
 5385SOL    HW227792   3.667   3.775   7.220 -1.8927 -0.3093  1.7854
 5386SOL     OW27793   1.306   1.658   3.948  0.2753 -0.0080  0.2347
 5386SOL    HW127794   1.334   1.570   3.975 -1.0170 -0.4155  0.2286
 5386SOL    HW227795   1.364   1.663   3.872 -0.0630  3.5214  0.2286
 5387SOL     OW27796   3.877   3.172  10.740  0.0874 -0.0034  0.1558
 5387SOL    HW127797   3.943   3.167  10.670 -1.1446  0.5084 -1.0406
 5387SOL    HW227798   3.796   3.167  10.690 -1.3895 -2.0915  2.7631
 5388SOL     OW27799   0.033   4.500   4.252  0.6537  0.4932 -0.3722
 5388SOL    HW127800   4.693   4.495   4.309 -0.1140  1.6784 -1.3048
 5388SOL    HW227801   0.094   4.440   4.297  1.4638  2.0528  0.6041
 5389SOL     OW27802   1.501   1.614   3.759 -0.8347 -0.3140 -0.0336
 5389SOL    HW127803   1.525   1.529   3.723  1.7129  0.3304  0.0929
 5389SOL    HW227804   1.493   1.662   3.676 -1.9406  0.0823  0.3059
 5390SOL     OW27805   2.379   3.411  17.493 -0.1856  0.0209 -0.0353
 5390SOL    HW127806   2.472   3.388  17.503 -0.1592  0.4234  0.6088
 5390SOL    HW227807   2.363   3.426  17.400  0.1342 -0.5640 -0.1837
 5391SOL     OW27808   4.066   1.022  12.884 -0.0644 -0.3102  0.1671
 5391SOL    HW127809   4.111   1.030  12.800  1.7301 -2.9837  0.8904
 5391SOL    HW227810   4.027   0.935  12.891 -1.3506  0.2359 -0.1898
 5392SOL     OW27811   0.855   2.066  12.809 -0.4237 -0.0303  0.0708
 5392SOL    HW127812   0.951   2.068  12.806 -0.3706  0.6899  2.1164
 5392SOL    HW227813   0.845   2.105  12.723 -2.6567  1.0694  0.8350
 5393SOL     OW27814   3.120   1.312   4.680 -0.1931  0.4575  0.1004
 5393SOL    HW127815   3.089   1.237   4.630  0.3563 -0.0580  0.5387
 5393SOL    HW227816   3.053   1.380   4.666  1.0502  1.1378 -2.7131
 5394SOL     OW27817   3.082   0.138  17.715 -0.6220  0.1820 -0.1831
 5394SOL    HW127818   3.029   0.215  17.695  0.7098  0.8564 -1.1236
 5394SOL    HW227819   3.120   0.122  17.629  2.1062  1.3648  0.7803
 5395SOL     OW27820   3.965   1.631   8.929  0.1677  0.0036 -0.8040
 5395SOL    HW127821   3.935   1.549   8.889  2.5843 -0.3244 -1.9713
 5395SOL    HW227822   4.055   1.644   8.898  0.8427 -1.6461  0.5119
 5396SOL     OW27823   2.625   4.336   2.395 -0.4964 -0.1331 -0.6014
 5396SOL    HW127824   2.714   4.327   2.429  0.4457  1.3555 -2.6888
 5396SOL    HW227825   2.598   4.418   2.436 -1.5571  0.3770 -2.2850
 5397SOL     OW27826   4.435   1.030  15.152  0.4538  0.7121 -0.0081
 5397SOL    HW127827   4.348   1.065  15.168  1.0621  1.6887  1.0549
 5397SOL    HW227828   4.412   0.960  15.090  1.6107 -1.4166  1.9748
 5398SOL     OW27829   0.887   2.891  14.137  0.1034 -0.0784  0.3221
 5398SOL    HW127830   0.895   2.926  14.048  1.2402 -1.8746 -0.3040
 5398SOL    HW227831   0.962   2.916  14.190 -1.6714  1.0857  2.2364
 5399SOL     OW27832   0.016   2.447   7.395 -0.6563 -0.0470  0.4648
 5399SOL    HW127833   0.023   2.427   7.302 -1.7839 -0.3124  0.4470
 5399SOL    HW227834   0.078   2.521   7.394 -0.9604  0.1739 -1.7909
 5400SOL     OW27835   0.858   3.984   7.918  0.1064  0.1200  0.0329
 5400SOL    HW127836   0.872   3.960   8.010 -3.3635 -0.4128  0.4032
 5400SOL    HW227837   0.941   4.022   7.890 -1.2131  1.5007 -1.9934
 5401SOL     OW27838   0.375   3.132   3.646 -0.3518  0.1059  0.4255
 5401SOL    HW127839   0.331   3.057   3.605 -1.6917  1.0641  0.1318
 5401SOL    HW227840   0.425   3.173   3.575 -0.8061 -0.1803 -0.0569
 5402SOL     OW27841   4.335   2.315  14.114  0.0298 -0.2861  0.2071
 5402SOL    HW127842   4.241   2.326  14.104  0.0204  0.1971  0.8459
 5402SOL    HW227843   4.338   2.225  14.080  2.4894  0.1280 -0.6704
 5403SOL     OW27844   1.193   0.149   9.578  0.5180  0.1291 -0.0427
 5403SOL    HW127845   1.245   0.069   9.572  0.6251  0.2918 -1.3209
 5403SOL    HW227846   1.230   0.182   9.660  0.0681 -0.5166  0.4220
 5404SOL     OW27847   0.601   0.119   2.328 -0.3831  0.6465  0.4756
 5404SOL    HW127848   0.618   0.071   2.246  2.2023 -1.0827  2.0218
 5404SOL    HW227849   0.644   0.202   2.310  0.3958  0.8014  3.1421
 5405SOL     OW27850   4.128   3.422   0.413  0.1038  0.4477  0.3043
 5405SOL    HW127851   4.079   3.353   0.370 -0.4164 -1.2243  3.6697
 5405SOL    HW227852   4.119   3.493   0.348 -1.7684 -1.8684 -1.9544
 5406SOL     OW27853   1.790   0.522  11.218  0.3026 -0.1937  0.1695
 5406SOL    HW127854   1.766   0.508  11.310  2.4617  2.6449  1.1440
 5406SOL    HW227855   1.726   0.589  11.195  1.0779 -0.1112 -1.7782
 5407SOL     OW27856   3.119   1.245  10.263 -0.0816  0.0973  0.1198
 5407SOL    HW127857   3.103   1.178  10.197  0.2173  0.2720 -0.1339
 5407SOL    HW227858   3.213   1.259  10.248 -0.1102 -0.6247 -0.7799
 5408SOL     OW27859   3.981   1.456   6.735 -0.2003  0.4056 -0.2590
 5408SOL    HW127860   3.967   1.534   6.682 -0.4094  1.6336  1.5970
 5408SOL    HW227861   3.897   1.410   6.741 -0.6101  1.1265 -0.5011
 5409SOL     OW27862   3.095   3.853   3.523 -0.5978  0.4474 -0.0600
 5409SOL    HW127863   3.185   3.880   3.537 -0.3888 -1.8890  3.1330
 5409SOL    HW227864   3.051   3.919   3.576 -0.2077  2.0649 -1.7458
 5410SOL     OW27865   3.298   0.067   3.483 -0.0311 -0.6677  0.3700
 5410SOL    HW127866   3.252   0.111   3.555 -0.8724 -0.9165 -0.0202
 5410SOL    HW227867   3.243   0.104   3.414  1.2586 -1.2007 -0.9455
 5411SOL     OW27868   0.485   2.058   6.437 -0.2190 -0.7735  0.3905
 5411SOL    HW127869   0.436   1.987   6.395 -1.0402 -0.0804  0.1971
 5411SOL    HW227870   0.411   2.098   6.482 -0.8601  0.0481 -1.4093
 5412SOL     OW27871   2.139   4.241   9.233 -0.0898  0.2215 -0.0589
 5412SOL    HW127872   2.219   4.227   9.284 -1.4760 -0.2218  1.9924
 5412SOL    HW227873   2.078   4.200   9.295  0.3885  0.4771  0.5815
 5413SOL     OW27874   0.576   2.291   3.768  0.0938  0.3748 -0.3943
 5413SOL    HW127875   0.511   2.224   3.745 -0.8435  1.8218 -1.9645
 5413SOL    HW227876   0.645   2.235   3.804 -2.3421 -1.6727  1.1221
 5414SOL     OW27877   2.825   1.293   7.605 -0.4235  0.0073  0.0309
 5414SOL    HW127878   2.734   1.303   7.634 -0.6187  3.1701 -1.7388
 5414SOL    HW227879   2.864   1.341   7.677 -0.0575  0.8975 -0.7703
 5415SOL     OW27880   3.424   3.566  10.782  0.0318 -0.0916 -0.3037
 5415SOL    HW127881   3.433   3.471  10.782 -0.1642 -0.1027  1.0842
 5415SOL    HW227882   3.450   3.586  10.872 -0.7073 -1.7662  0.2731
 5416SOL     OW27883   0.948   2.693   4.869 -0.1965  0.2807 -0.1219
 5416SOL    HW127884   1.038   2.660   4.868  0.1740  1.1616  3.5278
 5416SOL    HW227885   0.957   2.772   4.921 -0.3166  1.1526 -1.4189
 5417SOL     OW27886   4.149   1.754   5.956 -0.3921 -0.2387 -0.3496
 5417SOL    HW127887   4.088   1.811   5.908 -0.3752  0.6617  0.7085
 5417SOL    HW227888   4.109   1.757   6.043 -0.7421 -1.5688 -0.4644
 5418SOL     OW27889   3.268   1.598  12.034 -1.0895 -0.0916  0.0042
 5418SOL    HW127890   3.307   1.552  12.108 -0.1596  0.4326 -0.1565
 5418SOL    HW227891   3.350   1.620  11.989 -0.3025 -0.9439  1.0351
 5419SOL     OW27892   2.464   4.671  16.521  0.3326  0.0384  0.5638
 5419SOL    HW127893   2.504   0.012  16.481  0.0822 -0.7646 -1.2651
 5419SOL    HW227894   2.386   4.707  16.564 -0.3015 -0.8123  0.1368
 5420SOL     OW27895   4.235   3.514   3.912  0.0079 -0.0241 -0.2588
 5420SOL    HW127896   4.290   3.582   3.873  0.6519  0.0248  0.7107
 5420SOL    HW227897   4.153   3.555   3.939  1.2313  2.8764 -0.9815
 5421SOL     OW27898   0.046   0.164   8.428  0.3720 -0.5534 -0.5371
 5421SOL    HW127899   0.045   0.225   8.354  2.2463  1.7488  1.3058
 5421SOL    HW227900   4.697   0.123   8.422  0.0589  0.3157 -2.0543
 5422SOL     OW27901   4.219   4.331   1.852 -0.6968  0.2323 -0.0330
 5422SOL    HW127902   4.290   4.369   1.905 -0.3778  1.3495 -1.2604
 5422SOL    HW227903   4.263   4.276   1.788 -0.7192 -1.4825  1.4267
 5423SOL     OW27904   4.542   4.694   6.266  0.0615  0.2096 -0.2615
 5423SOL    HW127905   4.544   4.633   6.192 -0.0475  2.3743 -2.0585
 5423SOL    HW227906   4.566   4.643   6.344 -1.0745 -0.9400 -0.6697
 5424SOL     OW27907   3.676   3.767   3.699 -0.0169  0.0004 -0.4985
 5424SOL    HW127908   3.655   3.700   3.634  0.3959 -1.8596  1.2902
 5424SOL    HW227909   3.757   3.797   3.658 -0.4434  0.0529 -1.2947
 5425SOL     OW27910   0.354   3.658   3.203  0.4979 -0.3375 -0.1675
 5425SOL    HW127911   0.322   3.741   3.167  2.3925  1.0442  1.3479
 5425SOL    HW227912   0.405   3.631   3.126  3.3086 -0.5030  1.7622
 5426SOL     OW27913   2.397   1.746   7.775 -0.2104 -0.5816  0.7263
 5426SOL    HW127914   2.349   1.827   7.756  1.4589  0.0440 -0.8735
 5426SOL    HW227915   2.334   1.677   7.753 -0.8291  0.6837 -1.5325
 5427SOL     OW27916   4.107   3.715   7.975 -0.4020  0.1724 -0.1855
 5427SOL    HW127917   4.145   3.627   7.983 -0.3089 -0.0520 -3.1720
 5427SOL    HW227918   4.035   3.687   7.918  1.9580 -3.4532 -1.4149
 5428SOL     OW27919   2.693   2.528  14.120 -0.6639  0.7340 -0.2529
 5428SOL    HW127920   2.659   2.461  14.179  1.0271  1.5530  1.7019
 5428SOL    HW227921   2.706   2.595  14.188  0.8268 -1.9123  2.0781
 5429SOL     OW27922   3.114   2.643   7.316  0.1934 -0.1958  0.0805
 5429SOL    HW127923   3.088   2.696   7.391  2.0973  1.3597 -0.3452
 5429SOL    HW227924   3.030   2.618   7.279  0.5831 -3.1233  1.2031
 5430SOL     OW27925   1.327   2.934   3.793  0.0600 -0.3561 -0.0341
 5430SOL    HW127926   1.250   2.877   3.795  0.9275 -1.5525 -0.6240
 5430SOL    HW227927   1.336   2.961   3.702  0.0061  0.1377  0.1041
 5431SOL     OW27928   3.584   0.653  12.885  0.0634  0.2209 -0.3908
 5431SOL    HW127929   3.502   0.630  12.930 -0.9049  0.4472 -2.0255
 5431SOL    HW227930   3.604   0.574  12.835 -0.7520 -0.7546  0.8268
 5432SOL     OW27931   4.482   2.991   4.967 -0.4288 -0.7364  0.5656
 5432SOL    HW127932   4.558   2.993   5.025  0.0481 -0.5467 -0.0623
 5432SOL    HW227933   4.412   3.008   5.030 -2.6823  1.3968 -2.5643
 5433SOL     OW27934   1.694   1.470   0.558 -0.1774 -0.3567 -0.3999
 5433SOL    HW127935   1.679   1.376   0.568 -0.7843 -0.3629 -1.2933
 5433SOL    HW227936   1.650   1.488   0.474  3.5060 -0.6364 -2.3675
 5434SOL     OW27937   1.851   2.843  14.765  0.1585 -0.2371 -0.0232
 5434SOL    HW127938   1.866   2.925  14.719  0.2865  0.1409  0.6893
 5434SOL    HW227939   1.939   2.821  14.798  0.2639 -1.3497 -1.0711
 5435SOL     OW27940   0.437   4.575  12.417  0.1674 -0.2995 -0.2338
 5435SOL    HW127941   0.454   4.581  12.323 -2.7886 -2.5915 -0.9205
 5435SOL    HW227942   0.368   4.642  12.422  0.0329 -0.5305  0.8987
 5436SOL     OW27943   4.206   1.340   8.721 -0.7312  0.4448 -0.0369
 5436SOL    HW127944   4.250   1.271   8.672 -0.1564 -1.0004  2.4859
 5436SOL    HW227945   4.167   1.307   8.802 -2.5622  0.6362 -0.8387
 5437SOL     OW27946   3.206   0.219   4.933 -0.1389 -0.6127  0.0834
 5437SOL    HW127947   3.209   0.207   5.028  1.5869  2.6449  0.4829
 5437SOL    HW227948   3.202   0.314   4.921  1.2028 -0.0480  3.9738
 5438SOL     OW27949   1.895   3.245   4.335  0.2930 -0.4471  0.5220
 5438SOL    HW127950   1.831   3.312   4.358 -0.2627 -0.5231 -0.7670
 5438SOL    HW227951   1.851   3.160   4.334  1.0325 -0.8322  0.4956
 5439SOL     OW27952   0.713   3.976  16.922 -0.1644 -0.0281 -0.1055
 5439SOL    HW127953   0.789   3.924  16.949 -0.8052 -1.2822 -0.6825
 5439SOL    HW227954   0.647   3.910  16.898  1.1982 -1.5468  0.3092
 5440SOL     OW27955   0.882   2.685  12.060 -0.4241  0.2553  0.1725
 5440SOL    HW127956   0.971   2.716  12.074 -0.2212 -0.6586  0.8892
 5440SOL    HW227957   0.867   2.703  11.967  1.5044 -0.4316 -0.2699
 5441SOL     OW27958   0.459   2.261   9.487 -0.2925  0.1832 -0.0393
 5441SOL    HW127959   0.407   2.333   9.453  1.3990  0.3705 -2.2500
 5441SOL    HW227960   0.442   2.254   9.581 -0.4920  1.0193 -0.0185
 5442SOL     OW27961   0.857   1.339  12.094  1.0532 -0.4133  0.1583
 5442SOL    HW127962   0.866   1.246  12.116  0.7375 -0.2839  0.8091
 5442SOL    HW227963   0.876   1.388  12.174 -0.4097  0.5972 -0.1073
 5443SOL     OW27964   3.710   0.454  11.690  0.1981  0.1753 -0.6855
 5443SOL    HW127965   3.639   0.459  11.754  0.1342  1.5035 -0.8568
 5443SOL    HW227966   3.731   0.547  11.677  2.0985 -0.0195  0.9430
 5444SOL     OW27967   1.501   2.851  14.003  0.0673 -0.6657  0.2410
 5444SOL    HW127968   1.443   2.842  14.078 -0.3708 -0.4269 -0.0673
 5444SOL    HW227969   1.431   2.878  13.944 -0.4202  0.0391  1.1598
 5445SOL     OW27970   4.440   2.685   2.204  0.5440 -0.2717  0.4514
 5445SOL    HW127971   4.396   2.770   2.196  1.8329  0.6267  3.0227
 5445SOL    HW227972   4.359   2.635   2.193  0.3787  0.1727 -0.3996
 5446SOL     OW27973   2.055   2.511  12.764 -0.1067  0.1575 -0.0947
 5446SOL    HW127974   2.088   2.515  12.854  0.1043 -0.7511 -0.1382
 5446SOL    HW227975   2.131   2.482  12.714 -0.2596  0.7462 -0.6772
 5447SOL     OW27976   2.254   1.139   1.059 -0.3998  0.7981  0.4591
 5447SOL    HW127977   2.231   1.228   1.034  1.8114  1.2096 -0.1083
 5447SOL    HW227978   2.179   1.088   1.028 -0.7239  0.6167  1.5427
 5448SOL     OW27979   1.106   0.016   7.788 -0.1491  0.0972 -0.1485
 5448SOL    HW127980   1.072   4.681   7.734 -0.7724  0.6438 -0.4794
 5448SOL    HW227981   1.190   0.025   7.743 -0.4486  1.5248 -0.4299
 5449SOL     OW27982   4.591   1.506   3.030  0.5829  0.2743  0.0224
 5449SOL    HW127983   4.559   1.592   3.059 -0.8527  0.9026 -3.4897
 5449SOL    HW227984   4.566   1.508   2.938 -1.8186  0.2108  0.6508
 5450SOL     OW27985   1.961   0.573   3.953  0.3284  0.0807  0.5805
 5450SOL    HW127986   1.980   0.493   3.903 -0.7210  0.3364 -0.2063
 5450SOL    HW227987   2.049   0.603   3.977 -0.2262  1.4726  0.8553
 5451SOL     OW27988   1.394   1.016   5.969 -0.2987 -0.1827  0.7456
 5451SOL    HW127989   1.354   1.064   5.897  2.3072  0.6770 -0.1297
 5451SOL    HW227990   1.318   0.978   6.013 -1.9217  1.9783 -0.1735
 5452SOL     OW27991   0.427   2.529   3.766  0.2244  0.1767  0.6259
 5452SOL    HW127992   0.486   2.459   3.792 -0.1959 -0.0896  0.8623
 5452SOL    HW227993   0.479   2.597   3.723 -0.5956  1.0330  0.9682
 5453SOL     OW27994   1.613   1.029   8.193  0.2007  0.1570  0.3582
 5453SOL    HW127995   1.626   1.118   8.226 -2.4074 -0.2385  2.5433
 5453SOL    HW227996   1.692   0.982   8.217 -1.7331 -4.1834 -1.8230
 5454SOL     OW27997   4.239   3.273   7.135  0.5226 -0.0974 -0.2792
 5454SOL    HW127998   4.183   3.275   7.058  2.2023  2.2483 -1.4606
 5454SOL    HW227999   4.306   3.216   7.098  0.2156 -1.7560  1.7289
 5455SOL     OW28000   1.544   3.944   1.819  0.1398 -0.6155  0.1940
 5455SOL    HW128001   1.551   3.897   1.902 -0.5811 -1.4829 -0.2311
 5455SOL    HW228002   1.456   3.979   1.828  0.3411 -0.8378  2.8692
 5456SOL     OW28003   2.067   3.038   6.991  0.1510  0.5182  0.3107
 5456SOL    HW128004   2.015   3.054   6.913  0.6980  0.4777 -0.0578
 5456SOL    HW228005   2.015   2.978   7.044 -1.4630  2.3470  0.8114
 5457SOL     OW28006   0.690   4.486  12.560  0.0097  0.4474 -0.3135
 5457SOL    HW128007   0.617   4.547  12.570 -0.7237 -0.2780 -1.2415
 5457SOL    HW228008   0.734   4.522  12.483  0.4907  0.1978 -0.1541
 5458SOL     OW28009   0.033   1.545   2.550  0.7757  0.0610 -0.3842
 5458SOL    HW128010   0.107   1.493   2.582  1.2113  1.3666  0.7536
 5458SOL    HW228011   4.712   1.477   2.518  1.5204 -0.7093 -0.0888
 5459SOL     OW28012   3.953   0.637   8.405 -0.2018  0.1457  0.1264
 5459SOL    HW128013   3.871   0.653   8.451 -1.7303 -0.1038 -2.5623
 5459SOL    HW228014   3.965   0.721   8.361 -0.6849 -0.4542 -1.1522
 5460SOL     OW28015   4.241   3.677   8.513  1.0043  0.2386 -0.1133
 5460SOL    HW128016   4.307   3.673   8.444 -0.5189 -2.5193 -1.4090
 5460SOL    HW228017   4.203   3.763   8.495  0.7365  0.4299  1.3922
 5461SOL     OW28018   4.366   4.517   0.408 -0.7503  0.3679 -0.0789
 5461SOL    HW128019   4.421   4.499   0.485 -2.0768 -1.1818  0.5047
 5461SOL    HW228020   4.279   4.498   0.443 -0.5264 -0.3622  0.0868
 5462SOL     OW28021   4.486   0.015   2.912 -0.1668 -0.3604  0.8552
 5462SOL    HW128022   4.501   0.064   2.831  1.0256  2.1853  2.6353
 5462SOL    HW228023   4.555   0.055   2.965 -0.6889  1.1787  0.3779
 5463SOL     OW28024   1.121   1.721   8.545 -0.3383  0.0093  0.2403
 5463SOL    HW128025   1.202   1.772   8.535  0.0201 -0.4440  0.8153
 5463SOL    HW228026   1.061   1.795   8.556  0.4085  0.7568 -0.7836
 5464SOL     OW28027   0.623   0.688   7.258  0.9956  0.1619  0.6516
 5464SOL    HW128028   0.680   0.680   7.334 -1.0072  2.0666  2.3308
 5464SOL    HW228029   0.554   0.627   7.283 -0.8362  1.3156 -1.6381
 5465SOL     OW28030   1.896   4.051  10.939  0.3459  0.4129  0.2923
 5465SOL    HW128031   1.845   4.009  10.870  0.4127  1.4538 -0.3991
 5465SOL    HW228032   1.927   4.133  10.900  0.6397 -0.0470 -0.4256
 5466SOL     OW28033   3.956   2.705   5.147 -0.5237  0.1010 -0.0937
 5466SOL    HW128034   3.868   2.673   5.130  0.0315 -1.2441 -0.4194
 5466SOL    HW228035   3.978   2.754   5.068  0.0736 -2.6947 -1.6565
 5467SOL     OW28036   0.749   2.264  12.206 -0.2474  0.7094  0.2012
 5467SOL    HW128037   0.685   2.263  12.278  1.5486  0.8862  1.7920
 5467SOL    HW228038   0.822   2.313  12.243  1.2069 -0.4421 -1.1461
 5468SOL     OW28039   1.423   3.236  16.044  0.1268 -0.6942 -0.3252
 5468SOL    HW128040   1.486   3.276  15.984  1.0382  1.2293  1.9276
 5468SOL    HW228041   1.449   3.144  16.049  0.3623 -0.6198 -0.1462
 5469SOL     OW28042   4.704   4.311  17.366 -0.1847 -0.3766  0.2219
 5469SOL    HW128043   4.659   4.255  17.303  0.1083  1.3019 -1.5058
 5469SOL    HW228044   4.642   4.382  17.349 -0.2292  0.1219  2.5325
 5470SOL     OW28045   2.569   1.606   1.863  0.3264  0.2340 -0.1089
 5470SOL    HW128046   2.592   1.519   1.829  5.7643  0.7882  2.0227
 5470SOL    HW228047   2.636   1.658   1.818 -0.1182  0.2860 -0.7071
 5471SOL     OW28048   4.427   3.661  10.275  0.4527  0.1122  0.1279
 5471SOL    HW128049   4.333   3.645  10.289  0.2781  1.6481  0.7041
 5471SOL    HW228050   4.462   3.594  10.334  0.9634 -1.5913 -2.1396
 5472SOL     OW28051   2.082   0.389   6.997  0.4766  0.4832  0.2067
 5472SOL    HW128052   2.170   0.352   7.008 -0.1155 -1.1061 -0.4327
 5472SOL    HW228053   2.039   0.307   6.971  2.2841 -0.1350 -0.8739
 5473SOL     OW28054   0.446   3.541  14.843 -0.3095 -0.8228 -0.5505
 5473SOL    HW128055   0.431   3.447  14.851  0.9878 -0.8510  1.4509
 5473SOL    HW228056   0.440   3.563  14.750 -1.0989 -1.5467 -0.6721
 5474SOL     OW28057   4.677   0.161   2.216 -0.2823  0.6669  0.3904
 5474SOL    HW128058   4.730   0.134   2.141 -0.6539  0.1142  0.3240
 5474SOL    HW228059   4.734   0.214   2.272  1.1763  0.9029 -1.3206
 5475SOL     OW28060   3.988   3.196   3.158  0.3642 -0.1147 -0.1583
 5475SOL    HW128061   4.038   3.221   3.080  1.3993 -0.2310  0.4595
 5475SOL    HW228062   4.028   3.253   3.224 -1.1141 -1.7972  2.1856
 5476SOL     OW28063   1.584   1.501   2.158 -0.0789 -0.4554 -0.0359
 5476SOL    HW128064   1.639   1.573   2.189 -0.1550 -0.2538 -0.3622
 5476SOL    HW228065   1.648   1.432   2.143  0.8074  0.1521  0.9221
 5477SOL     OW28066   4.629   4.246   5.947  0.3613 -0.1274 -0.4637
 5477SOL    HW128067   4.704   4.207   5.992  0.8281  0.3407 -0.8349
 5477SOL    HW228068   4.681   4.297   5.884  1.3253  0.6452  0.9585
 5478SOL     OW28069   2.948   2.643   3.463 -0.3570  0.1347 -0.2303
 5478SOL    HW128070   2.981   2.578   3.525 -1.0267  0.6044  0.6165
 5478SOL    HW228071   2.997   2.625   3.382  0.5935 -1.5461  0.7100
 5479SOL     OW28072   3.240   0.385   7.450 -0.3649 -0.0899  0.0153
 5479SOL    HW128073   3.274   0.315   7.506  0.7256  1.0341  0.7630
 5479SOL    HW228074   3.242   0.464   7.505 -1.3219 -1.1703  1.6070
 5480SOL     OW28075   0.174   2.778  14.964  0.2245  0.0834  0.3108
 5480SOL    HW128076   0.223   2.722  15.024 -0.9385 -1.0871  0.1833
 5480SOL    HW228077   0.209   2.866  14.977 -1.7420  1.0698 -1.0698
 5481SOL     OW28078   0.306   0.728   4.442  0.5420  0.2168  0.8322
 5481SOL    HW128079   0.392   0.749   4.407  0.3778  1.1038  0.9707
 5481SOL    HW228080   0.302   0.786   4.518 -0.9814 -0.3634  1.1999
 5482SOL     OW28081   1.307   0.177  16.906  0.5484 -0.3423  0.9996
 5482SOL    HW128082   1.264   0.105  16.859  1.0884  0.2485 -0.4171
 5482SOL    HW228083   1.233   0.237  16.914 -1.0342 -2.6535  4.0057
 5483SOL     OW28084   4.583   1.164   4.708 -0.0976 -0.0231 -0.7671
 5483SOL    HW128085   4.519   1.167   4.637 -1.5636  0.5310  0.5745
 5483SOL    HW228086   4.616   1.254   4.708  1.3956 -0.5680  0.9377
 5484SOL     OW28087   0.899   0.430   7.174 -0.6280 -0.1332  0.9932
 5484SOL    HW128088   0.918   0.492   7.244 -1.4902  0.8658  0.3451
 5484SOL    HW228089   0.804   0.422   7.180 -0.5780 -0.5065  1.2751
 5485SOL     OW28090   3.735   1.295   3.729  0.5738 -0.2756  0.6648
 5485SOL    HW128091   3.669   1.264   3.792 -1.0921 -1.2342 -1.5350
 5485SOL    HW228092   3.819   1.301   3.774  0.3004  0.1343  1.1300
 5486SOL     OW28093   1.403   0.598   5.933 -0.7829  0.6018  0.1844
 5486SOL    HW128094   1.441   0.520   5.972 -1.2026 -0.3705 -1.3728
 5486SOL    HW228095   1.371   0.634   6.016  0.7613  2.0728  0.1513
 5487SOL     OW28096   4.524   0.395   5.345  0.0918  0.0420  0.0734
 5487SOL    HW128097   4.510   0.453   5.271  0.1415  3.3719  2.6486
 5487SOL    HW228098   4.550   0.316   5.298  1.7363  0.6485 -0.0392
 5488SOL     OW28099   0.127   2.571   0.091  0.0329 -0.1692 -0.7668
 5488SOL    HW128100   0.058   2.615   0.041 -0.3017  4.1485  3.4644
 5488SOL    HW228101   0.176   2.527   0.021  0.0424  1.2428 -1.6439
 5489SOL     OW28102   0.628   2.389   5.546  0.0644  0.0594  0.3436
 5489SOL    HW128103   0.666   2.305   5.520 -1.0516 -0.3099 -0.0731
 5489SOL    HW228104   0.657   2.401   5.636 -0.8310  1.0980  0.4887
 5490SOL     OW28105   0.296   2.572   8.533  0.2909  0.6614  0.4155
 5490SOL    HW128106   0.360   2.643   8.535 -0.3104  1.2160 -0.1763
 5490SOL    HW228107   0.264   2.577   8.623 -0.8283 -1.9574  0.1871
 5491SOL     OW28108   0.516   1.294   4.412 -0.0186 -0.4378 -0.2100
 5491SOL    HW128109   0.572   1.366   4.381 -0.6261 -0.1809 -0.7169
 5491SOL    HW228110   0.571   1.220   4.387 -0.3786 -0.3856 -1.1553
 5492SOL     OW28111   0.005   2.421   5.032 -0.0746  0.0007 -0.0184
 5492SOL    HW128112   0.006   2.481   4.957 -0.1930  1.5559  1.2153
 5492SOL    HW228113   4.651   2.391   5.021 -0.0733  0.2388 -0.6655
 5493SOL     OW28114   2.121   3.204   2.412  0.2481 -0.3016 -0.1778
 5493SOL    HW128115   2.130   3.109   2.425  0.4425 -0.1151  1.0516
 5493SOL    HW228116   2.071   3.215   2.331  0.8189  1.7953 -0.2366
 5494SOL     OW28117   2.125   4.712  14.644 -0.0709 -0.2142 -0.1438
 5494SOL    HW128118   2.220   4.701  14.639 -0.0883  0.4463 -1.7968
 5494SOL    HW228119   2.105   4.706  14.551 -1.5341 -2.0287  0.2837
 5495SOL     OW28120   1.745   0.973   7.208  0.3518 -0.1554 -0.2154
 5495SOL    HW128121   1.709   0.953   7.294  1.4742 -1.6074 -0.0850
 5495SOL    HW228122   1.829   0.926   7.211  1.9377  2.6817 -0.2798
 5496SOL     OW28123   4.721   3.780   0.530  0.8060  0.2718  0.1643
 5496SOL    HW128124   4.707   3.874   0.543 -0.3574  0.4399 -2.1353
 5496SOL    HW228125   4.662   3.750   0.460  0.7870 -0.8763  0.6758
 5497SOL     OW28126   1.319   0.479   3.923 -0.0910 -0.0620 -0.2465
 5497SOL    HW128127   1.286   0.427   3.996  0.8788  1.4229  1.2461
 5497SOL    HW228128   1.237   0.481   3.874 -0.2101 -1.6604 -0.0916
 5498SOL     OW28129   0.827   1.778   5.534  0.1732 -0.2820 -0.1188
 5498SOL    HW128130   0.919   1.806   5.536  0.2154 -0.3988 -0.4040
 5498SOL    HW228131   0.804   1.779   5.441 -0.7348 -1.6872  0.0843
 5499SOL     OW28132   3.916   2.637  12.094 -0.3465 -0.2234 -0.1800
 5499SOL    HW128133   3.990   2.620  12.154 -0.7137  0.2942  0.4210
 5499SOL    HW228134   3.844   2.650  12.155  0.0985 -0.3552  0.3824
 5500SOL     OW28135   2.249   4.134   1.791  0.7330  0.5033 -0.1123
 5500SOL    HW128136   2.238   4.184   1.710  0.2800 -1.5133 -1.2796
 5500SOL    HW228137   2.276   4.201   1.854 -3.1500  2.1023 -0.1429
 5501SOL     OW28138   0.125   1.134   8.636 -0.4759 -0.4422 -0.2467
 5501SOL    HW128139   0.137   1.045   8.669 -1.6088  0.1439  1.7686
 5501SOL    HW228140   0.216   1.157   8.619 -0.2735 -0.7029  0.4576
 5502SOL     OW28141   4.414   3.188   0.471 -0.0872 -0.1930  0.0870
 5502SOL    HW128142   4.493   3.138   0.495 -0.4698 -1.3258 -1.0204
 5502SOL    HW228143   4.405   3.156   0.381  0.3520 -0.5241  0.1561
 5503SOL     OW28144   2.044   3.961  10.668 -0.4917  0.4941  0.1570
 5503SOL    HW128145   2.097   3.946  10.746  2.1017  1.9148 -1.3042
 5503SOL    HW228146   2.053   3.871  10.637 -1.3218  0.1769  0.8479
 5504SOL     OW28147   2.439   2.997   2.611 -0.2051 -0.5659  0.1368
 5504SOL    HW128148   2.415   3.040   2.529 -2.0033 -1.8113  0.0213
 5504SOL    HW228149   2.419   2.907   2.586  1.9413 -1.4834  1.7513
 5505SOL     OW28150   1.331   3.015   4.289  0.1429 -0.4807 -0.0119
 5505SOL    HW128151   1.407   3.073   4.286 -0.7729  0.5893 -2.2868
 5505SOL    HW228152   1.375   2.940   4.329  0.8017 -0.5811 -0.9463
 5506SOL     OW28153   1.580   0.830   5.932  0.1066 -0.0900 -0.1482
 5506SOL    HW128154   1.512   0.762   5.936  1.9237 -1.8649  0.9371
 5506SOL    HW228155   1.520   0.904   5.935  1.2233  0.7595  1.0834
 5507SOL     OW28156   0.649   4.567   8.673  0.7751 -0.4046  0.2001
 5507SOL    HW128157   0.565   4.530   8.647  0.6043  1.1464 -1.4839
 5507SOL    HW228158   0.638   4.565   8.768 -1.0568 -3.1264 -0.0636
 5508SOL     OW28159   0.796   3.862   6.358 -0.0790 -0.0038  0.1954
 5508SOL    HW128160   0.814   3.874   6.265  0.2301 -1.9502  0.0104
 5508SOL    HW228161   0.742   3.784   6.344 -0.1668  0.6002 -2.8709
 5509SOL     OW28162   2.659   0.019  15.668 -0.0811  0.6161 -0.4459
 5509SOL    HW128163   2.650   4.668  15.629  2.3833  0.0233  0.3002
 5509SOL    HW228164   2.736   0.048  15.618  0.0681 -0.5636 -0.9057
 5510SOL     OW28165   3.162   3.282   8.107  0.3408 -0.4597  0.0842
 5510SOL    HW128166   3.067   3.277   8.099  0.0139 -0.6893  3.8895
 5510SOL    HW228167   3.181   3.198   8.150  0.0770 -0.6873 -0.2464
 5511SOL     OW28168   3.174   1.497   5.777  0.1643 -0.6521  0.0523
 5511SOL    HW128169   3.244   1.558   5.801  1.9356 -1.6494 -2.5407
 5511SOL    HW228170   3.097   1.539   5.814 -0.6627 -1.1930 -1.0732
 5512SOL     OW28171   3.929   1.462   6.128 -0.0709 -0.6678 -0.2633
 5512SOL    HW128172   3.860   1.425   6.183 -0.0351  0.9027  0.8622
 5512SOL    HW228173   3.989   1.389   6.113  0.7941 -0.3119  1.4562
 5513SOL     OW28174   2.303   0.893   2.981 -0.4612 -0.3949  0.2702
 5513SOL    HW128175   2.389   0.905   3.022 -1.1020 -1.8057  2.0138
 5513SOL    HW228176   2.255   0.865   3.059  0.5922  1.3052  1.5194
 5514SOL     OW28177   4.340   0.344  14.608  0.0036 -0.0358 -0.3710
 5514SOL    HW128178   4.282   0.349  14.532  0.9214 -4.1501 -1.2931
 5514SOL    HW228179   4.366   0.254  14.592  1.1978  0.6668 -2.4289
 5515SOL     OW28180   1.139   0.502  13.567  0.1839 -0.1906 -0.7116
 5515SOL    HW128181   1.093   0.478  13.487  0.2162 -3.6880  0.2978
 5515SOL    HW228182   1.149   0.597  13.566  0.3140 -0.2056 -0.7828
 5516SOL     OW28183   3.989   0.021   9.396  0.0435 -0.0642  0.2467
 5516SOL    HW128184   4.015   4.673   9.432  0.7841  0.0771  0.0444
 5516SOL    HW228185   4.067   0.068   9.424  0.5191  0.7926 -2.5367
 5517SOL     OW28186   2.709   0.595   4.996 -0.2857  0.4058 -0.1371
 5517SOL    HW128187   2.721   0.666   5.058  1.1299  1.5186 -1.6634
 5517SOL    HW228188   2.676   0.528   5.055 -0.3932 -1.1010 -1.8762
 5518SOL     OW28189   4.381   1.610   0.674 -0.3356 -0.0058  0.8703
 5518SOL    HW128190   4.475   1.629   0.667 -0.3611 -0.5734 -0.9836
 5518SOL    HW228191   4.366   1.532   0.620  0.5542 -0.0856  0.7340
 5519SOL     OW28192   0.381   1.496   4.518 -0.1603 -0.7342  0.0237
 5519SOL    HW128193   0.306   1.510   4.460 -1.2764  0.9591  1.8933
 5519SOL    HW228194   0.430   1.435   4.463  0.9602 -0.4384  0.6811
 5520SOL     OW28195   3.189   2.198   1.763 -0.2469  0.2216 -0.1884
 5520SOL    HW128196   3.115   2.229   1.711  0.3414  1.7241 -0.1244
 5520SOL    HW228197   3.261   2.220   1.704  0.1105 -1.5284 -0.4176
 5521SOL     OW28198   0.725   1.601  11.372  0.3165 -0.0837  0.0592
 5521SOL    HW128199   0.810   1.602  11.327 -0.1205  1.6730 -0.7214
 5521SOL    HW228200   0.739   1.563  11.459 -0.4773 -2.3109 -0.8029
 5522SOL     OW28201   3.981   2.489   2.275  0.4014  0.9533 -0.2844
 5522SOL    HW128202   3.991   2.401   2.238  1.2988  0.5806  0.8199
 5522SOL    HW228203   3.899   2.511   2.231 -1.3206  1.2176  3.0294
 5523SOL     OW28204   2.282   4.122   5.179 -0.5626 -0.3840  0.4399
 5523SOL    HW128205   2.279   4.131   5.274 -1.7026  0.2665  0.3295
 5523SOL    HW228206   2.291   4.213   5.151 -1.8857 -0.6547 -0.8384
 5524SOL     OW28207   0.774   1.182   3.218  0.3129 -0.1386 -0.4761
 5524SOL    HW128208   0.803   1.258   3.168 -0.4901  0.0577 -0.6482
 5524SOL    HW228209   0.740   1.126   3.148 -0.5889  0.6236 -0.6429
 5525SOL     OW28210   2.731   3.514   5.095 -0.1567 -0.2693  0.8651
 5525SOL    HW128211   2.809   3.499   5.149  1.7813 -0.8537 -2.1004
 5525SOL    HW228212   2.686   3.584   5.142 -2.0993 -0.7687 -0.2829
 5526SOL     OW28213   1.397   3.531   1.792  0.1059 -0.4158  0.3041
 5526SOL    HW128214   1.410   3.482   1.712  0.5238  1.0850 -0.5522
 5526SOL    HW228215   1.476   3.507   1.839  0.9440  1.2477 -0.2333
 5527SOL     OW28216   3.264   2.843   8.861  0.3650 -0.3759 -0.0918
 5527SOL    HW128217   3.311   2.762   8.880  0.9617  0.3510  1.5460
 5527SOL    HW228218   3.334   2.885   8.810 -1.6746 -0.2772 -2.7670
 5528SOL     OW28219   1.054   0.967  11.111  0.0281 -0.2495 -1.2478
 5528SOL    HW128220   1.117   0.959  11.182 -0.9948 -2.4338 -0.5828
 5528SOL    HW228221   1.118   0.995  11.046  2.0517  2.6865  2.0294
 5529SOL     OW28222   0.890   1.099   5.992  0.4348  0.4552  0.3180
 5529SOL    HW128223   0.815   1.152   5.966 -0.0057 -1.0135 -1.3390
 5529SOL    HW228224   0.914   1.051   5.913 -0.5917 -0.5248  0.6146
 5530SOL     OW28225   1.631   3.551   3.103  0.2919  0.0376  0.1638
 5530SOL    HW128226   1.696   3.592   3.161  0.2970  0.7736 -0.3658
 5530SOL    HW228227   1.578   3.627   3.077 -0.5282 -0.1544  1.2577
 5531SOL     OW28228   1.710   1.096   6.346  0.0267 -0.0747  0.1304
 5531SOL    HW128229   1.664   1.107   6.262 -1.5052 -0.4444  0.9292
 5531SOL    HW228230   1.651   1.032   6.386  0.5239 -0.4924  0.1908
 5532SOL     OW28231   0.430   3.836   2.728  0.8792  0.0890 -0.3854
 5532SOL    HW128232   0.426   3.782   2.649 -0.5872 -1.8958  1.0466
 5532SOL    HW228233   0.439   3.926   2.696 -0.4541 -0.5582 -2.5919
 5533SOL     OW28234   0.402   2.757   3.324  0.6512 -0.0634  0.3865
 5533SOL    HW128235   0.328   2.709   3.288  1.0924 -0.5697  0.1555
 5533SOL    HW228236   0.361   2.843   3.323 -1.6174 -1.1591  0.2685
 5534SOL     OW28237   1.773   0.466  13.847  0.5799 -0.1253  0.2228
 5534SOL    HW128238   1.754   0.523  13.772  2.5164 -0.7932 -0.7896
 5534SOL    HW228239   1.866   0.489  13.859  0.8588 -0.1728 -1.8086
 5535SOL     OW28240   0.078   0.825   1.840  0.7700 -0.1854 -0.0071
 5535SOL    HW128241   0.096   0.887   1.910 -0.3769 -2.3772  2.2277
 5535SOL    HW228242   0.090   0.740   1.883 -0.6623 -1.0692 -1.3483
 5536SOL     OW28243   4.470   1.837   9.492  0.6853  0.4051  0.6331
 5536SOL    HW128244   4.565   1.831   9.506  0.8149 -1.0955 -1.0163
 5536SOL    HW228245   4.442   1.888   9.568 -2.4278  0.5518 -0.6194
 5537SOL     OW28246   1.219   0.179  10.111 -0.1045  0.2355  0.2287
 5537SOL    HW128247   1.196   0.269  10.086 -0.5481 -0.1834 -0.8436
 5537SOL    HW228248   1.264   0.204  10.192  1.9289 -0.2174 -0.7594
 5538SOL     OW28249   3.821   3.473   6.952  0.1121 -0.0573  0.3589
 5538SOL    HW128250   3.730   3.447   6.961  0.3921 -0.5778  1.6896
 5538SOL    HW228251   3.832   3.528   7.030  0.2081  1.0456 -0.4251
 5539SOL     OW28252   1.569   0.730  15.655 -0.5728  0.1389  0.3932
 5539SOL    HW128253   1.589   0.822  15.639  0.9191  0.0079  1.5356
 5539SOL    HW228254   1.599   0.723  15.745  0.4130 -3.3992 -0.1834
 5540SOL     OW28255   3.251   1.872   3.057 -0.2396 -0.0406  0.1266
 5540SOL    HW128256   3.262   1.838   2.968  1.2135 -0.0136  0.2927
 5540SOL    HW228257   3.156   1.865   3.065 -0.2144  1.1806  1.4633
 5541SOL     OW28258   0.493   0.510   8.179 -0.1674 -0.1004 -0.2412
 5541SOL    HW128259   0.408   0.474   8.202 -0.1501  1.6077  2.3906
 5541SOL    HW228260   0.484   0.605   8.178  0.1974 -0.0643  0.1006
 5542SOL     OW28261   0.059   2.183   3.076 -0.5133  0.2809 -0.0517
 5542SOL    HW128262   4.710   2.203   3.114  0.5366  1.1875  1.8260
 5542SOL    HW228263   0.044   2.092   3.050  4.3768 -0.7504  0.8681
 5543SOL     OW28264   0.688   3.922  14.216 -0.1653  0.0509 -0.0894
 5543SOL    HW128265   0.723   4.004  14.180 -0.0853 -0.3538 -0.9473
 5543SOL    HW228266   0.746   3.901  14.289 -0.8643  0.1295  0.4846
 5544SOL     OW28267   3.697   2.860   7.173  0.2823  0.0103 -0.0788
 5544SOL    HW128268   3.681   2.765   7.168  0.3341  0.0939 -1.8090
 5544SOL    HW228269   3.615   2.889   7.214  1.1281  1.7069  0.4099
 5545SOL     OW28270   4.559   2.634   9.687  0.1929 -0.1379  0.0856
 5545SOL    HW128271   4.602   2.709   9.647 -0.6502  0.2650 -0.0741
 5545SOL    HW228272   4.614   2.625   9.765  2.1890  3.8460 -0.8354
 5546SOL     OW28273   1.817   1.598   1.951 -1.1624 -0.2511 -0.2646
 5546SOL    HW128274   1.874   1.573   1.878 -2.0811 -1.2409 -0.6300
 5546SOL    HW228275   1.826   1.693   1.963 -2.3776  0.0759 -2.0375
 5547SOL     OW28276   1.967   3.822   3.854  0.3162 -0.3866 -0.1989
 5547SOL    HW128277   2.049   3.833   3.902  0.4869 -0.2226 -0.5268
 5547SOL    HW228278   1.962   3.911   3.818  1.1033  0.3593  1.5356
 5548SOL     OW28279   4.197   4.659   0.582 -0.5972 -0.0309 -0.0066
 5548SOL    HW128280   4.214   4.573   0.620 -0.8796 -0.0111  0.1615
 5548SOL    HW228281   4.115   4.642   0.537 -1.1235  0.8180  0.6266
 5549SOL     OW28282   1.443   4.206  10.745  0.2027  0.0612 -0.3162
 5549SOL    HW128283   1.372   4.271  10.749  0.3116  0.1126  0.7680
 5549SOL    HW228284   1.401   4.128  10.710  2.9987 -0.6438 -2.0988
 5550SOL     OW28285   4.287   4.105   0.434  0.5429  0.4710  0.3658
 5550SOL    HW128286   4.297   4.116   0.340  1.0020  0.7428  0.4453
 5550SOL    HW228287   4.232   4.178   0.461  0.0280  0.7465 -1.4303
 5551SOL     OW28288   4.688   2.269  11.213 -0.3963 -0.0150  0.0346
 5551SOL    HW128289   4.733   2.275  11.129  0.4205  0.8241  0.5204
 5551SOL    HW228290   4.630   2.344  11.204  0.9198  1.0662  0.4162
 5552SOL     OW28291   4.416   3.240   7.391  0.0808  0.0418  0.4508
 5552SOL    HW128292   4.503   3.203   7.398  0.7279  1.8752  1.9855
 5552SOL    HW228293   4.427   3.288   7.309  2.6284  1.9221  1.9042
 5553SOL     OW28294   4.429   1.089   3.479 -0.2347 -0.4376  0.1959
 5553SOL    HW128295   4.370   1.156   3.445  1.5620  1.8547  1.5796
 5553SOL    HW228296   4.387   1.072   3.564  1.9692 -0.0006  1.3784
 5554SOL     OW28297   0.464   3.716   3.608 -0.8411  0.3424 -0.1623
 5554SOL    HW128298   0.452   3.661   3.686 -1.0156 -1.9896 -1.8312
 5554SOL    HW228299   0.386   3.688   3.560  0.0206  0.2950 -1.5503
 5555SOL     OW28300   2.245   1.719   2.643 -0.1223  0.2014  0.3422
 5555SOL    HW128301   2.231   1.721   2.548 -1.4277  4.0621  0.6263
 5555SOL    HW228302   2.285   1.633   2.655  0.0779  0.2343 -0.0961
 5556SOL     OW28303   4.584   3.958  16.906  0.4957  0.3886 -0.2795
 5556SOL    HW128304   4.658   3.948  16.845  0.3141 -0.3303 -0.3831
 5556SOL    HW228305   4.525   4.013  16.855  0.3557  0.2835 -0.2300
 5557SOL     OW28306   2.433   2.705   0.929 -0.1012 -0.1623 -0.3243
 5557SOL    HW128307   2.470   2.792   0.921  1.1246 -0.3787  2.9596
 5557SOL    HW228308   2.342   2.723   0.953  0.4707 -1.0846  2.6347
 5558SOL     OW28309   1.429   0.242   8.189 -0.3471 -0.5264 -0.2720
 5558SOL    HW128310   1.484   0.296   8.246 -1.1631  0.4144 -0.3810
 5558SOL    HW228311   1.381   0.309   8.139 -0.6012 -0.2768  0.3003
 5559SOL     OW28312   2.424   4.024  11.041  0.1376  0.7602  0.0889
 5559SOL    HW128313   2.462   4.091  10.985 -2.0661  0.5148 -1.6885
 5559SOL    HW228314   2.344   4.016  10.990 -0.1701 -0.6087  0.7826
 5560SOL     OW28315   1.418   3.976  15.277 -0.0811 -0.8475 -0.3023
 5560SOL    HW128316   1.418   4.032  15.355 -0.3696 -1.3939  0.0961
 5560SOL    HW228317   1.501   3.930  15.291  1.1052  0.6568 -2.5032
 5561SOL     OW28318   0.577   2.229  11.700  0.2330  0.3972 -0.4036
 5561SOL    HW128319   0.559   2.249  11.608  0.0728  2.3810  0.0632
 5561SOL    HW228320   0.621   2.144  11.689 -0.4663 -0.0175  0.0365
 5562SOL     OW28321   2.913   3.810  10.662  0.3698 -0.4979  0.8247
 5562SOL    HW128322   2.910   3.746  10.734 -1.0602 -1.2886  0.0663
 5562SOL    HW228323   3.006   3.804  10.641  0.1052 -0.4139 -0.3841
 5563SOL     OW28324   4.616   0.690   7.250 -0.2661 -0.0985  0.1806
 5563SOL    HW128325   4.642   0.634   7.324 -2.0856  2.4868  2.7892
 5563SOL    HW228326   4.539   0.648   7.214 -2.2212  1.6682  2.3117
 5564SOL     OW28327   1.487   3.134   8.284  0.2251 -0.2571 -0.4841
 5564SOL    HW128328   1.392   3.129   8.293  0.2677  1.9618  1.0223
 5564SOL    HW228329   1.507   3.090   8.367  0.1631  0.3478 -0.1534
 5565SOL     OW28330   4.023   2.930   0.974  0.0116  0.2711 -0.2118
 5565SOL    HW128331   4.040   2.948   0.881 -0.4022 -0.6636 -0.4733
 5565SOL    HW228332   4.108   2.904   1.009 -0.6195 -0.7460  0.5545
 5566SOL     OW28333   2.084   0.615   5.135 -1.0064  0.9350 -0.0698
 5566SOL    HW128334   1.991   0.607   5.115 -0.1316  0.1718 -3.9320
 5566SOL    HW228335   2.097   0.567   5.216  0.8933 -1.4472 -1.7760
 5567SOL     OW28336   1.774   2.674   5.668 -0.1428  0.1798 -0.9324
 5567SOL    HW128337   1.842   2.691   5.733 -0.6307 -1.5420  0.0207
 5567SOL    HW228338   1.809   2.701   5.583 -0.2343  0.0610 -1.0083
 5568SOL     OW28339   2.385   1.743   3.421  0.1063  0.0754  0.2829
 5568SOL    HW128340   2.379   1.650   3.399  1.5358  0.4773 -1.7772
 5568SOL    HW228341   2.306   1.751   3.474 -1.0053  1.9285 -1.6428
 5569SOL     OW28342   0.387   3.496   5.224 -0.4344 -0.0001 -0.0578
 5569SOL    HW128343   0.404   3.421   5.282 -0.1697 -0.6909 -1.0211
 5569SOL    HW228344   0.436   3.463   5.148  0.4057  0.1205  0.4247
 5570SOL     OW28345   3.427   1.580  11.330  0.0853 -0.0224 -0.4387
 5570SOL    HW128346   3.340   1.565  11.292 -1.1193  1.4115  1.7896
 5570SOL    HW228347   3.468   1.632  11.261  0.9164  0.5374  0.4717
 5571SOL     OW28348   4.301   1.584   8.682 -0.0294 -0.3138  0.3076
 5571SOL    HW128349   4.280   1.492   8.665 -0.0055 -0.7761  2.8109
 5571SOL    HW228350   4.262   1.632   8.610 -2.0577 -2.6478 -0.1644
 5572SOL     OW28351   0.649   2.617  13.790 -0.4828 -0.1606 -0.0743
 5572SOL    HW128352   0.670   2.534  13.834  1.5571  0.2328 -0.2909
 5572SOL    HW228353   0.653   2.598  13.697 -1.9928 -2.1595  0.2555
 5573SOL     OW28354   3.040   1.002   5.444 -0.8736  0.0959  0.0605
 5573SOL    HW128355   3.005   1.075   5.393 -0.2556  0.8498  0.7127
 5573SOL    HW228356   2.965   0.966   5.490 -0.7870  0.3542  0.4051
 5574SOL     OW28357   0.101   0.694  11.373  0.8706 -0.5020  0.3408
 5574SOL    HW128358   0.185   0.712  11.332 -0.9524  1.2532 -2.5964
 5574SOL    HW228359   0.117   0.734  11.458  0.2385 -0.5168  0.4713
 5575SOL     OW28360   0.768   4.041   0.838  0.8107  0.1166  0.0120
 5575SOL    HW128361   0.733   4.053   0.750  1.6375 -3.0055 -0.7622
 5575SOL    HW228362   0.743   3.949   0.850  1.7877  0.0043  1.1300
 5576SOL     OW28363   4.310   0.307   5.068 -0.6276  0.3833  0.1489
 5576SOL    HW128364   4.284   0.248   4.997 -1.9060 -0.4322  1.2829
 5576SOL    HW228365   4.388   0.351   5.033 -0.4192  0.6284  0.9116
 5577SOL     OW28366   0.873   3.464  15.955  0.2710 -0.6684  0.3517
 5577SOL    HW128367   0.911   3.383  15.989 -0.8977 -1.1544  0.4842
 5577SOL    HW228368   0.808   3.495  16.018  0.8518 -0.1256  0.6787
 5578SOL     OW28369   4.099   4.079   7.353  0.5959  0.1851 -0.1330
 5578SOL    HW128370   4.018   4.122   7.381  0.8214  0.3962  0.1949
 5578SOL    HW228371   4.114   4.111   7.265 -1.0234  0.0757 -0.4558
 5579SOL     OW28372   2.271   3.040  12.439  0.3971 -0.2552  0.2129
 5579SOL    HW128373   2.363   3.067  12.439 -0.0300  1.1645 -0.7665
 5579SOL    HW228374   2.281   2.977  12.367  0.8834  0.8033 -0.6497
 5580SOL     OW28375   0.253   2.243  12.181  0.0604 -0.0872 -0.0397
 5580SOL    HW128376   0.287   2.306  12.117 -1.1524  3.0316  2.4064
 5580SOL    HW228377   0.306   2.164  12.173 -1.3854 -1.1133  0.6347
 5581SOL     OW28378   1.909   0.702   0.115  0.6688 -0.1325 -0.0041
 5581SOL    HW128379   1.822   0.700   0.154  0.1479 -3.3625 -1.3247
 5581SOL    HW228380   1.969   0.646   0.165  1.3364  1.0286  0.4888
 5582SOL     OW28381   4.640   3.261   2.034 -0.0017  0.2254  0.1708
 5582SOL    HW128382   4.607   3.197   1.972  1.3389  1.1436 -1.5040
 5582SOL    HW228383   4.598   3.343   2.006  1.7080  1.0023 -0.1750
 5583SOL     OW28384   2.753   2.679  11.641  0.4028  0.3430 -0.3104
 5583SOL    HW128385   2.776   2.634  11.559  2.1116 -0.2940  0.5198
 5583SOL    HW228386   2.844   2.704  11.660  0.7419 -0.2169 -1.1949
 5584SOL     OW28387   0.853   2.254   6.284  0.4150 -0.0278  0.3241
 5584SOL    HW128388   0.758   2.251   6.296  0.2598 -0.3619 -1.1069
 5584SOL    HW228389   0.870   2.335   6.334  0.8804 -0.0027  0.1259
 5585SOL     OW28390   4.153   1.730  14.713 -0.4959 -0.2168 -0.5155
 5585SOL    HW128391   4.071   1.747  14.759 -0.9705 -1.5153 -0.8604
 5585SOL    HW228392   4.178   1.642  14.744  3.9378  1.3485  0.3153
 5586SOL     OW28393   4.402   4.152  10.588  0.4457  0.1586 -0.5922
 5586SOL    HW128394   4.394   4.154  10.683  3.5807 -1.6186 -0.2786
 5586SOL    HW228395   4.407   4.059  10.568  1.3053  0.2971 -1.0290
 5587SOL     OW28396   4.048   1.432   8.072  0.4817 -0.6099  0.2226
 5587SOL    HW128397   4.090   1.513   8.044 -1.1461 -0.2305 -1.1827
 5587SOL    HW228398   4.045   1.383   7.989  0.1523 -1.0325  0.4844
 5588SOL     OW28399   2.500   2.727  14.065  0.2748 -0.5012  0.0968
 5588SOL    HW128400   2.516   2.730  13.970 -0.8881 -1.4235 -0.1284
 5588SOL    HW228401   2.572   2.667  14.083  1.8550  1.2405 -0.4847
 5589SOL     OW28402   1.244   3.492   6.209 -0.0510 -0.1252 -0.4084
 5589SOL    HW128403   1.195   3.574   6.195  1.4692  0.8769  0.1387
 5589SOL    HW228404   1.235   3.483   6.304 -1.1374  0.1212 -0.4815
 5590SOL     OW28405   3.974   0.200   0.148  0.0277 -0.4589  0.0379
 5590SOL    HW128406   4.014   0.213   0.234 -0.0106 -1.7114  0.2480
 5590SOL    HW228407   4.020   0.261   0.090 -0.1768  0.5705  0.9662
 5591SOL     OW28408   0.537   2.385   8.351 -0.1998  0.0069 -0.2748
 5591SOL    HW128409   0.615   2.368   8.405 -0.8504 -1.7440  0.1064
 5591SOL    HW228410   0.571   2.418   8.268  3.9043 -1.5959  0.7466
 5592SOL     OW28411   0.888   4.385  15.992 -0.0034  0.1044  0.1167
 5592SOL    HW128412   0.937   4.328  16.052  0.9197  0.2437 -0.5037
 5592SOL    HW228413   0.965   4.430  15.958 -0.3658 -0.2717 -1.2072
 5593SOL     OW28414   0.080   2.444  15.206 -0.1579  0.2563  0.3924
 5593SOL    HW128415   0.042   2.439  15.294  1.1798  1.3338  1.0218
 5593SOL    HW228416   0.010   2.491  15.161  0.3706  1.0251  0.3812
 5594SOL     OW28417   0.992   0.812   4.869 -0.1768  0.0439 -0.3296
 5594SOL    HW128418   1.023   0.796   4.959  0.3741  0.0935 -0.5114
 5594SOL    HW228419   1.071   0.810   4.815 -0.4888  1.2168 -0.8149
 5595SOL     OW28420   2.909   2.534   4.259 -0.1014 -0.2015  0.2321
 5595SOL    HW128421   2.917   2.477   4.336  1.4871 -1.8530 -1.1609
 5595SOL    HW228422   2.821   2.571   4.273  0.2211 -0.0586  1.9036
 5596SOL     OW28423   2.107   1.319  13.404 -0.7631  0.2823 -0.1703
 5596SOL    HW128424   2.146   1.374  13.471 -1.2110 -0.9788  1.1287
 5596SOL    HW228425   2.088   1.382  13.335  0.4256  0.6915 -0.1175
 5597SOL     OW28426   3.264   1.331   6.961 -0.0134  0.2082 -0.1186
 5597SOL    HW128427   3.249   1.237   6.952 -1.0104  0.1888  1.8784
 5597SOL    HW228428   3.308   1.336   7.046  0.6238 -0.9251 -0.3820
 5598SOL     OW28429   0.815   0.680   4.713 -0.4799 -0.1385 -0.0727
 5598SOL    HW128430   0.877   0.741   4.753 -1.2575  0.8364 -0.3481
 5598SOL    HW228431   0.870   0.633   4.650  0.9174 -0.7635  1.6048
 5599SOL     OW28432   4.500   4.392   8.934 -0.2549  0.1121  0.5970
 5599SOL    HW128433   4.479   4.376   8.842  0.0011  1.8672  0.2371
 5599SOL    HW228434   4.471   4.307   8.967 -0.2258  0.4681  1.5291
 5600SOL     OW28435   0.869   1.431  17.581  0.4988 -0.2197 -0.0080
 5600SOL    HW128436   0.837   1.388  17.660  3.7281  0.3653  1.6193
 5600SOL    HW228437   0.804   1.499  17.565 -0.0940 -1.1590 -1.6184
 5601SOL     OW28438   1.602   4.512   1.801 -0.1430 -0.4086  0.2966
 5601SOL    HW128439   1.535   4.443   1.799  1.3222 -1.8064 -1.1629
 5601SOL    HW228440   1.656   4.485   1.726 -0.4295  0.4711 -0.2305
 5602SOL     OW28441   3.540   3.239   8.281  0.7216 -0.1724  0.1195
 5602SOL    HW128442   3.539   3.239   8.377 -1.1946 -0.0351  0.1093
 5602SOL    HW228443   3.579   3.152   8.271 -1.7894 -1.1961 -1.0049
 5603SOL     OW28444   3.515   4.607   0.520 -0.3895  0.3022  0.6742
 5603SOL    HW128445   3.522   4.519   0.483  0.3301  0.6817 -0.0882
 5603SOL    HW228446   3.504   4.586   0.613  1.3428 -0.1864  0.7675
 5604SOL     OW28447   2.671   3.309   2.575 -0.1968 -0.2443 -0.0430
 5604SOL    HW128448   2.701   3.219   2.588 -0.5080 -0.2452  0.6689
 5604SOL    HW228449   2.592   3.310   2.521 -1.0217 -0.0883  1.1496
 5605SOL     OW28450   3.903   2.251  17.363 -0.6896 -0.4207  0.0680
 5605SOL    HW128451   3.966   2.263  17.434  0.4620  0.3992 -1.0948
 5605SOL    HW228452   3.922   2.162  17.334  0.4953 -0.1473  0.0247
 5606SOL     OW28453   0.808   3.759   5.531  0.0504  0.3666 -0.8883
 5606SOL    HW128454   0.816   3.689   5.466  1.5066  0.6662 -1.0317
 5606SOL    HW228455   0.898   3.763   5.563 -0.0946  0.9963 -0.5598
 5607SOL     OW28456   3.783   3.728  13.359 -0.3588 -0.5406 -0.0322
 5607SOL    HW128457   3.772   3.645  13.404  1.4639 -0.6122  0.2615
 5607SOL    HW228458   3.727   3.785  13.412  1.0493 -0.1834  1.0683
 5608SOL     OW28459   1.898   0.779   3.765 -0.1030  0.3160 -0.4483
 5608SOL    HW128460   1.887   0.729   3.684  2.3706 -1.6430  0.4295
 5608SOL    HW228461   1.942   0.708   3.813  1.7323  0.8199 -1.4163
 5609SOL     OW28462   3.292   0.115   3.032 -0.0928 -0.3047 -0.2337
 5609SOL    HW128463   3.216   0.058   3.018 -2.0680  2.3519 -0.4263
 5609SOL    HW228464   3.303   0.155   2.946 -0.6334  0.1156 -0.1054
 5610SOL     OW28465   3.492   1.355   8.874 -0.3439 -0.8540 -0.1099
 5610SOL    HW128466   3.504   1.443   8.910  0.4555 -0.7090 -0.7206
 5610SOL    HW228467   3.552   1.298   8.922 -0.4242  0.1142  1.1404
 5611SOL     OW28468   2.360   1.596   6.132 -0.2686  0.5852  0.4955
 5611SOL    HW128469   2.281   1.545   6.115 -0.3969  0.8700  0.2427
 5611SOL    HW228470   2.376   1.618   6.041 -1.8076 -0.5122 -0.0470
 5612SOL     OW28471   3.563   3.488   4.652  0.2653 -0.6759 -0.6263
 5612SOL    HW128472   3.642   3.461   4.606  1.3770  0.7035  0.4462
 5612SOL    HW228473   3.523   3.560   4.603 -0.6461 -1.7643 -1.4584
 5613SOL     OW28474   0.821   3.037   8.614  0.1893 -0.2904  0.0405
 5613SOL    HW128475   0.862   2.950   8.615  0.6694 -0.0853 -2.2188
 5613SOL    HW228476   0.746   3.006   8.666  1.1922  1.1114  2.2934
 5614SOL     OW28477   1.180   4.371   1.515  0.0915 -0.5005 -0.1797
 5614SOL    HW128478   1.172   4.439   1.583 -0.3148 -0.5203 -0.2075
 5614SOL    HW228479   1.148   4.293   1.561  1.2902 -0.7193  0.2970
 5615SOL     OW28480   3.233   1.001   6.145 -0.0662  0.3734  0.5135
 5615SOL    HW128481   3.322   0.964   6.146 -0.3254 -0.2497  0.3241
 5615SOL    HW228482   3.255   1.094   6.140  0.9875  0.0446 -1.0425
 5616SOL     OW28483   2.347   0.323   8.433  0.3601 -0.5152 -0.0645
 5616SOL    HW128484   2.369   0.258   8.366  1.7706 -0.1173  0.0119
 5616SOL    HW228485   2.411   0.394   8.426 -1.9214  1.3864 -1.7558
 5617SOL     OW28486   4.435   2.780   3.663  0.4356  0.3709  0.5545
 5617SOL    HW128487   4.463   2.857   3.614 -0.0814  1.2317  1.5935
 5617SOL    HW228488   4.505   2.724   3.630 -0.6540  0.3223 -1.6854
 5618SOL     OW28489   0.062   1.726   2.745 -0.0700  0.2872  0.3080
 5618SOL    HW128490   0.157   1.731   2.753 -0.1328  0.8669  0.6993
 5618SOL    HW228491   0.047   1.660   2.678 -3.5298  0.6356  0.7361
 5619SOL     OW28492   3.273   0.349   7.027  0.8063 -0.3444 -0.1834
 5619SOL    HW128493   3.199   0.367   6.969  0.1187 -1.0738  0.4703
 5619SOL    HW228494   3.343   0.326   6.966  0.3123 -0.7750 -0.5900
 5620SOL     OW28495   2.798   1.409   4.875  0.2507 -0.5483  0.7132
 5620SOL    HW128496   2.744   1.373   4.804  0.8963  0.4716 -0.2921
 5620SOL    HW228497   2.735   1.470   4.913  0.7941  0.9133 -0.7144
 5621SOL     OW28498   0.214   3.525   7.819 -0.0322  0.1034 -0.2372
 5621SOL    HW128499   0.119   3.522   7.826 -0.0963 -0.0191 -1.1496
 5621SOL    HW228500   0.225   3.435   7.790 -0.7219  0.3873 -1.3579
 5622SOL     OW28501   1.079   2.936   7.648  0.4041  0.1173 -0.0211
 5622SOL    HW128502   1.039   2.944   7.734 -1.1371  0.2846 -0.7607
 5622SOL    HW228503   1.145   3.005   7.655  0.3443  0.0962  0.7854
 5623SOL     OW28504   3.882   1.075   2.395 -0.1785  0.1842 -0.3903
 5623SOL    HW128505   3.814   1.142   2.390  0.0375  0.4100 -0.2901
 5623SOL    HW228506   3.949   1.114   2.340  1.7760 -1.6071  0.7070
 5624SOL     OW28507   1.076   0.578   5.378  0.3457  0.1514 -0.4728
 5624SOL    HW128508   0.993   0.546   5.343 -0.2977 -0.6723  1.8078
 5624SOL    HW228509   1.103   0.503   5.430 -1.0862  0.0438  0.1267
 5625SOL     OW28510   0.475   4.360   3.011  0.2066  1.1022  0.0121
 5625SOL    HW128511   0.461   4.270   3.040  3.3026 -0.1136 -2.2927
 5625SOL    HW228512   0.454   4.346   2.919 -3.0200  2.4653  0.5570
 5626SOL     OW28513   0.479   3.860  12.053  0.1575 -0.1607  0.0329
 5626SOL    HW128514   0.466   3.824  11.966 -0.3684  0.8657 -0.3191
 5626SOL    HW228515   0.441   3.790  12.107  0.0745 -0.6323 -0.6424
 5627SOL     OW28516   0.686   0.237   6.101 -0.0817  0.0591 -0.2150
 5627SOL    HW128517   0.640   0.257   6.020  1.0488  0.5190 -0.7382
 5627SOL    HW228518   0.764   0.186   6.081 -2.1461 -2.0875 -2.8261
 5628SOL     OW28519   3.678   4.639   8.370  0.1863 -0.4397 -0.2985
 5628SOL    HW128520   3.729   4.642   8.451 -2.9551  0.2058  1.6685
 5628SOL    HW228521   3.617   4.711   8.387  0.1114 -0.3282 -1.0518
 5629SOL     OW28522   4.241   4.628   8.686 -0.1159  0.2981  0.0472
 5629SOL    HW128523   4.293   4.634   8.767  0.4859  0.7014 -0.3697
 5629SOL    HW228524   4.319   4.623   8.631  0.9215 -0.9713  1.6058
 5630SOL     OW28525   3.096   2.033   8.113  0.1563  0.2727  0.0947
 5630SOL    HW128526   3.143   2.028   8.030  1.3877  3.5621  0.6167
 5630SOL    HW228527   3.166   2.032   8.178 -0.1222  0.7404  0.3937
 5631SOL     OW28528   2.165   0.608   8.328 -0.3900  0.2228  1.0566
 5631SOL    HW128529   2.118   0.686   8.358 -0.2018 -0.7540  3.8517
 5631SOL    HW228530   2.232   0.645   8.270  0.5420 -1.9632  0.7248
 5632SOL     OW28531   3.679   3.857   6.091 -0.1595 -0.3509  0.0693
 5632SOL    HW128532   3.601   3.805   6.112 -1.8771  1.5814 -1.4642
 5632SOL    HW228533   3.688   3.903   6.174 -1.2669 -2.6361  1.4595
 5633SOL     OW28534   1.512   2.067   2.627 -0.3126 -0.6267 -0.1930
 5633SOL    HW128535   1.466   2.089   2.708 -0.5236 -3.1005  0.3717
 5633SOL    HW228536   1.442   2.061   2.562  0.2378  0.2102 -0.8740
 5634SOL     OW28537   4.301   3.597  17.447  0.4383 -0.7524  0.0759
 5634SOL    HW128538   4.308   3.504  17.425 -1.8538 -0.8206 -0.3560
 5634SOL    HW228539   4.233   3.624  17.386  0.2717  1.6992  1.3567
 5635SOL     OW28540   0.063   4.203   3.268 -0.2089 -0.0384  0.0992
 5635SOL    HW128541   0.114   4.281   3.249  1.1627 -1.0475 -0.3888
 5635SOL    HW228542   0.072   4.213   3.362  1.5599 -0.7563  0.0020
 5636SOL     OW28543   2.764   4.108   3.077 -0.1172  0.4410  0.3275
 5636SOL    HW128544   2.808   4.084   3.158 -1.5372  2.0655  1.5699
 5636SOL    HW228545   2.713   4.028   3.062  0.9067 -0.1427 -0.0566
 5637SOL     OW28546   1.316   3.712   8.882 -0.1295  0.8390 -0.0347
 5637SOL    HW128547   1.223   3.690   8.886 -0.3513  1.8063  0.0497
 5637SOL    HW228548   1.347   3.639   8.828 -0.2115 -1.4370  2.9491
 5638SOL     OW28549   3.993   2.000   9.051  0.3572 -0.3836  0.1934
 5638SOL    HW128550   4.044   2.012   9.131  0.9451 -0.4303 -0.1750
 5638SOL    HW228551   4.044   2.051   8.988  0.6380  1.2594  1.7506
 5639SOL     OW28552   2.997   2.834  11.670  0.0487  0.3291  0.5135
 5639SOL    HW128553   3.019   2.921  11.703  1.7852  0.2109 -0.3407
 5639SOL    HW228554   3.024   2.777  11.742 -1.0179 -0.8162  0.0045
 5640SOL     OW28555   3.082   4.475   7.617 -0.0182  0.4926 -0.0939
 5640SOL    HW128556   3.058   4.533   7.544  0.3090  1.4959  0.6015
 5640SOL    HW228557   3.003   4.423   7.621 -0.5741  1.2452 -1.2402
 5641SOL     OW28558   3.570   0.960   8.297  0.3080 -0.2048 -0.2383
 5641SOL    HW128559   3.478   0.944   8.319 -0.0301 -1.1394 -2.3023
 5641SOL    HW228560   3.583   1.035   8.355  0.9042 -0.9635  0.6061
 5642SOL     OW28561   0.030   4.289   0.362  0.3325 -0.2361  0.0603
 5642SOL    HW128562   4.729   4.340   0.290  2.1341  4.2235  2.2443
 5642SOL    HW228563   4.734   4.201   0.347 -0.0173  0.1577 -1.4774
 5643SOL     OW28564   3.032   3.893  11.094 -0.3465  0.2642 -0.4942
 5643SOL    HW128565   3.035   3.937  11.180 -0.2319 -1.3294  0.3066
 5643SOL    HW228566   2.959   3.833  11.103  1.0468 -0.9104  2.9525
 5644SOL     OW28567   0.760   3.367   8.821 -0.0008 -0.2170  0.5303
 5644SOL    HW128568   0.772   3.377   8.726  1.4456 -1.3956  0.5966
 5644SOL    HW228569   0.667   3.385   8.837 -0.0071  0.9459 -0.7643
 5645SOL     OW28570   4.381   0.997  12.145 -0.0283 -0.3402  0.0133
 5645SOL    HW128571   4.416   0.979  12.058 -2.3927 -1.6806 -0.6473
 5645SOL    HW228572   4.300   0.947  12.144 -0.4314  0.3009  1.3910
 5646SOL     OW28573   4.675   0.908  15.172 -0.2341 -0.0552 -0.1232
 5646SOL    HW128574   4.638   0.822  15.194 -2.5111  1.2518  1.1129
 5646SOL    HW228575   4.602   0.969  15.170 -0.9879 -1.0068 -2.0000
 5647SOL     OW28576   4.222   2.254   7.210  0.3520 -0.0103  0.0208
 5647SOL    HW128577   4.202   2.259   7.304  0.2770 -0.3361  0.0222
 5647SOL    HW228578   4.149   2.302   7.172 -1.1721 -1.2563  1.3384
 5648SOL     OW28579   3.754   4.114   3.176  0.1526  0.9456  0.1935
 5648SOL    HW128580   3.712   4.064   3.106  0.3151  0.7897  0.2083
 5648SOL    HW228581   3.820   4.051   3.205 -0.2220 -0.8613 -2.9043
 5649SOL     OW28582   3.215   0.433   6.436  0.2613 -0.4157 -0.5635
 5649SOL    HW128583   3.241   0.499   6.501  0.1531 -2.3341  1.4595
 5649SOL    HW228584   3.203   0.351   6.485  1.1323  0.2484  0.7682
 5650SOL     OW28585   3.369   3.553  13.891 -0.0591 -0.0765 -0.4714
 5650SOL    HW128586   3.428   3.624  13.868  0.3640 -0.2460  0.0884
 5650SOL    HW228587   3.293   3.583  13.841 -1.3388 -2.3082  0.1097
 5651SOL     OW28588   4.394   2.947  11.112  0.7082  0.1884 -0.6462
 5651SOL    HW128589   4.341   2.929  11.034  0.4267  0.9722 -0.6337
 5651SOL    HW228590   4.486   2.948  11.084  0.5408 -2.6349 -1.2876
 5652SOL     OW28591   2.967   0.690   7.700  0.4671 -0.2959 -0.2344
 5652SOL    HW128592   2.947   0.724   7.788 -0.3776 -0.8793 -0.2043
 5652SOL    HW228593   2.884   0.647   7.681  0.1790 -0.4456  1.3077
 5653SOL     OW28594   2.922   2.395   6.102 -0.2571  0.3616  0.3768
 5653SOL    HW128595   2.971   2.440   6.170  1.0514 -1.2356  0.4876
 5653SOL    HW228596   2.987   2.328   6.080 -0.2722  0.5613 -0.2597
 5654SOL     OW28597   0.602   2.653   5.230 -0.2406  0.2228 -0.1844
 5654SOL    HW128598   0.675   2.594   5.248  0.4742  1.2395  0.2310
 5654SOL    HW228599   0.622   2.726   5.289  1.1262  0.3131 -0.7718
 5655SOL     OW28600   4.043   0.165   2.459  0.3868 -0.0733 -0.1734
 5655SOL    HW128601   3.956   0.203   2.442  1.4308  1.9455 -1.0405
 5655SOL    HW228602   4.075   0.224   2.527 -0.4391 -0.8408  0.8641
 5656SOL     OW28603   3.732   3.774   0.355 -0.8333  0.1740 -0.7677
 5656SOL    HW128604   3.793   3.802   0.286 -1.6865 -2.2680 -2.5358
 5656SOL    HW228605   3.660   3.820   0.312 -0.8467  0.4482 -0.4447
 5657SOL     OW28606   0.413   3.010  11.216 -0.4613  0.3868  0.0196
 5657SOL    HW128607   0.339   3.054  11.174 -2.4726 -0.9886  2.1022
 5657SOL    HW228608   0.477   3.080  11.230  1.1312 -1.6055  2.6549
 5658SOL     OW28609   3.483   0.081   3.207 -0.0609 -0.1955 -0.1050
 5658SOL    HW128610   3.434   0.046   3.282 -1.5766 -1.4773 -1.7012
 5658SOL    HW228611   3.425   0.080   3.131 -0.2503  4.3342 -0.0150
 5659SOL     OW28612   2.825   4.179  10.127 -0.2251 -0.3653  0.0816
 5659SOL    HW128613   2.914   4.214  10.130  0.1268 -1.0936 -2.0065
 5659SOL    HW228614   2.775   4.238  10.183  1.3639  0.1046  1.0213
 5660SOL     OW28615   4.209   3.385   4.696  0.2548 -0.2256  0.4039
 5660SOL    HW128616   4.250   3.358   4.778 -0.3996  0.2303  0.8758
 5660SOL    HW228617   4.185   3.475   4.717 -1.7308 -0.8537  0.8279
 5661SOL     OW28618   2.868   0.022   7.680  0.8593  0.4720  0.5785
 5661SOL    HW128619   2.857   4.664   7.675  1.5276  0.3903  0.6620
 5661SOL    HW228620   2.920   0.035   7.760  0.8308  1.7290  0.3855
 5662SOL     OW28621   0.963   3.041   1.419  0.6992  0.0484 -0.3380
 5662SOL    HW128622   0.891   3.024   1.358 -0.5294 -0.7404  1.3453
 5662SOL    HW228623   0.936   3.124   1.459 -0.3874  0.0149 -1.0042
 5663SOL     OW28624   1.253   0.978   4.051 -0.1004  0.6152  0.1174
 5663SOL    HW128625   1.314   0.914   4.016  2.5486  3.3941 -0.3134
 5663SOL    HW228626   1.206   1.015   3.975 -1.0693 -1.4002 -0.2595
 5664SOL     OW28627   4.263   3.941   5.878 -0.0209  0.0522  0.1254
 5664SOL    HW128628   4.218   4.025   5.879 -0.7504 -0.3359  0.1182
 5664SOL    HW228629   4.341   3.957   5.931 -0.2380 -1.2178  0.8206
 5665SOL     OW28630   1.431   1.938  11.350  0.3782 -0.1797  0.6864
 5665SOL    HW128631   1.336   1.926  11.353  0.2201  0.9225  0.0990
 5665SOL    HW228632   1.444   1.977  11.437  1.8646  0.0274  0.3680
 5666SOL     OW28633   1.364   4.530  13.345 -0.4099  0.2969  0.8880
 5666SOL    HW128634   1.455   4.514  13.369  0.0050 -2.2759 -2.4221
 5666SOL    HW228635   1.338   4.602  13.402 -0.7421  0.7322  0.1884
 5667SOL     OW28636   3.246   2.507   2.183 -0.3914 -0.1331  0.3663
 5667SOL    HW128637   3.183   2.575   2.206  0.1238 -0.3087  2.3005
 5667SOL    HW228638   3.196   2.451   2.124  1.2846 -1.4177  0.1874
 5668SOL     OW28639   1.015   0.904   9.682 -0.1092 -0.1043  0.6435
 5668SOL    HW128640   0.948   0.883   9.617  0.8377 -1.0939 -0.0285
 5668SOL    HW228641   0.970   0.896   9.766 -2.4596 -3.3417 -0.9079
 5669SOL     OW28642   2.822   1.220   9.727 -0.0681 -0.3700  0.6860
 5669SOL    HW128643   2.783   1.177   9.803  1.4186  0.1521  1.7583
 5669SOL    HW228644   2.761   1.208   9.655 -0.5901  1.0803  0.8927
 5670SOL     OW28645   0.369   1.732   7.872 -0.4071 -0.2853  0.3112
 5670SOL    HW128646   0.380   1.642   7.840 -0.8430 -1.0772  2.4195
 5670SOL    HW228647   0.456   1.766   7.847 -1.5133  2.2643 -0.0681
 5671SOL     OW28648   3.559   4.330   2.924 -0.7684 -0.3364 -0.3126
 5671SOL    HW128649   3.517   4.372   2.999  3.2879  0.0841  1.7284
 5671SOL    HW228650   3.561   4.394   2.854  2.9601 -0.8787 -0.7500
 5672SOL     OW28651   1.198   3.635  15.772  0.3559 -0.0312  0.7464
 5672SOL    HW128652   1.200   3.629  15.867  2.2633 -0.8734  0.6617
 5672SOL    HW228653   1.106   3.613  15.757  0.5256 -1.0376  1.2417
 5673SOL     OW28654   2.872   3.885   9.448 -0.5928 -0.6797 -0.1707
 5673SOL    HW128655   2.866   3.936   9.367 -0.1609 -1.4763 -0.7048
 5673SOL    HW228656   2.903   3.944   9.517 -1.9582  0.7880 -0.8273
 5674SOL     OW28657   4.636   0.988   2.601  0.1787 -0.7794  0.1411
 5674SOL    HW128658   4.645   1.073   2.559  2.3490  0.1865  2.5965
 5674SOL    HW228659   4.695   0.987   2.677  1.5280  0.7658 -0.8922
 5675SOL     OW28660   0.678   0.351   8.334  0.2241  0.1252  0.0588
 5675SOL    HW128661   0.765   0.390   8.343 -0.6839  2.3598 -0.8422
 5675SOL    HW228662   0.628   0.426   8.302 -0.2802 -1.0475 -1.9245
 5676SOL     OW28663   0.524   0.908  15.355 -0.3810 -0.1576 -0.2325
 5676SOL    HW128664   0.431   0.892  15.372  0.0588 -0.9243  1.5688
 5676SOL    HW228665   0.530   0.922  15.261 -1.1693 -1.8587 -0.5327
 5677SOL     OW28666   2.035   1.243   0.171 -0.5786 -0.4450  0.5995
 5677SOL    HW128667   1.952   1.289   0.177 -1.4536 -2.2811  2.6710
 5677SOL    HW228668   2.009   1.153   0.193 -3.3735 -0.0325 -1.0352
 5678SOL     OW28669   2.579   4.158   7.480  0.3696 -0.0972  0.2324
 5678SOL    HW128670   2.622   4.169   7.566  3.0848 -0.2489 -1.0946
 5678SOL    HW228671   2.527   4.237   7.491 -3.0572 -2.3973  0.3287
 5679SOL     OW28672   0.173   4.344   0.796  0.6936  0.0333 -0.7576
 5679SOL    HW128673   0.114   4.339   0.872  1.6796  1.0453  0.0699
 5679SOL    HW228674   0.226   4.417   0.827  0.1831  0.7014 -1.4453
 5680SOL     OW28675   2.724   1.853  15.697  0.4054 -0.5135 -0.2834
 5680SOL    HW128676   2.630   1.852  15.717  0.3137  1.5417 -0.5970
 5680SOL    HW228677   2.767   1.803  15.765 -1.2968  0.1859  1.3084
 5681SOL     OW28678   4.188   4.652  15.231  0.1718 -0.0355 -0.1653
 5681SOL    HW128679   4.254   4.722  15.228  1.8886 -1.7453 -1.8040
 5681SOL    HW228680   4.238   4.599  15.293  3.0497  2.5812 -0.2328
 5682SOL     OW28681   3.268   3.627  16.565 -0.3320 -0.1858  0.6431
 5682SOL    HW128682   3.294   3.536  16.556  1.2418  0.1333  1.8358
 5682SOL    HW228683   3.345   3.656  16.615  2.8625 -2.0955 -3.2370
 5683SOL     OW28684   3.196   0.866  17.527  0.4775  0.2653 -0.7383
 5683SOL    HW128685   3.142   0.820  17.462  0.3492 -0.6649  0.0190
 5683SOL    HW228686   3.231   0.785  17.566 -0.1997  0.5606  0.4523
 5684SOL     OW28687   1.151   2.853   3.025  0.0991 -0.4091 -0.0531
 5684SOL    HW128688   1.113   2.868   3.112  2.2606 -0.8123  0.9588
 5684SOL    HW228689   1.246   2.853   3.037 -0.2826  0.6240  2.9095
 5685SOL     OW28690   2.436   3.529   5.452 -0.0382  0.1116 -0.0184
 5685SOL    HW128691   2.486   3.534   5.371  0.2490  0.3686  0.1745
 5685SOL    HW228692   2.498   3.541   5.524 -0.8924  3.2281  0.2170
 5686SOL     OW28693   1.931   4.609  11.394 -0.4775 -0.6808  0.2370
 5686SOL    HW128694   2.014   4.655  11.409 -0.8520  1.1934 -3.3518
 5686SOL    HW228695   1.875   4.687  11.395 -1.1530 -1.1196 -2.5911
 5687SOL     OW28696   2.922   3.151   7.903 -0.6323 -0.6626 -0.3735
 5687SOL    HW128697   2.901   3.141   7.996  0.9706  1.8844  0.2462
 5687SOL    HW228698   2.841   3.181   7.860  0.0405  0.7711 -0.6479
 5688SOL     OW28699   4.643   0.923  14.183 -0.5381  0.1965  0.3251
 5688SOL    HW128700   4.638   0.831  14.155 -0.8571  0.5222 -0.6937
 5688SOL    HW228701   4.732   0.942  14.153 -0.6531  1.2928  0.6850
 5689SOL     OW28702   1.810   3.049  16.872  0.0612 -0.3066  0.3623
 5689SOL    HW128703   1.861   3.078  16.948  2.3018  1.0135 -1.6567
 5689SOL    HW228704   1.878   3.050  16.804 -0.0572 -1.0161  0.2279
 5690SOL     OW28705   2.260   1.984  16.893  0.1591  0.1858 -0.2073
 5690SOL    HW128706   2.199   2.040  16.845  3.3518  0.6106 -3.7587
 5690SOL    HW228707   2.265   2.030  16.976 -1.1254 -2.4083  1.3054
 5691SOL     OW28708   4.263   3.863  11.296 -0.0376  0.2010 -0.5527
 5691SOL    HW128709   4.250   3.778  11.337  2.1358  0.9550  1.6926
 5691SOL    HW228710   4.303   3.912  11.367 -4.4870  1.1393  1.3094
 5692SOL     OW28711   3.379   2.091   7.844 -0.2538 -0.1869 -0.0636
 5692SOL    HW128712   3.395   2.139   7.763 -3.4542  1.9306  0.5692
 5692SOL    HW228713   3.452   2.032   7.863 -0.5913 -0.1498  1.3783
 5693SOL     OW28714   1.160   3.706   7.242  0.1267  0.2273 -0.5159
 5693SOL    HW128715   1.169   3.629   7.186  1.1780  0.9355 -1.3114
 5693SOL    HW228716   1.185   3.668   7.326 -3.0165 -1.8868 -0.5251
 5694SOL     OW28717   4.300   1.672   3.312  0.4778  0.1016 -0.6619
 5694SOL    HW128718   4.355   1.643   3.384 -0.5224  0.7970  0.3730
 5694SOL    HW228719   4.217   1.691   3.356  0.8100  2.1952 -0.9694
 5695SOL     OW28720   1.694   0.837  10.087  0.4162  0.4147 -0.1695
 5695SOL    HW128721   1.703   0.790  10.170 -1.3022  1.2019  0.4430
 5695SOL    HW228722   1.775   0.888  10.099  0.1785  0.9979 -1.0404
 5696SOL     OW28723   3.891   4.163   1.809 -0.4418 -0.3005 -0.6429
 5696SOL    HW128724   3.875   4.241   1.755 -0.4130 -0.0353 -0.2723
 5696SOL    HW228725   3.913   4.097   1.744 -2.0706 -1.2278 -0.2576
 5697SOL     OW28726   4.710   0.314  14.469 -0.2007 -0.1836 -0.1885
 5697SOL    HW128727   4.721   0.405  14.494  2.4865 -0.7306  0.5869
 5697SOL    HW228728   0.057   0.280  14.498  0.2744 -0.9360 -2.4019
 5698SOL     OW28729   1.205   0.792   5.767 -0.0174  0.8222  0.2659
 5698SOL    HW128730   1.276   0.730   5.783 -1.2971 -0.7566 -0.1689
 5698SOL    HW228731   1.182   0.762   5.679  0.2805 -0.3651  0.5898
 5699SOL     OW28732   0.984   2.476  12.230 -0.6862 -0.2196  0.2545
 5699SOL    HW128733   1.079   2.490  12.231 -0.8639  1.0280 -0.0661
 5699SOL    HW228734   0.947   2.550  12.182 -0.2028 -0.8001 -0.9970
 5700SOL     OW28735   0.578   4.513   4.973  0.0921  0.5204  0.5514
 5700SOL    HW128736   0.513   4.458   5.016 -0.4935 -0.8073 -2.0365
 5700SOL    HW228737   0.643   4.444   4.962  0.4223  0.5524  2.2541
 5701SOL     OW28738   0.405   3.379   5.959 -0.6366  0.2964  0.1526
 5701SOL    HW128739   0.385   3.296   5.915 -1.6312 -0.4981  2.1465
 5701SOL    HW228740   0.494   3.402   5.930  0.3018 -0.2197  2.6061
 5702SOL     OW28741   4.059   2.881   2.057 -0.0216 -0.3574 -0.0443
 5702SOL    HW128742   4.128   2.817   2.074  0.1380 -0.6139 -1.6862
 5702SOL    HW228743   4.109   2.949   2.011  1.6995 -1.1245  0.7109
 5703SOL     OW28744   3.124   4.406  17.560 -0.1655  0.3812  0.7400
 5703SOL    HW128745   3.054   4.343  17.577  2.0567 -2.3759 -0.2995
 5703SOL    HW228746   3.087   4.445  17.480  1.5135 -1.0578 -0.7315
 5704SOL     OW28747   0.880   2.368   6.043 -0.2169 -0.0377  0.2662
 5704SOL    HW128748   0.972   2.390   6.030 -0.1760 -0.7777 -0.6325
 5704SOL    HW228749   0.885   2.306   6.115  0.6288  0.2758  0.4857
 5705SOL     OW28750   0.768   1.160   5.719 -0.0261 -0.2776 -0.3979
 5705SOL    HW128751   0.819   1.210   5.656  0.3556  0.9268  0.8606
 5705SOL    HW228752   0.721   1.094   5.668 -0.4289 -1.2642  1.2095
 5706SOL     OW28753   4.586   2.985   4.550  0.9728 -0.3060  0.0241
 5706SOL    HW128754   4.538   3.010   4.629  0.1048  2.5386 -1.4076
 5706SOL    HW228755   4.516   2.934   4.508 -0.6372  0.8225  1.3714
 5707SOL     OW28756   1.871   2.809   9.290  0.1286  0.0023  0.0429
 5707SOL    HW128757   1.898   2.737   9.347 -0.3161 -1.7025 -1.8871
 5707SOL    HW228758   1.823   2.860   9.355 -2.3322 -0.8561 -1.1027
 5708SOL     OW28759   2.154   4.695   7.305 -0.1401  0.2022  0.0606
 5708SOL    HW128760   2.079   4.647   7.338 -0.7771  1.4303  0.4064
 5708SOL    HW228761   2.159   0.040   7.355 -0.6053  1.7569 -2.4233
 5709SOL     OW28762   0.204   3.758   6.172  0.1685  0.0994  0.0432
 5709SOL    HW128763   0.114   3.726   6.174 -0.7766  2.8498  1.0569
 5709SOL    HW228764   0.223   3.734   6.081  2.2240 -0.7016  0.6745
 5710SOL     OW28765   3.692   2.321   1.939 -0.2178  0.8563  0.1405
 5710SOL    HW128766   3.706   2.306   2.032  2.2291  3.8539  0.2390
 5710SOL    HW228767   3.597   2.318   1.933 -0.1553  0.6309 -0.7266
 5711SOL     OW28768   3.988   1.759  14.480 -0.1331 -0.7095  0.0559
 5711SOL    HW128769   3.940   1.678  14.497 -0.3703 -0.8051 -1.0744
 5711SOL    HW228770   4.046   1.761  14.557  2.1117  0.4297 -1.6479
 5712SOL     OW28771   4.529   0.720  12.248  0.3876 -0.0462  0.6170
 5712SOL    HW128772   4.620   0.740  12.226 -0.4855  1.0635 -1.9558
 5712SOL    HW228773   4.502   0.791  12.307 -0.7401 -1.0117  1.2591
 5713SOL     OW28774   2.371   2.488   5.056  0.1373 -0.3802 -0.1319
 5713SOL    HW128775   2.308   2.458   4.991 -0.5858  0.6790  0.0795
 5713SOL    HW228776   2.365   2.582   5.043  1.1837 -0.2856  0.0610
 5714SOL     OW28777   2.185   4.177   5.427 -0.2200 -0.2687 -0.0054
 5714SOL    HW128778   2.245   4.161   5.500 -0.8655 -2.1772  0.1042
 5714SOL    HW228779   2.100   4.184   5.470 -0.5400 -1.5772 -0.4128
 5715SOL     OW28780   0.158   0.962   2.092  0.0177 -0.1824  0.8526
 5715SOL    HW128781   0.180   1.031   2.156 -0.9441 -0.4805  1.4994
 5715SOL    HW228782   0.098   0.908   2.143 -2.0688  1.2666 -0.0717
 5716SOL     OW28783   3.931   2.387   7.240  0.7653  0.1926 -0.1045
 5716SOL    HW128784   3.840   2.409   7.263  0.7413  0.2586 -0.2645
 5716SOL    HW228785   3.980   2.393   7.322 -1.9484  2.7342  1.3475
 5717SOL     OW28786   1.396   1.020   2.569  0.3827  0.2896 -0.5843
 5717SOL    HW128787   1.445   0.939   2.585 -1.2580 -0.0944  2.6620
 5717SOL    HW228788   1.450   1.071   2.509  1.5973  0.0417  0.2949
 5718SOL     OW28789   0.425   3.768   7.810 -0.5409  0.2037 -0.6857
 5718SOL    HW128790   0.388   3.761   7.722 -4.2567  1.7293  0.7820
 5718SOL    HW228791   0.402   3.677   7.831 -0.1583  0.1607 -0.4532
 5719SOL     OW28792   0.879   1.392   3.078  0.5479  0.1619 -0.5517
 5719SOL    HW128793   0.882   1.354   2.991 -0.5086  1.7935 -1.2901
 5719SOL    HW228794   0.971   1.396   3.104  0.3660  0.8510 -0.0100
 5720SOL     OW28795   3.422   4.663  16.468 -0.5053  0.3399 -0.0836
 5720SOL    HW128796   3.442   4.590  16.526 -0.7802  1.4873  1.4388
 5720SOL    HW228797   3.353   4.629  16.411  1.1275 -2.2384 -0.4952
 5721SOL     OW28798   0.835   3.607  17.330  0.0209 -0.5630  0.4057
 5721SOL    HW128799   0.915   3.577  17.373 -1.2987 -3.0824  1.1496
 5721SOL    HW228800   0.830   3.539  17.263 -0.8733  0.4405 -0.5461
 5722SOL     OW28801   3.046   0.783   6.247 -0.1796 -0.1033  0.3381
 5722SOL    HW128802   2.998   0.770   6.165 -1.0316  2.8402  0.3827
 5722SOL    HW228803   3.122   0.830   6.212  0.5598 -0.2897  1.6687
 5723SOL     OW28804   3.981   2.329   5.762 -0.4043  0.1954 -0.4164
 5723SOL    HW128805   4.021   2.371   5.685  0.4896 -2.2048 -1.2555
 5723SOL    HW228806   3.957   2.412   5.803  1.6898 -0.4713  2.1710
 5724SOL     OW28807   1.506   0.213   2.993 -0.4853 -0.6293  0.0287
 5724SOL    HW128808   1.490   0.306   2.974 -1.8781 -0.4730  2.0238
 5724SOL    HW228809   1.432   0.173   2.947 -0.4840 -1.3748  0.6944
 5725SOL     OW28810   2.792   3.862   9.974  0.4354 -0.0568  0.1069
 5725SOL    HW128811   2.744   3.933  10.016 -0.0424 -0.1567 -0.2693
 5725SOL    HW228812   2.749   3.784  10.009 -0.7218 -0.3072 -1.8687
 5726SOL     OW28813   2.012   2.137   7.898 -0.7035  0.3279  0.2809
 5726SOL    HW128814   2.032   2.099   7.983  1.8362  2.5171  0.6902
 5726SOL    HW228815   2.039   2.227   7.918  1.2680 -0.2488  0.1692
 5727SOL     OW28816   1.010   4.088  10.880  0.2745 -0.8047 -0.6524
 5727SOL    HW128817   1.061   4.068  10.959 -0.1335 -1.6087 -0.5876
 5727SOL    HW228818   0.933   4.138  10.907 -0.6024 -3.6353  2.1608
 5728SOL     OW28819   3.304   0.092  13.661 -0.3229  0.2923  0.0235
 5728SOL    HW128820   3.260   0.026  13.715 -2.1562  1.2797 -0.2709
 5728SOL    HW228821   3.383   0.102  13.714  0.5574 -0.2127 -1.2016
 5729SOL     OW28822   2.910   0.655   2.437 -0.0606  0.5017 -0.5875
 5729SOL    HW128823   2.884   0.736   2.481 -0.9215 -0.0628 -0.0351
 5729SOL    HW228824   2.849   0.658   2.363 -0.7499  4.2787  0.1447
 5730SOL     OW28825   1.383   1.483   8.432 -0.1199  0.0484  0.1429
 5730SOL    HW128826   1.398   1.449   8.344  0.1254  0.6251 -0.0386
 5730SOL    HW228827   1.469   1.458   8.466  0.5215  0.4652 -1.1891
 5731SOL     OW28828   4.019   1.879   9.394  0.3649 -0.3511 -0.1958
 5731SOL    HW128829   4.080   1.918   9.331 -0.4861 -0.8199 -1.3301
 5731SOL    HW228830   4.075   1.808   9.425  0.1243 -0.3646  0.2069
 5732SOL     OW28831   3.445   3.236   5.787 -0.1728 -0.5475 -0.9578
 5732SOL    HW128832   3.510   3.211   5.721 -0.3424 -0.9080 -0.9905
 5732SOL    HW228833   3.379   3.173   5.759  0.4073 -1.6913  0.2086
 5733SOL     OW28834   0.535   0.210   4.036  0.2735 -0.0569 -0.3223
 5733SOL    HW128835   0.439   0.206   4.031  0.4149 -2.0285 -1.5687
 5733SOL    HW228836   0.553   0.277   3.970 -2.0851  0.1628 -0.7553
 5734SOL     OW28837   4.574   0.664  15.221  0.2680  0.6774 -0.7546
 5734SOL    HW128838   4.507   0.626  15.278  0.7954  0.8238 -0.0348
 5734SOL    HW228839   4.587   0.588  15.164 -1.4947  0.1794 -0.4777
 5735SOL     OW28840   1.995   1.468   7.100 -0.0805 -0.1084  0.5425
 5735SOL    HW128841   1.923   1.420   7.060 -0.4960 -1.1792  2.6342
 5735SOL    HW228842   1.947   1.525   7.160  0.0783 -1.3266  1.8220
 5736SOL     OW28843   4.254   2.211   7.632  0.3957  0.2221 -0.3007
 5736SOL    HW128844   4.209   2.288   7.666  0.6835 -0.5068  1.7206
 5736SOL    HW228845   4.274   2.154   7.707 -0.9143  1.7251  1.1839
 5737SOL     OW28846   2.795   1.502   3.745 -0.3155  0.5076  0.7744
 5737SOL    HW128847   2.768   1.528   3.833 -0.8128  0.6878  0.5647
 5737SOL    HW228848   2.732   1.431   3.737  1.3231 -0.9879  0.9930
 5738SOL     OW28849   4.274   3.869   3.813 -0.1270 -0.1366  0.1602
 5738SOL    HW128850   4.329   3.927   3.759 -0.9018  1.3487  0.9613
 5738SOL    HW228851   4.336   3.796   3.813  1.6611  1.3845 -1.5964
 5739SOL     OW28852   1.291   2.562   4.518  0.0218 -0.1115  0.0068
 5739SOL    HW128853   1.239   2.636   4.488  0.8804  1.2723  1.9488
 5739SOL    HW228854   1.307   2.507   4.441  3.7963  0.1883  0.5595
 5740SOL     OW28855   4.696   1.600   6.939 -0.5705  0.6757  0.3463
 5740SOL    HW128856   4.674   1.669   6.877 -0.9067  0.4342  0.1975
 5740SOL    HW228857   4.655   1.527   6.893  0.1840  0.8811 -0.6269
 5741SOL     OW28858   3.571   0.427   3.186  0.5323 -0.4274 -0.0148
 5741SOL    HW128859   3.541   0.463   3.103  0.1084  0.7580  0.6566
 5741SOL    HW228860   3.493   0.399   3.235 -0.0741  0.2186 -0.6220
 5742SOL     OW28861   4.523   0.924   7.896 -0.0813 -1.0936  0.2246
 5742SOL    HW128862   4.570   0.848   7.859 -0.1644 -0.1195 -1.8870
 5742SOL    HW228863   4.589   0.993   7.895 -0.2359 -0.9626 -0.8397
 5743SOL     OW28864   4.649   3.658   9.369 -0.0908 -0.4507  0.1796
 5743SOL    HW128865   4.718   3.716   9.336  0.6519 -1.4625 -0.0591
 5743SOL    HW228866   4.640   3.595   9.297 -0.0469  0.2035 -0.3971
 5744SOL     OW28867   0.258   1.815  17.455  0.0368 -0.4099  0.3150
 5744SOL    HW128868   0.301   1.731  17.438 -2.3916 -2.0449  2.3058
 5744SOL    HW228869   0.165   1.794  17.462 -0.0344 -0.6377 -1.4421
 5745SOL     OW28870   1.796   3.784   7.510 -0.0877 -0.3208 -0.2150
 5745SOL    HW128871   1.780   3.868   7.554 -1.9521 -0.4923 -0.5459
 5745SOL    HW228872   1.850   3.801   7.433 -1.8880  2.0995 -0.9473
 5746SOL     OW28873   3.119   2.720   2.259 -0.0716 -1.0635  0.4992
 5746SOL    HW128874   3.141   2.752   2.346 -2.0941  0.2361  0.5474
 5746SOL    HW228875   3.024   2.709   2.263 -0.0779 -0.7283  1.3656
 5747SOL     OW28876   1.668   2.970   0.876  0.0480 -0.4303  0.4394
 5747SOL    HW128877   1.622   2.906   0.822  0.0841 -0.7143  0.7419
 5747SOL    HW228878   1.699   2.919   0.951  1.1715  0.3827  0.5211
 5748SOL     OW28879   2.237   1.292   7.594  0.1479  0.1787 -0.5591
 5748SOL    HW128880   2.295   1.274   7.667  1.0119 -0.9678 -1.5182
 5748SOL    HW228881   2.240   1.387   7.587  0.8454  0.2239  0.4305
 5749SOL     OW28882   1.740   0.686   6.340 -0.5833  0.1500 -0.1948
 5749SOL    HW128883   1.678   0.759   6.345  0.5005  1.0437  0.4239
 5749SOL    HW228884   1.792   0.729   6.272  1.6716  0.9056  2.0277
 5750SOL     OW28885   0.553   1.609   3.757 -0.2502  0.1976  0.1794
 5750SOL    HW128886   0.617   1.537   3.755  0.1417  0.5970 -1.7686
 5750SOL    HW228887   0.504   1.587   3.677 -0.4042  2.1507 -0.2713
 5751SOL     OW28888   4.380   3.167   8.541 -0.0437  0.1210  0.0300
 5751SOL    HW128889   4.335   3.167   8.457  0.3036  2.8809 -0.1545
 5751SOL    HW228890   4.354   3.085   8.583  0.5001 -1.1900 -2.2425
 5752SOL     OW28891   2.885   3.849   1.328  0.5759 -0.3383  0.5340
 5752SOL    HW128892   2.893   3.794   1.250  0.3610  0.1704  0.1516
 5752SOL    HW228893   2.865   3.936   1.292  0.9546 -0.4215  0.1262
 5753SOL     OW28894   3.865   1.227  17.122  0.4618 -0.6297 -0.2798
 5753SOL    HW128895   3.959   1.225  17.142  0.1530 -2.0010  1.0996
 5753SOL    HW228896   3.871   1.250  17.029 -0.3180 -1.8799 -0.6404
 5754SOL     OW28897   3.737   3.903   5.516 -0.5412  0.3797  0.0304
 5754SOL    HW128898   3.702   3.825   5.560 -1.4554  0.6706 -0.1821
 5754SOL    HW228899   3.824   3.899   5.556 -1.1911  0.3418  1.4269
 5755SOL     OW28900   2.749   2.203   1.834 -0.3132  0.5476 -0.5102
 5755SOL    HW128901   2.739   2.226   1.741  0.1741  0.4527 -0.5855
 5755SOL    HW228902   2.774   2.282   1.882 -0.3473 -0.3084  0.9131
 5756SOL     OW28903   0.116   1.370   3.739 -0.9627 -0.1733 -0.8351
 5756SOL    HW128904   0.133   1.455   3.699 -2.6484  0.2472 -0.6565
 5756SOL    HW228905   0.026   1.350   3.713 -1.2717 -0.0108  0.1008
 5757SOL     OW28906   3.340   2.335   2.775 -0.5916 -0.0203  0.6103
 5757SOL    HW128907   3.397   2.387   2.718 -1.4645  0.0867 -0.1695
 5757SOL    HW228908   3.294   2.402   2.825  0.0146  0.9084 -0.0862
 5758SOL     OW28909   0.391   2.031   7.069 -0.2942 -0.0548  0.2430
 5758SOL    HW128910   0.388   2.124   7.089  2.4867 -0.0079  0.3514
 5758SOL    HW228911   0.468   2.017   7.014 -2.1716 -0.2535 -2.3221
 5759SOL     OW28912   0.205   3.970  16.482  0.2898  0.0402  0.9166
 5759SOL    HW128913   0.218   4.017  16.400 -1.6142  2.4374  2.0132
 5759SOL    HW228914   0.249   3.885  16.470 -1.3299 -0.5510 -0.8740
 5760SOL     OW28915   2.139   0.668   6.887  0.8002 -0.0883 -0.2569
 5760SOL    HW128916   2.187   0.640   6.965  0.3085 -0.0047  0.0757
 5760SOL    HW228917   2.050   0.672   6.921  0.2744 -2.3036 -1.3733
 5761SOL     OW28918   0.700   4.629   6.627  0.1541  0.3532  0.6587
 5761SOL    HW128919   0.662   4.609   6.713 -1.4365 -3.0551 -0.8258
 5761SOL    HW228920   0.623   4.619   6.570  0.0164  0.1229  0.8824
 5762SOL     OW28921   1.505   1.778   6.919 -0.0533  0.0766 -0.0065
 5762SOL    HW128922   1.587   1.800   6.964 -1.2185  0.4871  1.9072
 5762SOL    HW228923   1.488   1.867   6.887  0.1468 -0.0503 -0.4596
 5763SOL     OW28924   0.031   1.453   7.897 -0.0485 -0.5970 -0.1253
 5763SOL    HW128925   4.682   1.475   7.932 -0.1867  1.7869 -1.9473
 5763SOL    HW228926   0.057   1.535   7.855 -2.3811  1.1889  1.8899
 5764SOL     OW28927   2.486   1.640   2.968 -0.1049 -0.0458  0.3299
 5764SOL    HW128928   2.557   1.685   2.921 -0.0006 -0.2726  0.2693
 5764SOL    HW228929   2.429   1.715   2.986 -1.8483 -1.1961 -0.4657
 5765SOL     OW28930   1.251   4.517   2.694  0.0346  0.4682  0.0309
 5765SOL    HW128931   1.174   4.527   2.638  0.0178 -1.5218 -0.2953
 5765SOL    HW228932   1.215   4.515   2.782  0.5991 -1.5654  0.2069
 5766SOL     OW28933   1.491   2.241   5.771 -0.0320 -0.6641 -0.1811
 5766SOL    HW128934   1.532   2.309   5.825 -0.3356  0.4907 -1.3774
 5766SOL    HW228935   1.519   2.260   5.681 -1.5135  2.7140  0.0636
 5767SOL     OW28936   3.055   0.875   6.785 -0.3751  0.0962 -0.4559
 5767SOL    HW128937   3.045   0.901   6.877  0.0819  4.0537 -1.5342
 5767SOL    HW228938   2.978   0.906   6.737 -0.3035  0.4523 -0.3430
 5768SOL     OW28939   3.315   2.096   1.179 -0.0199 -0.9314 -0.1395
 5768SOL    HW128940   3.339   2.149   1.255  1.3249 -0.9261 -0.5534
 5768SOL    HW228941   3.376   2.144   1.122 -0.5485 -1.0800 -0.8345
 5769SOL     OW28942   3.852   2.439   4.945 -0.3343 -0.3391  0.3672
 5769SOL    HW128943   3.804   2.410   4.867  1.2485 -0.0590 -0.7369
 5769SOL    HW228944   3.906   2.512   4.914 -3.1119  0.7280 -1.8685
 5770SOL     OW28945   3.117   2.000   2.456 -0.4703  0.3560 -0.3932
 5770SOL    HW128946   3.198   1.950   2.446  0.3782  1.7231 -0.4143
 5770SOL    HW228947   3.150   2.089   2.442  2.6140 -0.7085  0.2106
 5771SOL     OW28948   3.668   2.634   2.489 -0.0815  0.8022  0.0622
 5771SOL    HW128949   3.643   2.702   2.427 -0.3018 -0.5630 -1.3344
 5771SOL    HW228950   3.730   2.582   2.439 -1.6224  0.7604 -1.8108
 5772SOL     OW28951   1.321   1.939   2.434  0.0472 -0.2271  0.1917
 5772SOL    HW128952   1.234   1.978   2.443 -0.3293 -1.6225  2.4383
 5772SOL    HW228953   1.290   1.849   2.438  2.4098 -1.0876 -1.0550
 5773SOL     OW28954   3.596   4.097   7.047  1.2598 -0.9092 -0.3962
 5773SOL    HW128955   3.537   4.022   7.043  2.6719 -1.9520 -1.5774
 5773SOL    HW228956   3.556   4.135   7.126  3.5223 -1.0488  0.8154
 5774SOL     OW28957   1.489   0.894   6.316  0.0636 -0.5729  0.6814
 5774SOL    HW128958   1.408   0.893   6.367  0.0008  2.4355  0.6213
 5774SOL    HW228959   1.457   0.926   6.232  0.5842 -0.0044  0.7019
 5775SOL     OW28960   2.732   2.854   4.153  0.3463 -0.2838 -0.4783
 5775SOL    HW128961   2.828   2.851   4.157  0.2901 -0.5960  0.7859
 5775SOL    HW228962   2.712   2.943   4.124 -0.9384  0.1641  1.7783
 5776SOL     OW28963   3.966   3.986  14.860 -0.3075 -0.4412  0.8137
 5776SOL    HW128964   4.035   4.052  14.866  0.9106 -1.7812  1.5826
 5776SOL    HW228965   4.012   3.916  14.906  0.0321 -0.7288  0.0331
 5777SOL     OW28966   0.303   3.591   4.014 -0.1936  0.6959  0.0325
 5777SOL    HW128967   0.254   3.510   4.011 -0.4154  0.8441 -0.2959
 5777SOL    HW228968   0.307   3.612   4.108 -1.3796  1.2678 -0.0428
 5778SOL     OW28969   2.812   4.655  17.297 -0.5215 -0.0088  0.2630
 5778SOL    HW128970   2.812   0.001  17.249 -1.5862  1.0898  2.1361
 5778SOL    HW228971   2.725   4.616  17.287  1.0235 -2.9094 -1.7377
 5779SOL     OW28972   0.778   0.405   7.544  0.2082 -0.0550  0.6959
 5779SOL    HW128973   0.838   0.441   7.610 -1.4705  1.0795  1.5989
 5779SOL    HW228974   0.821   0.328   7.506 -0.9484  0.0541 -0.8219
 5780SOL     OW28975   2.874   1.801   7.372  0.1573 -0.1986 -0.1079
 5780SOL    HW128976   2.808   1.780   7.307  1.1133 -0.5022 -0.9637
 5780SOL    HW228977   2.951   1.762   7.332 -0.7127 -1.0492 -0.9532
 5781SOL     OW28978   2.813   2.735  14.274 -0.6382  0.1515  0.6258
 5781SOL    HW128979   2.891   2.688  14.244 -1.3640 -1.2078  0.8594
 5781SOL    HW228980   2.853   2.800  14.331  0.8999  0.8104 -1.1969
 5782SOL     OW28981   4.175   2.672  12.992 -0.6206  0.1077 -0.1085
 5782SOL    HW128982   4.107   2.727  12.954 -0.1628  1.3641  0.9069
 5782SOL    HW228983   4.238   2.731  13.035 -0.8877 -0.0145  0.4530
 5783SOL     OW28984   1.795   4.390   1.638  0.1730  0.8687  0.2906
 5783SOL    HW128985   1.786   4.298   1.615  0.5789  0.8251  0.3057
 5783SOL    HW228986   1.873   4.394   1.694 -0.0022  4.5052  0.2533
 5784SOL     OW28987   3.961   1.019   2.663 -0.3138 -0.2325  0.3269
 5784SOL    HW128988   3.967   1.108   2.698  0.3870 -0.1620  0.0245
 5784SOL    HW228989   3.931   1.036   2.573 -1.9966  1.2039  1.1653
 5785SOL     OW28990   3.146   2.137   4.865  0.1310  0.4383  0.5258
 5785SOL    HW128991   3.076   2.200   4.848  0.6794  0.7101 -0.7496
 5785SOL    HW228992   3.189   2.143   4.780  0.4088  0.0869  0.6367
 5786SOL     OW28993   0.842   1.245   4.877  0.2439 -0.1526  0.0139
 5786SOL    HW128994   0.812   1.156   4.896  2.4286 -0.2588  2.9474
 5786SOL    HW228995   0.935   1.240   4.898 -0.0030 -1.0444  0.9354
 5787SOL     OW28996   3.512   3.936  14.067  0.2481 -0.7454 -0.1490
 5787SOL    HW128997   3.570   4.000  14.108 -0.9347 -1.1675  2.1985
 5787SOL    HW228998   3.452   3.905  14.134  1.2329 -0.5771  0.8057
 5788SOL     OW28999   4.546   1.178  15.731  0.2344 -0.2557 -0.1057
 5788SOL    HW129000   4.557   1.123  15.654  0.2303  1.9722 -1.7132
 5788SOL    HW229001   4.637   1.200  15.753 -0.1502  1.5911 -0.3701
 5789SOL     OW29002   1.165   1.328   8.396 -0.1223 -0.8794  0.0981
 5789SOL    HW129003   1.229   1.265   8.363  0.2269 -1.3075  1.5866
 5789SOL    HW229004   1.217   1.394   8.442  0.9844 -0.0805 -2.2777
 5790SOL     OW29005   1.338   4.252  14.597 -0.1386  0.0531 -0.0386
 5790SOL    HW129006   1.292   4.313  14.655 -0.2196 -0.0579  0.0146
 5790SOL    HW229007   1.312   4.298  14.518 -0.4200 -1.5712 -0.8913
 5791SOL     OW29008   3.331   0.520   5.843  0.4083  0.1313  0.0784
 5791SOL    HW129009   3.388   0.498   5.769 -0.6351  1.8117 -1.2466
 5791SOL    HW229010   3.332   0.616   5.838  0.5786 -0.0782 -4.1245
 5792SOL     OW29011   3.146   3.715   6.759  0.2642  0.2920  0.2875
 5792SOL    HW129012   3.062   3.760   6.762 -0.4558 -1.0579  0.5017
 5792SOL    HW229013   3.157   3.697   6.853  1.9762  0.5349  0.1380
 5793SOL     OW29014   3.394   0.500   7.237  0.8313 -0.0347 -0.2869
 5793SOL    HW129015   3.352   0.453   7.166 -1.8298  1.9611 -0.0105
 5793SOL    HW229016   3.377   0.452   7.318  2.0990 -1.5113 -0.9012
 5794SOL     OW29017   0.869   2.390   1.735 -0.0082  0.5730  0.0912
 5794SOL    HW129018   0.897   2.304   1.768  0.1759  1.0446  1.1575
 5794SOL    HW229019   0.776   2.381   1.716 -0.0370 -3.0057  1.8636
 5795SOL     OW29020   2.575   0.932   3.058 -0.5458 -0.5095  0.3194
 5795SOL    HW129021   2.536   1.019   3.052 -2.6526 -1.3746  1.3358
 5795SOL    HW229022   2.666   0.940   3.087 -0.6264  0.5939  0.2484
 5796SOL     OW29023   1.538   0.506   6.325  0.0986 -0.3229 -0.6936
 5796SOL    HW129024   1.621   0.553   6.339  0.2026 -0.4674 -0.8306
 5796SOL    HW229025   1.501   0.512   6.413 -2.3230  2.7475 -1.9317
 5797SOL     OW29026   0.075   3.919   8.512  0.1648  0.1148 -0.2816
 5797SOL    HW129027   0.132   3.948   8.441  1.0018  0.4351  0.5304
 5797SOL    HW229028   0.140   3.918   8.582  0.5239  0.7185 -0.6169
 5798SOL     OW29029   2.315   4.281   5.895 -0.2863  0.8533 -0.4937
 5798SOL    HW129030   2.408   4.300   5.895 -0.2361  0.6327 -1.2155
 5798SOL    HW229031   2.287   4.342   5.963 -0.1547  0.9380 -0.5160
 5799SOL     OW29032   2.904   3.183   2.278  0.1775 -0.0488  0.4823
 5799SOL    HW129033   2.909   3.210   2.370  2.5805  2.0097 -0.2637
 5799SOL    HW229034   2.981   3.126   2.277  1.2926  1.4529  0.0150
 5800SOL     OW29035   2.548   0.984  11.209 -0.1175 -0.5180  0.0086
 5800SOL    HW129036   2.466   0.937  11.193 -0.6748  0.2207  0.7078
 5800SOL    HW229037   2.595   0.927  11.270  2.4338  1.0322 -0.5243
 5801SOL     OW29038   3.133   1.175   5.200 -0.3144 -0.0178  0.1878
 5801SOL    HW129039   3.192   1.158   5.127  0.4100 -0.1644  0.8049
 5801SOL    HW229040   3.094   1.259   5.173 -0.1240 -0.0470 -0.1766
 5802SOL     OW29041   2.038   2.284   7.053  0.2267 -0.1907  0.4283
 5802SOL    HW129042   2.013   2.227   7.126  0.8803  0.8124  1.4382
 5802SOL    HW229043   1.954   2.328   7.037  1.5865  2.0425 -0.5445
 5803SOL     OW29044   0.023   1.424  13.246  0.5784 -0.4955 -0.1786
 5803SOL    HW129045   0.099   1.365  13.239  0.4702 -0.5256 -1.1817
 5803SOL    HW229046   4.730   1.406  13.335 -0.9658  1.4423 -0.3016
 5804SOL     OW29047   4.440   1.933   3.638  0.1808 -0.0619  0.4522
 5804SOL    HW129048   4.373   1.982   3.687 -1.4488 -2.0403  0.2095
 5804SOL    HW229049   4.494   1.887   3.701 -2.8652 -3.5689  0.4904
 5805SOL     OW29050   3.128   2.446  15.124 -0.1493  0.2503 -0.2035
 5805SOL    HW129051   3.209   2.482  15.160 -0.3072  1.6379 -1.2846
 5805SOL    HW229052   3.093   2.420  15.209 -0.4550 -0.2775 -0.4910
 5806SOL     OW29053   1.717   2.774  12.335  0.5281  0.6129 -0.1335
 5806SOL    HW129054   1.708   2.783  12.430 -1.3565 -1.4064 -0.1420
 5806SOL    HW229055   1.782   2.845  12.325  0.2742  1.0037  0.9621
 5807SOL     OW29056   3.191   3.836   1.205 -0.0178  0.3471 -0.0630
 5807SOL    HW129057   3.115   3.831   1.263  0.8433 -0.3468  1.0094
 5807SOL    HW229058   3.249   3.886   1.263  0.8332 -1.2684  0.4804
 5808SOL     OW29059   1.571   4.640   0.245 -0.1181  0.0726  0.0506
 5808SOL    HW129060   1.566   4.558   0.294 -1.8227  0.2258  0.1427
 5808SOL    HW229061   1.607   4.606   0.164 -1.0369 -0.8997  0.0506
 5809SOL     OW29062   1.574   2.177   8.694  0.3193 -0.2720  0.2975
 5809SOL    HW129063   1.496   2.159   8.642 -0.5535 -2.2697  2.3461
 5809SOL    HW229064   1.593   2.265   8.661 -0.9465  0.2387  0.9357
 5810SOL     OW29065   0.322   2.827   4.804 -0.1079 -0.2011  0.7363
 5810SOL    HW129066   0.394   2.823   4.867 -0.5273  3.0228  1.4130
 5810SOL    HW229067   0.274   2.891   4.856  0.0346 -0.5313  1.2732
 5811SOL     OW29068   1.944   3.931  15.410  0.3296 -0.4604 -0.5026
 5811SOL    HW129069   1.930   4.023  15.387 -2.8084 -0.5370  1.0171
 5811SOL    HW229070   2.031   3.935  15.450  0.3135 -1.6932 -0.3299
 5812SOL     OW29071   4.588   1.284   5.737 -0.0704  0.2008  0.6408
 5812SOL    HW129072   4.644   1.304   5.662 -0.4800  1.5424  0.6882
 5812SOL    HW229073   4.633   1.209   5.776 -0.0020  0.9300  1.9579
 5813SOL     OW29074   0.523   0.528   8.859  0.5899  0.1351 -0.7443
 5813SOL    HW129075   0.559   0.475   8.930  2.9309  0.5428 -1.6039
 5813SOL    HW229076   0.581   0.501   8.788  0.8093 -0.4082 -0.3537
 5814SOL     OW29077   4.702   2.735   4.565 -0.6314  0.1013 -0.9493
 5814SOL    HW129078   4.690   2.830   4.573  1.0610  0.1979  0.4854
 5814SOL    HW229079   4.711   2.723   4.470  1.5368  1.7533 -0.9681
 5815SOL     OW29080   1.510   0.540   8.619  0.0548  0.4356  0.1085
 5815SOL    HW129081   1.438   0.603   8.618  1.5213  2.1150  0.4868
 5815SOL    HW229082   1.468   0.454   8.624 -1.2847  1.2185  2.1789
 5816SOL     OW29083   0.286   0.651   4.111  0.0757  0.1382  0.0753
 5816SOL    HW129084   0.270   0.557   4.099 -1.0741  0.2107  1.0286
 5816SOL    HW229085   0.206   0.679   4.066  0.1683 -1.9864 -1.4113
 5817SOL     OW29086   0.508   4.015   1.008 -0.1272 -0.5687 -0.5425
 5817SOL    HW129087   0.599   4.045   1.012 -0.4503  0.2314  0.5896
 5817SOL    HW229088   0.516   3.925   1.041 -2.8237 -0.0147  1.5760
 5818SOL     OW29089   4.175   2.640  14.261  0.0450 -0.4428 -0.1494
 5818SOL    HW129090   4.270   2.637  14.273 -0.0117 -0.6120  0.2655
 5818SOL    HW229091   4.175   2.664  14.168 -0.5724 -2.7211 -0.7367
 5819SOL     OW29092   3.186   0.127   2.238  0.1730 -0.1284 -0.2917
 5819SOL    HW129093   3.135   0.056   2.276 -0.1682 -0.6023 -1.6348
 5819SOL    HW229094   3.210   0.190   2.307 -2.2821  1.9371 -1.3172
 5820SOL     OW29095   1.237   1.916  13.734  0.2387  0.0756 -0.0487
 5820SOL    HW129096   1.237   1.827  13.769  0.9213 -0.2549 -0.8889
 5820SOL    HW229097   1.153   1.908  13.689  0.8884  0.9510 -1.3988
 5821SOL     OW29098   2.510   0.560   8.504  0.5737 -0.3308 -0.3199
 5821SOL    HW129099   2.594   0.547   8.549 -1.0866 -1.7162  2.3465
 5821SOL    HW229100   2.536   0.593   8.418 -0.4714  2.1776  0.3464
 5822SOL     OW29101   2.633   3.953   1.698  0.6048  0.1180  0.1683
 5822SOL    HW129102   2.728   3.940   1.697  0.6533  0.4885  0.0106
 5822SOL    HW229103   2.625   4.012   1.623 -1.0869 -0.4485 -0.1209
 5823SOL     OW29104   3.864   0.519  12.942  0.6080 -0.0581  0.5659
 5823SOL    HW129105   3.917   0.448  12.976  0.1477  0.2004  1.8118
 5823SOL    HW229106   3.795   0.478  12.890  2.4282 -1.5941 -0.6387
 5824SOL     OW29107   0.297   2.131  11.243  0.1058 -0.5359 -0.3675
 5824SOL    HW129108   0.279   2.038  11.258 -0.4057  0.1354  3.2154
 5824SOL    HW229109   0.263   2.135  11.154  0.6166  0.8465 -0.5061
 5825SOL     OW29110   2.129   1.406  10.377 -0.5676  0.5799 -0.0482
 5825SOL    HW129111   2.172   1.490  10.387  0.1491  0.6952 -4.2117
 5825SOL    HW229112   2.051   1.420  10.432 -0.8960  0.4365 -0.4725
 5826SOL     OW29113   0.423   0.327  13.584  1.0138  0.5363  0.0203
 5826SOL    HW129114   0.432   0.387  13.658 -0.2242 -0.3875  0.9283
 5826SOL    HW229115   0.328   0.320  13.586  1.1744 -1.1201  1.5997
 5827SOL     OW29116   2.747   2.392   2.590  0.1656 -0.8410  0.0003
 5827SOL    HW129117   2.669   2.372   2.539  0.8694  0.0527 -1.4129
 5827SOL    HW229118   2.813   2.342   2.542  0.2473 -0.4584 -0.2923
 5828SOL     OW29119   4.665   4.180   8.515  0.0858  0.1699  0.3826
 5828SOL    HW129120   0.007   4.136   8.483  0.3184  0.4780  0.5276
 5828SOL    HW229121   4.619   4.119   8.573  0.2535  1.1422  1.5548
 5829SOL     OW29122   2.989   0.171  14.591  0.1613  0.2905  0.6532
 5829SOL    HW129123   2.957   0.255  14.556  0.3874 -0.1961 -0.7290
 5829SOL    HW229124   2.977   0.117  14.513  1.6417  0.0512  0.5914
 5830SOL     OW29125   1.278   4.015   6.875  0.6241  0.5521 -0.0611
 5830SOL    HW129126   1.351   4.076   6.875 -0.8888  2.3371  1.0935
 5830SOL    HW229127   1.283   3.968   6.791  0.7088  0.2363  0.1181
 5831SOL     OW29128   3.608   2.677   6.380  0.2760 -0.1560 -0.2409
 5831SOL    HW129129   3.650   2.628   6.310  0.0179 -0.5392 -0.1280
 5831SOL    HW229130   3.557   2.606   6.419  0.9539 -0.6769 -0.3109
 5832SOL     OW29131   3.961   3.570   9.527 -0.1897  0.1835  0.3048
 5832SOL    HW129132   3.926   3.481   9.535  0.8396 -0.4578 -2.0682
 5832SOL    HW229133   4.051   3.559   9.496 -1.0633 -2.6904 -1.2009
 5833SOL     OW29134   1.104   0.076   8.777 -0.3083  0.4772 -0.5425
 5833SOL    HW129135   1.108   0.065   8.872 -1.3189  1.3673 -0.3932
 5833SOL    HW229136   1.140   0.163   8.763 -2.6683  1.7212  1.1305
 5834SOL     OW29137   0.070   4.065  15.982 -0.1476 -0.0775 -0.0781
 5834SOL    HW129138   0.038   4.033  16.067 -1.2989 -1.9178 -1.2084
 5834SOL    HW229139   0.043   3.992  15.926  1.4535 -0.2272 -0.6514
 5835SOL     OW29140   0.099   4.687   6.854 -0.8794  0.3136  0.1434
 5835SOL    HW129141   0.038   4.647   6.793 -0.4273  1.1226 -0.8397
 5835SOL    HW229142   0.131   4.613   6.905 -0.2565  1.0535  0.8150
 5836SOL     OW29143   4.459   1.661   2.473  0.4384  0.0256  0.0839
 5836SOL    HW129144   4.547   1.644   2.438  0.7671  1.4710  0.1879
 5836SOL    HW229145   4.491   1.688   2.559 -1.8634  0.1481  0.8892
 5837SOL     OW29146   0.282   1.269   2.857 -0.1085 -0.2589  0.0757
 5837SOL    HW129147   0.289   1.274   2.952  0.7137  2.9960 -0.1619
 5837SOL    HW229148   0.369   1.240   2.829  0.4838  0.0964  1.5639
 5838SOL     OW29149   0.947   4.403   3.141 -0.3103  0.2343 -0.0636
 5838SOL    HW129150   0.964   4.377   3.232 -1.0053 -0.0435 -0.0108
 5838SOL    HW229151   0.900   4.326   3.108  0.3629  0.0033 -0.4819
 5839SOL     OW29152   4.439   4.444   6.937  0.0219 -0.4897  0.1765
 5839SOL    HW129153   4.406   4.529   6.964 -0.1799 -0.1733 -1.0650
 5839SOL    HW229154   4.362   4.402   6.899 -0.1914  1.4702 -1.5098
 5840SOL     OW29155   4.717   0.879   4.690  0.2382  0.0611  1.1667
 5840SOL    HW129156   4.735   0.918   4.776  3.4513 -3.5447  2.1673
 5840SOL    HW229157   0.049   0.916   4.635 -0.4970 -0.8511 -0.3704
 5841SOL     OW29158   1.136   0.466   3.550 -0.5160 -0.7077 -0.2152
 5841SOL    HW129159   1.108   0.377   3.571 -2.9498 -0.2082 -1.3293
 5841SOL    HW229160   1.052   0.505   3.528 -0.1291  0.2133 -0.0327
 5842SOL     OW29161   0.052   4.100  15.135  0.0922  0.2498 -0.6462
 5842SOL    HW129162   0.079   4.067  15.220  0.7675  1.3331 -0.4435
 5842SOL    HW229163   4.703   4.138  15.154 -0.2397 -0.4526 -0.7366
 5843SOL     OW29164   1.188   0.999   6.732  0.4000  0.1152  0.9488
 5843SOL    HW129165   1.204   1.093   6.731 -1.9077  0.4713 -0.5626
 5843SOL    HW229166   1.275   0.973   6.764 -0.0143 -0.9160  1.2473
 5844SOL     OW29167   4.085   3.786  17.743 -0.1224 -0.1895  0.6678
 5844SOL    HW129168   4.067   3.734  17.665 -0.7849  0.2096  0.5578
 5844SOL    HW229169   4.062   3.869  17.703  0.8818 -1.0410 -1.6746
 5845SOL     OW29170   0.388   1.766  13.646 -0.4798 -0.4395 -0.1116
 5845SOL    HW129171   0.393   1.806  13.560 -1.3580  0.2850  0.1627
 5845SOL    HW229172   0.335   1.842  13.673 -0.5395 -0.4578 -0.1798
 5846SOL     OW29173   2.633   4.498   2.108  0.9720 -0.4100 -0.2241
 5846SOL    HW129174   2.678   4.565   2.159  0.7905 -1.3676  1.2039
 5846SOL    HW229175   2.602   4.445   2.181 -1.6780  0.6543 -0.5681
 5847SOL     OW29176   2.753   1.847   5.951 -0.1267  0.5308  0.1264
 5847SOL    HW129177   2.694   1.874   5.881 -2.0441  0.5011  1.7375
 5847SOL    HW229178   2.812   1.922   5.953  1.5417 -0.7847  0.5936
 5848SOL     OW29179   1.120   0.155  13.176  0.4121 -0.5782 -0.3449
 5848SOL    HW129180   1.158   0.164  13.264  1.2468  1.9981 -0.9899
 5848SOL    HW229181   1.185   0.170  13.108 -0.9819  2.3149 -1.0302
 5849SOL     OW29182   2.344   1.683   0.442  0.1868  0.0215  0.4946
 5849SOL    HW129183   2.381   1.753   0.389 -1.2618 -0.8582 -1.6600
 5849SOL    HW229184   2.387   1.603   0.411  1.4580  1.9805 -2.8203
 5850SOL     OW29185   1.244   2.037   4.818 -0.0541 -0.0125  0.2803
 5850SOL    HW129186   1.278   2.113   4.865  1.4864 -0.6297  0.1760
 5850SOL    HW229187   1.294   1.984   4.880  0.6522  2.0808  1.5212
 5851SOL     OW29188   3.647   1.260  17.273 -0.7324  1.0084  0.1504
 5851SOL    HW129189   3.726   1.268  17.220 -0.8627  1.6901  0.0614
 5851SOL    HW229190   3.577   1.260  17.207  1.3820  0.5770 -2.1238
 5852SOL     OW29191   2.023   0.160   2.964  0.0315  0.1680  0.4941
 5852SOL    HW129192   2.029   0.245   3.008 -1.1724 -0.1311  1.2460
 5852SOL    HW229193   2.057   0.104   3.035 -0.1405 -2.1499 -1.2489
 5853SOL     OW29194   4.242   3.327   2.702 -1.2498  0.1677  0.3175
 5853SOL    HW129195   4.221   3.251   2.647  0.0512 -0.1853  0.3104
 5853SOL    HW229196   4.283   3.393   2.646  0.7205  0.4151  2.0624
 5854SOL     OW29197   1.625   3.416  14.247 -0.0039 -0.4459 -0.3996
 5854SOL    HW129198   1.671   3.484  14.198 -1.1748  1.5432  1.2314
 5854SOL    HW229199   1.545   3.468  14.254 -0.3645 -1.1037  0.4011
 5855SOL     OW29200   3.449   2.226   7.455  0.4439 -0.0673 -0.5311
 5855SOL    HW129201   3.489   2.215   7.542 -2.1654 -0.0849  0.6501
 5855SOL    HW229202   3.357   2.234   7.480  1.1113  1.5778  1.3813
 5856SOL     OW29203   0.479   3.861   4.625 -0.4447  0.1050 -0.4380
 5856SOL    HW129204   0.545   3.812   4.576 -0.5063 -0.4248  0.0143
 5856SOL    HW229205   0.527   3.914   4.688 -0.6592 -0.6496  0.3504
 5857SOL     OW29206   1.229   1.290  12.529  0.0332  0.3612 -0.1385
 5857SOL    HW129207   1.220   1.219  12.466 -1.7476  0.0105  0.5011
 5857SOL    HW229208   1.184   1.252  12.605  0.0342 -1.9349 -1.3135
 5858SOL     OW29209   0.754   0.404   3.600 -0.0878  0.2117 -0.4573
 5858SOL    HW129210   0.770   0.341   3.670 -2.2062  2.0851  1.7003
 5858SOL    HW229211   0.669   0.371   3.572 -0.9876  1.8852  0.3172
 5859SOL     OW29212   0.951   1.938  12.350 -0.1783  0.2490  1.3325
 5859SOL    HW129213   0.914   1.891  12.426  0.1967 -2.8324 -0.3868
 5859SOL    HW229214   0.964   2.026  12.386 -0.7547  0.6460  0.5719
 5860SOL     OW29215   0.388   3.417  12.698  0.4602  0.1565  0.4320
 5860SOL    HW129216   0.421   3.357  12.765  0.6875 -1.3980 -1.0755
 5860SOL    HW229217   0.395   3.347  12.633 -0.5222  0.7955 -0.3689
 5861SOL     OW29218   0.913   2.613   8.895 -0.7387 -0.5762 -0.3922
 5861SOL    HW129219   0.913   2.707   8.909  0.2254 -0.4963 -0.9802
 5861SOL    HW229220   1.003   2.596   8.869 -0.6727  0.1936 -0.6434
 5862SOL     OW29221   3.676   0.703   6.033  0.2067 -0.3044 -0.0033
 5862SOL    HW129222   3.647   0.613   6.043 -1.4788  0.2364 -0.0126
 5862SOL    HW229223   3.752   0.678   5.981  1.2075 -0.6273  1.5969
 5863SOL     OW29224   1.562   3.401   8.291  0.0223 -0.1462 -0.2924
 5863SOL    HW129225   1.520   3.330   8.243  2.1473 -0.3714 -1.7957
 5863SOL    HW229226   1.619   3.357   8.354  1.0370  0.3242 -0.8754
 5864SOL     OW29227   3.344   3.739   3.166 -0.0117  0.1197  0.1507
 5864SOL    HW129228   3.274   3.674   3.175  1.1140 -0.9904  0.8694
 5864SOL    HW229229   3.299   3.823   3.154  1.8451  0.5969 -3.5362
 5865SOL     OW29230   1.559   3.137   2.001  0.3046  0.0577 -0.6097
 5865SOL    HW129231   1.624   3.087   1.952  1.3025  0.6239  0.1495
 5865SOL    HW229232   1.485   3.077   1.988  0.0733  0.1543  0.2816
 5866SOL     OW29233   3.966   2.441   7.846  0.1052 -0.0864  0.3494
 5866SOL    HW129234   3.969   2.354   7.805  0.0338  0.9679 -1.8969
 5866SOL    HW229235   4.011   2.503   7.789 -0.2530 -0.5410 -0.4313
 5867SOL     OW29236   1.228   1.525   8.708  0.4506 -0.0423 -0.3590
 5867SOL    HW129237   1.158   1.581   8.676  0.7406 -0.2249 -1.3202
 5867SOL    HW229238   1.292   1.543   8.639  0.9730 -0.5510 -0.0040
 5868SOL     OW29239   1.108   2.996   4.083 -0.3668 -0.1087  0.4457
 5868SOL    HW129240   1.191   3.003   4.131  0.1229 -1.2702 -0.2312
 5868SOL    HW229241   1.124   2.934   4.012 -0.4988 -0.3580  0.6339
 5869SOL     OW29242   4.049   0.656   3.632  0.4532  0.2055 -0.2269
 5869SOL    HW129243   4.006   0.586   3.583  0.2817 -0.4630  0.8569
 5869SOL    HW229244   4.090   0.712   3.567 -0.3718 -0.3376 -1.2143
 5870SOL     OW29245   1.656   2.029   5.317  0.4761  0.0761  0.0020
 5870SOL    HW129246   1.590   2.025   5.386  1.1715 -0.2740  0.6533
 5870SOL    HW229247   1.604   1.998   5.244  0.6696  0.2257 -0.1992
 5871SOL     OW29248   2.648   4.431   7.958  0.4512  0.9236 -0.2039
 5871SOL    HW129249   2.693   4.434   8.042  0.9498  0.2710 -0.4492
 5871SOL    HW229250   2.571   4.482   7.984  1.0348  1.0758  1.2068
 5872SOL     OW29251   3.134   1.249  17.072 -0.0424  0.2803  0.1604
 5872SOL    HW129252   3.086   1.188  17.128 -1.4984  0.3559 -1.0135
 5872SOL    HW229253   3.160   1.315  17.137  0.4148 -0.7522  1.0228
 5873SOL     OW29254   4.557   4.711   9.839 -0.0629 -0.1641  0.3294
 5873SOL    HW129255   4.559   0.069   9.822  2.7085 -0.7303 -2.5122
 5873SOL    HW229256   4.626   4.707   9.905 -0.7704 -1.6218  0.9722
 5874SOL     OW29257   2.957   1.192   5.906 -0.5798  0.0535 -0.4281
 5874SOL    HW129258   2.942   1.172   5.998 -1.2789  2.7465  0.0377
 5874SOL    HW229259   3.034   1.138   5.890  0.5922  1.8167 -0.7054
 5875SOL     OW29260   3.524   1.101  17.639  0.0042 -0.0138 -0.4617
 5875SOL    HW129261   3.546   1.089  17.547  1.9698 -0.7235  0.1150
 5875SOL    HW229262   3.535   1.018  17.685 -0.7673 -0.9954 -2.0187
 5876SOL     OW29263   1.227   3.627  13.493  0.2486  0.5087 -0.1175
 5876SOL    HW129264   1.158   3.684  13.459 -2.4140 -0.8929  2.9412
 5876SOL    HW229265   1.281   3.692  13.537 -2.1178  1.9136  0.6963
 5877SOL     OW29266   2.891   3.492   4.601 -0.2962  0.1421 -0.1282
 5877SOL    HW129267   2.951   3.525   4.669  0.8276 -1.7081 -0.2329
 5877SOL    HW229268   2.821   3.557   4.602  0.9202  1.4445  1.7376
 5878SOL     OW29269   0.413   3.356   6.434  0.0662 -0.4279  0.0461
 5878SOL    HW129270   0.396   3.431   6.377  0.4151  0.6852  1.4011
 5878SOL    HW229271   0.369   3.292   6.378  0.0530 -0.5327  0.1767
 5879SOL     OW29272   3.476   0.799  10.627  0.3845  0.3594  0.0488
 5879SOL    HW129273   3.488   0.744  10.705  0.1817 -2.0053 -1.5944
 5879SOL    HW229274   3.556   0.852  10.623 -0.2115  1.2230 -0.4511
 5880SOL     OW29275   1.719   0.671  15.084 -0.6391  0.5219 -0.2570
 5880SOL    HW129276   1.670   0.605  15.034 -1.9590  0.3098  1.3237
 5880SOL    HW229277   1.659   0.744  15.070  0.1072  1.3452  0.9069
 5881SOL     OW29278   4.035   0.002  13.278  0.2088  0.4026 -0.0713
 5881SOL    HW129279   3.957   0.039  13.320  1.0080  1.8706  0.1288
 5881SOL    HW229280   4.021   0.051  13.198  0.2258  3.8406  2.0388
 5882SOL     OW29281   3.638   0.221  16.971  0.5072 -0.3310  0.1014
 5882SOL    HW129282   3.586   0.183  17.042  0.6369  0.2509  0.5073
 5882SOL    HW229283   3.604   0.310  16.961  0.4217 -0.4614 -0.7644
 5883SOL     OW29284   4.049   1.292   5.630  0.1091  0.5247  0.5437
 5883SOL    HW129285   4.053   1.388   5.630  0.8315  0.4923  0.6630
 5883SOL    HW229286   4.138   1.273   5.657 -0.2652 -0.2960  1.1828
 5884SOL     OW29287   1.775   2.524   5.261  0.1899 -0.3452 -0.0321
 5884SOL    HW129288   1.807   2.464   5.328 -4.0481 -1.8636  0.6377
 5884SOL    HW229289   1.755   2.464   5.189  0.6718 -0.1227 -0.3522
 5885SOL     OW29290   0.049   1.401   3.195 -0.4810  0.0408 -0.6521
 5885SOL    HW129291   4.718   1.350   3.238  0.8288 -0.1878  1.1197
 5885SOL    HW229292   4.718   1.458   3.158  1.1158  0.3534 -3.1606
 5886SOL     OW29293   3.661   0.878   4.706 -0.3101 -0.2555 -0.7222
 5886SOL    HW129294   3.571   0.911   4.711 -1.0949 -2.2315 -1.9112
 5886SOL    HW229295   3.675   0.855   4.798 -0.5113  2.0411 -0.1068
 5887SOL     OW29296   0.979   0.738   8.579  0.1369  0.2473 -0.3663
 5887SOL    HW129297   1.056   0.713   8.529 -0.3137  0.0999 -0.9802
 5887SOL    HW229298   1.015   0.810   8.631  0.1557  0.8949 -1.2822
 5888SOL     OW29299   1.186   0.709   6.649  0.3316 -0.0986 -0.0997
 5888SOL    HW129300   1.098   0.680   6.674  0.8616 -1.3377  0.3205
 5888SOL    HW229301   1.208   0.771   6.719  0.1544 -0.2687  0.1049
 5889SOL     OW29302   2.102   3.034   8.175 -0.2724  0.0251  0.1440
 5889SOL    HW129303   2.078   2.948   8.139  1.2805 -0.1207 -0.5418
 5889SOL    HW229304   2.172   3.061   8.117 -0.9416 -1.6542 -1.4447
 5890SOL     OW29305   2.199   4.087   3.590 -0.9264 -0.2930  0.4415
 5890SOL    HW129306   2.247   4.035   3.655  1.8600  2.5214  0.6771
 5890SOL    HW229307   2.161   4.023   3.530  0.7547 -0.9800  0.1102
 5891SOL     OW29308   1.974   0.283   0.677 -0.3242  0.1381  0.7001
 5891SOL    HW129309   2.002   0.196   0.649 -0.1993 -0.0180  1.3306
 5891SOL    HW229310   1.891   0.264   0.720 -1.4865 -0.0493 -1.6046
 5892SOL     OW29311   0.328   2.729  14.259 -0.3137 -0.3113  0.3937
 5892SOL    HW129312   0.282   2.812  14.250 -1.1335 -0.8063 -0.0209
 5892SOL    HW229313   0.392   2.734  14.188 -1.3299 -3.9179 -0.8036
 5893SOL     OW29314   4.144   4.223  14.854  0.0794  0.2861  0.6306
 5893SOL    HW129315   4.235   4.221  14.825 -0.1250 -2.5576  0.2248
 5893SOL    HW229316   4.146   4.301  14.910  0.8953  0.3471  0.5154
 5894SOL     OW29317   1.312   1.129   8.318  0.3348  0.1239 -0.3263
 5894SOL    HW129318   1.381   1.080   8.363 -0.1023 -2.9548 -2.9595
 5894SOL    HW229319   1.333   1.103   8.228 -0.4905 -3.0153  0.3751
 5895SOL     OW29320   3.517   0.632   0.022  0.1725 -0.4597  0.9236
 5895SOL    HW129321   3.478   0.548  17.741  0.5094 -1.0728  2.3688
 5895SOL    HW229322   3.601   0.590   0.038  0.2079 -0.3567  1.0047
 5896SOL     OW29323   0.832   1.550   2.308 -0.5177  0.2152  0.0548
 5896SOL    HW129324   0.772   1.490   2.352 -0.3928  1.4196  1.8766
 5896SOL    HW229325   0.860   1.488   2.240 -2.6923  0.1008 -0.7364
 5897SOL     OW29326   1.743   0.091   2.914 -0.1582 -0.4035  0.2608
 5897SOL    HW129327   1.825   0.122   2.951  0.5002  0.0020 -1.5225
 5897SOL    HW229328   1.676   0.113   2.977  0.8112  0.1391  1.0967
 5898SOL     OW29329   3.198   3.856   5.589 -0.1130 -0.1678 -0.0577
 5898SOL    HW129330   3.282   3.888   5.619  0.5913 -1.8814 -0.1812
 5898SOL    HW229331   3.152   3.939   5.581 -0.0348  0.0365  1.6453
 5899SOL     OW29332   2.003   2.924   6.081  0.8558  0.0928  0.9878
 5899SOL    HW129333   1.945   2.958   6.149 -1.1448  2.2339 -1.7592
 5899SOL    HW229334   2.045   2.852   6.128  2.2585 -0.0010 -0.4078
 5900SOL     OW29335   2.993   1.451   8.208  0.1639  0.4677 -0.8077
 5900SOL    HW129336   3.057   1.390   8.171 -0.4974 -0.4641 -0.4039
 5900SOL    HW229337   2.916   1.395   8.208  0.7882 -0.4011  1.4310
 5901SOL     OW29338   2.318   0.349   3.918  0.3533  0.1901 -0.3240
 5901SOL    HW129339   2.310   0.306   4.003  0.8790  2.4046  0.8622
 5901SOL    HW229340   2.231   0.354   3.878  0.7359  3.3400 -0.7858
 5902SOL     OW29341   1.627   2.801   5.372 -0.6097 -0.6801  0.2517
 5902SOL    HW129342   1.703   2.743   5.373 -1.4489 -1.7824  0.8143
 5902SOL    HW229343   1.615   2.826   5.463  2.3054  0.6755  0.2462
 5903SOL     OW29344   1.738   4.178   6.451  0.3072  0.3344  0.3114
 5903SOL    HW129345   1.768   4.095   6.487  1.1649  0.1386 -0.8606
 5903SOL    HW229346   1.818   4.215   6.414 -1.1853  1.8853 -1.4411
 5904SOL     OW29347   2.470   2.894  16.807  0.2181 -0.5551  0.2461
 5904SOL    HW129348   2.511   2.961  16.862  0.9025 -0.3665 -0.4828
 5904SOL    HW229349   2.376   2.908  16.797  0.7127  1.4302 -1.8164
 5905SOL     OW29350   3.548   0.931   3.967 -0.0355 -0.1357  0.1618
 5905SOL    HW129351   3.640   0.935   3.991 -0.3634  0.6641  1.2640
 5905SOL    HW229352   3.546   0.835   3.967  0.3542 -0.1319  1.3911
 5906SOL     OW29353   0.169   2.756   2.781  0.2732 -0.2297 -0.1528
 5906SOL    HW129354   0.105   2.776   2.713  0.7141  0.0769 -0.4736
 5906SOL    HW229355   0.175   2.663   2.761 -3.4407 -0.3048 -0.9045
 5907SOL     OW29356   3.979   2.679   9.311  0.4010  0.1108 -0.3289
 5907SOL    HW129357   3.991   2.616   9.383  0.8221 -0.2075 -0.6752
 5907SOL    HW229358   4.020   2.642   9.233  1.7618  1.7387 -0.3920
 5908SOL     OW29359   1.095   4.568  17.242  0.5794  0.7651  0.0859
 5908SOL    HW129360   1.136   4.653  17.256  2.3404 -0.1969  0.8595
 5908SOL    HW229361   1.142   4.536  17.165 -0.5225 -2.4479  0.7329
 5909SOL     OW29362   2.718   4.471   1.840 -0.5990  0.4779 -0.3437
 5909SOL    HW129363   2.778   4.399   1.860 -1.3742  0.4684  1.9415
 5909SOL    HW229364   2.693   4.484   1.931 -1.1741 -2.5245 -0.1031
 5910SOL     OW29365   3.221   4.011   3.167 -0.1501 -0.0716 -0.2878
 5910SOL    HW129366   3.196   4.081   3.106  0.6575 -0.1341 -0.7000
 5910SOL    HW229367   3.303   4.053   3.194 -0.7492 -0.2078  1.7363
 5911SOL     OW29368   4.240   3.159   1.231 -0.2614 -0.3449  0.4244
 5911SOL    HW129369   4.316   3.212   1.209  1.1907 -2.5636  0.0647
 5911SOL    HW229370   4.174   3.199   1.175  0.7341 -0.9650 -1.1957
 5912SOL     OW29371   0.782   0.853   9.963  0.1217 -0.2141  0.7999
 5912SOL    HW129372   0.762   0.803  10.042  0.3683 -1.5568  0.0077
 5912SOL    HW229373   0.711   0.819   9.909  0.4905  2.1332 -1.2087
 5913SOL     OW29374   4.011   2.598   8.736  0.2511 -0.0142  0.3380
 5913SOL    HW129375   4.067   2.574   8.662  0.4562  0.9891  0.1625
 5913SOL    HW229376   3.921   2.572   8.715  0.6701 -1.1289 -0.0734
 5914SOL     OW29377   0.186   0.034  10.620 -0.0609  0.2537  0.5782
 5914SOL    HW129378   0.211   4.712  10.691  0.7748 -0.1513 -0.0390
 5914SOL    HW229379   0.157   0.110  10.669  0.3854 -0.4863  1.9713
 5915SOL     OW29380   0.761   1.452   3.834  0.3598 -0.2791  0.4772
 5915SOL    HW129381   0.845   1.456   3.790 -0.0212 -2.9876 -0.5089
 5915SOL    HW229382   0.780   1.486   3.921 -0.9210 -0.8396  0.9864
 5916SOL     OW29383   4.376   1.507   4.549  0.0914 -0.1906 -0.6763
 5916SOL    HW129384   4.357   1.532   4.640 -1.5619 -0.2731 -1.0085
 5916SOL    HW229385   4.325   1.426   4.540 -1.5169  0.8459 -0.7724
 5917SOL     OW29386   3.782   2.620  12.839 -0.1514  0.1302 -0.5061
 5917SOL    HW129387   3.789   2.539  12.789 -0.3973  0.4837 -1.1189
 5917SOL    HW229388   3.698   2.601  12.882 -0.6086 -1.1730 -1.9610
 5918SOL     OW29389   0.952   3.167   8.427 -0.1364  0.4374 -0.1285
 5918SOL    HW129390   0.877   3.165   8.367 -0.8872 -4.8137  0.9633
 5918SOL    HW229391   0.908   3.138   8.507  2.1168  1.7537  1.5707
 5919SOL     OW29392   0.989   0.784   1.433  0.2372  0.2100  0.4815
 5919SOL    HW129393   1.057   0.835   1.388 -1.5883 -0.1665 -2.6985
 5919SOL    HW229394   0.975   0.716   1.367 -1.7621  2.2580 -1.1967
 5920SOL     OW29395   3.925   3.836   4.293  0.4254  0.2544 -1.1323
 5920SOL    HW129396   3.926   3.904   4.225 -2.9577  0.7411 -0.7090
 5920SOL    HW229397   4.003   3.786   4.267  1.1965  0.1200  1.4265
 5921SOL     OW29398   0.470   1.540   3.506  0.7729  0.2394  0.1186
 5921SOL    HW129399   0.392   1.568   3.459  1.0044 -0.2973 -0.5789
 5921SOL    HW229400   0.503   1.465   3.457  2.0071  0.0484  1.2357
 5922SOL     OW29401   3.582   4.511   2.721  0.0901  0.1770 -0.6623
 5922SOL    HW129402   3.646   4.580   2.712  0.1284  0.2246 -0.0402
 5922SOL    HW229403   3.503   4.562   2.705 -0.5139  0.0006  1.6583
 5923SOL     OW29404   1.118   1.978  12.809 -0.3809 -0.1434  0.5073
 5923SOL    HW129405   1.083   1.889  12.801  2.2655 -1.1393  0.1205
 5923SOL    HW229406   1.185   1.970  12.876 -0.4207 -0.8391  0.4652
 5924SOL     OW29407   4.399   0.765   2.357 -0.3302 -0.2804 -0.2375
 5924SOL    HW129408   4.333   0.804   2.415  0.0039 -0.6651  0.3986
 5924SOL    HW229409   4.430   0.698   2.417 -0.3594  1.3437  1.6136
 5925SOL     OW29410   0.324   3.075   8.777  0.2683 -0.1916 -0.2761
 5925SOL    HW129411   0.403   3.082   8.830  0.4675  2.3308 -0.8609
 5925SOL    HW229412   0.268   3.092   8.852  0.5600  1.0994 -0.3369
 5926SOL     OW29413   4.303   3.332   9.247 -0.3090  0.4338 -1.0982
 5926SOL    HW129414   4.301   3.237   9.239  0.7235  0.2703  0.6695
 5926SOL    HW229415   4.384   3.357   9.203  0.4081 -0.9110 -0.5136
 5927SOL     OW29416   4.092   3.568   0.720  0.5369  0.1511  0.1324
 5927SOL    HW129417   4.145   3.640   0.686  1.3498 -0.3771  0.2887
 5927SOL    HW229418   4.024   3.557   0.654  1.7777 -0.2028 -1.1015
 5928SOL     OW29419   1.989   4.203  15.410 -0.3667  0.8273  0.2537
 5928SOL    HW129420   2.032   4.268  15.356  0.3247  0.4851  0.3997
 5928SOL    HW229421   2.050   4.195  15.483 -1.1494 -0.4004  0.7888
 5929SOL     OW29422   0.638   1.010   1.296 -0.5621  0.3172  0.0446
 5929SOL    HW129423   0.641   1.063   1.376  0.5443 -1.6728  1.3348
 5929SOL    HW229424   0.617   0.927   1.338 -3.1302  1.5270  1.1229
 5930SOL     OW29425   3.996   3.340  11.711  0.3259  0.1385 -0.2151
 5930SOL    HW129426   3.983   3.404  11.782  0.6231 -0.8200  0.7096
 5930SOL    HW229427   4.082   3.364  11.676 -0.1024  0.9062 -0.7335
 5931SOL     OW29428   3.839   0.133  13.394  0.5305 -0.4123  0.0580
 5931SOL    HW129429   3.790   0.124  13.476  0.3739 -0.5573 -0.0497
 5931SOL    HW229430   3.777   0.185  13.343  1.2207 -1.1250 -1.4961
 5932SOL     OW29431   1.173   1.668   6.757 -0.1816  0.5053 -0.4344
 5932SOL    HW129432   1.129   1.585   6.772  1.3300 -0.6188 -2.2579
 5932SOL    HW229433   1.172   1.699   6.848 -1.3457 -0.3607 -0.1626
 5933SOL     OW29434   2.887   3.016  12.137  0.2756  0.6995 -0.1642
 5933SOL    HW129435   2.907   2.953  12.205  0.1055  1.0142  0.1766
 5933SOL    HW229436   2.927   3.096  12.172 -0.1610  0.1644  1.5420
 5934SOL     OW29437   4.458   3.019   3.548 -0.9863 -0.5186 -0.4386
 5934SOL    HW129438   4.521   3.091   3.547 -3.5247  1.7015 -1.5862
 5934SOL    HW229439   4.392   3.050   3.610 -2.4976  0.1370 -2.3733
 5935SOL     OW29440   2.112   4.689   3.139 -0.0685 -0.2780  0.5686
 5935SOL    HW129441   2.070   4.698   3.224  2.8153  0.2106  1.9630
 5935SOL    HW229442   2.152   4.602   3.146 -0.3356 -0.6235 -2.2411
 5936SOL     OW29443   4.359   2.947   2.198 -0.0905  0.1266 -0.1625
 5936SOL    HW129444   4.325   2.977   2.113 -0.9330 -0.7328 -0.1319
 5936SOL    HW229445   4.377   3.035   2.231  3.3551 -0.4328 -0.6297
 5937SOL     OW29446   0.469   1.885   2.609 -0.4521  0.3526  0.2905
 5937SOL    HW129447   0.467   1.824   2.683 -1.9391  1.5689  1.2519
 5937SOL    HW229448   0.514   1.838   2.538  3.3327  3.2263  0.7674
 5938SOL     OW29449   3.696   4.181   4.119  0.1685 -0.3662 -0.1499
 5938SOL    HW129450   3.719   4.219   4.034 -0.6077  3.1595  1.2047
 5938SOL    HW229451   3.749   4.102   4.122  0.6814  0.0218  1.1828
 5939SOL     OW29452   0.989   2.861   3.558 -0.3866  0.2200  0.0915
 5939SOL    HW129453   1.075   2.843   3.595  0.0170 -2.1332 -1.9866
 5939SOL    HW229454   0.998   2.955   3.546 -1.3096  0.7893  3.8335
 5940SOL     OW29455   1.390   1.358   4.317  0.3046  0.0533  0.0501
 5940SOL    HW129456   1.420   1.362   4.408 -0.8996  2.2589  0.3628
 5940SOL    HW229457   1.414   1.266   4.310  1.4375  0.4739 -1.3970
 5941SOL     OW29458   0.908   2.231   9.672  0.0801  0.2522 -0.3767
 5941SOL    HW129459   0.828   2.235   9.724  0.8400 -1.1922  0.9040
 5941SOL    HW229460   0.870   2.249   9.587  0.8194  1.3983 -0.4588
 5942SOL     OW29461   0.637   3.106   1.074  0.3346  0.5189 -0.1143
 5942SOL    HW129462   0.662   3.196   1.052 -1.2912  1.5187  2.1630
 5942SOL    HW229463   0.609   3.077   0.987 -2.1691  3.0474 -0.1509
 5943SOL     OW29464   1.170   3.135  15.951  0.7247  0.0557 -0.1501
 5943SOL    HW129465   1.179   3.210  15.894  0.1360  0.7429  0.6625
 5943SOL    HW229466   1.258   3.135  15.989  0.5896 -2.0369  0.1698
 5944SOL     OW29467   2.714   3.290   7.752  0.0850 -0.1687  0.0344
 5944SOL    HW129468   2.629   3.277   7.794  0.7064 -0.6332  1.1505
 5944SOL    HW229469   2.694   3.281   7.659 -1.3764 -0.4317  0.3778
 5945SOL     OW29470   3.396   3.955  10.460  0.2364 -0.0004 -0.4845
 5945SOL    HW129471   3.383   4.016  10.533 -0.5334 -0.3779 -0.3047
 5945SOL    HW229472   3.316   3.903  10.464  0.5803 -0.6219 -1.6996
 5946SOL     OW29473   3.352   1.941   5.441  0.3986  0.1084  0.2932
 5946SOL    HW129474   3.348   1.949   5.346  2.2707  0.4777  0.2442
 5946SOL    HW229475   3.359   1.846   5.454 -0.0097  0.2492  1.5136
 5947SOL     OW29476   1.423   0.425   4.727 -0.0856  0.1641  0.2592
 5947SOL    HW129477   1.471   0.475   4.662 -1.1637 -0.8704 -1.3310
 5947SOL    HW229478   1.442   0.336   4.697 -0.5438  0.3173 -0.4782
 5948SOL     OW29479   3.246   0.636  17.641 -0.4316  0.1644  0.2274
 5948SOL    HW129480   3.336   0.641  17.673 -0.7647  2.3593  0.8286
 5948SOL    HW229481   3.243   0.546  17.607  1.3453 -0.8626  2.7486
 5949SOL     OW29482   2.772   2.963   4.495  0.1656  0.0055 -0.2198
 5949SOL    HW129483   2.749   3.022   4.567  2.7994  2.8651 -1.7342
 5949SOL    HW229484   2.714   3.000   4.428  1.9631  1.8067 -0.7603
 5950SOL     OW29485   4.588   1.936   8.952  0.2598 -0.0765  0.2870
 5950SOL    HW129486   4.658   1.871   8.942 -0.7569 -1.1143 -0.1317
 5950SOL    HW229487   4.549   1.913   9.036  1.3794 -1.3437  0.4743
 5951SOL     OW29488   0.889   1.993   5.952 -0.0826 -0.1478  0.3257
 5951SOL    HW129489   0.816   2.049   5.980 -2.3483 -2.6282 -0.6721
 5951SOL    HW229490   0.958   2.018   6.014  1.4061 -0.9872 -1.0095
 5952SOL     OW29491   4.375   4.608  16.263  0.3792  0.4604 -0.1312
 5952SOL    HW129492   4.439   4.600  16.333  0.0182  1.1608  0.2678
 5952SOL    HW229493   4.368   4.517  16.231  1.3880  0.5680 -0.6807
 5953SOL     OW29494   0.912   2.971   7.872  0.1294 -0.3099 -0.7315
 5953SOL    HW129495   0.928   3.018   7.954 -2.0877 -1.2627  0.2367
 5953SOL    HW229496   0.831   3.016   7.851  0.9555  1.6620  0.2920
 5954SOL     OW29497   0.341   1.763   7.321 -0.6160 -0.1994 -0.3435
 5954SOL    HW129498   0.338   1.700   7.249 -3.3913 -0.6343  0.1488
 5954SOL    HW229499   0.348   1.839   7.263  5.8353 -0.1449  0.5194
 5955SOL     OW29500   0.804   0.659   9.150  0.1947  0.3118 -0.7012
 5955SOL    HW129501   0.876   0.716   9.123  0.2430  0.3327 -0.5254
 5955SOL    HW229502   0.736   0.698   9.095  1.9181  0.7322 -2.5485
 5956SOL     OW29503   0.033   4.241  15.370  0.0997 -0.1410  0.3477
 5956SOL    HW129504   4.686   4.241  15.416  0.9977  0.1026  1.9974
 5956SOL    HW229505   0.082   4.243  15.452  1.6569  1.8817 -0.6087
 5957SOL     OW29506   1.906   1.907   3.492 -0.0678  0.2137 -0.0174
 5957SOL    HW129507   1.816   1.927   3.515  0.3724 -1.1138  2.8525
 5957SOL    HW229508   1.908   1.900   3.396 -0.1501  1.7244 -0.1361
 5958SOL     OW29509   1.139   1.864  11.745  0.9854  0.1238 -0.1261
 5958SOL    HW129510   1.132   1.897  11.834  1.7686 -0.1803  0.0465
 5958SOL    HW229511   1.146   1.948  11.700  0.4388  0.8277  1.1181
 5959SOL     OW29512   4.430   2.056   8.109 -0.0720 -0.6850  0.1384
 5959SOL    HW129513   4.415   2.125   8.174 -0.6070  0.0127 -0.7207
 5959SOL    HW229514   4.489   1.991   8.147  0.9235  0.4805  0.5638
 5960SOL     OW29515   3.229   3.769   7.440  0.5651  0.1568  0.2459
 5960SOL    HW129516   3.135   3.778   7.424  1.3032  2.9371 -2.4270
 5960SOL    HW229517   3.257   3.860   7.449  0.1623  0.4429 -1.4426
 5961SOL     OW29518   1.522   3.295   4.185 -0.3528 -0.1152  0.4095
 5961SOL    HW129519   1.458   3.364   4.206  0.0379  0.9264 -1.8937
 5961SOL    HW229520   1.571   3.343   4.119 -0.4956  0.5493  0.7865
 5962SOL     OW29521   1.226   0.714   9.315  0.4685 -0.3344  0.0957
 5962SOL    HW129522   1.230   0.769   9.393 -0.1038 -2.0776  1.3418
 5962SOL    HW229523   1.322   0.706   9.310  0.5291  0.3815  0.1751
 5963SOL     OW29524   3.388   4.239   5.429  0.1769  0.0907  0.1332
 5963SOL    HW129525   3.314   4.300   5.430 -1.9883 -2.5612 -0.4761
 5963SOL    HW229526   3.377   4.198   5.344 -0.1539  1.3824 -0.4548
 5964SOL     OW29527   1.710   2.272  13.211  0.0451  0.5136  0.1666
 5964SOL    HW129528   1.806   2.277  13.208 -0.0618  2.5976  0.0613
 5964SOL    HW229529   1.692   2.201  13.149  1.2660  1.3453 -1.1318
 5965SOL     OW29530   1.114   4.415   7.348 -0.1355 -0.2842  0.0624
 5965SOL    HW129531   1.118   4.335   7.399 -1.2237  1.2692  2.5670
 5965SOL    HW229532   1.179   4.400   7.279 -0.0100 -0.6667  0.2648
 5966SOL     OW29533   0.984   3.507   4.458  0.3681  0.1319 -0.5291
 5966SOL    HW129534   0.923   3.512   4.384  0.7875  0.8142 -0.8204
 5966SOL    HW229535   1.027   3.592   4.449 -1.5953  1.0569 -1.0682
 5967SOL     OW29536   2.932   0.138   6.910  0.3713 -0.3464  0.4979
 5967SOL    HW129537   2.983   0.218   6.896  1.4894 -0.9585  1.0715
 5967SOL    HW229538   2.858   0.158   6.853  1.8791  0.5148 -1.1355
 5968SOL     OW29539   0.867   1.657  17.260 -0.3299  0.5926  0.1107
 5968SOL    HW129540   0.834   1.683  17.346  1.1908  1.2281  0.5039
 5968SOL    HW229541   0.940   1.600  17.283  0.5454  1.1253 -1.3341
 5969SOL     OW29542   1.180   3.827   2.504  0.0367 -0.0949 -0.6149
 5969SOL    HW129543   1.174   3.789   2.591  3.6578 -0.2703 -0.4538
 5969SOL    HW229544   1.132   3.760   2.455 -0.5631  1.6984 -2.5268
 5970SOL     OW29545   0.892   1.340   6.273 -0.2612 -0.0736  0.1191
 5970SOL    HW129546   0.807   1.298   6.277 -0.9698  1.1046 -2.5857
 5970SOL    HW229547   0.875   1.415   6.215 -1.0182 -0.4170 -0.0938
 5971SOL     OW29548   4.507   2.979  10.761 -0.2333 -0.3064 -0.3086
 5971SOL    HW129549   4.570   2.921  10.719 -0.7166 -1.4396  0.5169
 5971SOL    HW229550   4.430   2.925  10.742 -0.4814 -0.0613 -0.0098
 5972SOL     OW29551   0.806   3.266   8.107  0.0850 -0.1954  0.2089
 5972SOL    HW129552   0.843   3.349   8.135 -1.0001  0.5753 -0.6119
 5972SOL    HW229553   0.778   3.290   8.019 -0.6189  0.0835  0.4995
 5973SOL     OW29554   3.162   1.481   4.027 -0.3170  0.2434  0.1408
 5973SOL    HW129555   3.127   1.449   4.110 -0.0863  1.2546  0.6346
 5973SOL    HW229556   3.132   1.411   3.969  0.4921 -0.7555  0.9442
 5974SOL     OW29557   3.279   0.989   4.732  0.0867 -0.5896  0.3012
 5974SOL    HW129558   3.198   1.019   4.691 -0.8540 -2.4061  0.8426
 5974SOL    HW229559   3.341   1.042   4.681 -0.9547 -0.2801 -0.6315
 5975SOL     OW29560   3.814   0.021   5.177  0.6585  0.1566  0.2223
 5975SOL    HW129561   3.862   0.091   5.133  1.8764 -0.5043  0.4748
 5975SOL    HW229562   3.846   0.029   5.267 -0.9514  1.1663  0.6963
 5976SOL     OW29563   2.861   0.904   2.553 -0.1062 -0.1882  0.0575
 5976SOL    HW129564   2.948   0.944   2.559  0.2121 -1.2024  2.0998
 5976SOL    HW229565   2.820   0.982   2.515  0.4447 -0.3044 -0.7814
 5977SOL     OW29566   2.016   3.449   5.091 -0.1383  0.0503  0.0045
 5977SOL    HW129567   1.927   3.424   5.116 -1.1705  3.1732 -0.4724
 5977SOL    HW229568   2.058   3.368   5.065  0.5462 -0.2399  2.0909
 5978SOL     OW29569   3.990   1.363   2.966 -0.3491 -0.2181  0.2222
 5978SOL    HW129570   4.020   1.430   3.028 -0.2372 -0.6659  0.6533
 5978SOL    HW229571   3.956   1.413   2.892  1.2122 -0.1919 -0.4744
 5979SOL     OW29572   1.768   2.939   2.040 -0.0062  0.4227 -0.5750
 5979SOL    HW129573   1.725   2.881   2.102 -0.4877  3.6657  2.1056
 5979SOL    HW229574   1.858   2.945   2.073  0.4124 -1.6156 -1.2913
 5980SOL     OW29575   0.168   1.787   3.217  0.1858  0.6611 -0.0678
 5980SOL    HW129576   0.175   1.730   3.141  2.1798 -1.9131  2.0411
 5980SOL    HW229577   0.100   1.848   3.188  1.2292  2.3863  1.1062
 5981SOL     OW29578   3.123   2.550  14.577 -0.6793 -0.5230  0.1526
 5981SOL    HW129579   3.083   2.463  14.564 -1.9982  0.2588 -1.0174
 5981SOL    HW229580   3.146   2.566  14.669 -1.4140  0.4941  0.1583
 5982SOL     OW29581   1.667   3.889  15.321  0.0075  0.4850  0.4296
 5982SOL    HW129582   1.755   3.900  15.358  0.0704  0.0033  0.4149
 5982SOL    HW229583   1.691   3.877  15.230 -0.6914 -0.6625  0.4035
 5983SOL     OW29584   4.684   4.150   0.040  0.0746 -0.5941 -0.6044
 5983SOL    HW129585   4.691   4.129   0.133  1.4762 -2.1247 -1.0699
 5983SOL    HW229586   0.040   4.160   0.019  0.1033 -1.1977 -0.7623
 5984SOL     OW29587   1.035   2.616  11.190  0.1623 -0.2845  0.2564
 5984SOL    HW129588   0.995   2.635  11.275 -0.8849  0.6755 -0.4509
 5984SOL    HW229589   0.966   2.560  11.154  1.3900 -1.3767 -0.4109
 5985SOL     OW29590   4.140   2.322   4.497  0.0791  0.0057 -0.0151
 5985SOL    HW129591   4.157   2.261   4.425 -3.7558 -1.8234  0.6271
 5985SOL    HW229592   4.055   2.283   4.515 -0.0417  0.5150  0.5156
 5986SOL     OW29593   3.917   3.509  11.922  0.5823  0.1994  0.3963
 5986SOL    HW129594   3.931   3.593  11.966  0.3153  0.9461 -0.9583
 5986SOL    HW229595   3.938   3.440  11.986 -2.8207 -0.1857  1.1035
 5987SOL     OW29596   2.461   1.205  15.686 -0.0201 -0.3384 -0.7882
 5987SOL    HW129597   2.442   1.294  15.658 -1.3768 -0.1489  0.7222
 5987SOL    HW229598   2.403   1.158  15.627  1.4584 -0.7455 -1.9170
 5988SOL     OW29599   1.857   2.085   4.443  0.2434 -0.4907  0.4237
 5988SOL    HW129600   1.905   2.071   4.362 -2.7223  0.8813 -1.5490
 5988SOL    HW229601   1.814   2.001   4.455  2.0602 -1.4045  0.5662
 5989SOL     OW29602   0.804   2.374   8.411  0.6836  0.1946  0.0669
 5989SOL    HW129603   0.848   2.292   8.392 -0.9070 -0.9189  1.1684
 5989SOL    HW229604   0.814   2.391   8.505 -1.9793  0.2062  0.3504
 5990SOL     OW29605   1.254   1.594   2.481  0.2574  0.3764  0.4920
 5990SOL    HW129606   1.226   1.574   2.571 -1.2370 -2.4624 -0.6104
 5990SOL    HW229607   1.183   1.645   2.442  0.1717  0.9745  1.4297
 5991SOL     OW29608   3.544   0.048  14.122 -0.1997  0.1297  0.0025
 5991SOL    HW129609   3.556   4.699  14.163 -0.8058  0.0745  0.0708
 5991SOL    HW229610   3.449   0.047  14.106 -0.3506  0.1639  0.8794
 5992SOL     OW29611   4.393   0.811   8.739  0.2516 -0.4716 -0.0880
 5992SOL    HW129612   4.350   0.836   8.658  3.2464  5.0569  0.0024
 5992SOL    HW229613   4.321   0.777   8.791  0.7080 -0.7195  0.3887
 5993SOL     OW29614   3.566   2.812   6.103  0.0948 -0.2337  0.1910
 5993SOL    HW129615   3.601   2.745   6.161  1.9094  0.8724  0.3692
 5993SOL    HW229616   3.615   2.773   6.031  0.0764  0.4083 -0.1687
 5994SOL     OW29617   3.276   2.169  11.632 -0.6352 -0.1169  0.1311
 5994SOL    HW129618   3.357   2.219  11.627 -1.5590  1.4263  0.7841
 5994SOL    HW229619   3.301   2.078  11.615 -1.4735 -0.0451 -1.4460
 5995SOL     OW29620   4.660   0.610  11.741  0.0715  0.3859  0.1007
 5995SOL    HW129621   4.638   0.609  11.835 -1.0952  1.1590 -0.1582
 5995SOL    HW229622   0.010   0.649  11.737 -0.8786  2.6959  1.9110
 5996SOL     OW29623   2.603   0.630  14.418  0.2512 -0.0719 -0.0115
 5996SOL    HW129624   2.661   0.561  14.386 -0.9538 -0.2774 -1.7679
 5996SOL    HW229625   2.587   0.688  14.343  1.1490 -0.6666 -0.6739
 5997SOL     OW29626   0.620   3.532   8.288  0.1183 -0.8137  0.1174
 5997SOL    HW129627   0.638   3.625   8.295 -2.5090 -0.6222  3.7145
 5997SOL    HW229628   0.603   3.537   8.194 -2.4808 -0.5667  0.6104
 5998SOL     OW29629   4.559   0.402  11.509 -0.4779 -0.4997 -0.0917
 5998SOL    HW129630   4.638   0.397  11.455 -1.1989  0.5075 -1.2325
 5998SOL    HW229631   4.602   0.430  11.590 -0.9220  0.7998 -0.3194
 5999SOL     OW29632   3.693   2.447   5.161  0.0313  0.2788  0.1069
 5999SOL    HW129633   3.728   2.442   5.073 -1.8978 -1.6684 -0.5492
 5999SOL    HW229634   3.772   2.457   5.215  0.1104  1.2807 -0.1930
 6000SOL     OW29635   4.400   3.579  17.702 -0.0360 -0.4073  0.2790
 6000SOL    HW129636   4.469   3.520  17.673  0.9827  2.9170 -4.0440
 6000SOL    HW229637   4.340   3.587  17.628 -0.3005 -0.5191  0.4800
 6001SOL     OW29638   2.247   3.120   6.190  0.4959  0.0428  0.1251
 6001SOL    HW129639   2.177   3.055   6.188  0.1734  0.3855  0.2857
 6001SOL    HW229640   2.263   3.138   6.282  1.7358  1.8379 -0.4333
 6002SOL     OW29641   3.691   2.272   2.442  0.3966  0.1778  0.1967
 6002SOL    HW129642   3.609   2.246   2.484  0.1026  0.1702 -0.3862
 6002SOL    HW229643   3.752   2.234   2.505  2.9502 -0.2917 -2.5447
 6003SOL     OW29644   1.659   0.786   2.370  0.4560  0.0030  0.3505
 6003SOL    HW129645   1.659   0.836   2.288  2.1650 -0.1060  0.2855
 6003SOL    HW229646   1.593   0.719   2.353 -0.3800  1.3270 -1.6771
 6004SOL     OW29647   0.569   0.855   7.851 -0.0583  0.6443 -0.2823
 6004SOL    HW129648   0.524   0.854   7.936 -1.4213 -3.7389 -1.1107
 6004SOL    HW229649   0.503   0.885   7.789 -0.5890  1.0257  0.4629
 6005SOL     OW29650   1.478   3.467   1.311 -0.8751  0.2466  0.1862
 6005SOL    HW129651   1.568   3.497   1.325 -0.3955 -2.5213  3.0509
 6005SOL    HW229652   1.448   3.468   1.402  0.4189  0.7190  0.6120
 6006SOL     OW29653   2.837   3.939   5.305 -0.0468  0.6709  0.1110
 6006SOL    HW129654   2.744   3.955   5.287  0.0114  0.0013 -0.8191
 6006SOL    HW229655   2.828   3.877   5.378 -0.6310  0.1675 -0.3902
 6007SOL     OW29656   3.488   2.483   3.038  0.4975 -0.6716  0.5025
 6007SOL    HW129657   3.555   2.432   2.993  0.8715 -0.7913  1.1932
 6007SOL    HW229658   3.519   2.573   3.022  2.3358 -1.6454 -1.4270
 6008SOL     OW29659   2.861   0.363   4.867 -0.1101 -0.1561  0.5421
 6008SOL    HW129660   2.951   0.380   4.839 -0.3263  1.3218  0.7348
 6008SOL    HW229661   2.849   0.421   4.941  1.1345 -0.4582  0.9778
 6009SOL     OW29662   3.994   2.840   7.188 -0.0698 -0.1557  0.1369
 6009SOL    HW129663   3.916   2.827   7.134  0.0257 -1.3812  0.2905
 6009SOL    HW229664   3.988   2.926   7.229  2.3470 -0.1855  0.5573
 6010SOL     OW29665   2.227   2.005   3.269  0.1599 -0.1180 -0.9737
 6010SOL    HW129666   2.291   1.976   3.333 -0.6630  4.3036  1.9046
 6010SOL    HW229667   2.264   2.090   3.244 -0.1214  0.0911 -0.6925
 6011SOL     OW29668   4.209   0.781   3.202 -0.0752  0.3007 -0.0254
 6011SOL    HW129669   4.205   0.769   3.107  1.7985  1.9114 -0.2978
 6011SOL    HW229670   4.277   0.848   3.200  0.7731 -0.4980  2.0712
 6012SOL     OW29671   4.037   3.712   2.035 -0.2701 -0.1720 -0.2944
 6012SOL    HW129672   4.085   3.733   1.955 -0.6031 -3.4430 -1.3617
 6012SOL    HW229673   4.091   3.763   2.094 -0.7921  0.2652 -0.1932
 6013SOL     OW29674   4.621   3.117   9.138  0.0738  0.3561  0.3843
 6013SOL    HW129675   4.604   3.029   9.104  0.0821  1.0156 -1.3295
 6013SOL    HW229676   4.632   3.170   9.059  2.2182 -0.3558  0.1813
 6014SOL     OW29677   4.094   3.231  17.170  0.2494  0.1240  0.5386
 6014SOL    HW129678   4.024   3.273  17.120  0.2085 -0.7520 -0.1398
 6014SOL    HW229679   4.051   3.146  17.169 -0.4958  0.5298 -1.6157
 6015SOL     OW29680   0.239   1.623   6.176 -0.2155 -0.2763 -0.5589
 6015SOL    HW129681   0.175   1.695   6.170  0.9193  0.6468 -1.6488
 6015SOL    HW229682   0.242   1.592   6.086 -1.4712  1.0082 -1.0472
 6016SOL     OW29683   4.480   2.770   2.696  0.6219 -0.3403 -0.8016
 6016SOL    HW129684   4.539   2.804   2.629  1.3665 -2.1915 -1.0894
 6016SOL    HW229685   4.398   2.790   2.651  1.1980  0.8770 -1.2989
 6017SOL     OW29686   1.818   0.773  11.962  0.1515  0.5723 -0.4132
 6017SOL    HW129687   1.783   0.841  12.020  1.2122 -0.3393  1.3197
 6017SOL    HW229688   1.886   0.733  12.017  0.7504  1.8835 -0.2074
 6018SOL     OW29689   2.201   3.571   4.024  0.2770  0.8599 -0.1949
 6018SOL    HW129690   2.169   3.481   4.029 -1.6100  1.4517 -1.5604
 6018SOL    HW229691   2.162   3.599   3.941  1.4125  4.6134  0.5578
 6019SOL     OW29692   4.346   3.836   1.093  0.3770 -0.4285 -0.4143
 6019SOL    HW129693   4.341   3.740   1.091  1.1996 -0.5011  1.2283
 6019SOL    HW229694   4.340   3.854   0.999  0.2567  0.2768 -0.2691
 6020SOL     OW29695   0.158   2.309   6.895  0.2476  0.6072  0.1939
 6020SOL    HW129696   0.245   2.337   6.867 -1.2049  3.0716 -1.8804
 6020SOL    HW229697   0.167   2.223   6.937  0.6364  0.1486 -0.8197
 6021SOL     OW29698   3.535   2.632  11.955 -0.2284  0.5090 -0.1489
 6021SOL    HW129699   3.455   2.680  11.932 -0.0406  0.4054 -1.0217
 6021SOL    HW229700   3.603   2.679  11.905 -0.5006 -0.1564 -1.1222
 6022SOL     OW29701   3.211   0.763   5.499  0.2556  0.6745 -0.4822
 6022SOL    HW129702   3.180   0.730   5.583 -2.5690  0.2773 -1.6553
 6022SOL    HW229703   3.131   0.812   5.479  0.4370  1.7223  1.3954
 6023SOL     OW29704   3.550   1.799   9.830 -0.2876 -0.2078  0.2845
 6023SOL    HW129705   3.619   1.759   9.777  0.9679  0.4491  1.4346
 6023SOL    HW229706   3.553   1.892   9.808  1.4380 -0.8596 -2.1950
 6024SOL     OW29707   3.731   2.132   8.012  0.4284  0.1358 -0.2102
 6024SOL    HW129708   3.823   2.106   8.009  0.5641  0.3715  1.7102
 6024SOL    HW229709   3.681   2.050   8.014  0.2416  0.3086  2.5080
 6025SOL     OW29710   4.614   2.200   2.310  0.4562 -0.0475 -0.2867
 6025SOL    HW129711   4.607   2.267   2.242 -2.2199 -0.9087 -0.8780
 6025SOL    HW229712   4.674   2.246   2.368 -0.0969 -0.0243  0.2698
 6026SOL     OW29713   3.944   0.780   5.322  0.4769 -0.0985 -0.3430
 6026SOL    HW129714   3.859   0.751   5.355 -0.1496  1.6759 -0.3917
 6026SOL    HW229715   3.913   0.858   5.277  0.9953  0.9930  1.1566
 6027SOL     OW29716   3.566   2.196   4.394  0.0621  0.8174 -0.0810
 6027SOL    HW129717   3.606   2.278   4.364 -0.4116  1.4917  1.1025
 6027SOL    HW229718   3.640   2.162   4.445  1.0494  1.7493 -0.8822
 6028SOL     OW29719   1.521   1.034   5.664  0.1771 -0.5968  0.4160
 6028SOL    HW129720   1.505   1.128   5.676  1.7759 -0.3793  0.8325
 6028SOL    HW229721   1.609   1.021   5.700  0.5075 -0.4809 -0.3436
 6029SOL     OW29722   3.104   1.045   3.670  0.2378  0.3864 -0.3710
 6029SOL    HW129723   3.136   1.045   3.580 -2.3344  1.3976 -1.2883
 6029SOL    HW229724   3.027   1.102   3.659  0.1325  0.2231 -0.4815
 6030SOL     OW29725   2.714   2.512   3.752  0.3116  0.2139  0.2391
 6030SOL    HW129726   2.746   2.594   3.716  1.8090 -0.1263  0.7896
 6030SOL    HW229727   2.767   2.510   3.832  1.0283  0.3756 -0.2304
 6031SOL     OW29728   4.703   4.357  14.507  0.5966  0.1448  0.0425
 6031SOL    HW129729   4.674   4.269  14.483 -1.3924  0.4049  1.4554
 6031SOL    HW229730   0.026   4.340  14.579  0.6500  2.3784  0.5296
 6032SOL     OW29731   0.904   3.891   2.104 -0.0990 -0.5647 -0.1939
 6032SOL    HW129732   0.829   3.946   2.125  1.9180  1.5717  1.3627
 6032SOL    HW229733   0.975   3.917   2.164  0.0228 -0.4661 -0.3794
 6033SOL     OW29734   3.562   1.993   5.867  0.0892  0.5212 -0.2408
 6033SOL    HW129735   3.631   2.060   5.868  0.6775 -0.0421 -2.5737
 6033SOL    HW229736   3.564   1.970   5.774 -0.5616  0.5112 -0.2515
 6034SOL     OW29737   2.283   4.278  10.756  0.6355  0.1623  0.1635
 6034SOL    HW129738   2.263   4.302  10.666  1.3298 -0.5905 -0.1880
 6034SOL    HW229739   2.300   4.357  10.808 -1.3748  1.9011 -1.7903
 6035SOL     OW29740   0.443   1.558   2.043  0.2821  0.2545 -0.3031
 6035SOL    HW129741   0.521   1.504   2.030 -0.8562 -1.0377 -2.0028
 6035SOL    HW229742   0.489   1.630   2.084  0.5484 -0.4073  0.5548
 6036SOL     OW29743   2.971   0.357   1.255 -0.2846  0.5484  0.1263
 6036SOL    HW129744   3.019   0.435   1.227  1.9047 -2.5999 -4.8579
 6036SOL    HW229745   3.044   0.294   1.253 -0.5945  0.1104  2.1973
 6037SOL     OW29746   0.524   1.657   6.066 -0.2631  0.0130 -0.3614
 6037SOL    HW129747   0.563   1.575   6.036 -1.1439 -0.4869 -0.1497
 6037SOL    HW229748   0.431   1.639   6.049 -0.1813 -1.5091  0.9046
 6038SOL     OW29749   2.299   1.943  13.846 -0.2234 -0.2480  0.7095
 6038SOL    HW129750   2.221   1.986  13.882 -0.0719  0.5395  0.0752
 6038SOL    HW229751   2.347   1.920  13.926 -1.2540 -3.7982  0.3079
 6039SOL     OW29752   3.008   0.742  17.355  0.0712 -0.2850  0.3657
 6039SOL    HW129753   2.944   0.677  17.326  1.3785 -1.5055  0.2445
 6039SOL    HW229754   2.985   0.813  17.295 -2.0484 -0.9317  0.4002
 6040SOL     OW29755   2.478   0.771  14.202 -1.0259  0.1397  0.1631
 6040SOL    HW129756   2.393   0.804  14.231 -0.4754  2.9564 -1.4408
 6040SOL    HW229757   2.494   0.825  14.125 -0.5081 -0.6639 -0.2924
 6041SOL     OW29758   2.677   1.836   4.033 -0.0585 -0.1955  0.5438
 6041SOL    HW129759   2.631   1.919   4.048 -3.5805 -1.9552 -0.5133
 6041SOL    HW229760   2.762   1.847   4.076  0.4055 -2.4588  0.2092
 6042SOL     OW29761   1.941   4.561   4.452 -0.2453  0.0145  0.0269
 6042SOL    HW129762   1.862   4.516   4.482  0.1028 -1.1435 -0.7694
 6042SOL    HW229763   1.989   4.485   4.483 -1.1298 -0.3896  0.4321
 6043SOL     OW29764   1.380   1.933   9.631  0.2349 -0.5978  0.0014
 6043SOL    HW129765   1.419   1.904   9.549 -2.0389  2.4272 -2.1212
 6043SOL    HW229766   1.305   1.978   9.592 -0.5494  0.2209  2.4532
 6044SOL     OW29767   0.619   0.167   0.632 -0.0714 -0.2590  0.4560
 6044SOL    HW129768   0.612   0.130   0.720  1.6011  0.4004  0.8582
 6044SOL    HW229769   0.628   0.090   0.576  2.2987  0.4004 -0.0670
 6045SOL     OW29770   3.052   2.989   2.646  0.2176  0.6522 -0.1379
 6045SOL    HW129771   3.139   3.030   2.646  1.2555 -1.5648  2.2933
 6045SOL    HW229772   3.032   2.974   2.738  1.4282 -1.3072 -0.1787
 6046SOL     OW29773   3.576   3.048   6.628 -0.0269 -0.2883 -0.4464
 6046SOL    HW129774   3.588   3.139   6.599  1.3111 -0.3583 -0.1252
 6046SOL    HW229775   3.563   3.064   6.722 -1.4269 -0.1802 -0.6545
 6047SOL     OW29776   3.423   4.121   4.444  0.1757 -0.0076 -0.3121
 6047SOL    HW129777   3.439   4.099   4.352  0.4679 -1.2565  0.0402
 6047SOL    HW229778   3.371   4.045   4.469  0.2571  0.6212  1.8019
 6048SOL     OW29779   3.040   3.970   6.464 -0.3149  0.1560  0.0018
 6048SOL    HW129780   3.075   3.986   6.376  0.1613  0.2278  0.2028
 6048SOL    HW229781   2.958   3.934   6.431 -0.3597 -0.8647  1.2332
 6049SOL     OW29782   4.153   3.113   2.548  0.2363  0.4391  0.2181
 6049SOL    HW129783   4.115   3.098   2.462  0.0828 -0.4640  0.4407
 6049SOL    HW229784   4.086   3.078   2.608  1.2645 -0.2008  0.9905
 6050SOL     OW29785   1.043   3.324   6.694 -0.2222  0.3767 -0.4622
 6050SOL    HW129786   0.973   3.312   6.629 -0.7487  0.4909  0.0820
 6050SOL    HW229787   1.040   3.233   6.725  1.1018 -0.0298 -1.5266
 6051SOL     OW29788   4.415   3.193   2.301  0.0443 -0.2047  0.7846
 6051SOL    HW129789   4.376   3.281   2.298 -0.5229 -0.4986 -0.7696
 6051SOL    HW229790   4.464   3.189   2.219 -1.7860 -2.1860 -0.2053
 6052SOL     OW29791   3.953   1.181  16.158  0.7302 -0.1759 -0.5941
 6052SOL    HW129792   3.968   1.263  16.205 -1.1711  0.9504 -1.9563
 6052SOL    HW229793   4.005   1.113  16.202 -1.7235 -0.8322  1.2656
 6053SOL     OW29794   4.467   1.350  16.589 -0.1801 -0.5420 -0.6781
 6053SOL    HW129795   4.468   1.398  16.507  0.0982 -0.0763 -0.4037
 6053SOL    HW229796   4.393   1.394  16.631  1.6724  3.5353 -1.6531
 6054SOL     OW29797   1.455   3.162   2.898  0.0537  0.0619  0.4059
 6054SOL    HW129798   1.457   3.078   2.944 -0.8798 -0.5033 -0.5887
 6054SOL    HW229799   1.533   3.150   2.844  1.3061 -0.8743  2.4257
 6055SOL     OW29800   1.661   2.059   1.691  0.4751 -0.0904  0.5043
 6055SOL    HW129801   1.621   2.032   1.609  2.6230 -0.6491 -0.3593
 6055SOL    HW229802   1.700   2.141   1.661  1.2429 -1.2687 -1.7090
 6056SOL     OW29803   4.336   4.490   5.841  0.5178 -0.1445  0.5386
 6056SOL    HW129804   4.278   4.526   5.908 -0.2694  0.2133 -0.3210
 6056SOL    HW229805   4.321   4.553   5.769  1.2126 -0.8481 -0.2118
 6057SOL     OW29806   3.630   1.309   4.207 -0.1045  0.1591  0.5837
 6057SOL    HW129807   3.671   1.226   4.230  1.9822  0.8938 -0.5350
 6057SOL    HW229808   3.635   1.349   4.294 -1.9249 -1.4666  1.4419
 6058SOL     OW29809   0.126   1.677  17.138  0.0847  1.0112  0.2347
 6058SOL    HW129810   0.206   1.663  17.187  0.7691 -1.3484 -1.5542
 6058SOL    HW229811   0.078   1.738  17.193 -2.2890  0.9381 -1.7418
 6059SOL     OW29812   2.693   4.585  10.466 -0.1480  0.7224 -0.2155
 6059SOL    HW129813   2.631   4.552  10.531 -2.7877  0.1457 -3.0080
 6059SOL    HW229814   2.738   4.656  10.512 -0.0474  0.2579  0.4030
 6060SOL     OW29815   1.165   4.144   5.122  0.2932  0.2687  0.1774
 6060SOL    HW129816   1.236   4.115   5.065 -0.7217  1.2796 -1.6322
 6060SOL    HW229817   1.200   4.232   5.139  1.4490  0.0226 -0.9448
 6061SOL     OW29818   2.165   4.201  17.355  0.1446  0.0693  0.0495
 6061SOL    HW129819   2.122   4.185  17.439 -0.1945 -3.1582 -0.7475
 6061SOL    HW229820   2.142   4.118  17.313 -1.4344 -0.0747  1.2065
 6062SOL     OW29821   1.248   4.601  16.986 -0.2929 -0.4759  0.5888
 6062SOL    HW129822   1.185   4.644  16.927 -1.2716 -1.4954  0.8982
 6062SOL    HW229823   1.282   4.530  16.932  1.0858  0.9644 -0.4628
 6063SOL     OW29824   0.304   1.490   2.674  0.0168  0.0860 -0.2375
 6063SOL    HW129825   0.266   1.427   2.735  0.9147  0.3314  0.5785
 6063SOL    HW229826   0.351   1.550   2.732  1.9998 -2.9436  1.2832
 6064SOL     OW29827   1.056   3.696   6.189 -0.0650 -0.0075  0.3961
 6064SOL    HW129828   0.989   3.764   6.191  1.4086  1.4572  0.3938
 6064SOL    HW229829   1.000   3.621   6.203 -0.7054  0.5294  0.6927
 6065SOL     OW29830   0.266   0.216   3.929  0.2578 -0.3052 -0.1456
 6065SOL    HW129831   0.229   0.242   4.013  1.2436 -0.2765  0.2898
 6065SOL    HW229832   0.226   0.274   3.865 -1.0067 -1.3999 -0.3349
 6066SOL     OW29833   3.007   1.228  13.540 -0.1876 -0.0511 -0.1745
 6066SOL    HW129834   2.934   1.232  13.601  1.3778  0.0763  1.6793
 6066SOL    HW229835   2.991   1.304  13.484 -1.7919 -0.3775 -0.1485
 6067SOL     OW29836   1.307   1.792  12.402 -0.3236 -0.2345 -0.2413
 6067SOL    HW129837   1.254   1.720  12.434 -0.3993 -0.9367 -1.9741
 6067SOL    HW229838   1.313   1.853  12.476  2.3964  1.8235 -2.1893
 6068SOL     OW29839   0.961   3.263   7.477  0.7259 -0.7358 -0.0186
 6068SOL    HW129840   0.955   3.346   7.431  0.9660 -1.7029 -1.7999
 6068SOL    HW229841   0.994   3.214   7.402 -0.1141 -1.4667  0.0838
 6069SOL     OW29842   3.774   2.166   6.410 -0.3782 -0.2539  0.2384
 6069SOL    HW129843   3.769   2.078   6.446  0.3335  0.5780  2.3799
 6069SOL    HW229844   3.862   2.164   6.373 -0.0987  1.3344  0.8265
 6070SOL     OW29845   0.311   4.093  11.955  0.0095  0.1559 -0.2735
 6070SOL    HW129846   0.245   4.046  12.006  1.9905 -0.3738  1.7828
 6070SOL    HW229847   0.378   4.101  12.022  0.1275 -0.8865 -0.2637
 6071SOL     OW29848   1.388   3.604   1.087 -0.5562 -0.3054  0.3269
 6071SOL    HW129849   1.452   3.652   1.140  0.1162 -2.4581  1.4451
 6071SOL    HW229850   1.390   3.533   1.151  0.7022  1.9783  2.8238
 6072SOL     OW29851   1.278   4.515   7.736 -0.3713 -0.3500 -0.2553
 6072SOL    HW129852   1.207   4.532   7.674  0.4704  0.2875 -1.0536
 6072SOL    HW229853   1.354   4.496   7.681  1.2893  0.4377  1.7743
 6073SOL     OW29854   4.616   4.645   4.050  0.0786 -0.0957 -0.1644
 6073SOL    HW129855   4.634   0.000   4.072 -1.7348  0.3016 -0.3268
 6073SOL    HW229856   4.673   4.603   4.114  0.1779 -0.7788 -0.7104
 6074SOL     OW29857   4.160   2.246   2.643 -0.1324 -0.0540  0.3374
 6074SOL    HW129858   4.200   2.257   2.556  0.2666 -2.3583  0.2383
 6074SOL    HW229859   4.194   2.327   2.682 -2.5932  0.7472  0.7803
 6075SOL     OW29860   2.400   1.520  10.032 -0.4924 -0.1987 -0.5109
 6075SOL    HW129861   2.424   1.527   9.940 -0.1670 -0.2513 -0.4294
 6075SOL    HW229862   2.362   1.607  10.046  0.3050 -0.3165  2.4814
 6076SOL     OW29863   2.966   1.390   5.091 -0.4013  0.2065  0.0458
 6076SOL    HW129864   2.902   1.380   5.020 -0.2230  0.2716 -0.1271
 6076SOL    HW229865   2.938   1.474   5.126 -0.1649  0.9500 -1.5146
 6077SOL     OW29866   0.988   2.452  14.116  0.5007 -0.1347  0.6107
 6077SOL    HW129867   1.048   2.389  14.076 -1.0875 -1.3393  0.1498
 6077SOL    HW229868   0.913   2.468  14.059  0.3391 -0.0507  0.8465
 6078SOL     OW29869   2.350   2.998   4.587 -0.5805  0.4983  0.4133
 6078SOL    HW129870   2.372   2.993   4.680 -1.0286 -1.0941  0.4295
 6078SOL    HW229871   2.365   3.092   4.571 -1.3440  0.8160  1.5416
 6079SOL     OW29872   4.289   2.552  11.662  0.0918  0.2846 -0.4549
 6079SOL    HW129873   4.218   2.529  11.603 -1.1370  1.8889  0.3783
 6079SOL    HW229874   4.348   2.480  11.642  1.2250  0.6630  1.5046
 6080SOL     OW29875   0.082   0.430  11.378  0.1495  0.2459 -0.3001
 6080SOL    HW129876   0.065   0.522  11.360  1.0678  0.5195  0.2644
 6080SOL    HW229877   0.178   0.431  11.382  0.1271  2.7748 -0.1612
 6081SOL     OW29878   3.914   4.587   5.714 -0.3552 -0.4135  0.3036
 6081SOL    HW129879   3.918   4.494   5.694  0.4158 -0.1644 -0.6869
 6081SOL    HW229880   3.918   4.584   5.810 -3.0435 -0.4047  0.4062
 6082SOL     OW29881   0.822   4.724   5.419  0.8640 -0.0630 -0.2981
 6082SOL    HW129882   0.761   4.663   5.461  2.0599 -0.3357  1.0347
 6082SOL    HW229883   0.895   4.710   5.479  0.4465 -0.3511  0.1443
 6083SOL     OW29884   3.195   1.960   2.134  0.3450 -0.0773 -0.1896
 6083SOL    HW129885   3.111   1.967   2.180  0.7483  2.0197  0.2263
 6083SOL    HW229886   3.177   1.882   2.082 -0.2284 -1.2268  1.7098
 6084SOL     OW29887   1.518   1.100   6.572 -0.2000  0.4657 -0.1843
 6084SOL    HW129888   1.470   1.031   6.526 -0.3836  1.3170 -1.2518
 6084SOL    HW229889   1.519   1.168   6.506 -1.2258  1.4796  0.8461
 6085SOL     OW29890   2.549   1.626  16.036 -0.3047  0.1143 -0.5011
 6085SOL    HW129891   2.584   1.687  16.100 -1.3495  0.0314  0.1451
 6085SOL    HW229892   2.590   1.546  16.068  0.1019  0.2475 -0.6916
 6086SOL     OW29893   2.019   0.521  13.910 -0.3311  0.1875  0.1422
 6086SOL    HW129894   2.074   0.580  13.961 -0.2842  0.8565 -0.6802
 6086SOL    HW229895   2.072   0.441  13.912 -2.1812 -1.0319  1.6234
 6087SOL     OW29896   0.787   2.062   2.286  0.2965  0.5469 -0.2106
 6087SOL    HW129897   0.793   2.063   2.190  0.5977 -3.3649 -0.2193
 6087SOL    HW229898   0.718   2.127   2.300 -1.1275 -0.0910 -4.2096
 6088SOL     OW29899   0.311   3.594   2.123 -0.3560 -0.9363 -0.3704
 6088SOL    HW129900   0.344   3.521   2.175  0.3435 -3.4140 -4.2589
 6088SOL    HW229901   0.390   3.636   2.089  1.4994 -1.0996  3.7044
 6089SOL     OW29902   2.289   3.221   5.384  0.3072  0.0837 -0.0325
 6089SOL    HW129903   2.370   3.203   5.431 -0.0535 -2.9167 -0.5686
 6089SOL    HW229904   2.270   3.298   5.437 -2.4367 -1.3341  1.0616
 6090SOL     OW29905   4.455   1.202  14.698 -0.6665  0.3964  0.7835
 6090SOL    HW129906   4.425   1.286  14.662  3.0257  0.6680 -1.6439
 6090SOL    HW229907   4.509   1.162  14.630 -0.8765  1.9599 -0.3096
 6091SOL     OW29908   0.708   1.492   8.963 -0.1891  0.2995  0.4330
 6091SOL    HW129909   0.693   1.585   8.946  0.3348  0.7299  2.2567
 6091SOL    HW229910   0.771   1.476   8.893 -0.0909 -0.6614  0.7353
 6092SOL     OW29911   0.027   3.104   2.777 -0.1211 -0.0157 -0.1837
 6092SOL    HW129912   0.026   3.144   2.691  0.8218 -0.5350 -0.4421
 6092SOL    HW229913   0.115   3.137   2.793 -0.0160 -1.2892  1.9124
 6093SOL     OW29914   1.514   4.068   6.291  0.3294 -0.2156  0.2531
 6093SOL    HW129915   1.577   4.091   6.360  1.5211  1.1388 -1.2762
 6093SOL    HW229916   1.573   4.073   6.216  0.7302 -0.6074  0.5423
 6094SOL     OW29917   2.234   4.624   5.414  0.4765  0.3273 -0.0430
 6094SOL    HW129918   2.184   4.656   5.339  1.7310 -0.0469 -1.0307
 6094SOL    HW229919   2.164   4.630   5.479 -1.1897  0.4423 -1.8294
 6095SOL     OW29920   0.837   3.043   2.434 -0.5412  0.0290  0.4341
 6095SOL    HW129921   0.922   3.007   2.459 -0.0642 -0.6115 -2.0353
 6095SOL    HW229922   0.800   2.961   2.400  1.7466 -1.2035  0.9161
 6096SOL     OW29923   2.748   1.108   2.356 -0.4106  0.1678  0.4575
 6096SOL    HW129924   2.689   1.161   2.408  0.4268  1.2644  0.2897
 6096SOL    HW229925   2.824   1.165   2.345 -1.2606  1.1846 -0.1038
 6097SOL     OW29926   2.666   3.063   2.735 -0.2785 -0.4501 -0.0895
 6097SOL    HW129927   2.576   3.044   2.709 -0.6876  0.6008  0.5327
 6097SOL    HW229928   2.724   3.039   2.663 -3.6616 -0.5381 -2.7744
 6098SOL     OW29929   2.521   1.803   3.816 -0.0550  0.6067 -0.2306
 6098SOL    HW129930   2.570   1.774   3.893 -0.5203 -1.1594 -0.5979
 6098SOL    HW229931   2.449   1.740   3.821 -0.5305  0.8400 -4.1010
 6099SOL     OW29932   3.391   1.093   6.927  0.0199 -0.1471 -0.4804
 6099SOL    HW129933   3.438   1.015   6.898  2.0798  0.9922 -0.1973
 6099SOL    HW229934   3.397   1.072   7.020  1.7284  0.7336 -0.3977
 6100SOL     OW29935   2.643   1.711   0.858 -0.3434 -0.0824  0.1714
 6100SOL    HW129936   2.681   1.785   0.810  0.2037 -2.0748 -2.4599
 6100SOL    HW229937   2.720   1.659   0.879 -0.3280 -0.2467 -0.2851
 6101SOL     OW29938   2.168   1.158   6.580 -0.2062 -0.0720 -0.4242
 6101SOL    HW129939   2.215   1.233   6.615  0.2254  1.3060 -3.9550
 6101SOL    HW229940   2.228   1.089   6.608 -0.1498 -0.4164 -1.3643
 6102SOL     OW29941   0.245   2.638   4.470 -0.0133  0.4574  0.3270
 6102SOL    HW129942   0.228   2.730   4.488 -0.9545  0.7595 -2.1763
 6102SOL    HW229943   0.333   2.634   4.509 -0.6808 -2.0182  1.6357
 6103SOL     OW29944   4.322   4.390   4.824 -0.1980  0.0180  0.6682
 6103SOL    HW129945   4.255   4.358   4.764  0.7655  0.1600 -0.4806
 6103SOL    HW229946   4.258   4.404   4.894 -0.0100 -1.1974  1.0754
 6104SOL     OW29947   0.420   0.918   8.892  0.1324 -0.0504  0.6627
 6104SOL    HW129948   0.368   0.895   8.815  1.1863  0.6780 -0.2706
 6104SOL    HW229949   0.361   0.981   8.934 -2.2769 -1.8212 -0.1223
 6105SOL     OW29950   2.600   2.211   5.651 -0.5779 -0.0631 -0.7030
 6105SOL    HW129951   2.594   2.116   5.642  1.1466  0.0086 -2.4609
 6105SOL    HW229952   2.540   2.230   5.723  0.7051  0.0964  0.3330
 6106SOL     OW29953   2.740   1.927   8.301  0.3136  0.5878  0.7501
 6106SOL    HW129954   2.720   1.892   8.214  1.1373  0.4941  0.5971
 6106SOL    HW229955   2.779   1.860   8.356  0.5817  1.5797  1.7778
 6107SOL     OW29956   2.005   1.718   7.585 -0.0448  0.1861 -0.1346
 6107SOL    HW129957   1.969   1.784   7.643  2.0072  0.2653  1.0176
 6107SOL    HW229958   2.030   1.779   7.515  0.3208 -2.0737 -1.9982
 6108SOL     OW29959   2.267   4.329  16.702 -0.3243 -0.2902 -0.0829
 6108SOL    HW129960   2.341   4.273  16.680 -0.4522 -1.2570  1.9223
 6108SOL    HW229961   2.250   4.369  16.616 -2.0170  1.1321  0.9100
 6109SOL     OW29962   0.056   2.483   9.160  0.4057  0.2372 -0.9921
 6109SOL    HW129963   0.080   2.476   9.068 -0.4713 -1.0262 -1.1218
 6109SOL    HW229964   0.119   2.552   9.180  2.2405 -1.9333  0.8231
 6110SOL     OW29965   0.891   2.249   4.443  0.0005  0.2632  0.2868
 6110SOL    HW129966   0.966   2.222   4.496 -1.1462 -0.2550  1.6575
 6110SOL    HW229967   0.934   2.221   4.363 -2.2994 -2.2710 -0.0856
 6111SOL     OW29968   0.436   1.700  14.253  0.2301 -0.3286 -0.6007
 6111SOL    HW129969   0.459   1.783  14.294  2.7318 -1.9739  1.3015
 6111SOL    HW229970   0.426   1.719  14.160 -1.2019 -2.2238 -0.8482
 6112SOL     OW29971   3.216   3.045   8.203  0.0233 -0.0575 -0.6176
 6112SOL    HW129972   3.153   3.039   8.275  1.7865  4.1802  1.3164
 6112SOL    HW229973   3.265   2.963   8.209 -1.1563 -0.7600 -0.7679
 6113SOL     OW29974   2.539   2.503   1.101 -0.4670 -0.1985  0.4899
 6113SOL    HW129975   2.449   2.485   1.130 -0.9508  0.0075 -0.8845
 6113SOL    HW229976   2.514   2.574   1.042 -1.7906 -1.1971 -0.1505
 6114SOL     OW29977   2.536   3.937   7.319  0.1099 -0.4383 -0.0013
 6114SOL    HW129978   2.533   3.876   7.393  0.9054  0.4675  0.7750
 6114SOL    HW229979   2.556   4.021   7.360 -0.3861  0.3965 -1.4812
 6115SOL     OW29980   2.326   2.199   8.193  0.2894 -0.7804 -0.5041
 6115SOL    HW129981   2.397   2.164   8.248 -0.4709 -0.7587  0.4812
 6115SOL    HW229982   2.320   2.125   8.132 -1.2414 -1.6374  0.6815
 6116SOL     OW29983   2.630   3.681  16.364  0.3412 -0.1612  0.8646
 6116SOL    HW129984   2.670   3.736  16.298  0.2373  0.5532  1.3997
 6116SOL    HW229985   2.611   3.607  16.306 -2.4020 -0.0934  1.7100
 6117SOL     OW29986   2.928   4.010   6.039 -0.1291 -0.7856 -0.5108
 6117SOL    HW129987   2.945   4.072   5.967 -0.5673  0.7733  0.7229
 6117SOL    HW229988   3.001   4.027   6.099 -1.0006  2.0774 -0.2323
 6118SOL     OW29989   0.931   4.390  11.945  0.0338  0.0732 -0.6426
 6118SOL    HW129990   1.002   4.337  11.909 -0.7243 -0.2246 -1.7154
 6118SOL    HW229991   0.969   4.391  12.033  2.1416 -1.5946 -1.5476
 6119SOL     OW29992   4.625   1.631  13.119  0.0120  0.0265  0.2059
 6119SOL    HW129993   4.689   1.699  13.142 -0.4733 -0.1448  2.0845
 6119SOL    HW229994   4.660   1.565  13.178  1.3214 -0.0801 -0.6944
 6120SOL     OW29995   2.174   3.561  17.595  0.4661 -0.0325 -0.2516
 6120SOL    HW129996   2.245   3.510  17.556 -0.3275  0.9414 -3.0225
 6120SOL    HW229997   2.138   3.496  17.654 -0.2775  0.8507  0.2707
 6121SOL     OW29998   0.984   4.532   4.146 -1.0592 -0.0746  0.0621
 6121SOL    HW129999   0.951   4.570   4.227 -3.4454 -0.8560 -0.5284
 6121SOL    HW230000   1.045   4.603   4.127  0.9133 -0.6596  4.3962
 6122SOL     OW30001   3.291   0.329  14.963 -0.0915 -0.2034 -0.1938
 6122SOL    HW130002   3.198   0.349  14.970  0.1639  1.0425 -0.4314
 6122SOL    HW230003   3.289   0.234  14.954  1.6210 -0.2018 -0.6234
 6123SOL     OW30004   1.045   1.771  12.131 -0.1375  0.3297  0.0165
 6123SOL    HW130005   1.007   1.840  12.186 -0.5877  0.7638 -0.8391
 6123SOL    HW230006   1.137   1.799  12.136  0.1309 -0.5125 -0.1375
 6124SOL     OW30007   0.127   4.532   8.910 -0.0410 -0.4921  0.0043
 6124SOL    HW130008   0.149   4.621   8.883 -0.9306 -0.7011 -1.3628
 6124SOL    HW230009   0.090   4.499   8.828 -3.1241 -2.2606  2.1119
 6125SOL     OW30010   1.645   4.654  15.238  0.4366 -0.1926 -0.0355
 6125SOL    HW130011   1.669   0.001  15.200 -2.0988  0.0589 -1.0861
 6125SOL    HW230012   1.702   4.592  15.193 -0.4251 -0.3333 -0.9332
 6126SOL     OW30013   2.133   1.231  12.427 -0.1065 -0.0355  0.0240
 6126SOL    HW130014   2.075   1.202  12.498 -1.6207  0.9063 -0.8125
 6126SOL    HW230015   2.094   1.318  12.415  1.9623  0.8757 -0.0180
 6127SOL     OW30016   4.720   3.759  10.808 -0.0028 -0.0487  0.2700
 6127SOL    HW130017   0.058   3.708  10.837 -0.9071 -1.6813 -0.2870
 6127SOL    HW230018   4.726   3.767  10.713 -0.4365  0.7856  0.3105
 6128SOL     OW30019   1.314   3.260   8.588  0.1583  0.4651  0.2446
 6128SOL    HW130020   1.256   3.292   8.657  2.3586  2.2004  1.3036
 6128SOL    HW230021   1.386   3.223   8.640 -2.1296 -1.4053  2.1014
 6129SOL     OW30022   0.266   4.244   2.305  0.2925  0.1782 -0.0609
 6129SOL    HW130023   0.256   4.339   2.318  1.4743  0.2129  0.6056
 6129SOL    HW230024   0.229   4.247   2.217  2.1436  2.1862 -0.7706
 6130SOL     OW30025   0.647   0.635   5.569 -0.4002 -0.4851  0.0728
 6130SOL    HW130026   0.579   0.579   5.607 -1.9554  2.2451  1.2370
 6130SOL    HW230027   0.727   0.581   5.572 -0.1017 -0.0917 -0.8490
 6131SOL     OW30028   3.722   1.559   7.515 -0.3026 -0.7106  0.4293
 6131SOL    HW130029   3.695   1.612   7.440  0.7821 -0.2507  0.3704
 6131SOL    HW230030   3.817   1.569   7.506 -0.4498 -0.6945 -1.0628
 6132SOL     OW30031   3.715   3.576   9.741  0.7124 -0.1603  0.1800
 6132SOL    HW130032   3.714   3.513   9.814 -1.5382  1.1811  1.3227
 6132SOL    HW230033   3.796   3.626   9.749  1.4877 -1.0803 -1.9894
 6133SOL     OW30034   4.135   0.190  11.319  0.3656 -0.1426 -0.0768
 6133SOL    HW130035   4.115   0.098  11.336 -1.0683 -0.2699 -2.4705
 6133SOL    HW230036   4.084   0.190  11.238  1.0174  3.6719 -0.5163
 6134SOL     OW30037   0.049   2.140   5.102 -0.8702  0.4508  0.0298
 6134SOL    HW130038   0.126   2.129   5.157  0.0608  0.6586 -1.2428
 6134SOL    HW230039   0.054   2.232   5.075 -0.3823  0.3656 -0.1706
 6135SOL     OW30040   2.263   3.962   4.917  0.1089  0.0512 -0.2854
 6135SOL    HW130041   2.347   4.008   4.927  1.3270 -2.3800  0.7416
 6135SOL    HW230042   2.288   3.872   4.895  2.5054  0.8641 -0.9025
 6136SOL     OW30043   2.650   4.475  10.863  0.0431  0.1820  0.0808
 6136SOL    HW130044   2.738   4.471  10.826 -0.7251  0.9419 -1.8284
 6136SOL    HW230045   2.587   4.455  10.794  1.0059 -2.1972 -0.1073
 6137SOL     OW30046   4.281   3.290   8.775 -0.4157  0.5992  0.4999
 6137SOL    HW130047   4.341   3.284   8.701  0.9206 -1.0513  1.7063
 6137SOL    HW230048   4.219   3.352   8.738  0.7440  0.1320 -2.1852
 6138SOL     OW30049   2.709   0.239   7.578 -0.3055  0.2137  0.1733
 6138SOL    HW130050   2.730   0.241   7.485 -2.7854 -3.3064 -0.4779
 6138SOL    HW230051   2.729   0.147   7.596 -0.6102  0.3355  1.1601
 6139SOL     OW30052   0.559   1.762  13.198  0.0430  0.1649  0.4556
 6139SOL    HW130053   0.512   1.786  13.117  2.7009  0.3460 -1.0344
 6139SOL    HW230054   0.642   1.726  13.166 -0.8443 -1.4533 -0.0571
 6140SOL     OW30055   4.270   1.291   8.391  0.6694 -0.0007 -0.4167
 6140SOL    HW130056   4.219   1.226   8.342  0.3773  1.0356 -1.4890
 6140SOL    HW230057   4.206   1.349   8.432 -0.7347 -1.0610 -1.1056
 6141SOL     OW30058   1.662   3.729   5.811 -0.0303 -0.3436 -0.8299
 6141SOL    HW130059   1.581   3.777   5.794  0.6430  0.8375 -0.6964
 6141SOL    HW230060   1.687   3.675   5.736  0.2317 -2.3747  0.7216
 6142SOL     OW30061   1.086   3.759   4.411 -0.2977 -0.2330 -0.0515
 6142SOL    HW130062   1.149   3.788   4.345  0.7311  1.1925  1.5711
 6142SOL    HW230063   1.007   3.767   4.357  0.1871 -0.1785 -0.7457
 6143SOL     OW30064   2.126   2.930  14.671  0.4021  0.5566 -0.6652
 6143SOL    HW130065   2.151   2.964  14.757  0.6712 -2.7820  0.5799
 6143SOL    HW230066   2.150   3.003  14.614 -0.0733 -0.0070 -1.5875
 6144SOL     OW30067   4.667   2.198   8.983 -0.0844  0.0536  0.1691
 6144SOL    HW130068   4.678   2.247   8.902  0.6345 -0.3966 -0.0121
 6144SOL    HW230069   4.649   2.110   8.949  2.6783  0.1342 -1.5272
 6145SOL     OW30070   3.329   4.159  16.664  0.3195 -0.0941 -0.3180
 6145SOL    HW130071   3.333   4.064  16.667 -0.1996 -0.1348 -0.8893
 6145SOL    HW230072   3.397   4.181  16.600  0.9551  0.6626  0.6157
 6146SOL     OW30073   2.663   2.275  10.173 -0.1903  0.4721 -0.1043
 6146SOL    HW130074   2.690   2.361  10.206 -0.3687  0.5570 -0.1817
 6146SOL    HW230075   2.741   2.236  10.133  1.5592  2.1068  1.6937
 6147SOL     OW30076   1.264   4.407  14.388  0.3881 -0.2910 -0.2208
 6147SOL    HW130077   1.230   4.496  14.396  0.1795 -0.2786 -1.3711
 6147SOL    HW230078   1.250   4.398  14.294 -2.3475  0.6031  0.0923
 6148SOL     OW30079   0.679   4.156  12.589 -0.1538 -0.2915 -0.5364
 6148SOL    HW130080   0.752   4.096  12.601 -0.5086 -0.6157 -0.0336
 6148SOL    HW230081   0.721   4.242  12.601 -1.3740  0.2545 -0.1356
 6149SOL     OW30082   2.212   0.079   2.345 -0.4280  0.0983 -0.2262
 6149SOL    HW130083   2.287   0.127   2.309 -0.5035 -1.0707 -1.9527
 6149SOL    HW230084   2.139   0.139   2.331  0.5703  1.3629 -0.0099
 6150SOL     OW30085   2.597   3.347   5.834 -0.2264  0.2028  0.1323
 6150SOL    HW130086   2.539   3.320   5.905  0.0854  0.7625  0.5973
 6150SOL    HW230087   2.619   3.265   5.789 -1.2169  0.5070 -0.9294
 6151SOL     OW30088   1.200   3.888   8.207 -0.0264  0.3997 -0.2292
 6151SOL    HW130089   1.138   3.816   8.215  0.3337 -0.1206 -2.2227
 6151SOL    HW230090   1.282   3.841   8.223  0.0670  0.4176 -0.6542
 6152SOL     OW30091   4.585   2.893   8.481 -0.4735  0.1461  0.1639
 6152SOL    HW130092   4.544   2.916   8.564  0.3070 -1.9449  1.1398
 6152SOL    HW230093   4.642   2.969   8.469 -1.5395  1.3302  2.6135
 6153SOL     OW30094   3.457   3.437   3.976 -0.4494 -0.1453 -0.0103
 6153SOL    HW130095   3.437   3.355   3.931 -1.7315  1.5890 -2.5972
 6153SOL    HW230096   3.408   3.430   4.058  0.6843 -0.7035  0.6246
 6154SOL     OW30097   1.701   2.815   0.297 -0.0997 -0.3514  0.0702
 6154SOL    HW130098   1.733   2.878   0.231  1.8901 -0.8448  0.5456
 6154SOL    HW230099   1.675   2.876   0.365  0.5827  1.5015 -1.3342
 6155SOL     OW30100   0.197   1.816  13.880 -0.0558 -0.7135  0.0137
 6155SOL    HW130101   0.130   1.856  13.936  0.0251 -0.4511 -0.0761
 6155SOL    HW230102   0.206   1.882  13.811  0.6873 -1.8767 -1.0086
 6156SOL     OW30103   1.739   0.121   4.279 -0.0097  0.0184 -0.4303
 6156SOL    HW130104   1.799   0.186   4.316  0.5439  1.4299 -3.7597
 6156SOL    HW230105   1.717   0.071   4.357 -1.3383  1.3980  0.0819
 6157SOL     OW30106   0.679   2.201   4.602 -0.0765  0.7180  0.1984
 6157SOL    HW130107   0.695   2.235   4.690 -0.1927  2.0889 -0.3201
 6157SOL    HW230108   0.754   2.227   4.548 -2.8112  1.9567 -2.9957
 6158SOL     OW30109   0.134   0.899   8.773  0.3533  0.2046 -0.5016
 6158SOL    HW130110   0.142   0.816   8.821  0.4812  0.1810 -0.5639
 6158SOL    HW230111   0.041   0.916   8.789 -0.1529 -2.0591 -1.0795
 6159SOL     OW30112   3.973   1.347   1.075  0.1662 -0.3163 -0.7216
 6159SOL    HW130113   3.894   1.294   1.085  1.2944 -1.2062  3.5747
 6159SOL    HW230114   3.926   1.428   1.092  1.4404 -0.2562  2.5489
 6160SOL     OW30115   2.957   3.638   7.219 -0.5501  0.1366  0.1972
 6160SOL    HW130116   2.942   3.678   7.305 -2.0325 -0.6307  0.3037
 6160SOL    HW230117   2.877   3.671   7.179 -0.0010  0.7485 -0.3963
 6161SOL     OW30118   3.783   1.786   7.743 -0.4761 -0.5175 -1.0787
 6161SOL    HW130119   3.862   1.834   7.718 -1.1079 -0.0119 -2.0819
 6161SOL    HW230120   3.762   1.728   7.670 -0.3439 -2.2438  0.2378
 6162SOL     OW30121   1.091   1.167   9.584  0.0531  0.5953  0.1930
 6162SOL    HW130122   1.049   1.084   9.559  1.3442  0.0894 -0.2815
 6162SOL    HW230123   1.132   1.140   9.665  2.0879  0.3015 -0.9403
 6163SOL     OW30124   3.383   1.738   6.789  0.4177  0.2193 -0.1579
 6163SOL    HW130125   3.465   1.778   6.759  0.8474 -1.2104 -0.9086
 6163SOL    HW230126   3.334   1.720   6.709 -3.0173  0.1173  1.9989
 6164SOL     OW30127   0.052   4.373   6.291  0.4030 -0.3160  0.3261
 6164SOL    HW130128   0.033   4.395   6.199  0.1715  1.1171  0.7194
 6164SOL    HW230129   0.003   4.441   6.338 -0.2701 -0.5005 -0.0946
 6165SOL     OW30130   2.744   0.348   8.174 -0.5865 -0.0883 -0.1119
 6165SOL    HW130131   2.839   0.359   8.183 -0.5686 -0.3814  0.0491
 6165SOL    HW230132   2.734   0.334   8.079  2.4950  0.7456 -0.5578
 6166SOL     OW30133   1.981   3.945   7.842 -0.0690 -0.2102  0.1857
 6166SOL    HW130134   2.027   3.991   7.773  0.1244  1.7503  1.6337
 6166SOL    HW230135   1.976   3.856   7.805 -0.3842 -0.8064  1.6607
 6167SOL     OW30136   2.844   3.662   8.888 -0.9829 -0.3043  0.2614
 6167SOL    HW130137   2.859   3.748   8.927 -1.2742  0.0203 -0.3348
 6167SOL    HW230138   2.833   3.692   8.798  0.8170  1.3565  0.5936
 6168SOL     OW30139   0.985   3.090   2.009 -0.0535 -0.0720  0.8652
 6168SOL    HW130140   0.977   3.000   2.041  1.4826  0.2875  2.2873
 6168SOL    HW230141   0.920   3.086   1.939  0.6996  3.4143 -0.0513
 6169SOL     OW30142   1.863   2.587  15.225 -0.3442  0.0950  0.4724
 6169SOL    HW130143   1.906   2.548  15.149  0.1856  1.0150  0.2911
 6169SOL    HW230144   1.933   2.578  15.289  0.1297 -3.9018 -0.6343
 6170SOL     OW30145   3.678   3.763   7.598 -0.0715  0.2270 -0.1792
 6170SOL    HW130146   3.587   3.767   7.629 -0.3392 -1.6694 -0.7048
 6170SOL    HW230147   3.713   3.683   7.636 -2.5891 -0.2346  1.1714
 6171SOL     OW30148   4.438   0.629   2.616  0.0324  0.5861  0.6820
 6171SOL    HW130149   4.472   0.634   2.705  2.9604  0.1194 -0.4259
 6171SOL    HW230150   4.375   0.558   2.628 -0.3042  1.0574  1.6757
 6172SOL     OW30151   3.366   0.381   1.245 -0.4538 -0.1419 -0.1530
 6172SOL    HW130152   3.290   0.435   1.270 -1.7489 -0.5358 -3.2760
 6172SOL    HW230153   3.432   0.441   1.210 -0.4942  0.3690  0.6434
 6173SOL     OW30154   1.015   3.097   6.842 -0.4545 -0.3507  0.0835
 6173SOL    HW130155   0.927   3.089   6.878 -0.2690 -0.1429  0.5875
 6173SOL    HW230156   1.011   3.035   6.769  1.6740  2.0967 -2.1223
 6174SOL     OW30157   1.064   3.407   3.385  0.1514  0.1235 -0.0560
 6174SOL    HW130158   0.976   3.385   3.414  0.2189  0.8632  0.7127
 6174SOL    HW230159   1.052   3.424   3.291 -0.9277 -0.6903 -0.0710
 6175SOL     OW30160   1.729   3.947  10.734  0.9124  0.7680  0.7082
 6175SOL    HW130161   1.710   4.022  10.676 -1.5182 -0.9763 -0.7899
 6175SOL    HW230162   1.716   3.871  10.677 -0.7508  0.8488  0.9751
 6176SOL     OW30163   0.293   2.658   7.743  0.0462  0.5544  0.2683
 6176SOL    HW130164   0.303   2.750   7.765  0.1450  0.6559 -0.1984
 6176SOL    HW230165   0.384   2.632   7.725 -0.0579  0.3387  0.0458
 6177SOL     OW30166   1.000   0.013  11.150  0.2036  0.1778 -0.0956
 6177SOL    HW130167   0.922   4.726  11.200  0.0223 -1.1152 -1.0055
 6177SOL    HW230168   1.068   4.708  11.203 -1.3954 -2.0640  0.1543
 6178SOL     OW30169   0.250   2.547   2.444 -0.4047 -0.1507  0.4524
 6178SOL    HW130170   0.175   2.604   2.465  0.6084  0.7570  1.6507
 6178SOL    HW230171   0.325   2.600   2.472 -0.2642 -1.4159  2.4455
 6179SOL     OW30172   0.467   3.250   5.318 -0.0883  0.1435  0.5360
 6179SOL    HW130173   0.559   3.276   5.308 -0.3092  1.7513  2.8485
 6179SOL    HW230174   0.458   3.183   5.250  0.9983  1.7257 -1.1606
 6180SOL     OW30175   4.059   3.355   9.100 -1.1607  0.8609 -0.7895
 6180SOL    HW130176   4.062   3.260   9.116  1.3466  1.1162  0.3982
 6180SOL    HW230177   4.130   3.385   9.157  0.1106  0.7421 -2.2964
 6181SOL     OW30178   0.488   0.318   3.634  0.0076 -0.2881  0.3444
 6181SOL    HW130179   0.475   0.369   3.554 -0.6234  0.1502  0.7251
 6181SOL    HW230180   0.422   0.249   3.628  0.5517 -0.5220 -3.0357
 6182SOL     OW30181   0.060   2.499   5.288  0.4338  0.1687  1.0076
 6182SOL    HW130182   0.051   2.469   5.198 -0.8831  0.0698  1.1719
 6182SOL    HW230183   4.709   2.489   5.324  0.1942  2.4764  1.1040
 6183SOL     OW30184   3.084   2.848   6.759  0.1045  0.0901 -0.0275
 6183SOL    HW130185   3.060   2.907   6.687  4.2751  1.9793  0.1446
 6183SOL    HW230186   3.032   2.888   6.829 -1.5392 -4.3301  1.2264
 6184SOL     OW30187   0.187   4.218   6.774 -0.8702 -0.3297 -0.5192
 6184SOL    HW130188   0.189   4.160   6.851  1.3876 -0.5493 -0.7481
 6184SOL    HW230189   0.252   4.171   6.722 -2.2394 -0.3919 -2.1833
 6185SOL     OW30190   1.612   0.896   4.914  0.8314 -0.4273 -0.0861
 6185SOL    HW130191   1.576   0.852   4.837 -2.0594  1.9960 -0.1497
 6185SOL    HW230192   1.573   0.843   4.984  2.3925  1.9157  2.5812
 6186SOL     OW30193   0.956   2.695   8.463  0.1487  0.1945  0.2784
 6186SOL    HW130194   0.897   2.624   8.488  0.3376 -0.6276 -1.6183
 6186SOL    HW230195   0.959   2.744   8.545 -1.3493  1.3154 -0.3430
 6187SOL     OW30196   0.050   1.716   0.046  0.0848 -0.0948 -0.1176
 6187SOL    HW130197   0.101   1.635   0.039 -1.2097 -1.0047  1.0410
 6187SOL    HW230198   0.012   1.724  17.704  0.6149  1.3952 -0.2100
 6188SOL     OW30199   4.464   2.277   6.865  0.5090  0.4966 -0.0881
 6188SOL    HW130200   4.380   2.231   6.858  0.0654  0.9488  2.2395
 6188SOL    HW230201   4.484   2.269   6.958  0.1988  1.8147  0.0937
 6189SOL     OW30202   4.529   1.544   8.528  0.5519  0.2109  0.2621
 6189SOL    HW130203   4.484   1.568   8.609  1.5397 -0.6398  1.0450
 6189SOL    HW230204   4.617   1.528   8.560 -0.0828 -1.3659  1.2076
 6190SOL     OW30205   3.847   2.787   3.236  0.1190 -0.4895 -0.2940
 6190SOL    HW130206   3.872   2.712   3.289 -1.6945 -1.4239 -0.7563
 6190SOL    HW230207   3.927   2.789   3.184 -0.6608  0.9923 -1.4312
 6191SOL     OW30208   4.121   2.468   5.072 -0.6376  0.1484  0.6278
 6191SOL    HW130209   4.064   2.544   5.063  2.7771  2.8669  2.0123
 6191SOL    HW230210   4.094   2.407   5.003 -2.6940 -1.1326  2.5596
 6192SOL     OW30211   0.593   0.437   3.865  0.5602 -0.4919 -0.5056
 6192SOL    HW130212   0.575   0.379   3.791 -0.9372  0.1836 -0.6526
 6192SOL    HW230213   0.550   0.520   3.844 -0.9702 -0.1763  4.0167
 6193SOL     OW30214   0.250   2.294   9.788  0.0145 -0.2322  0.5967
 6193SOL    HW130215   0.170   2.329   9.828  0.6474  1.5465  0.2763
 6193SOL    HW230216   0.230   2.200   9.794  1.4722 -0.5029  1.1530
 6194SOL     OW30217   3.080   4.008   8.496 -0.0065  0.2548  0.2475
 6194SOL    HW130218   3.122   3.922   8.501  0.4578  0.4204 -0.8690
 6194SOL    HW230219   3.151   4.071   8.511  0.7056 -0.3557 -0.5963
 6195SOL     OW30220   0.995   1.402   6.507 -0.6160 -0.0692  0.1986
 6195SOL    HW130221   0.957   1.383   6.421  0.9564  1.4775 -0.8306
 6195SOL    HW230222   1.081   1.434   6.479 -0.1909  0.5546  2.2394
 6196SOL     OW30223   0.899   2.517   6.425  0.3156  0.2673 -0.0517
 6196SOL    HW130224   0.976   2.567   6.398 -1.7039  2.0004 -2.4805
 6196SOL    HW230225   0.823   2.552   6.379  1.5934  1.2215 -1.4345
 6197SOL     OW30226   1.571   4.643   8.227  0.5536  0.1863  0.2701
 6197SOL    HW130227   1.588   4.708   8.159 -1.3150  1.3520  0.8996
 6197SOL    HW230228   1.653   4.641   8.277  0.1740 -3.4988  0.7501
 6198SOL     OW30229   4.320   4.325   4.494 -0.4610  0.0044  0.2537
 6198SOL    HW130230   4.317   4.242   4.541  1.0518  0.7451  1.6816
 6198SOL    HW230231   4.296   4.292   4.407 -0.1231 -1.5980  0.7579
 6199SOL     OW30232   0.802   1.525   2.649  0.1142 -0.4740 -0.0431
 6199SOL    HW130233   0.770   1.561   2.567 -1.7264  0.7540  1.2138
 6199SOL    HW230234   0.861   1.456   2.620 -0.4899 -0.9721 -0.0813
 6200SOL     OW30235   4.009   2.182   4.959  0.3532 -1.0604  0.1461
 6200SOL    HW130236   3.932   2.239   4.960  0.2892 -1.1457  0.1402
 6200SOL    HW230237   3.998   2.141   4.873  3.1476 -3.7107  1.0679
 6201SOL     OW30238   4.685   1.668   0.325  1.0982 -0.1129  0.6540
 6201SOL    HW130239   4.700   1.725   0.249 -0.9260 -1.3940 -0.6937
 6201SOL    HW230240   0.009   1.708   0.388  0.9063 -0.4475  1.0465
 6202SOL     OW30241   4.269   4.378   8.341 -0.1234  0.1214 -0.0685
 6202SOL    HW130242   4.364   4.369   8.344  0.1072  2.1950 -1.4486
 6202SOL    HW230243   4.243   4.287   8.355  1.0222 -0.2916 -0.6124
 6203SOL     OW30244   2.607   0.869   8.336  0.4626 -0.4180 -0.0693
 6203SOL    HW130245   2.652   0.785   8.339  0.5224 -0.3563  0.6787
 6203SOL    HW230246   2.613   0.888   8.242  2.7781  0.3132  0.2235
 6204SOL     OW30247   0.242   2.250   2.525 -0.7392  0.4146  0.6146
 6204SOL    HW130248   0.275   2.339   2.515  0.2581  0.1918  1.8495
 6204SOL    HW230249   0.152   2.267   2.552 -0.5848 -0.9626  1.9946
 6205SOL     OW30250   4.530   2.722   5.357  0.7923 -0.1512  0.1400
 6205SOL    HW130251   4.591   2.791   5.383 -1.0105  0.7546  1.9318
 6205SOL    HW230252   4.552   2.724   5.264 -1.1661 -1.2632 -0.3461
 6206SOL     OW30253   0.771   3.129  12.899  0.6882 -0.1971  0.1977
 6206SOL    HW130254   0.787   3.072  12.823  0.6424 -2.5315  1.9554
 6206SOL    HW230255   0.835   3.199  12.892  0.4233  0.1312  1.1440
 6207SOL     OW30256   3.182   1.226  16.822 -0.0989 -0.2782 -0.1521
 6207SOL    HW130257   3.134   1.265  16.895  1.8211  2.0601 -0.1384
 6207SOL    HW230258   3.270   1.260  16.839 -0.0683 -0.6799  0.5063
 6208SOL     OW30259   0.776   1.644   6.563 -0.0376 -0.2974 -0.3486
 6208SOL    HW130260   0.742   1.589   6.493 -1.5036 -0.0513  0.1456
 6208SOL    HW230261   0.765   1.583   6.636  0.7142  1.0237  0.8709
 6209SOL     OW30262   3.858   1.136   8.134 -0.4871  0.7250  0.0501
 6209SOL    HW130263   3.857   1.101   8.045 -1.7368  1.1349 -0.0932
 6209SOL    HW230264   3.782   1.195   8.133  0.0965  1.4473 -1.1751
 6210SOL     OW30265   0.348   3.265   8.067  0.4065  0.1996 -0.0581
 6210SOL    HW130266   0.298   3.332   8.113 -0.8086 -1.1060  0.5192
 6210SOL    HW230267   0.402   3.229   8.137  2.5046  0.0414 -1.7357
 6211SOL     OW30268   1.593   3.057   5.873  0.7579 -0.2986  0.0334
 6211SOL    HW130269   1.678   3.100   5.872 -0.5086  2.1904 -0.9913
 6211SOL    HW230270   1.529   3.128   5.874 -0.7084 -1.5965 -1.2504
 6212SOL     OW30271   2.851   1.312   3.345  0.3908 -0.0001  0.7329
 6212SOL    HW130272   2.900   1.316   3.427  1.1583  0.0120  0.2752
 6212SOL    HW230273   2.927   1.308   3.287 -1.7828  0.4771 -2.1353
 6213SOL     OW30274   1.971   2.170  17.490  0.1789  0.1012 -0.0324
 6213SOL    HW130275   1.988   2.190  17.582 -0.9244 -1.9739  0.6185
 6213SOL    HW230276   1.931   2.083  17.496  2.3344 -0.8882  0.1265
 6214SOL     OW30277   4.233   3.388   0.081 -0.5335  0.3492  0.5030
 6214SOL    HW130278   4.293   3.449   0.038  1.4858 -0.3010  2.4425
 6214SOL    HW230279   4.218   3.324   0.010  2.9105  1.4144 -1.1839
 6215SOL     OW30280   4.715   2.119   4.292 -0.6487 -0.1526 -0.0529
 6215SOL    HW130281   4.665   2.200   4.285 -1.7404 -0.9323 -1.2106
 6215SOL    HW230282   0.003   2.124   4.385  0.2208 -0.5973 -0.2563
 6216SOL     OW30283   0.713   2.824  15.558 -0.5011 -0.0599 -0.2948
 6216SOL    HW130284   0.673   2.911  15.566  0.7105  0.6868 -2.4333
 6216SOL    HW230285   0.725   2.822  15.463 -0.8654  1.6805 -0.3738
 6217SOL     OW30286   0.748   4.406   2.673 -0.6145  0.6101 -0.5818
 6217SOL    HW130287   0.743   4.446   2.760 -1.3315 -1.3358  0.2725
 6217SOL    HW230288   0.660   4.421   2.637 -1.2730  0.1646  0.8398
 6218SOL     OW30289   3.284   4.637   9.549  0.4300 -0.0506  0.0816
 6218SOL    HW130290   3.222   4.564   9.546  0.5893 -0.2241  1.0152
 6218SOL    HW230291   3.368   4.601   9.578 -0.6857  0.0433  3.4329
 6219SOL     OW30292   1.361   4.532   1.981  0.0977  0.0491  0.3710
 6219SOL    HW130293   1.451   4.507   1.963  0.7979  0.6647  3.0164
 6219SOL    HW230294   1.367   4.628   1.977 -1.2537  0.1757  1.3817
 6220SOL     OW30295   0.721   3.917  17.616  0.1108 -0.4401  0.0279
 6220SOL    HW130296   0.689   3.914  17.526 -0.7263  2.1231  0.2444
 6220SOL    HW230297   0.746   4.009  17.627 -1.8600 -0.1953  2.4690
 6221SOL     OW30298   2.616   4.105   6.399  0.7342 -0.2376 -0.3830
 6221SOL    HW130299   2.553   4.034   6.391  2.4187 -1.9395  1.4810
 6221SOL    HW230300   2.584   4.141   6.482  0.8722 -0.7142 -0.1251
 6222SOL     OW30301   2.772   3.246   8.656 -0.3657  1.1764 -0.3099
 6222SOL    HW130302   2.746   3.255   8.748  0.8816  1.2816  0.0335
 6222SOL    HW230303   2.750   3.336   8.631 -1.1968  1.1505  0.3340
 6223SOL     OW30304   2.107   2.693   6.235 -0.4582  0.4317  0.5329
 6223SOL    HW130305   2.149   2.662   6.155 -1.4398 -0.8322  0.5049
 6223SOL    HW230306   2.027   2.642   6.246  0.3340 -0.7566  0.7793
 6224SOL     OW30307   2.436   1.930  11.682  0.1946  0.0041  0.7647
 6224SOL    HW130308   2.509   1.869  11.697  0.7104  0.5110  0.2687
 6224SOL    HW230309   2.479   2.011  11.711 -1.2804  1.9912 -2.6941
 6225SOL     OW30310   1.340   0.800  10.851  0.4170 -0.4952 -0.0745
 6225SOL    HW130311   1.255   0.778  10.812 -0.1387 -0.4731  1.1061
 6225SOL    HW230312   1.373   0.878  10.806 -2.3477  0.8395  0.1994
 6226SOL     OW30313   2.621   3.480  11.449  0.0224  0.3663 -0.6513
 6226SOL    HW130314   2.698   3.423  11.456  1.3122  2.0929 -0.7793
 6226SOL    HW230315   2.581   3.446  11.369 -0.6497 -1.2588  0.3625
 6227SOL     OW30316   0.255   0.714   6.788  1.0795 -0.6059  0.0775
 6227SOL    HW130317   0.295   0.630   6.811 -2.7890 -2.1088  1.4613
 6227SOL    HW230318   0.326   0.774   6.765 -1.0048  1.7731 -0.2824
 6228SOL     OW30319   1.341   2.812   8.129 -0.3898  0.2333  0.1139
 6228SOL    HW130320   1.256   2.795   8.088 -0.9949  0.3727  1.3109
 6228SOL    HW230321   1.338   2.762   8.211 -0.4930 -1.5828 -0.9742
 6229SOL     OW30322   1.374   2.590   3.767 -0.5220  0.3141 -0.0127
 6229SOL    HW130323   1.466   2.603   3.743 -0.7159  1.6397 -0.0210
 6229SOL    HW230324   1.390   2.510   3.818  0.7741  1.0528  0.7351
 6230SOL     OW30325   2.547   3.306   1.909 -0.4972  0.0099 -0.0012
 6230SOL    HW130326   2.640   3.301   1.929  0.1340  1.9238 -2.3889
 6230SOL    HW230327   2.544   3.401   1.893  2.8886  0.1151  0.0516
 6231SOL     OW30328   2.128   3.510   7.132  0.4697 -0.4297 -0.6890
 6231SOL    HW130329   2.095   3.452   7.063 -2.2329  1.2824 -0.8481
 6231SOL    HW230330   2.061   3.579   7.130  1.3516  0.4830  1.3163
 6232SOL     OW30331   3.694   0.367   5.471 -0.0926  0.1558 -0.5356
 6232SOL    HW130332   3.677   0.371   5.377 -2.2586 -0.6043 -0.1866
 6232SOL    HW230333   3.615   0.405   5.509  0.6397 -0.1011  1.2599
 6233SOL     OW30334   3.871   3.865  17.341 -0.1295 -0.2858 -0.5971
 6233SOL    HW130335   3.791   3.904  17.304  0.8269  2.3201  0.0651
 6233SOL    HW230336   3.871   3.922  17.418  1.7421  1.6309 -2.0352
 6234SOL     OW30337   2.217   1.708  14.471  0.0137 -0.5464  0.0318
 6234SOL    HW130338   2.193   1.752  14.389 -0.4413 -0.9305 -0.0408
 6234SOL    HW230339   2.240   1.620  14.441  1.0987 -0.6539  1.1500
 6235SOL     OW30340   4.226   4.248   5.924 -0.2204  0.3362  0.6729
 6235SOL    HW130341   4.258   4.331   5.887 -0.4484  0.7232  1.3330
 6235SOL    HW230342   4.250   4.257   6.016  0.1578 -0.8729  0.6887
 6236SOL     OW30343   1.968   0.179  13.008  0.2040 -0.2999 -0.5311
 6236SOL    HW130344   1.896   0.219  12.960 -0.5429  0.9736  1.6659
 6236SOL    HW230345   2.022   0.254  13.034  1.5950 -0.9609 -1.4779
 6237SOL     OW30346   2.148   1.832   6.954  0.5695  0.3930 -0.1615
 6237SOL    HW130347   2.097   1.837   6.873  0.0512 -0.9039  0.0963
 6237SOL    HW230348   2.179   1.919   6.978 -1.9289  1.5413 -1.0961
 6238SOL     OW30349   3.623   1.619   8.349 -0.1432  0.1831  0.1476
 6238SOL    HW130350   3.682   1.690   8.374  0.3307  0.0729 -0.6585
 6238SOL    HW230351   3.537   1.650   8.322 -0.4215  1.1049  2.1103
 6239SOL     OW30352   4.183   0.062  10.182 -0.1329  0.4852  0.2620
 6239SOL    HW130353   4.218   0.136  10.133  0.0985  0.2596  0.0830
 6239SOL    HW230354   4.207   0.071  10.274 -1.0744  0.2458  0.5350
 6240SOL     OW30355   2.169   2.685  11.462 -0.4224  0.1109 -0.2698
 6240SOL    HW130356   2.111   2.746  11.507  3.0412  2.5350  0.9230
 6240SOL    HW230357   2.169   2.612  11.525 -3.5474 -0.5480 -1.0578
 6241SOL     OW30358   1.825   3.161  10.339 -0.4523  0.3919  0.3969
 6241SOL    HW130359   1.741   3.207  10.340 -0.7622 -0.1838  0.4905
 6241SOL    HW230360   1.824   3.133  10.430 -1.0685 -2.2909 -0.4259
 6242SOL     OW30361   4.025   0.989   1.270  0.0545  0.6745 -0.1036
 6242SOL    HW130362   4.077   1.068   1.255  0.9678  0.2317  0.7276
 6242SOL    HW230363   4.098   0.929   1.286 -0.7384 -0.0648  0.7718
 6243SOL     OW30364   1.244   3.807   7.899  0.5377 -0.3386  0.2596
 6243SOL    HW130365   1.296   3.802   7.819  0.2037 -1.5625  0.1270
 6243SOL    HW230366   1.301   3.858   7.957 -0.8465  1.6857 -0.1758
 6244SOL     OW30367   3.163   2.493   7.782  0.3904  0.6766 -0.2079
 6244SOL    HW130368   3.120   2.428   7.838 -0.5371  0.4625 -1.1508
 6244SOL    HW230369   3.115   2.570   7.812 -0.0164 -0.2612  1.5437
 6245SOL     OW30370   4.082   4.086   6.816  0.2484 -0.3771  0.2485
 6245SOL    HW130371   4.079   4.105   6.910 -0.8927  0.8971 -0.0484
 6245SOL    HW230372   4.155   4.142   6.791 -0.9922 -0.2005 -2.9885
 6246SOL     OW30373   4.182   2.058   1.645  0.2573 -0.4385  0.4500
 6246SOL    HW130374   4.124   2.026   1.576 -0.3812  1.6572  0.0171
 6246SOL    HW230375   4.233   1.979   1.665 -0.5482 -1.1244 -0.2221
 6247SOL     OW30376   0.935   4.054   1.829 -0.0434  0.7945 -0.0625
 6247SOL    HW130377   0.929   4.107   1.909  1.1265 -0.4841  0.8712
 6247SOL    HW230378   0.888   3.974   1.855  0.4129  1.1497  1.8803
 6248SOL     OW30379   3.253   4.169   9.027 -0.4417  0.5738  0.5343
 6248SOL    HW130380   3.212   4.227   9.091 -5.1621 -0.7051 -1.3353
 6248SOL    HW230381   3.270   4.083   9.065  0.0419 -0.2098 -1.4136
 6249SOL     OW30382   3.365   0.499   8.001  0.0152  0.5525  0.2123
 6249SOL    HW130383   3.332   0.442   7.931  2.0547 -0.7788  0.3079
 6249SOL    HW230384   3.424   0.438   8.045 -1.3424 -0.0617  1.1751
 6250SOL     OW30385   4.556   3.849   4.606 -0.4703 -0.0426  0.1768
 6250SOL    HW130386   4.548   3.822   4.698 -1.5637 -0.4286 -0.0354
 6250SOL    HW230387   4.502   3.784   4.563 -0.2935  0.0457 -0.1773
 6251SOL     OW30388   2.074   0.779   9.581 -0.1572 -0.3096 -0.2539
 6251SOL    HW130389   2.101   0.687   9.574 -1.4259 -0.7564  0.6941
 6251SOL    HW230390   2.098   0.822   9.499 -2.0449 -0.8086 -1.0544
 6252SOL     OW30391   4.168   1.335  10.667 -0.5135 -0.3505  0.1287
 6252SOL    HW130392   4.130   1.365  10.749  0.5832 -1.0315  0.8840
 6252SOL    HW230393   4.134   1.405  10.610 -0.5142 -0.9222 -0.5721
 6253SOL     OW30394   1.282   0.555   1.664  0.2564  0.1891  0.4540
 6253SOL    HW130395   1.362   0.591   1.703 -0.9724  2.3465  1.0037
 6253SOL    HW230396   1.229   0.635   1.663 -1.0962 -0.7028  0.9622
 6254SOL     OW30397   2.801   3.429   6.059 -0.6945 -0.4212  0.1801
 6254SOL    HW130398   2.882   3.450   6.012  0.5128 -1.2165  1.8677
 6254SOL    HW230399   2.737   3.406   5.992  0.0953 -0.1693 -0.6641
 6255SOL     OW30400   4.338   1.409   0.502 -0.7034  0.6053 -0.3470
 6255SOL    HW130401   4.406   1.341   0.492 -1.4558  0.3613 -3.6552
 6255SOL    HW230402   4.267   1.353   0.533 -0.0819  0.3536  0.6292
 6256SOL     OW30403   2.970   2.348   1.374  0.0211 -0.5645  0.2271
 6256SOL    HW130404   2.903   2.402   1.332  1.9929  1.9026  0.2461
 6256SOL    HW230405   3.020   2.335   1.294  0.0694 -0.9925  0.3289
 6257SOL     OW30406   2.815   2.011   1.537  0.1332  0.2913 -0.0927
 6257SOL    HW130407   2.845   1.923   1.515  0.1065 -0.6123  3.4566
 6257SOL    HW230408   2.901   2.053   1.530  0.2308 -0.3512 -2.6177
 6258SOL     OW30409   1.431   1.043   7.496  0.2247  0.0800 -0.2582
 6258SOL    HW130410   1.440   0.953   7.462 -0.6120 -0.2612  0.4114
 6258SOL    HW230411   1.523   1.066   7.504 -0.3010  2.3189 -0.6868
 6259SOL     OW30412   1.756   1.288   2.767 -0.2219  0.5650  0.2247
 6259SOL    HW130413   1.770   1.297   2.672  2.2842 -0.6087  0.4938
 6259SOL    HW230414   1.743   1.195   2.785  0.5485 -0.2743 -3.6057
 6260SOL     OW30415   3.810   3.964   7.754  0.1859  0.3931 -0.1740
 6260SOL    HW130416   3.783   3.926   7.837  0.3570  2.0557  0.6418
 6260SOL    HW230417   3.788   3.899   7.687  0.0261  1.3274 -1.0246
 6261SOL     OW30418   2.176   4.430  14.344 -0.2966 -0.4486  0.0372
 6261SOL    HW130419   2.116   4.390  14.408 -0.9660  0.0062 -0.3048
 6261SOL    HW230420   2.218   4.353  14.307 -0.8942 -0.8769  0.2642
 6262SOL     OW30421   1.969   4.242   2.622 -0.6545  0.1074 -0.0707
 6262SOL    HW130422   1.988   4.284   2.706 -0.1335  0.9566 -0.6046
 6262SOL    HW230423   1.875   4.257   2.613 -0.9360 -1.5125  0.2105
 6263SOL     OW30424   0.891   3.981  17.311  0.1477 -0.0424  0.0044
 6263SOL    HW130425   0.888   4.024  17.396  0.6732  0.0356 -0.0143
 6263SOL    HW230426   0.800   3.951  17.311  0.2005 -0.2013 -0.9477
 6264SOL     OW30427   3.291   0.306   7.832 -0.5206  0.3289  0.1380
 6264SOL    HW130428   3.347   0.252   7.888 -0.0950  0.6644  0.0342
 6264SOL    HW230429   3.293   0.267   7.745  1.7052  0.8768 -0.0508
 6265SOL     OW30430   2.716   0.432   7.268  0.3122  0.1733  0.5669
 6265SOL    HW130431   2.759   0.468   7.190  1.9212  0.7177  1.7177
 6265SOL    HW230432   2.644   0.493   7.283  0.9108  0.9368  0.2883
 6266SOL     OW30433   4.532   2.207   3.149 -0.2991 -0.4620  0.2733
 6266SOL    HW130434   4.504   2.291   3.186 -1.6029 -1.2613  1.1224
 6266SOL    HW230435   4.494   2.148   3.215 -0.7763 -1.3675 -0.7985
 6267SOL     OW30436   0.298   4.537   2.001  0.0408  0.1058  0.5541
 6267SOL    HW130437   0.273   4.476   2.071 -0.4590 -2.3937 -1.8010
 6267SOL    HW230438   0.251   4.493   1.930  1.4344 -0.1023 -0.2536
 6268SOL     OW30439   2.855   1.321   5.402  0.5000 -0.1010  0.3505
 6268SOL    HW130440   2.841   1.415   5.389  1.7101  0.1023  0.5232
 6268SOL    HW230441   2.935   1.327   5.455  0.4573 -2.5149  0.6691
 6269SOL     OW30442   0.584   1.767  12.740 -0.1378  0.2284  0.2991
 6269SOL    HW130443   0.555   1.849  12.779 -3.6424 -0.9870  0.3096
 6269SOL    HW230444   0.519   1.755  12.671  1.4474  1.8974 -1.4864
 6270SOL     OW30445   0.819   1.508   6.058 -0.1006 -0.0325  0.1515
 6270SOL    HW130446   0.843   1.593   6.022 -0.7136 -0.4734 -1.2740
 6270SOL    HW230447   0.786   1.459   5.983 -0.9805 -1.3695  1.4088
 6271SOL     OW30448   4.521   0.609   8.491  0.6243  0.0023  0.0037
 6271SOL    HW130449   4.436   0.648   8.472  1.3029  2.4875  2.1537
 6271SOL    HW230450   4.532   0.563   8.407  1.2559 -1.7102  1.0195
 6272SOL     OW30451   0.882   4.471   3.799 -0.7275 -0.9454  0.4723
 6272SOL    HW130452   0.857   4.547   3.745  0.0607 -2.7817 -2.4618
 6272SOL    HW230453   0.830   4.482   3.879  1.8494  1.0507  1.9212
 6273SOL     OW30454   3.767   0.074   5.452  0.4516 -0.0594  0.1529
 6273SOL    HW130455   3.743   0.167   5.446  0.5204  0.0518  1.5613
 6273SOL    HW230456   3.721   0.044   5.530  0.9372 -2.9695 -0.7047
 6274SOL     OW30457   2.311   3.291  13.030  0.0031 -0.3233 -0.4393
 6274SOL    HW130458   2.235   3.347  13.016 -0.5374 -1.8671 -3.6848
 6274SOL    HW230459   2.333   3.269  12.939  3.0752 -1.7998  0.6461
 6275SOL     OW30460   1.390   2.328  12.378  0.3704 -0.1971  0.2473
 6275SOL    HW130461   1.398   2.323  12.474 -0.8015  3.0314  0.5071
 6275SOL    HW230462   1.371   2.422  12.373 -0.8247 -0.4490  0.1687
 6276SOL     OW30463   4.230   2.409   3.298 -0.1852 -0.3061  0.0656
 6276SOL    HW130464   4.287   2.463   3.243 -0.9835 -0.4439 -0.8961
 6276SOL    HW230465   4.166   2.384   3.231 -0.0314  2.7978 -1.2787
 6277SOL     OW30466   2.254   3.964   9.061  0.4526  0.2352  0.0641
 6277SOL    HW130467   2.324   3.901   9.080 -1.0392 -0.8304  2.0242
 6277SOL    HW230468   2.276   4.037   9.118 -1.2929 -0.3987  1.5393
 6278SOL     OW30469   3.760   1.156   2.916 -0.0636 -0.1555  0.2350
 6278SOL    HW130470   3.821   1.087   2.944 -0.4434  0.0047  1.4963
 6278SOL    HW230471   3.825   1.227   2.919  0.7945 -0.9019 -0.9168
 6279SOL     OW30472   3.362   3.820   8.303 -0.0477  0.2965  0.0598
 6279SOL    HW130473   3.320   3.740   8.271 -0.4912  0.7377 -0.4557
 6279SOL    HW230474   3.298   3.885   8.274 -0.7397 -0.5716 -0.3842
 6280SOL     OW30475   3.630   2.636   8.483  0.2912  0.2984  0.1572
 6280SOL    HW130476   3.670   2.569   8.428 -1.2097  0.5029 -1.2024
 6280SOL    HW230477   3.535   2.620   8.477  0.2687 -0.6998  3.1197
 6281SOL     OW30478   4.596   1.051  14.428  0.1592 -0.2008  0.5995
 6281SOL    HW130479   4.525   1.093  14.381 -0.1149  1.0265  2.1033
 6281SOL    HW230480   4.632   0.996  14.358  1.2441  1.2185  0.0381
 6282SOL     OW30481   2.564   0.815   1.766 -0.0816 -0.1109 -0.1078
 6282SOL    HW130482   2.513   0.810   1.685  3.0395 -0.9025 -2.0373
 6282SOL    HW230483   2.549   0.909   1.776 -0.2711 -0.0096 -1.4017
 6283SOL     OW30484   1.066   0.832   2.285 -0.4972 -0.0631  0.3344
 6283SOL    HW130485   1.063   0.871   2.197 -0.3992 -2.1753 -0.5947
 6283SOL    HW230486   1.160   0.848   2.295 -0.5801  1.0999 -0.6990
 6284SOL     OW30487   2.790   1.029   4.703 -0.2451  0.0387  0.1389
 6284SOL    HW130488   2.867   1.032   4.760 -0.3667  0.4653  0.2730
 6284SOL    HW230489   2.778   0.935   4.716  1.8317 -0.6469 -2.7428
 6285SOL     OW30490   1.478   0.940   8.421  0.1089 -0.3800 -0.3860
 6285SOL    HW130491   1.510   0.980   8.502 -1.8000 -0.3426  0.3499
 6285SOL    HW230492   1.559   0.920   8.374  1.6360  0.6492  1.7830
 6286SOL     OW30493   2.772   4.534   5.264 -0.2572 -0.0602 -0.3002
 6286SOL    HW130494   2.729   4.454   5.292 -0.0329  0.4055  1.3908
 6286SOL    HW230495   2.748   4.598   5.332  2.6042  0.5826  0.1229
 6287SOL     OW30496   3.452   0.935   2.773  0.7027  0.1530 -0.0746
 6287SOL    HW130497   3.500   1.012   2.743 -0.6152  0.6426 -0.9586
 6287SOL    HW230498   3.512   0.865   2.746 -1.2996 -0.9253 -1.7796
 6288SOL     OW30499   0.503   1.768   5.404 -0.2834 -0.2043  0.3532
 6288SOL    HW130500   0.487   1.676   5.428 -1.7402  0.0580  0.4012
 6288SOL    HW230501   0.532   1.778   5.314  1.6870 -0.9364  0.9043
 6289SOL     OW30502   4.329   1.921  13.393  0.3616  0.1466  0.4357
 6289SOL    HW130503   4.289   1.878  13.469 -0.0122  1.1426  0.8072
 6289SOL    HW230504   4.252   1.936  13.338  0.6587  2.6835  0.6927
 6290SOL     OW30505   1.757   4.636   4.094  0.2189  0.0536 -0.0062
 6290SOL    HW130506   1.828   4.584   4.133 -2.4927 -3.3837  0.3208
 6290SOL    HW230507   1.757   4.720   4.140  0.8390 -1.1528  2.1818
 6291SOL     OW30508   0.320   4.703   4.404  0.5071  0.6814 -0.3030
 6291SOL    HW130509   0.253   0.029   4.431  1.6605  1.4605  0.7465
 6291SOL    HW230510   0.320   4.724   4.311 -0.1749 -2.1429 -0.9424
 6292SOL     OW30511   0.022   3.021   5.846 -0.3681 -0.1961  0.6823
 6292SOL    HW130512   0.096   2.961   5.863  0.3042 -0.0454 -1.7555
 6292SOL    HW230513   4.710   2.959   5.792  2.3547 -2.8018  1.2035
 6293SOL     OW30514   3.991   1.325   8.519  0.7245  0.0504 -0.7913
 6293SOL    HW130515   3.961   1.405   8.477 -0.7468  0.2760  0.6775
 6293SOL    HW230516   3.929   1.268   8.472  1.0597 -1.3875  0.4937
 6294SOL     OW30517   3.100   0.776   4.460  0.8053 -0.1071 -0.1568
 6294SOL    HW130518   3.143   0.813   4.383  0.7989 -1.9111 -1.0145
 6294SOL    HW230519   3.182   0.767   4.510  1.1028  0.1568 -0.5925
 6295SOL     OW30520   0.110   0.586   8.283 -0.6630  0.1781 -0.2654
 6295SOL    HW130521   0.123   0.542   8.367 -0.9903  0.9149  0.1685
 6295SOL    HW230522   0.068   0.665   8.317  1.9307  1.2473  0.3907
 6296SOL     OW30523   4.700   2.391   7.106 -0.2838  0.5306 -0.3750
 6296SOL    HW130524   4.735   2.302   7.101  0.2416  0.6108  1.5586
 6296SOL    HW230525   0.002   2.429   7.027  0.9866 -1.4340 -0.7018
 6297SOL     OW30526   1.730   0.710   8.976  0.2435  0.1509 -0.2219
 6297SOL    HW130527   1.825   0.707   8.961  0.3398 -0.1501  0.4816
 6297SOL    HW230528   1.717   0.631   9.028  0.3773  0.0354 -0.3634
 6298SOL     OW30529   0.763   3.156   5.032 -0.0630 -0.6228  0.8774
 6298SOL    HW130530   0.783   3.180   4.942  2.5618 -0.0955  1.5856
 6298SOL    HW230531   0.796   3.066   5.043  0.8738 -0.4489 -0.6094
 6299SOL     OW30532   1.097   2.020   2.594 -1.0131  0.4376  0.0359
 6299SOL    HW130533   1.114   2.009   2.688 -1.3690  1.6464  0.2354
 6299SOL    HW230534   1.025   1.956   2.595  2.2500 -3.2394  1.7637
 6300SOL     OW30535   0.592   0.265  15.983  0.7194 -0.0304  0.2750
 6300SOL    HW130536   0.565   0.340  16.036 -1.5013 -0.0966 -0.7927
 6300SOL    HW230537   0.688   0.264  15.975  0.8373 -1.6733  1.7581
 6301SOL     OW30538   4.059   0.410  17.207 -0.2184 -0.1485  0.1974
 6301SOL    HW130539   4.126   0.435  17.143 -0.4849 -1.4897 -0.5974
 6301SOL    HW230540   4.029   0.324  17.178 -1.8444  0.4898 -0.0167
 6302SOL     OW30541   1.177   0.599   8.304  0.3136 -0.1641  0.9912
 6302SOL    HW130542   1.145   0.682   8.268  1.9887 -0.5207 -1.3118
 6302SOL    HW230543   1.174   0.536   8.232  2.0880  1.3216 -0.3711
 6303SOL     OW30544   3.368   2.332   6.116 -0.1362  0.1894  0.2207
 6303SOL    HW130545   3.383   2.426   6.104  0.5034  0.1944  1.0684
 6303SOL    HW230546   3.452   2.301   6.149  0.4401  0.6060 -0.8434
 6304SOL     OW30547   0.595   2.897   5.868  0.2798 -0.2700  0.1074
 6304SOL    HW130548   0.589   2.807   5.834 -0.0065 -0.3321  0.3279
 6304SOL    HW230549   0.623   2.955   5.797 -0.9856  0.8137  0.5013
 6305SOL     OW30550   2.354   0.166  13.857  0.3107  0.3369 -0.2942
 6305SOL    HW130551   2.289   0.227  13.892 -1.4384 -0.9497 -1.2821
 6305SOL    HW230552   2.298   0.117  13.796 -0.0864  1.3407 -0.7420
 6306SOL     OW30553   1.791   4.396   8.303 -0.2352  0.6195 -0.2954
 6306SOL    HW130554   1.749   4.311   8.292  1.4162 -0.1843 -0.3558
 6306SOL    HW230555   1.858   4.384   8.370 -0.8320  0.5365  0.2822
 6307SOL     OW30556   2.349   1.202   9.622 -0.0158  0.3049 -0.0939
 6307SOL    HW130557   2.295   1.124   9.615 -1.4528  1.3850 -1.0080
 6307SOL    HW230558   2.374   1.190   9.713 -1.6545  4.1861  0.8939
 6308SOL     OW30559   0.875   1.199   8.699  0.6779  0.2276 -0.2692
 6308SOL    HW130560   0.828   1.151   8.768  1.4571  1.0743  0.8529
 6308SOL    HW230561   0.935   1.129   8.674 -0.3877 -0.3030 -1.3330
 6309SOL     OW30562   4.703   2.687   9.434  0.5205  0.3973  0.2329
 6309SOL    HW130563   0.028   2.619   9.463 -0.2614 -0.8174 -0.9307
 6309SOL    HW230564   0.013   2.770   9.440  0.2341  0.6612 -1.1294
 6310SOL     OW30565   1.915   2.686  13.433 -0.2985 -0.2439 -1.0431
 6310SOL    HW130566   1.855   2.668  13.360  0.2013  0.8297 -1.7199
 6310SOL    HW230567   1.899   2.609  13.487  3.0892 -1.3185 -1.5620
 6311SOL     OW30568   3.412   1.693   5.794  0.2960  0.2082  0.4281
 6311SOL    HW130569   3.386   1.740   5.874  0.3527  0.0431  0.5438
 6311SOL    HW230570   3.507   1.695   5.793  0.2649  1.1055 -1.3084
 6312SOL     OW30571   3.367   3.881  16.698  0.1260  0.4312 -0.7022
 6312SOL    HW130572   3.391   3.823  16.770  1.0458 -0.0100 -1.3580
 6312SOL    HW230573   3.439   3.871  16.636  0.8779 -0.2832  0.2803
 6313SOL     OW30574   4.521   3.554  13.232  0.1428  0.4476  0.4696
 6313SOL    HW130575   4.562   3.499  13.299  0.1321  0.7399  0.7161
 6313SOL    HW230576   4.514   3.637  13.279  0.8405  1.3970 -1.1321
 6314SOL     OW30577   3.277   2.165  10.319 -0.4148 -0.0130  0.3680
 6314SOL    HW130578   3.210   2.109  10.279 -0.2890 -0.2719  0.5148
 6314SOL    HW230579   3.341   2.102  10.351  0.5689  1.4261  1.2167
 6315SOL     OW30580   2.815   4.254   6.579  0.6110 -0.1022  0.6553
 6315SOL    HW130581   2.751   4.318   6.548  1.2539  1.0340  1.6906
 6315SOL    HW230582   2.785   4.170   6.544  0.5228  0.2797 -0.1824
 6316SOL     OW30583   0.698   4.559  15.893  0.1377 -0.6632  0.4496
 6316SOL    HW130584   0.690   4.576  15.799  0.9669 -0.0357  0.4836
 6316SOL    HW230585   0.737   4.471  15.891  0.1230 -0.7119  2.5262
 6317SOL     OW30586   0.214   2.200   4.180 -0.4377  0.3965 -0.5815
 6317SOL    HW130587   0.144   2.148   4.220 -0.3466  0.2865 -0.5651
 6317SOL    HW230588   0.160   2.250   4.119 -2.5132 -0.4170  0.5995
 6318SOL     OW30589   4.689   1.239  11.610  0.5685 -0.1135  0.0352
 6318SOL    HW130590   4.680   1.328  11.574 -0.0862  0.3286  1.3070
 6318SOL    HW230591   4.725   1.255  11.697 -0.0631 -3.4692  0.9097
 6319SOL     OW30592   4.501   4.608   8.545  0.3409 -0.1056 -0.2325
 6319SOL    HW130593   4.491   4.524   8.501  0.9591  0.4035 -1.3464
 6319SOL    HW230594   4.589   4.602   8.583  0.3299 -0.0017 -0.1897
 6320SOL     OW30595   2.048   0.597  10.904 -0.6178 -0.3138 -0.1287
 6320SOL    HW130596   2.028   0.670  10.963 -0.3718 -1.8652  1.8796
 6320SOL    HW230597   2.129   0.628  10.864 -3.3039  5.0867 -1.3573
 6321SOL     OW30598   3.293   0.327   5.197  0.5214 -0.1227  0.1982
 6321SOL    HW130599   3.386   0.341   5.219  1.7926 -2.0019 -4.0860
 6321SOL    HW230600   3.250   0.409   5.224 -0.1278  0.1352 -1.6136
 6322SOL     OW30601   3.466   2.253   8.936  0.1470 -0.0588  0.8205
 6322SOL    HW130602   3.485   2.175   8.988  1.2834  0.4143  1.1263
 6322SOL    HW230603   3.385   2.241   8.886  0.0156 -1.8825  1.4824
 6323SOL     OW30604   1.484   4.641   4.016 -0.2110 -0.2230 -0.1116
 6323SOL    HW130605   1.474   4.590   3.935 -1.4336  1.7245 -1.1922
 6323SOL    HW230606   1.568   4.604   4.042 -2.2201 -3.5340  1.6841
 6324SOL     OW30607   3.436   2.772   5.707  0.3118 -0.4312 -0.8973
 6324SOL    HW130608   3.379   2.826   5.762 -0.4094 -0.0376 -2.0198
 6324SOL    HW230609   3.424   2.691   5.756  0.6238 -0.7413 -1.3356
 6325SOL     OW30610   4.523   4.405  15.493  0.1018  0.2990  0.6817
 6325SOL    HW130611   4.516   4.314  15.523  0.8393  0.4063  1.1917
 6325SOL    HW230612   4.593   4.430  15.553 -0.5346  1.6117  0.8727
 6326SOL     OW30613   2.994   1.705   3.917  0.0975 -0.0256 -0.1394
 6326SOL    HW130614   3.002   1.613   3.940  0.1548  0.1074  0.3797
 6326SOL    HW230615   3.061   1.748   3.971  0.3623 -0.3828 -0.1857
 6327SOL     OW30616   4.217   1.532   2.559  0.4240  0.2585  0.0648
 6327SOL    HW130617   4.192   1.594   2.628 -0.1541 -0.9852  0.9837
 6327SOL    HW230618   4.308   1.555   2.545  0.4717  0.3436  0.5114
 6328SOL     OW30619   0.167   2.207   1.054 -0.1219  0.6659 -0.6160
 6328SOL    HW130620   0.079   2.211   1.092  1.1672  1.3947  2.3040
 6328SOL    HW230621   0.216   2.174   1.129  1.1761 -0.5184 -1.9730
 6329SOL     OW30622   2.286   0.967  15.239  0.1216  0.0184 -0.0887
 6329SOL    HW130623   2.339   0.939  15.165 -0.3632  3.8788 -1.8946
 6329SOL    HW230624   2.228   0.892  15.253 -0.2224  0.4325  0.7524
 6330SOL     OW30625   4.195   3.864   2.786 -0.0928 -0.4994  0.7304
 6330SOL    HW130626   4.183   3.942   2.840  0.0409  0.8230 -1.1434
 6330SOL    HW230627   4.290   3.868   2.777 -0.3283  0.8227 -1.1636
 6331SOL     OW30628   0.018   1.960   0.169  0.2019 -0.0095  0.1247
 6331SOL    HW130629   0.016   1.883   0.112 -2.3175  1.6488 -2.0000
 6331SOL    HW230630   0.087   2.013   0.130 -1.7640 -1.0847 -4.7800
 6332SOL     OW30631   1.785   4.079   2.286  0.1116 -0.4811 -0.0779
 6332SOL    HW130632   1.703   4.068   2.239 -1.4265 -1.1463  2.7975
 6332SOL    HW230633   1.812   4.169   2.266  0.5411 -0.4523  0.6589
 6333SOL     OW30634   2.404   4.618   7.346 -0.0681  0.4314 -1.0322
 6333SOL    HW130635   2.448   4.638   7.263  0.2481  0.8946 -0.7508
 6333SOL    HW230636   2.312   4.624   7.319  0.3346 -0.5581 -2.6621
 6334SOL     OW30637   3.425   1.265   8.277 -0.3426  0.1346  0.0313
 6334SOL    HW130638   3.436   1.277   8.371  0.6132  0.6202 -0.1367
 6334SOL    HW230639   3.514   1.286   8.246  0.3094 -0.8337  1.2948
 6335SOL     OW30640   1.490   0.828   7.347 -0.1901  0.1660  0.2207
 6335SOL    HW130641   1.431   0.803   7.276 -0.2307  2.4877 -0.5666
 6335SOL    HW230642   1.554   0.757   7.343 -0.7173 -0.3856  1.7318
 6336SOL     OW30643   0.331   2.139  12.622 -0.0417 -0.0197 -0.3297
 6336SOL    HW130644   0.321   2.221  12.574  0.0957 -0.2680 -0.7823
 6336SOL    HW230645   0.319   2.075  12.551 -2.5894  0.8505 -0.6716
 6337SOL     OW30646   2.978   1.121  16.293 -0.1171 -0.3483 -0.4386
 6337SOL    HW130647   2.907   1.057  16.291  1.2181 -1.8765  1.2430
 6337SOL    HW230648   2.934   1.205  16.281  1.7225  0.6772 -0.1095
 6338SOL     OW30649   0.489   3.509   3.411  0.1812 -0.1054  0.2802
 6338SOL    HW130650   0.553   3.558   3.462  0.1859 -1.1090  1.2572
 6338SOL    HW230651   0.479   3.562   3.333 -2.4932  1.3308  1.5789
 6339SOL     OW30652   0.209   1.087   6.953 -0.3847 -0.5223  0.6380
 6339SOL    HW130653   0.240   1.009   6.999 -0.9570 -0.6892  0.7349
 6339SOL    HW230654   0.115   1.069   6.956 -0.7611  1.5628  1.2882
 6340SOL     OW30655   2.136   4.346   8.696 -0.5809  0.2005 -0.2749
 6340SOL    HW130656   2.098   4.302   8.772 -0.5464 -0.1402 -0.4538
 6340SOL    HW230657   2.207   4.394   8.740 -1.7885 -0.3061  2.2457
 6341SOL     OW30658   2.749   4.388   3.036 -0.1524 -0.0617  0.0784
 6341SOL    HW130659   2.728   4.296   3.053 -1.3331  0.4153  1.1920
 6341SOL    HW230660   2.844   4.388   3.052 -0.1137  0.7155 -0.1538
 6342SOL     OW30661   4.435   4.343   3.649  0.3503  0.1850  0.3994
 6342SOL    HW130662   4.372   4.326   3.719  0.1259 -1.2474 -0.1446
 6342SOL    HW230663   4.497   4.404   3.689 -2.4805  1.4521  2.7932
 6343SOL     OW30664   0.746   4.606  15.590  0.5215 -0.6924 -0.2706
 6343SOL    HW130665   0.804   4.532  15.606 -0.7732 -1.4697  0.8609
 6343SOL    HW230666   0.738   4.609  15.494 -1.0559  1.1857 -0.0782
 6344SOL     OW30667   2.624   4.409  17.431 -0.4535 -0.2144 -0.4116
 6344SOL    HW130668   2.576   4.331  17.403  0.5656 -1.7875  2.2481
 6344SOL    HW230669   2.595   4.418  17.522 -0.8585 -0.2488 -0.5382
 6345SOL     OW30670   2.244   0.929   1.832 -0.5380 -0.7055 -0.0983
 6345SOL    HW130671   2.256   0.840   1.797 -1.3443 -1.1763  0.8151
 6345SOL    HW230672   2.261   0.991   1.761  0.5232 -0.8406  0.0396
 6346SOL     OW30673   2.901   2.254   7.592 -0.3384  0.1205  0.7476
 6346SOL    HW130674   2.818   2.263   7.638 -0.0779  0.8862  1.0610
 6346SOL    HW230675   2.906   2.161   7.568  0.4984  0.9309 -2.1622
 6347SOL     OW30676   0.912   0.543   6.809 -0.3653  0.3529 -0.0256
 6347SOL    HW130677   0.854   0.475   6.843 -0.3379  0.3554  0.0258
 6347SOL    HW230678   0.860   0.622   6.824  0.4306  0.2884  3.0674
 6348SOL     OW30679   0.995   1.796  16.865  0.3062 -0.0587 -0.5489
 6348SOL    HW130680   1.075   1.743  16.870  0.8641  0.7711 -0.5512
 6348SOL    HW230681   0.976   1.816  16.773  0.4256  0.6375 -0.4276
 6349SOL     OW30682   1.697   4.127   8.326  0.5686  0.3699  0.6425
 6349SOL    HW130683   1.612   4.148   8.367  0.2993  1.4163 -0.4448
 6349SOL    HW230684   1.677   4.035   8.312  2.6232  0.0586 -0.0978
 6350SOL     OW30685   3.299   4.139   1.076 -0.3265  0.4650 -0.0532
 6350SOL    HW130686   3.348   4.081   1.134  2.4866  1.4387 -1.4544
 6350SOL    HW230687   3.367   4.181   1.023  0.9288  2.4802  3.1787
 6351SOL     OW30688   3.765   0.983   1.303  0.6439 -0.2057  0.0908
 6351SOL    HW130689   3.860   0.977   1.312  0.8128  0.7683 -0.9682
 6351SOL    HW230690   3.762   1.056   1.241 -1.1488  0.0318  0.4654
 6352SOL     OW30691   3.940   1.980   7.955 -0.3748 -0.7764  0.2951
 6352SOL    HW130692   3.899   1.894   7.963  0.0049 -0.7935  2.2506
 6352SOL    HW230693   4.025   1.957   7.994 -1.5966 -0.4745  3.1554
 6353SOL     OW30694   1.257   1.136   7.324  0.8572  0.1918 -0.0252
 6353SOL    HW130695   1.339   1.118   7.369  0.0498 -0.1774  1.3306
 6353SOL    HW230696   1.249   1.231   7.332 -1.4690 -0.0175  0.2189
 6354SOL     OW30697   3.510   0.828   3.198  0.3238  0.0789  0.0613
 6354SOL    HW130698   3.539   0.761   3.136  0.5045  1.0963 -0.9566
 6354SOL    HW230699   3.590   0.882   3.203  0.7036 -0.5509  0.9081
 6355SOL     OW30700   2.706   2.959  11.753 -0.3402  0.3370 -0.4546
 6355SOL    HW130701   2.734   2.889  11.695  0.9498 -0.3815  1.0109
 6355SOL    HW230702   2.688   2.917  11.837 -1.5190  0.6249 -0.5616
 6356SOL     OW30703   2.527   2.748  17.098 -0.8447  0.4841 -0.3663
 6356SOL    HW130704   2.488   2.725  17.014  0.6198  0.9654 -1.1849
 6356SOL    HW230705   2.482   2.689  17.157  2.2059  0.1427  1.6497
 6357SOL     OW30706   4.123   1.804  13.005 -0.2293  0.4960 -0.9738
 6357SOL    HW130707   4.183   1.733  13.027 -0.2053  0.9730  0.5140
 6357SOL    HW230708   4.170   1.826  12.924 -0.8365  2.0233 -0.9223
 6358SOL     OW30709   1.176   1.791   4.427  0.0425  0.0513  0.9681
 6358SOL    HW130710   1.227   1.861   4.387 -0.1643 -0.1739  0.2899
 6358SOL    HW230711   1.182   1.730   4.353 -0.9228  2.2073 -0.8904
 6359SOL     OW30712   2.461   0.029   7.089  0.4421  0.1287  0.4932
 6359SOL    HW130713   2.556   0.022   7.100  0.0743 -2.2870  1.9379
 6359SOL    HW230714   2.428   4.706   7.022  0.9879 -0.9360  1.1790
 6360SOL     OW30715   2.602   4.295   5.900 -0.2722 -0.3202 -0.5540
 6360SOL    HW130716   2.671   4.334   5.954 -1.4420  0.3246  0.4771
 6360SOL    HW230717   2.607   4.337   5.814  2.1239  1.9906  0.7234
 6361SOL     OW30718   2.015   1.977  14.565 -0.6166 -0.0517 -0.0379
 6361SOL    HW130719   1.931   2.021  14.580  0.3047  1.6459  0.2488
 6361SOL    HW230720   1.986   1.886  14.563  0.4717 -0.3968 -0.0415
 6362SOL     OW30721   0.998   4.491   2.579  0.0452 -0.6018  0.8469
 6362SOL    HW130722   0.980   4.585   2.568 -0.1191 -0.4949  1.9512
 6362SOL    HW230723   0.915   4.461   2.617 -0.1950  0.1392  0.9230
 6363SOL     OW30724   2.134   2.066   9.675  0.0688 -0.2293  0.2956
 6363SOL    HW130725   2.061   2.123   9.697  0.0310  0.5724 -1.9285
 6363SOL    HW230726   2.154   2.037   9.764  0.5751 -1.3234 -0.1749
 6364SOL     OW30727   4.367   2.856  15.266 -0.3166  0.0550  0.4453
 6364SOL    HW130728   4.299   2.791  15.283 -1.2678  0.6593 -1.0420
 6364SOL    HW230729   4.402   2.819  15.184  1.1468  0.9021  0.6880
 6365SOL     OW30730   2.645   4.694   8.327  0.3377  0.1830 -0.0053
 6365SOL    HW130731   2.716   4.631   8.312  1.1936  0.8372  1.3290
 6365SOL    HW230732   2.579   4.646   8.377 -1.7721  1.0005 -2.0209
 6366SOL     OW30733   1.665   1.499   7.975 -0.0262 -0.3050 -0.2949
 6366SOL    HW130734   1.615   1.542   8.044  0.7134 -1.1721  0.7735
 6366SOL    HW230735   1.754   1.508   8.007 -0.3388 -1.7076  0.9590
 6367SOL     OW30736   4.074   1.063   9.867  0.4549  0.0211  0.3007
 6367SOL    HW130737   4.067   1.030   9.777  0.1134 -1.0857  0.7402
 6367SOL    HW230738   4.115   1.150   9.860  1.3104 -0.6319 -2.8490
 6368SOL     OW30739   2.422   1.665   5.871 -1.0099  0.4235 -0.4757
 6368SOL    HW130740   2.438   1.760   5.869  0.2952  0.1573 -2.7969
 6368SOL    HW230741   2.356   1.652   5.802  1.3648 -0.6439 -2.5200
 6369SOL     OW30742   1.818   2.159   8.277  0.3368 -0.1284 -0.9514
 6369SOL    HW130743   1.782   2.236   8.235  1.2204  1.1882  0.7243
 6369SOL    HW230744   1.896   2.136   8.226  0.2935  0.1684 -1.1484
 6370SOL     OW30745   3.569   4.498  14.278 -0.5232 -0.6064  0.1893
 6370SOL    HW130746   3.579   4.536  14.365 -0.5781 -1.0497  0.3913
 6370SOL    HW230747   3.536   4.411  14.302  0.8279 -1.3770 -0.7271
 6371SOL     OW30748   1.644   0.671  11.673 -0.0091 -0.2350  0.0563
 6371SOL    HW130749   1.561   0.687  11.718  0.6429 -0.5723  1.3626
 6371SOL    HW230750   1.694   0.750  11.689  0.6359 -0.8428  1.0221
 6372SOL     OW30751   1.738   3.020  17.298  0.5433 -0.0347  0.1135
 6372SOL    HW130752   1.653   2.988  17.268  1.1423  0.3957 -2.0800
 6372SOL    HW230753   1.719   3.021  17.392 -0.2918  2.0181 -0.0937
 6373SOL     OW30754   4.371   0.211  15.463  0.1315 -0.4185  0.1706
 6373SOL    HW130755   4.277   0.228  15.458  0.1369 -0.0346  1.4373
 6373SOL    HW230756   4.369   0.153  15.539  1.0478 -0.1386  0.4113
 6374SOL     OW30757   4.314   0.089   4.050  0.5299 -0.6698 -0.2294
 6374SOL    HW130758   4.234   0.139   4.069  0.3976 -1.0116  0.1052
 6374SOL    HW230759   4.350   0.107   4.137 -0.9678  2.0848 -0.1770
 6375SOL     OW30760   4.053   0.410  11.943  0.1908 -0.2446  0.2511
 6375SOL    HW130761   4.001   0.371  11.873  0.6583  1.5732 -1.0937
 6375SOL    HW230762   3.987   0.460  11.992  1.0199  0.1248  1.0004
 6376SOL     OW30763   3.090   4.322   5.447 -0.0467 -0.3343 -0.1876
 6376SOL    HW130764   3.089   4.411   5.483 -0.0328 -0.5386  0.3147
 6376SOL    HW230765   3.083   4.344   5.354 -0.6567 -1.0365 -0.3048
 6377SOL     OW30766   0.326   4.321   7.341 -0.5939 -0.1114  0.4575
 6377SOL    HW130767   0.329   4.410   7.306 -1.3194 -0.4228 -0.3940
 6377SOL    HW230768   0.236   4.296   7.323 -0.7922  0.8798  0.0648
 6378SOL     OW30769   3.826   2.811   8.433  0.1447  0.0819 -0.1031
 6378SOL    HW130770   3.748   2.756   8.429  0.2279  0.0426 -1.0841
 6378SOL    HW230771   3.888   2.744   8.403 -0.6835  0.9076 -3.6383
 6379SOL     OW30772   1.152   2.100   8.785 -0.1700  0.2112 -0.4377
 6379SOL    HW130773   1.216   2.052   8.733 -0.0976 -0.6331  0.4241
 6379SOL    HW230774   1.154   2.054   8.869  2.2394  0.3787 -0.4028
 6380SOL     OW30775   0.433   2.391  15.293 -0.2645 -0.2518  0.4112
 6380SOL    HW130776   0.393   2.304  15.292 -1.1070  0.1487 -0.8723
 6380SOL    HW230777   0.439   2.413  15.386 -1.3561  0.5180  0.2902
 6381SOL     OW30778   3.031   2.792   8.719  0.3945  0.1162  0.1310
 6381SOL    HW130779   2.958   2.838   8.760  1.8372  1.8075  0.7426
 6381SOL    HW230780   3.102   2.816   8.778  1.4189 -0.0180 -1.0428
 6382SOL     OW30781   3.031   3.176   9.435 -0.1083  0.1861  0.3083
 6382SOL    HW130782   2.959   3.216   9.484  0.8514  1.5618  0.5880
 6382SOL    HW230783   3.011   3.205   9.346 -1.2918 -1.8397 -0.0865
 6383SOL     OW30784   3.791   2.110   3.546 -0.1159  0.4216 -0.1382
 6383SOL    HW130785   3.835   2.150   3.470 -0.3928  1.2207  0.1215
 6383SOL    HW230786   3.847   2.135   3.619 -0.7508  1.4812 -0.0075
 6384SOL     OW30787   0.333   2.088   2.106  0.4095  0.2677  0.1077
 6384SOL    HW130788   0.238   2.085   2.117  0.3496  0.8071 -0.2327
 6384SOL    HW230789   0.358   2.026   2.174  1.5589 -0.6449 -1.1815
 6385SOL     OW30790   3.411   3.733   8.760  0.4117 -0.1203  0.1759
 6385SOL    HW130791   3.351   3.754   8.832 -1.1197  0.5085 -1.2901
 6385SOL    HW230792   3.489   3.773   8.798  0.5607 -1.0929  0.8872
 6386SOL     OW30793   1.933   3.496   1.941 -0.0019  0.1573  0.2852
 6386SOL    HW130794   1.881   3.547   2.002 -1.2533 -0.3698 -0.3354
 6386SOL    HW230795   2.023   3.517   1.967 -0.1550 -0.0943  1.0094
 6387SOL     OW30796   2.681   0.584   6.708  0.2626 -0.4867  0.0624
 6387SOL    HW130797   2.635   0.631   6.779  0.2450  2.1966 -1.7366
 6387SOL    HW230798   2.615   0.583   6.639  1.4109  0.9789 -1.0396
 6388SOL     OW30799   4.164   3.994  17.016  0.2078  0.4480  0.0491
 6388SOL    HW130800   4.233   3.983  17.081  1.3746  2.5031 -0.8426
 6388SOL    HW230801   4.136   4.081  17.044 -0.2708 -0.9683  3.9258
 6389SOL     OW30802   3.563   0.859  15.643  0.3809 -0.1286 -0.0013
 6389SOL    HW130803   3.642   0.898  15.681  2.1302 -1.4884 -2.1895
 6389SOL    HW230804   3.493   0.909  15.684  0.4551 -0.0542  0.0352
 6390SOL     OW30805   0.488   0.754  12.949  0.1149  0.3610  0.4614
 6390SOL    HW130806   0.503   0.848  12.940  0.8955  0.0816 -1.2066
 6390SOL    HW230807   0.393   0.762  12.957  0.2032  1.1373  0.7178
 6391SOL     OW30808   3.813   2.393   3.870  0.2162 -0.4612  0.1684
 6391SOL    HW130809   3.819   2.443   3.952  0.5344 -0.0239 -0.1246
 6391SOL    HW230810   3.718   2.403   3.863  0.1812 -1.3945 -0.6046
 6392SOL     OW30811   3.106   4.376   6.165 -0.3331  0.0503  0.1667
 6392SOL    HW130812   3.030   4.426   6.136 -0.8265 -1.5069 -1.2209
 6392SOL    HW230813   3.162   4.367   6.088  0.0276  1.4004  0.2624
 6393SOL     OW30814   2.629   0.507   2.015  0.2427 -0.3426 -0.1509
 6393SOL    HW130815   2.594   0.592   2.044  0.5212 -0.4068  0.3826
 6393SOL    HW230816   2.723   0.526   2.017  0.1820  0.0436 -0.8352
 6394SOL     OW30817   4.039   1.009   1.592  0.1415  0.0413 -0.2922
 6394SOL    HW130818   4.122   0.982   1.553 -0.1134 -3.1391  1.3704
 6394SOL    HW230819   4.015   0.928   1.637  0.8066 -2.0473 -3.6602
 6395SOL     OW30820   2.916   3.956   3.682 -0.2546 -0.2725  0.6162
 6395SOL    HW130821   2.829   3.945   3.721  0.2960 -0.5503  1.7737
 6395SOL    HW230822   2.941   4.034   3.732 -0.8067  0.1992  0.1607
 6396SOL     OW30823   4.468   0.973   1.897 -0.0319 -0.0089 -0.3032
 6396SOL    HW130824   4.534   1.039   1.921 -0.8792  0.4596  0.7379
 6396SOL    HW230825   4.457   0.990   1.804  1.7141 -0.2441 -0.5576
 6397SOL     OW30826   3.933   4.732   6.551  0.0098 -0.0292  0.7763
 6397SOL    HW130827   3.882   0.049   6.489  2.9699  1.5447 -0.2940
 6397SOL    HW230828   3.852   4.708   6.595  1.7069 -1.6157  2.9785
 6398SOL     OW30829   1.681   1.607   8.350 -0.4028 -0.8275  0.2168
 6398SOL    HW130830   1.750   1.671   8.334 -1.5761  0.9621  2.2995
 6398SOL    HW230831   1.730   1.555   8.414 -0.0127  0.2245  0.7702
 6399SOL     OW30832   1.466   1.876   8.016 -0.2430 -0.0079  0.0943
 6399SOL    HW130833   1.471   1.833   8.102 -1.4623  0.4819  0.4079
 6399SOL    HW230834   1.414   1.953   8.038 -1.6192 -0.8278 -0.3062
 6400SOL     OW30835   0.273   4.689   5.432 -0.0526 -0.0790  0.0689
 6400SOL    HW130836   0.248   4.717   5.344  2.9770  1.7319 -0.2017
 6400SOL    HW230837   0.189   4.700   5.478  0.8358 -0.9136  1.9001
 6401SOL     OW30838   0.068   3.895  11.718  0.3462 -0.2282 -0.0020
 6401SOL    HW130839   0.080   3.988  11.703  0.2881 -0.2970 -0.4666
 6401SOL    HW230840   0.158   3.862  11.711 -0.0405 -1.4370  0.7126
 6402SOL     OW30841   3.022   0.091  13.555 -0.3831 -0.3662  0.1569
 6402SOL    HW130842   3.113   0.114  13.571 -0.2498  0.7171 -2.2391
 6402SOL    HW230843   2.979   0.120  13.635 -1.3952  2.5401 -1.4281
 6403SOL     OW30844   2.003   3.046   3.311 -0.4025  0.1263  0.3163
 6403SOL    HW130845   2.029   3.129   3.352 -0.7237  0.5779 -0.3838
 6403SOL    HW230846   2.080   2.991   3.322 -0.8556 -1.3790 -4.0360
 6404SOL     OW30847   2.292   3.418   3.454  0.1822  0.1991  0.8011
 6404SOL    HW130848   2.295   3.468   3.372  0.5195 -0.7224  0.2487
 6404SOL    HW230849   2.228   3.349   3.435  4.2701 -3.8171  1.5350
 6405SOL     OW30850   2.629   2.630   5.543  0.1161 -0.2260  0.6804
 6405SOL    HW130851   2.565   2.681   5.593 -0.1306 -0.3756  0.5153
 6405SOL    HW230852   2.681   2.589   5.612  0.4719  1.2298  1.2822
 6406SOL     OW30853   3.052   0.145   4.734 -0.0505 -0.2436  0.1045
 6406SOL    HW130854   3.122   0.154   4.798  0.3315 -0.5566 -0.2699
 6406SOL    HW230855   2.977   0.124   4.789 -0.2756  0.8607  0.2264
 6407SOL     OW30856   2.321   4.511  17.411  0.1855  0.4898  0.5623
 6407SOL    HW130857   2.282   4.477  17.492 -2.4135 -0.8741 -1.2546
 6407SOL    HW230858   2.389   4.445  17.395  0.0984  1.2460 -2.9936
 6408SOL     OW30859   4.456   4.313   5.642  0.0897 -0.4752  0.3684
 6408SOL    HW130860   4.404   4.339   5.567  1.6190  1.9135  0.1447
 6408SOL    HW230861   4.423   4.371   5.710  1.4135 -1.3247  1.7439
 6409SOL     OW30862   1.196   4.609  14.859 -0.3271 -0.2334  0.4415
 6409SOL    HW130863   1.232   4.601  14.948  0.0348 -0.5113  0.2715
 6409SOL    HW230864   1.169   4.701  14.858 -1.1365 -0.4649  0.8630
 6410SOL     OW30865   2.362   2.406  14.527  0.2604 -0.0420  0.5797
 6410SOL    HW130866   2.303   2.363  14.465  0.3861 -0.0498  0.4662
 6410SOL    HW230867   2.336   2.498  14.529  1.0199  0.2172 -1.3056
 6411SOL     OW30868   2.792   1.239   6.788  0.4575  0.1976  0.2331
 6411SOL    HW130869   2.819   1.331   6.786  2.1499 -0.3094 -0.6135
 6411SOL    HW230870   2.831   1.213   6.704 -1.1171 -0.5178 -0.2803
 6412SOL     OW30871   3.698   4.306   6.893  0.1123 -0.4915  0.1405
 6412SOL    HW130872   3.605   4.283   6.897  0.1776 -0.6759  0.6888
 6412SOL    HW230873   3.727   4.215   6.900  3.7698  0.7310  0.6920
 6413SOL     OW30874   2.458   2.190   7.822 -0.0440  0.2016  0.8305
 6413SOL    HW130875   2.457   2.275   7.865 -0.9334 -0.4631  2.1141
 6413SOL    HW230876   2.534   2.206   7.765 -2.2641 -0.0191 -2.1954
 6414SOL     OW30877   2.582   2.191   2.500  0.6513 -0.1695 -0.5004
 6414SOL    HW130878   2.499   2.151   2.472  0.0470  1.6185 -1.2910
 6414SOL    HW230879   2.618   2.114   2.542  1.9521 -0.0710 -1.4390
 6415SOL     OW30880   1.904   4.459   7.152 -0.1203 -0.2358  0.5618
 6415SOL    HW130881   1.947   4.486   7.233  0.6304  1.3848 -0.3680
 6415SOL    HW230882   1.938   4.521   7.088 -0.5026  0.0667  0.6551
 6416SOL     OW30883   1.653   2.777   5.925 -0.3183 -0.7464 -0.2370
 6416SOL    HW130884   1.729   2.800   5.871 -1.6626  2.4992 -0.7516
 6416SOL    HW230885   1.616   2.862   5.949  0.8618 -0.0773 -0.7787
 6417SOL     OW30886   1.629   4.012   8.648  0.1496 -0.4092  0.4020
 6417SOL    HW130887   1.572   4.009   8.571  0.6990  0.5616 -0.0513
 6417SOL    HW230888   1.699   3.952   8.619  0.6567  0.4359 -0.1417
 6418SOL     OW30889   2.693   1.956   4.558  0.5430  0.3595  0.2369
 6418SOL    HW130890   2.764   1.923   4.612  0.1173 -1.0182 -0.0334
 6418SOL    HW230891   2.725   2.045   4.547 -2.4872  1.1338 -2.4188
 6419SOL     OW30892   2.553   0.762   6.226  0.2171  0.2652  0.6244
 6419SOL    HW130893   2.589   0.843   6.191 -1.7113  0.0885 -1.6897
 6419SOL    HW230894   2.628   0.734   6.279  2.9817 -0.3750 -3.6227
 6420SOL     OW30895   1.965   1.924  16.376 -0.0523  0.4234 -0.1633
 6420SOL    HW130896   1.888   1.867  16.380  1.6266 -1.8298  0.3351
 6420SOL    HW230897   2.026   1.867  16.423  1.8776  1.0050 -1.9385
 6421SOL     OW30898   4.554   4.685  17.103  0.9244  0.1343  0.0552
 6421SOL    HW130899   4.574   4.736  17.025  0.5444 -0.4407 -0.4237
 6421SOL    HW230900   4.605   4.715  17.178  1.4017  1.0986 -0.6597
 6422SOL     OW30901   2.344   0.562   4.926 -0.3990 -0.1256 -0.1678
 6422SOL    HW130902   2.406   0.590   4.858  3.1849 -1.6164  2.4392
 6422SOL    HW230903   2.297   0.645   4.930 -1.4204 -0.7217  0.0851
 6423SOL     OW30904   4.493   0.122  15.015  0.4222 -0.4998  0.2060
 6423SOL    HW130905   4.560   0.065  14.978  1.5108 -0.2204  1.7814
 6423SOL    HW230906   4.505   0.130  15.110 -0.6680 -3.9367  0.6128
 6424SOL     OW30907   0.310   3.988   4.036 -0.1223 -0.1225 -0.5842
 6424SOL    HW130908   0.386   4.027   3.993  0.3827  0.2324  0.6204
 6424SOL    HW230909   0.296   3.913   3.979  2.2348  0.1389 -1.5266
 6425SOL     OW30910   4.333   2.077   6.654 -0.1528  0.7872  0.1027
 6425SOL    HW130911   4.311   2.110   6.741 -1.3932 -3.1097  1.2802
 6425SOL    HW230912   4.311   2.152   6.598  0.4441  0.2464 -0.8629
 6426SOL     OW30913   3.705   1.433   6.736 -0.0078 -0.3870  0.5685
 6426SOL    HW130914   3.700   1.338   6.733 -1.4067 -0.2728 -0.6532
 6426SOL    HW230915   3.643   1.456   6.805  0.4710 -1.3623  1.3237
 6427SOL     OW30916   1.872   0.807   4.796  0.2218 -0.3834  0.4962
 6427SOL    HW130917   1.790   0.814   4.845  1.1991 -0.9464  2.1971
 6427SOL    HW230918   1.870   0.873   4.727  0.9613  3.7685  4.4694
 6428SOL     OW30919   2.563   0.691   3.551 -0.0049 -0.4639  0.1881
 6428SOL    HW130920   2.651   0.722   3.573  0.7545 -2.7755  0.4154
 6428SOL    HW230921   2.581   0.628   3.482 -2.8218 -2.4299  1.2388
 6429SOL     OW30922   4.303   4.141   5.301 -0.3185  0.2995 -0.2359
 6429SOL    HW130923   4.342   4.077   5.242  0.6465  0.3698  0.3252
 6429SOL    HW230924   4.221   4.098   5.328  0.1893  0.0356  0.9176
 6430SOL     OW30925   1.478   0.273   3.520 -0.1906  0.0777  0.2070
 6430SOL    HW130926   1.451   0.364   3.504 -1.2534 -0.2846 -0.0593
 6430SOL    HW230927   1.436   0.243   3.601 -1.5157 -0.1087 -0.5503
 6431SOL     OW30928   2.329   1.173   5.272 -0.3968  0.3611  0.3764
 6431SOL    HW130929   2.268   1.227   5.322 -1.7618 -0.0939 -0.7768
 6431SOL    HW230930   2.324   1.228   5.194 -0.6555 -0.4905 -0.2129
 6432SOL     OW30931   3.445   3.832   2.451 -0.3054  0.3220  0.1951
 6432SOL    HW130932   3.516   3.851   2.513  0.3460 -0.0180 -0.4510
 6432SOL    HW230933   3.492   3.846   2.369  0.8584 -0.5522  0.7003
 6433SOL     OW30934   3.361   0.195   2.734 -0.1870  0.1040 -0.0261
 6433SOL    HW130935   3.383   0.179   2.643 -2.2086  2.8285 -1.0025
 6433SOL    HW230936   3.290   0.256   2.716  2.0041  2.2282 -1.5858
 6434SOL     OW30937   2.162   2.185   2.693  0.1324  0.0483  0.1017
 6434SOL    HW130938   2.138   2.175   2.785  1.9467  1.1913  0.7042
 6434SOL    HW230939   2.209   2.102   2.698  0.7879  0.4331  0.2918
 6435SOL     OW30940   3.685   1.815   5.360 -0.0537  0.2990  0.0609
 6435SOL    HW130941   3.671   1.759   5.283  0.2564 -1.1777  1.0895
 6435SOL    HW230942   3.732   1.892   5.328  1.0735 -0.3993  0.0404
 6436SOL     OW30943   1.762   2.088   6.843 -0.5232 -0.3488  0.4995
 6436SOL    HW130944   1.759   2.085   6.747 -3.4463 -0.5656  0.5958
 6436SOL    HW230945   1.809   2.171   6.845  1.3015 -1.3256 -1.1396
 6437SOL     OW30946   0.071   1.664   4.708  0.3623  0.1085  0.0671
 6437SOL    HW130947   0.032   1.740   4.665 -1.1867 -0.2947  0.7772
 6437SOL    HW230948   0.161   1.696   4.720  0.8062 -0.8674 -0.7074
 6438SOL     OW30949   4.016   3.349   5.199 -0.3346  0.3967 -0.2368
 6438SOL    HW130950   3.976   3.389   5.276 -0.5216  0.1694 -0.2158
 6438SOL    HW230951   4.070   3.279   5.237 -0.8157  0.1835  0.0500
 6439SOL     OW30952   3.292   1.331  11.853 -0.2878  0.2258 -0.2856
 6439SOL    HW130953   3.314   1.258  11.794 -2.0611 -1.7235  1.4791
 6439SOL    HW230954   3.204   1.305  11.880 -0.9694  0.4183 -2.2690
 6440SOL     OW30955   3.043   4.482   3.933  0.3663  0.3455 -0.3773
 6440SOL    HW130956   3.091   4.565   3.927 -0.5156  0.9267  0.4524
 6440SOL    HW230957   2.965   4.511   3.886  0.7770 -1.4626 -2.1582
 6441SOL     OW30958   3.270   1.107  10.556  0.0159 -0.0513  0.6975
 6441SOL    HW130959   3.359   1.133  10.579 -0.3811  2.9068 -1.0659
 6441SOL    HW230960   3.289   1.042  10.489  0.2988 -1.9798  2.6328
 6442SOL     OW30961   0.031   0.787   5.908 -0.4246 -0.1203 -0.2706
 6442SOL    HW130962   0.085   0.742   5.973 -0.5729 -0.4343 -0.3636
 6442SOL    HW230963   4.709   0.716   5.881  0.6234 -1.3479  0.6798
 6443SOL     OW30964   2.135   4.402   5.700 -0.5525 -0.5934 -0.4824
 6443SOL    HW130965   2.220   4.366   5.725 -0.3955  0.1727  0.1136
 6443SOL    HW230966   2.149   4.492   5.730  1.1986 -0.2282 -2.3982
 6444SOL     OW30967   0.409   1.847   9.930  0.0974 -0.0715 -0.1604
 6444SOL    HW130968   0.456   1.795   9.865  2.7881  1.5315  0.4993
 6444SOL    HW230969   0.461   1.928   9.935  1.4131 -0.8064 -2.0573
 6445SOL     OW30970   2.008   4.404   1.776 -0.3763  0.6138  0.0184
 6445SOL    HW130971   2.073   4.415   1.707 -0.1007  1.3342  0.3954
 6445SOL    HW230972   2.033   4.475   1.835  2.2444 -1.9539  1.9731
 6446SOL     OW30973   1.851   1.170  11.983 -0.4070  0.2490 -0.0189
 6446SOL    HW130974   1.922   1.153  12.044 -2.2041 -1.5962  1.5412
 6446SOL    HW230975   1.891   1.147  11.899 -0.3380  2.0259 -0.4792
 6447SOL     OW30976   4.571   1.009  17.466  0.4128 -0.3318  0.1072
 6447SOL    HW130977   4.661   1.028  17.439  0.7523  0.0246  1.5163
 6447SOL    HW230978   4.567   0.915  17.486 -0.2673 -0.1540  0.8198
 6448SOL     OW30979   3.677   4.164   5.103 -0.0959 -0.5838 -0.5691
 6448SOL    HW130980   3.642   4.251   5.084  1.7100  1.0414  3.5657
 6448SOL    HW230981   3.643   4.109   5.032  0.8593 -0.6012 -1.0163
 6449SOL     OW30982   0.121   0.925  16.435 -0.7588  0.2034 -0.1782
 6449SOL    HW130983   0.131   0.882  16.520  1.0878 -2.4223 -1.7491
 6449SOL    HW230984   0.026   0.938  16.431 -0.5380  1.3282 -1.7911
 6450SOL     OW30985   3.238   3.510   3.317 -0.0442 -0.0365 -0.1658
 6450SOL    HW130986   3.151   3.548   3.331  0.6856  1.5093  0.2514
 6450SOL    HW230987   3.260   3.486   3.407  0.2486  2.8936  0.5773
 6451SOL     OW30988   3.279   3.520   3.774  0.6858 -0.1345  0.1706
 6451SOL    HW130989   3.287   3.482   3.687 -0.8679 -0.1388  0.0182
 6451SOL    HW230990   3.371   3.520   3.798  1.0392 -0.6363 -1.1940
 6452SOL     OW30991   4.521   4.013   8.691  0.1963  0.5546  0.7296
 6452SOL    HW130992   4.441   4.028   8.741 -0.9163  0.3689 -0.9835
 6452SOL    HW230993   4.583   3.981   8.757  0.0434  0.4733  0.8321
 6453SOL     OW30994   4.270   3.933   0.181  0.1011 -0.0361  0.7653
 6453SOL    HW130995   4.345   3.890   0.139 -1.3589 -1.8503  0.0034
 6453SOL    HW230996   4.271   3.993   0.107 -0.7355 -3.2045 -1.8191
 6454SOL     OW30997   0.526   3.744   4.243 -0.1265  0.5811 -0.5174
 6454SOL    HW130998   0.558   3.744   4.153  1.5322 -0.3704  0.0710
 6454SOL    HW230999   0.512   3.837   4.260 -0.4888  0.2604  0.9524
 6455SOL     OW31000   4.455   4.324   8.665  0.3044 -0.1579 -0.5743
 6455SOL    HW131001   4.508   4.263   8.614  1.2430 -0.0687  0.2973
 6455SOL    HW231002   4.389   4.258   8.684  0.4653 -0.1241  0.1019
 6456SOL     OW31003   4.157   3.256   3.529 -0.0416 -0.3102 -0.3022
 6456SOL    HW131004   4.072   3.257   3.573  0.4867  0.8608  0.6983
 6456SOL    HW231005   4.198   3.197   3.593 -1.0046 -1.0108 -0.3346
 6457SOL     OW31006   3.092   2.325   2.039  0.2425  0.4339 -0.2980
 6457SOL    HW131007   3.009   2.362   2.008 -1.8341 -0.1916  4.5117
 6457SOL    HW231008   3.127   2.280   1.963  0.1530  1.5135 -0.9833
 6458SOL     OW31009   3.456   0.192   8.014  0.5577  0.0842  0.3833
 6458SOL    HW131010   3.437   0.122   8.077 -2.5882  0.4766 -0.1224
 6458SOL    HW231011   3.549   0.173   8.002  0.6108  0.4339  0.2465
 6459SOL     OW31012   4.410   2.256  11.109  0.1596 -0.2418  0.1499
 6459SOL    HW131013   4.430   2.346  11.083  0.1904  0.0710  1.2363
 6459SOL    HW231014   4.320   2.247  11.077  0.1907  0.0525 -0.0241
 6460SOL     OW31015   2.914   1.885   8.667  0.3541  0.2315 -0.5742
 6460SOL    HW131016   3.002   1.895   8.703 -1.8745  3.5807  3.9230
 6460SOL    HW231017   2.882   1.972   8.689 -1.3627 -0.3293 -0.9001
 6461SOL     OW31018   0.743   1.621   3.053 -0.3118 -0.8195  0.0963
 6461SOL    HW131019   0.810   1.554   3.066  1.3437  0.6536 -0.7624
 6461SOL    HW231020   0.773   1.706   3.085  1.8644 -1.9614  1.0834
 6462SOL     OW31021   2.491   3.270  15.162  0.1207 -0.3233  0.1393
 6462SOL    HW131022   2.572   3.301  15.201 -0.6593  1.3737  0.3688
 6462SOL    HW231023   2.438   3.347  15.178  0.6596  0.1573 -0.3902
 6463SOL     OW31024   4.132   2.084   4.257 -0.1541  0.2190  0.2180
 6463SOL    HW131025   4.104   1.993   4.253 -0.2588  0.2745 -0.2684
 6463SOL    HW231026   4.046   2.121   4.236  0.3256 -0.4531 -2.9111
 6464SOL     OW31027   2.425   1.805   6.945 -0.1947 -0.5717  0.0564
 6464SOL    HW131028   2.406   1.762   6.862 -3.6751  0.5477  0.2710
 6464SOL    HW231029   2.337   1.808   6.981 -0.8706 -0.7565 -1.5709
 6465SOL     OW31030   4.205   4.727   6.544 -0.1105  0.5687 -0.3235
 6465SOL    HW131031   4.265   4.702   6.614  1.3790 -1.1335 -2.2063
 6465SOL    HW231032   4.118   4.732   6.584 -0.1558 -3.2158  0.0997
 6466SOL     OW31033   2.908   3.212   4.220  0.3731  0.8431 -0.1990
 6466SOL    HW131034   2.970   3.284   4.231 -0.8521  2.3177 -2.8834
 6466SOL    HW231035   2.843   3.254   4.276 -1.8935 -3.5949  0.4585
 6467SOL     OW31036   3.866   0.508   5.102  0.5100  0.0066  0.8507
 6467SOL    HW131037   3.897   0.579   5.046  1.6139 -0.9585  0.2501
 6467SOL    HW231038   3.944   0.482   5.150 -0.5926 -1.0945  2.0216
 6468SOL     OW31039   3.627   2.207  17.322 -0.0922  0.0412 -0.1167
 6468SOL    HW131040   3.587   2.287  17.286 -0.6679 -0.1774  0.0287
 6468SOL    HW231041   3.718   2.224  17.346 -0.5551  1.6057  0.6114
 6469SOL     OW31042   0.835   3.366   3.200  0.1169  0.0644  0.0634
 6469SOL    HW131043   0.787   3.305   3.144  0.0045  0.2522 -0.0428
 6469SOL    HW231044   0.899   3.408   3.143  0.3088 -0.6809 -0.2730
 6470SOL     OW31045   3.674   1.008  14.266  0.1645  0.0524 -0.1311
 6470SOL    HW131046   3.659   1.088  14.315 -1.3070 -0.5763  0.4350
 6470SOL    HW231047   3.677   0.954  14.345  0.2353  0.5070  0.1722
 6471SOL     OW31048   1.505   3.140   3.222  0.2244  0.1641 -0.3588
 6471SOL    HW131049   1.423   3.170   3.261  0.8597  1.2255  0.1352
 6471SOL    HW231050   1.475   3.054   3.191 -1.7898 -0.3168  2.8703
 6472SOL     OW31051   0.771   0.653   6.042 -0.1110  0.0318 -0.6118
 6472SOL    HW131052   0.832   0.630   5.972  2.3893 -1.1504  1.9836
 6472SOL    HW231053   0.693   0.626   5.994 -0.6881  0.0278  0.3342
 6473SOL     OW31054   3.081   2.702   3.948  0.3436 -0.2993 -0.2667
 6473SOL    HW131055   3.176   2.707   3.942  0.2659  0.3266 -0.9802
 6473SOL    HW231056   3.054   2.755   3.873  2.5641  2.1381  0.6881
 6474SOL     OW31057   1.970   2.066   1.117  0.0910 -0.2809 -0.0825
 6474SOL    HW131058   1.923   2.007   1.058  1.0460 -2.4017  1.2765
 6474SOL    HW231059   2.052   2.039   1.074  1.3873  1.6845  1.1177
 6475SOL     OW31060   3.644   3.829  14.307 -0.5863 -0.4711  0.5929
 6475SOL    HW131061   3.631   3.790  14.221  3.0630  0.8192 -0.5380
 6475SOL    HW231062   3.675   3.917  14.284 -0.7413 -0.1783  1.5086
 6476SOL     OW31063   2.399   2.384   1.854 -0.0056  0.4637  0.0968
 6476SOL    HW131064   2.381   2.430   1.772 -0.5007  1.6245  0.8450
 6476SOL    HW231065   2.371   2.296   1.828  0.0177  0.4940 -0.0301
 6477SOL     OW31066   3.277   2.994  10.987  0.1871 -0.4166 -0.0758
 6477SOL    HW131067   3.344   3.062  10.978 -1.2278  1.1754  1.5355
 6477SOL    HW231068   3.219   3.023  11.058  0.4166 -0.2535  0.0467
 6478SOL     OW31069   0.418   1.701   4.272  0.4550  0.5222 -0.5560
 6478SOL    HW131070   0.348   1.657   4.224 -0.8623  4.0043 -1.8614
 6478SOL    HW231071   0.462   1.753   4.205  0.6735 -0.3111 -1.0495
 6479SOL     OW31072   3.888   4.168   2.249  0.1208 -0.1190 -0.5010
 6479SOL    HW131073   3.966   4.177   2.194  0.1514  0.2504 -0.3950
 6479SOL    HW231074   3.884   4.072   2.256  0.6916  0.0004  1.6176
 6480SOL     OW31075   2.444   1.474   4.614 -0.2542 -0.4359 -0.0069
 6480SOL    HW131076   2.538   1.494   4.618 -0.9118  2.3863  1.7994
 6480SOL    HW231077   2.438   1.429   4.529  0.3164  2.1172 -1.4139
 6481SOL     OW31078   2.704   3.377   3.404  0.3767  0.5757 -0.0224
 6481SOL    HW131079   2.698   3.284   3.423  0.1864  0.2199 -1.8520
 6481SOL    HW231080   2.749   3.383   3.320  0.3711 -1.8373 -0.1783
 6482SOL     OW31081   2.141   3.927   4.678  0.0651  0.5900 -0.2710
 6482SOL    HW131082   2.141   3.941   4.772 -0.0800 -1.1049 -0.0310
 6482SOL    HW231083   2.052   3.897   4.665  0.0453  0.6145 -0.1912
 6483SOL     OW31084   0.478   0.930   6.267 -0.2161 -0.0496 -0.1498
 6483SOL    HW131085   0.442   0.848   6.301 -0.7680  0.6478  0.9870
 6483SOL    HW231086   0.445   0.985   6.339  3.2337  0.3254  1.1628
 6484SOL     OW31087   1.158   1.300   6.800 -0.3000  0.2449  0.0399
 6484SOL    HW131088   1.151   1.334   6.889 -0.5946  0.4970 -0.0778
 6484SOL    HW231089   1.245   1.262   6.813 -0.3576  0.8113  2.1195
 6485SOL     OW31090   0.353   3.982  16.095 -0.3896 -0.2576 -0.3658
 6485SOL    HW131091   0.264   3.999  16.066 -1.0286  0.3084  1.9270
 6485SOL    HW231092   0.380   3.965  16.004  3.9924 -1.7906  1.1844
 6486SOL     OW31093   3.976   0.452   6.772 -0.0314  0.3112  0.2398
 6486SOL    HW131094   3.985   0.546   6.756 -0.0160  0.3301  0.3614
 6486SOL    HW231095   4.068   0.428   6.787 -1.3277 -3.1021  2.7199
 6487SOL     OW31096   2.763   2.904   5.572 -0.2863 -0.2011 -0.4419
 6487SOL    HW131097   2.828   2.853   5.620  0.8804  2.0976  0.4267
 6487SOL    HW231098   2.718   2.841   5.516  2.5607 -3.3492  0.8159
 6488SOL     OW31099   4.076   1.217   2.262 -0.3938 -0.4049  0.1623
 6488SOL    HW131100   4.115   1.255   2.341  2.2111  0.2053 -1.4270
 6488SOL    HW231101   4.152   1.191   2.209 -0.8621  0.0698 -0.7432
 6489SOL     OW31102   3.155   3.832   2.799  0.2232 -0.4876 -0.3636
 6489SOL    HW131103   3.075   3.797   2.760  0.0605 -0.2220 -0.2686
 6489SOL    HW231104   3.118   3.909   2.843 -0.8927 -0.2532 -1.6921
 6490SOL     OW31105   3.936   2.269   4.189 -0.2920  0.3481 -0.4060
 6490SOL    HW131106   3.903   2.253   4.277  1.0500  0.0984  0.0365
 6490SOL    HW231107   3.912   2.361   4.177 -0.9067  0.0622 -1.4014
 6491SOL     OW31108   0.583   1.405  11.910 -0.0041  0.3721  0.0311
 6491SOL    HW131109   0.610   1.378  11.822  2.4471  2.7757  0.0552
 6491SOL    HW231110   0.669   1.399  11.952 -0.9330 -1.8931  1.6382
 6492SOL     OW31111   3.087   4.280   0.322 -0.5232 -0.1814  0.3050
 6492SOL    HW131112   3.059   4.360   0.278  0.3115 -1.3097 -2.2841
 6492SOL    HW231113   3.027   4.291   0.395 -0.7269 -1.5622  0.3455
 6493SOL     OW31114   2.923   0.200   6.296 -0.2841 -0.2035 -0.1227
 6493SOL    HW131115   3.002   0.218   6.347  0.1359 -1.1515 -0.4438
 6493SOL    HW231116   2.890   0.283   6.262  2.8916  1.1682  0.1521
 6494SOL     OW31117   4.705   2.422  17.359  0.4130 -0.3159  0.0496
 6494SOL    HW131118   4.648   2.366  17.412  0.3794  1.3943  1.8201
 6494SOL    HW231119   4.730   2.365  17.287  0.4828 -0.8101  0.4626
 6495SOL     OW31120   3.311   2.859   6.204  0.2317  0.1893 -0.1450
 6495SOL    HW131121   3.339   2.865   6.296 -0.1195  0.6464 -0.0687
 6495SOL    HW231122   3.394   2.883   6.164  0.2739  2.5038  1.3425
 6496SOL     OW31123   1.678   0.889   2.120 -0.0060  0.4417 -0.4692
 6496SOL    HW131124   1.763   0.932   2.108  0.8287 -0.8328  0.7548
 6496SOL    HW231125   1.624   0.941   2.062  0.0743  1.5324  0.4273
 6497SOL     OW31126   3.625   4.705  16.842  0.0999 -0.6284 -0.6278
 6497SOL    HW131127   3.613   0.062  16.856 -1.4974 -0.8615 -0.4160
 6497SOL    HW231128   3.582   4.674  16.922  1.5916  1.1277  0.8746
 6498SOL     OW31129   0.912   0.478   6.204  0.2765  0.1834 -0.0042
 6498SOL    HW131130   0.850   0.538   6.163  0.9864  1.1304  0.3061
 6498SOL    HW231131   0.861   0.397   6.199  0.1713  0.2199  0.4288
 6499SOL     OW31132   1.949   2.284  10.665  0.6066  0.4109 -0.2262
 6499SOL    HW131133   1.854   2.288  10.677  0.7201 -0.9938  1.2214
 6499SOL    HW231134   1.973   2.361  10.717 -1.5762  0.8368  0.1164
 6500SOL     OW31135   1.861   4.198   7.809  0.8058  0.3834  0.3779
 6500SOL    HW131136   1.890   4.119   7.854 -1.0169  1.2539  3.0276
 6500SOL    HW231137   1.833   4.256   7.879  0.8757 -0.1139  0.8139
 6501SOL     OW31138   3.098   4.655   8.218 -0.1926  0.4869  0.1949
 6501SOL    HW131139   3.083   4.646   8.312  1.2103 -4.0417 -0.0304
 6501SOL    HW231140   3.171   4.593   8.218  0.5859  1.3897 -1.5792
 6502SOL     OW31141   2.685   3.125   1.487 -0.4130 -0.4400  0.0824
 6502SOL    HW131142   2.615   3.191   1.485 -0.6874 -0.6895  1.3431
 6502SOL    HW231143   2.724   3.140   1.574  1.1145 -1.6452 -0.3978
 6503SOL     OW31144   1.310   0.274   7.244  0.0919 -0.2372  0.0841
 6503SOL    HW131145   1.305   0.324   7.162 -0.9313 -3.9310 -2.1197
 6503SOL    HW231146   1.335   0.188   7.210 -0.7129  1.0028 -3.6438
 6504SOL     OW31147   2.788   3.072   5.969  0.6447 -0.1995 -0.1352
 6504SOL    HW131148   2.837   3.147   6.002  0.8230 -0.2264 -0.3343
 6504SOL    HW231149   2.750   3.042   6.051  1.6355  0.0018  0.3998
 6505SOL     OW31150   0.980   0.288   9.271 -0.2737 -0.0237  0.3351
 6505SOL    HW131151   0.889   0.288   9.240 -0.3889 -0.0891  0.6684
 6505SOL    HW231152   0.977   0.241   9.354 -0.2802 -0.2652  0.1988
 6506SOL     OW31153   0.182   1.528  12.835 -0.0708 -0.1593  0.3127
 6506SOL    HW131154   0.207   1.533  12.927  0.2903 -1.5295  0.2822
 6506SOL    HW231155   0.170   1.623  12.832  0.4732 -0.1327 -0.9183
 6507SOL     OW31156   4.449   0.390   4.547 -0.0259 -0.5729 -0.1037
 6507SOL    HW131157   4.506   0.327   4.590 -1.7661 -1.0890  1.4396
 6507SOL    HW231158   4.391   0.403   4.621  0.6271 -0.7780  0.4439
 6508SOL     OW31159   1.256   4.705   1.618  0.2608 -0.3893  0.1055
 6508SOL    HW131160   1.282   4.706   1.526  0.5119 -0.5343  0.1747
 6508SOL    HW231161   1.330   0.019   1.652  0.9554 -1.0347 -0.4257
 6509SOL     OW31162   2.767   1.002   4.332  0.5161  0.3515 -0.5353
 6509SOL    HW131163   2.690   1.022   4.278  0.6580  0.7270 -0.5965
 6509SOL    HW231164   2.735   0.928   4.383 -2.8308  0.9928 -1.6858
 6510SOL     OW31165   1.872   3.599  11.799 -0.0116  0.1420  0.1742
 6510SOL    HW131166   1.947   3.644  11.837  1.7515 -2.9635  0.3736
 6510SOL    HW231167   1.812   3.671  11.821 -0.7327 -0.2350 -0.5356
 6511SOL     OW31168   1.725   3.720   5.031  0.1549  0.2144 -0.6008
 6511SOL    HW131169   1.762   3.726   5.119 -1.5121 -4.2459  0.4149
 6511SOL    HW231170   1.636   3.749   5.052 -0.2810 -1.1709 -0.5196
 6512SOL     OW31171   1.848   3.073  14.624  0.0768  0.0443 -0.2963
 6512SOL    HW131172   1.869   3.126  14.701 -0.0841 -0.1647 -0.1094
 6512SOL    HW231173   1.805   3.133  14.563  0.4631  2.1057  1.4299
 6513SOL     OW31174   2.603   4.493   8.563  0.1423 -0.1794 -0.3411
 6513SOL    HW131175   2.524   4.444   8.540  0.4465 -0.4882 -0.7324
 6513SOL    HW231176   2.577   4.526   8.649 -0.9500  1.1433 -1.1765
 6514SOL     OW31177   2.228   0.248   0.888 -0.4696 -0.5457 -0.5520
 6514SOL    HW131178   2.167   0.316   0.858 -1.2282 -0.2259  1.7197
 6514SOL    HW231179   2.193   0.242   0.976  0.9225  0.0920  0.0491
 6515SOL     OW31180   2.292   0.865   7.859  0.0957 -0.0550 -0.1286
 6515SOL    HW131181   2.214   0.830   7.903  0.6086 -0.4883  0.4252
 6515SOL    HW231182   2.260   0.899   7.776  0.6030 -0.2618 -0.4087
 6516SOL     OW31183   4.591   1.366   9.794 -0.1509 -0.5848 -1.2883
 6516SOL    HW131184   4.578   1.438   9.733 -0.4468 -0.4952 -1.1177
 6516SOL    HW231185   4.631   1.310   9.727  0.5061 -0.6096 -0.8802
 6517SOL     OW31186   4.696   3.796   3.296 -0.0803 -0.2978  0.0325
 6517SOL    HW131187   4.701   3.891   3.284 -1.0967 -0.5330 -2.3533
 6517SOL    HW231188   4.624   3.771   3.238 -1.0098  0.6632  0.7620
 6518SOL     OW31189   3.425   0.977   9.131  0.4126 -0.3519  0.7480
 6518SOL    HW131190   3.486   0.943   9.066 -1.9346  0.4000 -1.8450
 6518SOL    HW231191   3.472   1.049   9.174 -2.3835  1.1334  1.2889
 6519SOL     OW31192   3.452   1.574   9.627 -0.2205 -0.1993 -0.0087
 6519SOL    HW131193   3.423   1.598   9.715  1.3325  0.0144  0.4406
 6519SOL    HW231194   3.546   1.591   9.634 -0.4513  0.9577  0.2721
 6520SOL     OW31195   1.150   0.206   1.158 -0.4920  0.2605 -0.0593
 6520SOL    HW131196   1.197   0.283   1.127  2.2213 -0.4097  2.3755
 6520SOL    HW231197   1.082   0.202   1.091 -1.5999 -1.8318  1.2073
 6521SOL     OW31198   3.345   0.872   7.625  0.2877 -0.0371  0.1805
 6521SOL    HW131199   3.271   0.932   7.630  0.7101  0.4485  0.6696
 6521SOL    HW231200   3.414   0.937   7.611 -0.7138  0.5450 -2.1817
 6522SOL     OW31201   0.558   1.456   8.636  0.2883 -0.0018 -0.1003
 6522SOL    HW131202   0.645   1.428   8.665 -0.1026 -1.2655 -0.1613
 6522SOL    HW231203   0.577   1.491   8.549  0.0615 -0.7830 -0.4639
 6523SOL     OW31204   2.448   1.057   5.526  0.2592 -0.3393  0.5927
 6523SOL    HW131205   2.539   1.087   5.530  0.0667  0.2920  0.3127
 6523SOL    HW231206   2.409   1.134   5.484  1.5007  0.9631  1.8225
 6524SOL     OW31207   0.955   4.578   6.714 -0.1681  0.6734 -0.2499
 6524SOL    HW131208   0.950   4.665   6.756  1.3835  0.5808  0.1246
 6524SOL    HW231209   0.870   4.592   6.672 -0.3437 -1.2419 -0.5165
 6525SOL     OW31210   3.367   0.490  12.949 -0.4347  0.1171 -0.1219
 6525SOL    HW131211   3.324   0.445  12.877 -0.0614 -0.1378 -0.1851
 6525SOL    HW231212   3.338   0.436  13.023 -1.2518 -0.5426 -0.9261
 6526SOL     OW31213   3.091   3.364  12.082 -0.0635  0.0356  0.2676
 6526SOL    HW131214   3.063   3.348  11.993 -0.8472  0.7050  0.3941
 6526SOL    HW231215   3.181   3.357  12.050 -0.3120 -0.2528 -0.3637
 6527SOL     OW31216   2.013   2.704   5.506  0.2843  0.3913  0.4173
 6527SOL    HW131217   2.057   2.630   5.465 -0.7080  1.7663 -3.1381
 6527SOL    HW231218   2.080   2.716   5.574 -0.3327  1.9174  0.7624
 6528SOL     OW31219   1.164   1.499  15.937 -0.0422  0.2441  0.0426
 6528SOL    HW131220   1.252   1.492  15.901  0.4559  1.9552  0.9322
 6528SOL    HW231221   1.129   1.585  15.913  2.0557  1.0922  0.0210
 6529SOL     OW31222   0.760   0.125   3.710 -0.0577 -0.5733 -0.2634
 6529SOL    HW131223   0.769   0.125   3.615  2.8073  0.8429  0.0146
 6529SOL    HW231224   0.712   0.043   3.721  0.0591 -0.8180 -1.6101
 6530SOL     OW31225   0.237   1.478   5.323  0.1294 -0.0051  0.5730
 6530SOL    HW131226   0.295   1.475   5.398  1.1878 -1.2581 -0.2997
 6530SOL    HW231227   0.193   1.563   5.327  0.1139 -0.0217  0.7585
 6531SOL     OW31228   0.161   3.440  10.555 -0.3623  0.1374 -0.2461
 6531SOL    HW131229   0.157   3.446  10.651  0.1049 -0.5910 -0.1878
 6531SOL    HW231230   0.236   3.382  10.543  1.4846  2.4376 -0.0077
 6532SOL     OW31231   1.847   3.964   6.161  0.4892  0.1236 -0.3261
 6532SOL    HW131232   1.777   4.019   6.128  0.5369 -0.3816 -1.2590
 6532SOL    HW231233   1.851   3.907   6.084  1.3056 -0.3108  0.0303
 6533SOL     OW31234   2.710   1.948  12.226  0.2731  0.2085 -0.2127
 6533SOL    HW131235   2.689   1.855  12.221  0.6157  0.0905  0.4557
 6533SOL    HW231236   2.728   1.940  12.320  1.3531 -1.2065 -0.5387
 6534SOL     OW31237   1.133   0.469   7.048  0.7529  0.4300 -0.0242
 6534SOL    HW131238   1.061   0.453   7.108  0.1391  0.0241 -0.8634
 6534SOL    HW231239   1.092   0.543   7.003 -1.6406 -1.1470 -0.4335
 6535SOL     OW31240   2.886   4.469   5.827 -0.3131  0.3465 -0.2312
 6535SOL    HW131241   2.929   4.551   5.802 -2.1205  0.4490 -3.0297
 6535SOL    HW231242   2.865   4.476   5.920 -2.3510  1.2274 -0.7589
 6536SOL     OW31243   0.629   1.336   6.463  0.0469  0.3047 -0.4272
 6536SOL    HW131244   0.632   1.403   6.395 -2.1073 -0.3619 -1.1741
 6536SOL    HW231245   0.662   1.257   6.421 -0.1185 -1.0085  1.8978
 6537SOL     OW31246   0.477   3.388   9.090  0.0866  0.4827  0.1594
 6537SOL    HW131247   0.560   3.433   9.106 -0.3516  1.1585  0.5694
 6537SOL    HW231248   0.484   3.306   9.139 -0.8549  2.4951  3.7271
 6538SOL     OW31249   3.188   1.794  16.323  0.2762 -0.0953 -0.1384
 6538SOL    HW131250   3.237   1.797  16.406  1.2093  0.8250 -0.7319
 6538SOL    HW231251   3.260   1.798  16.261 -0.9535  0.3299 -1.5231
 6539SOL     OW31252   0.210   1.764  10.614 -0.3599 -0.0702 -0.0224
 6539SOL    HW131253   0.244   1.775  10.703  1.3117 -2.2355 -0.3886
 6539SOL    HW231254   0.115   1.757  10.622 -0.3656  0.4098  0.3200
 6540SOL     OW31255   1.294   4.416   6.346  0.7860 -0.4106  0.0194
 6540SOL    HW131256   1.362   4.356   6.378 -0.4507 -1.2581  1.0467
 6540SOL    HW231257   1.232   4.428   6.418  0.7971  2.2266 -0.4202
 6541SOL     OW31258   2.699   3.636   1.476  0.4362  0.0198 -0.0661
 6541SOL    HW131259   2.721   3.559   1.529  0.8485  0.2183  0.0510
 6541SOL    HW231260   2.786   3.665   1.450  0.5387  0.8304  1.1477
 6542SOL     OW31261   0.835   0.726  15.172 -0.0745  0.6247 -0.4317
 6542SOL    HW131262   0.836   0.761  15.262 -1.8099  1.7605 -0.8550
 6542SOL    HW231263   0.742   0.729  15.149  0.2272 -1.0015 -1.8297
 6543SOL     OW31264   2.720   4.720   7.105  0.4197 -0.0381 -0.0418
 6543SOL    HW131265   2.744   0.042   7.177  1.3694  0.0503 -0.4336
 6543SOL    HW231266   2.734   0.042   7.031 -1.0208 -0.3861 -0.5806
 6544SOL     OW31267   2.817   3.312  11.423  0.1315  0.0033 -0.6640
 6544SOL    HW131268   2.832   3.269  11.508 -1.3187 -2.6693 -1.7381
 6544SOL    HW231269   2.782   3.235  11.378 -1.7285 -0.6792  1.9297
 6545SOL     OW31270   3.071   4.414   6.612  0.2246  0.2185 -0.4133
 6545SOL    HW131271   3.139   4.418   6.545  2.3624 -2.2788  1.5989
 6545SOL    HW231272   3.008   4.354   6.573  0.9859 -0.4356 -0.6438
 6546SOL     OW31273   0.632   1.493   5.475  0.2509  0.0338 -0.4301
 6546SOL    HW131274   0.659   1.402   5.459 -1.5792 -0.3254 -1.5203
 6546SOL    HW231275   0.717   1.536   5.480 -0.1463  0.9940 -2.1096
 6547SOL     OW31276   4.250   1.739   4.353  0.2547 -0.3173 -0.1661
 6547SOL    HW131277   4.337   1.764   4.322 -0.1597  0.8307 -0.4013
 6547SOL    HW231278   4.257   1.737   4.449  0.9017 -0.7826 -0.2231
 6548SOL     OW31279   4.043   1.875  13.399 -0.2092 -0.1858 -0.0041
 6548SOL    HW131280   3.993   1.955  13.388  1.4780  0.9156  0.4299
 6548SOL    HW231281   3.971   1.812  13.408  3.0751 -3.5545  2.7723
 6549SOL     OW31282   3.068   4.392   8.594  0.0970  0.0011 -0.0228
 6549SOL    HW131283   3.116   4.455   8.648 -0.4005  1.0788 -0.8486
 6549SOL    HW231284   3.139   4.341   8.556  0.6759  0.7045  0.1158
 6550SOL     OW31285   0.637   2.688   3.189  0.2338 -0.2966  0.3230
 6550SOL    HW131286   0.618   2.608   3.237 -1.1253  0.6067  1.3053
 6550SOL    HW231287   0.548   2.725   3.191  0.2788 -0.1370 -0.7828
 6551SOL     OW31288   4.460   1.326  10.686  0.2320 -0.1970 -0.1265
 6551SOL    HW131289   4.376   1.301  10.647 -0.0034  1.3233 -0.5977
 6551SOL    HW231290   4.478   1.254  10.746 -3.8338 -0.9681  0.1529
 6552SOL     OW31291   2.009   1.442   2.587  0.1091 -0.1683 -0.0493
 6552SOL    HW131292   2.052   1.416   2.506  3.3683  1.5520  1.1305
 6552SOL    HW231293   1.920   1.429   2.555  0.5511 -0.3433 -1.2046
 6553SOL     OW31294   2.300   0.151   5.134 -0.3944  0.8847  0.6124
 6553SOL    HW131295   2.255   0.226   5.096 -0.0384  0.8269  0.0756
 6553SOL    HW231296   2.236   0.129   5.202  0.5051 -1.3861  0.7543
 6554SOL     OW31297   3.483   2.609   2.093 -0.1069 -0.7331 -0.1747
 6554SOL    HW131298   3.460   2.576   2.006  2.8546  2.1872 -2.0766
 6554SOL    HW231299   3.438   2.554   2.157 -1.8419  0.8731 -0.0212
 6555SOL     OW31300   1.485   0.167   2.163  0.1174 -0.3066 -0.2608
 6555SOL    HW131301   1.437   0.196   2.241 -1.4317 -2.0707 -0.5461
 6555SOL    HW231302   1.573   0.179   2.199 -0.1507 -1.8173  0.9093
 6556SOL     OW31303   4.246   1.112   1.788 -0.1698 -0.4268  0.4606
 6556SOL    HW131304   4.153   1.094   1.805 -0.2590 -1.9847 -1.6758
 6556SOL    HW231305   4.278   1.030   1.752 -0.5508 -0.6452  0.6181
 6557SOL     OW31306   1.912   3.703   4.122 -0.7245 -0.2314 -0.2203
 6557SOL    HW131307   1.902   3.712   4.027 -2.2825 -1.1593 -0.1407
 6557SOL    HW231308   1.860   3.770   4.168 -1.1985 -0.6659 -0.1240
 6558SOL     OW31309   2.644   2.028   9.418 -1.1197  0.1139  0.2055
 6558SOL    HW131310   2.668   1.959   9.480  1.9695  0.9696 -0.0120
 6558SOL    HW231311   2.557   2.044   9.454 -1.1546  0.3788  0.0047
 6559SOL     OW31312   0.473   1.202   5.506  0.5925 -0.3573 -0.3527
 6559SOL    HW131313   0.385   1.164   5.517  0.1254  0.3905 -1.4592
 6559SOL    HW231314   0.503   1.182   5.418  0.0498  2.3584 -1.1519
 6560SOL     OW31315   1.275   4.549   0.209  0.6225  0.1106 -0.0402
 6560SOL    HW131316   1.362   4.585   0.221  0.7107  0.3923 -1.4360
 6560SOL    HW231317   1.210   4.618   0.224  1.9108  0.9100  1.7985
 6561SOL     OW31318   1.788   3.595   8.680  1.0233  0.3621  0.2828
 6561SOL    HW131319   1.841   3.610   8.601 -0.6615 -0.6815 -1.0608
 6561SOL    HW231320   1.837   3.651   8.739  2.3636  0.4169 -0.8894
 6562SOL     OW31321   1.004   1.593  12.326  0.3615  0.1540 -0.0649
 6562SOL    HW131322   1.021   1.654  12.254 -1.5111 -1.2857 -1.7411
 6562SOL    HW231323   0.913   1.613  12.349  0.0964 -0.5983 -0.4842
 6563SOL     OW31324   1.900   3.040   3.741 -0.0392 -0.4652 -0.2679
 6563SOL    HW131325   1.893   2.979   3.667  0.3453 -1.7405  0.7467
 6563SOL    HW231326   1.991   3.022   3.765 -0.8485 -1.4179  2.1004
 6564SOL     OW31327   3.537   0.799   6.529  0.0519  0.2452 -0.2136
 6564SOL    HW131328   3.621   0.789   6.573 -0.0605 -0.3364 -0.1337
 6564SOL    HW231329   3.527   0.712   6.491  1.7243 -0.1050  0.1571
 6565SOL     OW31330   0.685   3.441   7.601  0.5936 -0.3594 -0.1680
 6565SOL    HW131331   0.687   3.406   7.690 -1.7961 -2.3449 -0.8905
 6565SOL    HW231332   0.682   3.534   7.624  0.4252 -0.2996 -0.4296
 6566SOL     OW31333   3.516   1.379   2.132  0.4131 -0.2597  0.2945
 6566SOL    HW131334   3.460   1.340   2.064 -1.9869  1.1752  1.4445
 6566SOL    HW231335   3.447   1.399   2.195 -1.1816  0.0138 -1.5174
 6567SOL     OW31336   3.281   2.295   3.062 -0.1488 -0.0465 -0.2162
 6567SOL    HW131337   3.354   2.357   3.062 -0.6265  0.4942  1.5750
 6567SOL    HW231338   3.231   2.333   2.990 -0.4852  1.0296  0.5956
 6568SOL     OW31339   2.839   1.626   3.217 -0.1491  0.7611  0.0373
 6568SOL    HW131340   2.752   1.643   3.253 -0.3789 -0.6806  0.1643
 6568SOL    HW231341   2.858   1.537   3.249  1.7883  1.5158  0.9522
 6569SOL     OW31342   0.283   1.914   8.061  0.4873  0.4131  0.1430
 6569SOL    HW131343   0.324   1.897   7.976  0.7684  0.9133  0.1779
 6569SOL    HW231344   0.324   1.837   8.100  0.6916 -0.3655 -1.6237
 6570SOL     OW31345   0.887   2.333   9.393 -0.2598 -0.0996  0.1715
 6570SOL    HW131346   0.977   2.315   9.368 -0.3274  1.1376 -1.0319
 6570SOL    HW231347   0.880   2.429   9.390  1.8283  0.0398 -0.1043
 6571SOL     OW31348   0.714   1.877   4.702 -0.0064  0.2277 -0.1834
 6571SOL    HW131349   0.658   1.939   4.655 -0.0467  0.0905 -0.3145
 6571SOL    HW231350   0.673   1.804   4.657 -0.9789  0.3301  0.5226
 6572SOL     OW31351   0.004   0.824   9.094  0.5071 -0.4364  0.0671
 6572SOL    HW131352   4.732   0.920   9.095 -0.9759 -0.5826  1.1720
 6572SOL    HW231353   4.649   0.802   9.078  0.2576  0.7928 -0.2474
 6573SOL     OW31354   3.778   1.255  13.081 -0.0888 -0.1111  0.0736
 6573SOL    HW131355   3.762   1.344  13.110  1.6331  0.0572  0.4565
 6573SOL    HW231356   3.695   1.245  13.033 -0.9527  1.5117  1.2567
 6574SOL     OW31357   3.824   2.262   6.082 -0.5878  0.2300 -0.1657
 6574SOL    HW131358   3.891   2.330   6.090 -1.5290  1.2405 -0.8568
 6574SOL    HW231359   3.865   2.176   6.087 -0.9956  0.1007  0.9359
 6575SOL     OW31360   4.480   1.789   4.536 -0.0261  0.2865  0.2385
 6575SOL    HW131361   4.567   1.775   4.574  0.0824 -1.7396 -0.7825
 6575SOL    HW231362   4.495   1.839   4.456  0.8164  1.4646  1.1191
 6576SOL     OW31363   0.444   2.446   9.122  0.3311 -0.5887  0.1587
 6576SOL    HW131364   0.398   2.522   9.158 -1.5676 -2.8760  2.6253
 6576SOL    HW231365   0.439   2.380   9.191  1.3047 -0.6702  0.1532
 6577SOL     OW31366   2.152   4.348   8.068  0.0039  0.2765  0.0433
 6577SOL    HW131367   2.083   4.413   8.052 -0.4639 -0.4347 -0.8257
 6577SOL    HW231368   2.125   4.331   8.158  0.5092  3.1755  0.7305
 6578SOL     OW31369   0.606   2.350   8.910 -0.2090 -0.1383 -0.0077
 6578SOL    HW131370   0.555   2.272   8.890  0.2911 -0.4843  0.0598
 6578SOL    HW231371   0.558   2.383   8.986 -0.0803  0.1574 -0.0557
 6579SOL     OW31372   1.155   0.233   5.199 -0.1368  0.0798  0.2784
 6579SOL    HW131373   1.065   0.221   5.169  0.1013  1.0052 -0.7505
 6579SOL    HW231374   1.144   0.285   5.279  1.5067  1.6360 -0.5167
 6580SOL     OW31375   3.026   1.080   4.570  0.7230  0.5392 -0.3904
 6580SOL    HW131376   3.038   1.066   4.476 -2.7466  0.8874 -0.9050
 6580SOL    HW231377   2.933   1.061   4.582  1.2298 -1.2581  0.6570
 6581SOL     OW31378   2.820   1.732  15.907  0.1445 -0.1176  0.3304
 6581SOL    HW131379   2.881   1.787  15.956 -2.1329  3.1245 -0.4456
 6581SOL    HW231380   2.746   1.727  15.968 -1.4122  1.9946 -1.3812
 6582SOL     OW31381   1.111   4.445   9.893  0.7458  0.0283 -0.0708
 6582SOL    HW131382   1.138   4.535   9.879  0.3886  0.1676  0.1496
 6582SOL    HW231383   1.059   4.453   9.973 -1.3603 -1.0060 -1.3420
 6583SOL     OW31384   0.725   3.625   3.183  0.4074 -0.3389  0.1864
 6583SOL    HW131385   0.771   3.645   3.102  0.9052  2.0440  1.0675
 6583SOL    HW231386   0.723   3.529   3.180  1.9476 -0.3879  0.8155
 6584SOL     OW31387   3.686   2.505   9.493  0.1524  0.0877  0.0163
 6584SOL    HW131388   3.660   2.576   9.552  0.5477 -0.9312  1.4064
 6584SOL    HW231389   3.650   2.540   9.412 -1.4628 -1.2533  0.1687
 6585SOL     OW31390   1.206   1.015  13.160 -0.5126 -0.1258  0.3495
 6585SOL    HW131391   1.141   0.995  13.227 -0.1902  1.0654  1.0194
 6585SOL    HW231392   1.286   0.989  13.205 -0.3527 -0.7270 -0.2812
 6586SOL     OW31393   2.700   1.556   4.009 -0.3644  0.2435  0.2634
 6586SOL    HW131394   2.608   1.563   3.982 -1.0220  0.0080  2.4136
 6586SOL    HW231395   2.715   1.650   4.017 -0.3060  0.1967  0.7235
 6587SOL     OW31396   4.707   1.003   9.395 -0.2195  0.0867 -0.1930
 6587SOL    HW131397   4.674   0.914   9.406 -0.8346  0.4009  0.5713
 6587SOL    HW231398   4.638   1.030   9.335  0.7716  0.5179 -1.1328
 6588SOL     OW31399   1.524   0.403   0.084  0.2933 -0.0648  0.0259
 6588SOL    HW131400   1.542   0.309   0.080 -1.1551 -0.3507  0.1396
 6588SOL    HW231401   1.452   0.408   0.146  1.2164  0.3661  1.0629
 6589SOL     OW31402   1.006   2.442   5.671 -0.3556 -0.5042  0.0052
 6589SOL    HW131403   1.076   2.453   5.607  0.0968 -1.4054  0.3410
 6589SOL    HW231404   0.979   2.350   5.668 -2.2697  0.0895 -0.7036
 6590SOL     OW31405   4.728   0.472  13.359  0.4369 -0.4741 -0.6001
 6590SOL    HW131406   0.013   0.385  13.325 -0.6846 -1.0496  0.1627
 6590SOL    HW231407   0.075   0.518  13.365 -0.1770  0.5251  0.2271
 6591SOL     OW31408   1.306   2.552  16.430  0.5404  0.3997  0.2056
 6591SOL    HW131409   1.327   2.563  16.522  1.3507 -0.1380  0.0806
 6591SOL    HW231410   1.262   2.467  16.434 -1.4687  1.3275 -1.9237
 6592SOL     OW31411   0.329   3.730  16.452 -0.2512  0.2221  0.1363
 6592SOL    HW131412   0.351   3.637  16.459  2.3248  0.6649 -2.2478
 6592SOL    HW231413   0.385   3.761  16.381  1.1350  0.1290  1.1970
 6593SOL     OW31414   4.678   2.011   5.627  0.1078 -0.3038 -0.3769
 6593SOL    HW131415   4.585   2.001   5.650 -0.3765  3.3982 -0.6918
 6593SOL    HW231416   4.695   2.104   5.619 -0.0613 -0.4519 -2.3843
 6594SOL     OW31417   1.561   2.108   4.921  0.6066 -0.3778  0.2590
 6594SOL    HW131418   1.539   2.044   4.988  0.2692  1.4218  1.8966
 6594SOL    HW231419   1.629   2.154   4.970 -0.4358 -0.1918  1.5694
 6595SOL     OW31420   2.890   3.156   8.165  0.1662 -0.0790  0.1228
 6595SOL    HW131421   2.921   3.088   8.224  1.6337 -0.8186 -1.5166
 6595SOL    HW231422   2.899   3.236   8.217  3.9599 -1.5766  1.7832
 6596SOL     OW31423   4.631   4.553   0.713  0.5202  0.0698  0.1568
 6596SOL    HW131424   4.585   4.629   0.678 -1.4537 -0.6851  1.0593
 6596SOL    HW231425   4.662   4.580   0.800  0.0333 -0.8109  0.6152
 6597SOL     OW31426   3.191   2.513   2.912 -0.1116 -0.0840  0.2165
 6597SOL    HW131427   3.117   2.537   2.856 -0.6427 -0.4546  0.7468
 6597SOL    HW231428   3.247   2.579   2.873  1.4647 -0.6393  1.5173
 6598SOL     OW31429   4.087   3.984   1.122 -0.4321  0.0048  0.4358
 6598SOL    HW131430   4.076   3.959   1.030 -0.0432  3.9902 -0.6635
 6598SOL    HW231431   4.169   3.939   1.143  0.0466 -0.1315 -1.7493
 6599SOL     OW31432   2.494   4.636  15.880 -0.7489  0.2408  0.3007
 6599SOL    HW131433   2.550   4.578  15.932 -1.6429  1.0567  2.1625
 6599SOL    HW231434   2.558   4.688  15.832  1.3098 -3.7267 -1.2381
 6600SOL     OW31435   0.001   3.778  15.914 -0.0291  0.0064  0.3011
 6600SOL    HW131436   4.708   3.762  16.003 -0.4536 -0.1150  0.1381
 6600SOL    HW231437   4.653   3.788  15.870 -0.1337 -1.0737  0.2705
 6601SOL     OW31438   3.040   4.305  12.826 -0.5594 -0.1924  0.7361
 6601SOL    HW131439   3.074   4.356  12.753 -1.6490 -4.4234 -2.7678
 6601SOL    HW231440   2.996   4.238  12.774 -0.9886  0.0546  0.7845
 6602SOL     OW31441   0.197   4.671   8.243 -0.0928  0.0698 -0.0479
 6602SOL    HW131442   0.286   4.649   8.274 -0.3383  0.8492  1.2362
 6602SOL    HW231443   0.221   4.697   8.154  0.9815  0.0764  0.2411
 6603SOL     OW31444   0.766   3.328   2.330 -0.0760  0.4129  0.3557
 6603SOL    HW131445   0.837   3.344   2.268  0.5247  1.4442  1.3104
 6603SOL    HW231446   0.800   3.243   2.360 -0.1062  0.5633  0.8149
 6604SOL     OW31447   4.299   4.679  14.922 -0.2696 -0.5221  0.6261
 6604SOL    HW131448   4.335   4.653  14.837 -1.1169 -0.8092  0.3523
 6604SOL    HW231449   4.370   4.729  14.962  1.6283 -1.3629 -1.6862
 6605SOL     OW31450   1.071   4.339  13.901 -0.8989  0.2129  0.8678
 6605SOL    HW131451   1.115   4.362  13.819  1.3270  1.8681  2.5257
 6605SOL    HW231452   1.031   4.425  13.909  3.3242  2.3347 -1.2507
 6606SOL     OW31453   3.468   3.461  12.766 -0.1524  0.0656 -0.4677
 6606SOL    HW131454   3.410   3.385  12.770 -1.6588  1.2413  0.0263
 6606SOL    HW231455   3.504   3.445  12.853  0.8475 -0.8036 -1.0335
 6607SOL     OW31456   1.214   0.552   2.367  0.5212 -0.4124  0.1752
 6607SOL    HW131457   1.159   0.527   2.293 -1.9238  2.9663  0.8153
 6607SOL    HW231458   1.165   0.615   2.421  0.6584 -1.0649  1.0657
 6608SOL     OW31459   0.947   2.170  13.813  0.0520 -0.3001  0.1598
 6608SOL    HW131460   0.881   2.236  13.795  1.4563  1.5553  1.7522
 6608SOL    HW231461   0.937   2.152  13.906  0.3887 -0.4963  0.1596
 6609SOL     OW31462   1.016   4.543  16.247  0.3661  0.9311 -0.3970
 6609SOL    HW131463   1.007   4.462  16.195  1.5389  1.2619 -1.1131
 6609SOL    HW231464   1.002   4.508  16.335  2.3324  0.2300 -0.3526
 6610SOL     OW31465   2.754   4.672  16.657 -0.3601  0.5747  0.0568
 6610SOL    HW131466   2.840   4.711  16.638  1.0460 -2.9387 -0.8823
 6610SOL    HW231467   2.694   4.716  16.596  0.0133  2.0951  0.8000
 6611SOL     OW31468   3.321   1.255  15.501  0.5796  0.2171  0.3448
 6611SOL    HW131469   3.380   1.180  15.495  2.4826  1.7261  0.3679
 6611SOL    HW231470   3.362   1.313  15.438  0.2725 -1.2954 -1.2393
 6612SOL     OW31471   3.347   2.195  10.665  0.4076  0.0277 -0.2281
 6612SOL    HW131472   3.419   2.132  10.654 -0.0164 -0.0294 -2.6284
 6612SOL    HW231473   3.304   2.173  10.748  2.1371  1.0703  0.9425
 6613SOL     OW31474   0.680   2.383  13.929  0.2658 -0.0643 -0.3223
 6613SOL    HW131475   0.649   2.293  13.923 -0.5629  0.2234 -0.3347
 6613SOL    HW231476   0.672   2.399  14.023  1.2905  0.7108 -0.3711
 6614SOL     OW31477   2.042   4.263  10.861  0.1332 -0.2134 -0.2412
 6614SOL    HW131478   2.116   4.244  10.804  1.8274  1.3064  1.4446
 6614SOL    HW231479   2.089   4.260  10.945  3.6923 -0.1290 -2.2574
 6615SOL     OW31480   2.513   2.901   8.599  0.0975 -0.0763  0.4740
 6615SOL    HW131481   2.467   2.884   8.681  0.6308 -1.4756  0.4768
 6615SOL    HW231482   2.486   2.824   8.549 -0.9528 -0.0169  0.9479
 6616SOL     OW31483   2.519   2.490   6.311 -0.1211  0.1262 -0.5042
 6616SOL    HW131484   2.499   2.584   6.302 -0.9895 -0.0728 -0.6845
 6616SOL    HW231485   2.577   2.489   6.235 -0.2200  0.0593 -0.5797
 6617SOL     OW31486   1.918   1.996   2.691  0.6181 -0.4379  0.3710
 6617SOL    HW131487   1.919   2.047   2.610 -1.0603  1.7269  1.7479
 6617SOL    HW231488   1.909   1.904   2.665  1.1594 -0.9588  2.0145
 6618SOL     OW31489   2.251   2.044  12.853 -0.1989  0.2989  0.1510
 6618SOL    HW131490   2.318   2.097  12.810 -2.3501  2.7062 -0.1966
 6618SOL    HW231491   2.199   2.015  12.779  1.2585 -3.1233  0.4886
 6619SOL     OW31492   0.335   2.977   0.719  0.2024 -0.2627 -0.1496
 6619SOL    HW131493   0.242   2.962   0.702 -0.0413  0.9576  0.1319
 6619SOL    HW231494   0.327   3.024   0.802 -0.3171 -1.0818  0.2690
 6620SOL     OW31495   4.071   0.562   6.102  0.5528  0.1277 -0.2730
 6620SOL    HW131496   4.023   0.506   6.163  1.2083 -1.2464 -1.0150
 6620SOL    HW231497   4.007   0.560   6.030  0.7997  0.2130 -0.4931
 6621SOL     OW31498   2.845   1.559   2.895  0.3060 -0.3982 -0.6209
 6621SOL    HW131499   2.932   1.525   2.910  0.5997  0.3796 -0.5501
 6621SOL    HW231500   2.795   1.486   2.931  0.5524 -1.4067 -2.3468
 6622SOL     OW31501   2.763   1.091   5.512  0.4497 -0.3394 -0.0548
 6622SOL    HW131502   2.777   1.167   5.457 -0.9404 -1.0701 -1.4194
 6622SOL    HW231503   2.775   1.132   5.598  0.3207  2.7742 -1.5480
 6623SOL     OW31504   1.089   1.148  15.916 -0.0407  0.0273  0.1911
 6623SOL    HW131505   1.039   1.090  15.973 -2.0928  1.0402 -0.6003
 6623SOL    HW231506   1.129   1.200  15.986  0.2815 -0.6556  0.5131
 6624SOL     OW31507   1.693   2.675  17.145 -0.6241  0.3459  0.3210
 6624SOL    HW131508   1.742   2.661  17.226 -2.7067 -3.3148  0.9544
 6624SOL    HW231509   1.624   2.739  17.165  0.2053  0.9637  1.2193
 6625SOL     OW31510   3.160   1.409   6.707 -0.4446 -0.1514  0.1974
 6625SOL    HW131511   3.190   1.397   6.797 -0.0915  0.3533  0.1446
 6625SOL    HW231512   3.137   1.321   6.677  0.8334 -0.6335  0.6438
 6626SOL     OW31513   2.413   1.994  17.596 -0.0584 -0.2187 -0.3385
 6626SOL    HW131514   2.506   2.012  17.584 -0.2007  0.5218 -0.3312
 6626SOL    HW231515   2.417   1.918  17.539 -2.0603  0.3600 -1.2489
 6627SOL     OW31516   4.733   3.576   0.099 -0.7597  0.3935 -0.0260
 6627SOL    HW131517   0.089   3.554   0.114 -0.2701  1.9772 -0.6945
 6627SOL    HW231518   0.006   3.645   0.033 -1.3687  0.5443  0.0504
 6628SOL     OW31519   0.554   2.471   7.617 -0.1185 -0.1796  0.1603
 6628SOL    HW131520   0.638   2.449   7.576 -1.1086  0.2579 -2.1384
 6628SOL    HW231521   0.584   2.538   7.678  1.8561  0.9477 -2.0297
 6629SOL     OW31522   2.205   2.556   5.983  0.6240 -0.2490  0.2893
 6629SOL    HW131523   2.232   2.516   5.900 -0.1518 -0.3092  0.0597
 6629SOL    HW231524   2.285   2.607   5.996  1.2650 -0.7938 -1.4434
 6630SOL     OW31525   0.140   3.424   1.299 -0.5648 -0.2441  0.3034
 6630SOL    HW131526   0.101   3.435   1.212  1.5766 -0.3694 -0.6559
 6630SOL    HW231527   0.213   3.364   1.285 -0.5931 -0.2579  0.2164
 6631SOL     OW31528   3.422   3.659  14.965 -0.4276 -0.5629 -0.4079
 6631SOL    HW131529   3.487   3.589  14.969  1.5997  1.2895 -1.0422
 6631SOL    HW231530   3.485   3.721  14.929 -0.9805  1.7827  2.7175
 6632SOL     OW31531   2.113   4.142  17.628  0.0432  0.1196  0.2066
 6632SOL    HW131532   2.107   4.049  17.650  1.1364 -0.1022 -0.4184
 6632SOL    HW231533   2.103   4.179  17.716 -0.5890 -0.1162  0.2289
 6633SOL     OW31534   1.799   4.457   5.667 -0.0352 -0.6326  0.1918
 6633SOL    HW131535   1.723   4.496   5.712  0.0856 -2.2255  1.7780
 6633SOL    HW231536   1.756   4.396   5.607  0.6787  0.0502 -1.0134
 6634SOL     OW31537   2.917   3.223   6.989  0.3400 -0.3008  0.2195
 6634SOL    HW131538   2.988   3.239   6.927 -0.9350 -0.9663 -1.4187
 6634SOL    HW231539   2.837   3.251   6.943 -0.2962 -0.5428  1.1733
 6635SOL     OW31540   0.993   0.002   2.869 -0.5709  0.3494 -0.2135
 6635SOL    HW131541   0.942   4.697   2.800 -0.9880  2.0292 -0.9245
 6635SOL    HW231542   1.045   4.669   2.910 -0.0917  0.8722  0.0779
 6636SOL     OW31543   3.217   4.019  10.923  0.1473  0.1254  0.1703
 6636SOL    HW131544   3.153   4.074  10.878  0.5257  0.0897 -0.4239
 6636SOL    HW231545   3.167   3.989  10.998  0.7931 -0.8794  0.1955
 6637SOL     OW31546   3.123   3.587  13.739 -0.8836  0.0096  0.1694
 6637SOL    HW131547   3.172   3.581  13.656  1.5149 -1.2692  1.6860
 6637SOL    HW231548   3.040   3.554  13.703 -2.0760  1.7021  1.3948
 6638SOL     OW31549   3.040   1.921  15.659  0.0057 -0.0590  0.4376
 6638SOL    HW131550   2.956   1.938  15.616  0.6169 -0.4715 -0.9295
 6638SOL    HW231551   3.053   1.837  15.616  0.9828  0.3192 -0.0196
 6639SOL     OW31552   1.881   1.432   3.367  0.1614  0.5856 -0.2925
 6639SOL    HW131553   1.803   1.487   3.368 -0.8463 -0.8484  1.7876
 6639SOL    HW231554   1.946   1.476   3.313 -0.5182 -0.8045 -2.2336
 6640SOL     OW31555   0.909   3.487   6.238 -0.0850 -0.3083  0.0167
 6640SOL    HW131556   0.866   3.435   6.306 -1.3969  0.9815  0.1869
 6640SOL    HW231557   0.896   3.436   6.159  1.6018 -2.6980  1.2830
 6641SOL     OW31558   1.576   3.330  15.374 -0.1603 -0.5079 -0.3223
 6641SOL    HW131559   1.502   3.274  15.351 -1.5877  0.2533  2.4354
 6641SOL    HW231560   1.529   3.412  15.393  0.4188 -0.0533 -0.8506
 6642SOL     OW31561   0.474   0.044   8.809  0.7243  0.1395 -0.5412
 6642SOL    HW131562   0.420   0.117   8.840 -0.2586 -2.1595  3.1949
 6642SOL    HW231563   0.463   0.067   8.717 -2.0217 -0.7710 -0.4429
 6643SOL     OW31564   2.002   0.707   8.893 -0.4791 -0.2033 -0.0714
 6643SOL    HW131565   1.992   0.802   8.884  0.6032 -0.2913 -2.0792
 6643SOL    HW231566   2.060   0.708   8.969  0.7848 -1.8040 -1.0471
 6644SOL     OW31567   2.441   4.694   4.592  0.4263  0.1164  0.0775
 6644SOL    HW131568   2.408   4.685   4.682  0.0991  0.9773  0.0472
 6644SOL    HW231569   2.518   4.638   4.593  0.9161  0.8240  1.3869
 6645SOL     OW31570   2.855   4.266  17.461 -0.1636  0.0305  0.3395
 6645SOL    HW131571   2.843   4.205  17.388  3.5460  0.1008 -0.2970
 6645SOL    HW231572   2.770   4.308  17.476  0.3045  0.7430  1.0104
 6646SOL     OW31573   0.249   1.981   9.727  0.2177  0.3225 -0.0142
 6646SOL    HW131574   0.296   1.937   9.798  1.0319  0.6559 -0.3463
 6646SOL    HW231575   0.193   1.911   9.694 -0.2034  0.5813  0.1476
 6647SOL     OW31576   2.265   1.925   2.795  0.6803  0.2254  0.0067
 6647SOL    HW131577   2.257   1.849   2.738 -0.6842  0.7482 -0.4821
 6647SOL    HW231578   2.359   1.942   2.789  0.9313 -1.3164 -0.5496
 6648SOL     OW31579   4.446   4.251  14.905  0.1558  0.0966  0.0074
 6648SOL    HW131580   4.372   4.310  14.919 -0.7179 -1.4258  1.9152
 6648SOL    HW231581   4.498   4.299  14.840 -0.3784  2.2632  1.1950
 6649SOL     OW31582   2.457   1.918   0.896 -0.2047  0.3853 -0.3613
 6649SOL    HW131583   2.521   1.848   0.909  2.1863  2.3905 -1.2852
 6649SOL    HW231584   2.410   1.877   0.823 -0.9226  2.2214 -0.9275
 6650SOL     OW31585   2.117   2.667   0.902 -0.5321 -0.2044  0.3117
 6650SOL    HW131586   2.141   2.575   0.889  0.4038  0.0071  0.5974
 6650SOL    HW231587   2.091   2.697   0.815  0.4283  0.4443  0.2577
 6651SOL     OW31588   1.976   2.487   4.466 -0.4973 -0.0096 -0.2976
 6651SOL    HW131589   2.058   2.466   4.510 -0.2386 -1.4770 -1.5016
 6651SOL    HW231590   1.909   2.440   4.516 -1.4953  0.6077 -1.0479
 6652SOL     OW31591   4.466   4.060   2.194  0.5231  0.3661  0.2364
 6652SOL    HW131592   4.557   4.030   2.198 -0.4898 -2.7925 -0.3563
 6652SOL    HW231593   4.469   4.138   2.250  1.5538 -0.6523  1.6104
 6653SOL     OW31594   1.806   1.391   0.195 -0.3702  0.9175  0.0181
 6653SOL    HW131595   1.788   1.406   0.102 -0.6658  0.3987 -0.0118
 6653SOL    HW231596   1.805   1.483   0.218 -3.3396  0.5924  1.1789
 6654SOL     OW31597   0.568   4.582  17.102 -0.1016 -0.1274 -0.1156
 6654SOL    HW131598   0.580   4.489  17.121  2.1086  0.3698  0.8234
 6654SOL    HW231599   0.653   4.611  17.134  0.8111  0.7884 -3.3292
 6655SOL     OW31600   2.204   3.313   1.573 -0.1196  1.0130  0.0872
 6655SOL    HW131601   2.114   3.335   1.596 -0.1518 -0.6006  1.4932
 6655SOL    HW231602   2.206   3.309   1.477 -0.8116 -2.2773  0.2169
 6656SOL     OW31603   3.385   1.653   7.456  0.5031  0.9669  0.5136
 6656SOL    HW131604   3.437   1.655   7.376  1.3145 -3.2388  0.9634
 6656SOL    HW231605   3.335   1.729   7.428 -0.1503 -0.7192 -2.8487
 6657SOL     OW31606   4.357   0.077  11.488  0.0370  0.3336  0.0697
 6657SOL    HW131607   4.355   0.132  11.566  3.3164  1.1461 -0.4132
 6657SOL    HW231608   4.319   0.139  11.426  0.2876  0.2092 -0.2089
 6658SOL     OW31609   4.708   3.465   5.517  0.2585  0.5435  0.0478
 6658SOL    HW131610   0.016   3.391   5.557 -0.1001  0.1269 -0.3149
 6658SOL    HW231611   0.012   3.536   5.566  1.8011  0.6058 -1.2927
 6659SOL     OW31612   3.509   0.803   2.243 -0.4106 -0.4273 -0.7998
 6659SOL    HW131613   3.538   0.893   2.228  2.4655 -1.1610  0.4415
 6659SOL    HW231614   3.421   0.802   2.204  0.4968 -0.0394 -2.8637
 6660SOL     OW31615   1.837   2.131   8.551  0.4912 -0.3639 -0.4046
 6660SOL    HW131616   1.821   2.135   8.457 -1.1646  0.6381 -0.0776
 6660SOL    HW231617   1.750   2.154   8.583  0.0034 -1.1598 -1.1722
 6661SOL     OW31618   2.527   1.601  14.990  0.8961  0.4272  0.2808
 6661SOL    HW131619   2.495   1.559  15.070 -0.7771  0.5959 -0.2838
 6661SOL    HW231620   2.454   1.618  14.930  2.8441 -1.3547 -2.5563
 6662SOL     OW31621   3.732   1.206   1.078 -0.2552  0.2620  0.0614
 6662SOL    HW131622   3.728   1.172   0.989 -1.1932 -0.2440  0.2964
 6662SOL    HW231623   3.638   1.220   1.090 -0.5215 -2.5659  1.1267
 6663SOL     OW31624   1.943   4.223   5.613  0.3460  0.1290  0.0533
 6663SOL    HW131625   2.025   4.237   5.661  0.8954  1.7989 -1.3660
 6663SOL    HW231626   1.918   4.315   5.610  0.8863  0.2206 -1.6466
 6664SOL     OW31627   0.737   3.212   2.979  0.3737 -0.1538 -0.4389
 6664SOL    HW131628   0.808   3.251   2.927  1.0136 -0.2596  0.3524
 6664SOL    HW231629   0.774   3.128   3.007  0.7799 -0.4698 -1.8916
 6665SOL     OW31630   1.001   4.170   0.844 -0.1752 -0.2502  0.8473
 6665SOL    HW131631   0.919   4.126   0.822  0.1177 -1.3356  1.9228
 6665SOL    HW231632   1.021   4.121   0.924 -1.9663 -0.5510  1.1007
 6666SOL     OW31633   0.723   2.059  14.891  0.0256 -0.3295 -0.1027
 6666SOL    HW131634   0.738   2.150  14.917  1.2715 -0.3490 -0.7179
 6666SOL    HW231635   0.716   2.017  14.976 -1.4074 -0.8163 -0.4623
 6667SOL     OW31636   1.780   4.102   0.268  0.3423 -0.3623  0.1034
 6667SOL    HW131637   1.788   4.190   0.231  1.2033 -0.5035 -0.0361
 6667SOL    HW231638   1.855   4.096   0.328 -1.4826  0.4132  2.4661
 6668SOL     OW31639   3.519   4.664   1.736  0.3356  0.2198 -0.7623
 6668SOL    HW131640   3.537   0.006   1.787 -0.9529  0.0006  0.0396
 6668SOL    HW231641   3.531   4.595   1.801  1.7524  0.8399 -0.3749
 6669SOL     OW31642   0.008   0.726   3.667  0.1575 -0.0437  0.0307
 6669SOL    HW131643   4.709   0.804   3.625 -0.7688 -0.2570  0.4180
 6669SOL    HW231644   4.690   0.661   3.621 -0.4874 -0.1616  0.9486
 6670SOL     OW31645   0.881   1.099   1.544 -0.3614  0.4256  0.2194
 6670SOL    HW131646   0.932   1.161   1.491 -0.7449  2.1634  1.8868
 6670SOL    HW231647   0.908   1.025   1.490  2.2592  0.8167  0.9636
 6671SOL     OW31648   2.115   0.681   9.184 -0.6609 -0.4420  0.6940
 6671SOL    HW131649   2.067   0.602   9.208  0.3749 -1.6351 -1.1247
 6671SOL    HW231650   2.103   0.733   9.263 -1.2459  0.3073  0.1075
 6672SOL     OW31651   2.717   1.764   2.777 -0.4095 -0.1872  0.2521
 6672SOL    HW131652   2.789   1.805   2.729 -0.9080  1.8088  1.2500
 6672SOL    HW231653   2.764   1.721   2.849 -0.3688  0.8789  0.8568
 6673SOL     OW31654   3.041   4.622   7.392 -0.5885  0.4412  0.3724
 6673SOL    HW131655   2.960   4.670   7.373  0.3104  1.7142 -0.2411
 6673SOL    HW231656   3.104   4.666   7.335 -1.4528 -0.2674 -1.1048
 6674SOL     OW31657   3.671   1.763  11.457 -0.1723 -0.5006 -0.4636
 6674SOL    HW131658   3.659   1.823  11.531 -0.6850 -2.2063  0.8347
 6674SOL    HW231659   3.744   1.709  11.486 -0.5613 -0.4502  0.6219
 6675SOL     OW31660   1.167   2.251   7.560 -0.0970 -0.0775  0.0435
 6675SOL    HW131661   1.255   2.275   7.532  0.5943  0.3703  2.6428
 6675SOL    HW231662   1.185   2.168   7.603 -2.8395  0.7972  2.8854
 6676SOL     OW31663   3.087   0.874   9.504 -0.3447  0.3294 -0.5820
 6676SOL    HW131664   3.067   0.827   9.585 -0.9951  0.1196 -0.8679
 6676SOL    HW231665   3.139   0.946   9.541 -0.3671  0.7815 -1.4287
 6677SOL     OW31666   0.319   4.638   4.965 -0.1891 -0.3353  0.3126
 6677SOL    HW131667   0.403   4.597   4.945 -0.1861  0.2747 -0.9713
 6677SOL    HW231668   0.305   4.690   4.886  0.1671 -1.8531 -0.7407
 6678SOL     OW31669   2.392   2.466   2.582 -0.3497  0.2162 -0.6470
 6678SOL    HW131670   2.305   2.454   2.620 -0.0471 -1.0409 -0.3388
 6678SOL    HW231671   2.416   2.375   2.561  1.3833  0.2145  1.2425
 6679SOL     OW31672   1.542   3.129   8.847  0.1332  0.0697  0.1681
 6679SOL    HW131673   1.611   3.107   8.783 -1.0362  0.1898 -1.1323
 6679SOL    HW231674   1.572   3.075   8.920  0.7072 -0.3429 -0.3728
 6680SOL     OW31675   0.660   0.146  13.204 -0.2432  0.2149  0.2963
 6680SOL    HW131676   0.565   0.141  13.216 -0.4394  1.8557 -0.4625
 6680SOL    HW231677   0.675   0.219  13.265  2.7774 -0.0605 -0.1142
 6681SOL     OW31678   2.373   1.983   1.440 -0.2171 -0.2187 -0.3102
 6681SOL    HW131679   2.375   1.956   1.532 -0.2840  0.2074 -0.1823
 6681SOL    HW231680   2.457   2.029   1.435 -0.3587  0.2655  1.6522
 6682SOL     OW31681   3.683   2.313   3.339  0.1223  0.0462  0.4987
 6682SOL    HW131682   3.697   2.383   3.402 -4.1642  1.5438 -0.2107
 6682SOL    HW231683   3.628   2.252   3.389  0.9438  0.1976  1.5781
 6683SOL     OW31684   3.916   1.448   8.761  0.1321  0.2459  0.6092
 6683SOL    HW131685   3.992   1.426   8.708  0.3934  0.6770  0.8027
 6683SOL    HW231686   3.846   1.414   8.706  0.1727 -0.1285  0.7888
 6684SOL     OW31687   2.670   4.657   4.433 -0.3529 -0.2091 -0.1014
 6684SOL    HW131688   2.740   4.617   4.381  0.3903 -0.1166  0.8081
 6684SOL    HW231689   2.674   4.621   4.522  1.3802  0.6432  0.1639
 6685SOL     OW31690   3.126   2.313  11.461 -0.1833 -0.1382 -0.4902
 6685SOL    HW131691   3.103   2.382  11.523 -2.9212 -1.0018 -0.5346
 6685SOL    HW231692   3.169   2.262  11.529 -0.8474 -0.3739 -0.2499
 6686SOL     OW31693   3.469   4.411   2.412 -0.3967  0.0874  0.0498
 6686SOL    HW131694   3.506   4.327   2.436 -2.3650 -0.5997  0.7145
 6686SOL    HW231695   3.547   4.466   2.412  1.2305 -2.2589  0.1386
 6687SOL     OW31696   1.590   2.856   0.649  0.6491 -0.0207 -0.2994
 6687SOL    HW131697   1.533   2.849   0.572  1.2576 -0.9834 -0.6681
 6687SOL    HW231698   1.648   2.928   0.624 -0.8367  0.9100 -1.0387
 6688SOL     OW31699   0.522   0.063   1.585  0.5750  0.2710  0.0919
 6688SOL    HW131700   0.576   0.078   1.507  0.2289  2.4520  0.2862
 6688SOL    HW231701   0.547   0.137   1.640  1.5127 -0.2899  0.4133
 6689SOL     OW31702   3.655   1.377   8.207 -0.2947 -0.1788 -0.3531
 6689SOL    HW131703   3.645   1.458   8.256  0.2409 -1.3281  1.6646
 6689SOL    HW231704   3.667   1.410   8.118 -0.3818  1.0121  0.0895
 6690SOL     OW31705   0.016   2.327   8.748 -0.3844  0.0602  0.0537
 6690SOL    HW131706   0.002   2.238   8.718 -1.1209  0.4886 -0.8394
 6690SOL    HW231707   4.711   2.382   8.682 -2.4887 -0.8899  0.6172
 6691SOL     OW31708   4.562   3.231   8.223 -0.0888 -0.3833 -0.1981
 6691SOL    HW131709   4.555   3.138   8.203 -1.2889  0.1208 -2.0944
 6691SOL    HW231710   4.605   3.229   8.309  0.5104 -0.9867 -0.5143
 6692SOL     OW31711   3.514   3.176   8.583 -0.2269  0.3291  0.3780
 6692SOL    HW131712   3.434   3.151   8.630 -0.2322  0.5526  0.4901
 6692SOL    HW231713   3.566   3.107   8.624 -0.2645 -0.4010 -0.8160
 6693SOL     OW31714   1.648   0.860   7.829  0.1319  0.0617 -0.2148
 6693SOL    HW131715   1.590   0.826   7.898 -0.4555  0.3887 -0.5517
 6693SOL    HW231716   1.664   0.783   7.774 -0.9383 -1.1408  1.1410
 6694SOL     OW31717   1.652   0.862   6.711 -0.2789  0.2732  0.3679
 6694SOL    HW131718   1.612   0.939   6.670 -0.0211 -0.6817 -1.6423
 6694SOL    HW231719   1.747   0.873   6.716 -0.0505 -1.6383  0.3340
 6695SOL     OW31720   1.770   0.570   8.587  0.6443 -0.8164 -0.6096
 6695SOL    HW131721   1.675   0.565   8.604 -0.1256  3.4085 -3.5127
 6695SOL    HW231722   1.782   0.522   8.669  1.0496 -0.1442 -0.2726
 6696SOL     OW31723   1.626   4.258   3.730  0.5870 -0.2787 -0.1056
 6696SOL    HW131724   1.619   4.163   3.720  0.7990 -0.2195 -0.8266
 6696SOL    HW231725   1.708   4.260   3.679 -0.0786 -0.9444 -1.2125
 6697SOL     OW31726   3.823   4.322  17.587  0.5326 -0.6170 -0.0528
 6697SOL    HW131727   3.821   4.357  17.676 -0.4234 -0.4977 -0.1197
 6697SOL    HW231728   3.914   4.343  17.565  1.0865 -0.4319  2.4530
 6698SOL     OW31729   3.991   3.737  14.354 -0.2746 -0.1088  0.0217
 6698SOL    HW131730   3.909   3.775  14.323 -0.3857  1.3751  2.1833
 6698SOL    HW231731   3.994   3.753  14.448 -0.5509  1.4478 -0.2267
 6699SOL     OW31732   1.990   0.572   5.967 -0.5112 -0.5832  0.1497
 6699SOL    HW131733   1.911   0.531   5.931 -0.5471 -1.2556  0.9938
 6699SOL    HW231734   2.007   0.512   6.040 -1.3976  0.0232  0.8666
 6700SOL     OW31735   1.797   2.344   2.003 -0.4093 -0.5260  0.1265
 6700SOL    HW131736   1.750   2.334   2.085 -0.6528 -2.0199 -0.1981
 6700SOL    HW231737   1.747   2.280   1.953  0.5572  0.6115 -2.3354
 6701SOL     OW31738   2.327   4.645   6.886 -0.7690  0.2695  0.2181
 6701SOL    HW131739   2.248   4.689   6.918 -1.0366  0.9088 -1.2925
 6701SOL    HW231740   2.319   4.553   6.912 -0.7702  0.5865  1.3392
 6702SOL     OW31741   0.626   0.591   0.037 -0.5665  0.1397 -0.2932
 6702SOL    HW131742   0.535   0.562   0.041 -0.2131 -0.9169  0.2977
 6702SOL    HW231743   0.679   0.514   0.057  1.6027  1.1804 -2.0926
 6703SOL     OW31744   1.936   0.991   2.617  0.1577  0.0522 -0.3840
 6703SOL    HW131745   1.985   1.007   2.697  1.4479  0.5613 -1.2891
 6703SOL    HW231746   1.988   0.912   2.603  0.0215 -0.0073 -0.5517
 6704SOL     OW31747   1.205   4.369   6.906 -0.3198  0.7615  0.6211
 6704SOL    HW131748   1.206   4.336   6.996  2.0766  0.6159  0.5281
 6704SOL    HW231749   1.121   4.331   6.879 -0.1963 -0.8428  2.5498
 6705SOL     OW31750   0.929   2.006   6.848 -0.1260 -0.0338 -0.0540
 6705SOL    HW131751   0.898   1.960   6.770 -3.0052 -0.0312  1.0635
 6705SOL    HW231752   0.935   1.933   6.910 -0.0151 -0.6879 -0.8340
 6706SOL     OW31753   0.340   3.102   7.394  0.5463 -0.2183 -0.1042
 6706SOL    HW131754   0.265   3.156   7.418 -0.6163 -2.1003  0.5134
 6706SOL    HW231755   0.321   3.069   7.306 -1.5598  2.9820 -0.8569
 6707SOL     OW31756   3.463   2.412   7.880 -0.2221 -0.2816 -0.2599
 6707SOL    HW131757   3.525   2.428   7.808 -2.5588 -2.5931 -2.7772
 6707SOL    HW231758   3.376   2.431   7.844 -0.3674  0.2455  0.3742
 6708SOL     OW31759   0.260   0.355   1.904 -0.1143 -0.3046 -0.1273
 6708SOL    HW131760   0.338   0.404   1.876 -0.1066  0.6706  1.5878
 6708SOL    HW231761   0.244   0.302   1.826  0.9022 -0.3880 -0.2761
 6709SOL     OW31762   1.927   3.504   7.413  0.3154  0.1333 -0.1002
 6709SOL    HW131763   1.966   3.468   7.493 -1.7594 -0.4086  0.6507
 6709SOL    HW231764   1.971   3.589   7.415 -0.0985  0.4146 -3.3794
 6710SOL     OW31765   0.207   2.239   3.573 -0.4324 -0.4482 -0.0042
 6710SOL    HW131766   0.233   2.311   3.514 -0.9870 -0.9403 -0.8426
 6710SOL    HW231767   0.134   2.211   3.519 -0.1622 -2.7005  0.8153
 6711SOL     OW31768   4.472   3.974  14.980  0.7308  1.3409  0.3529
 6711SOL    HW131769   4.498   4.066  14.981  3.4853  0.5471  0.3083
 6711SOL    HW231770   4.553   3.941  14.941  0.6170 -1.3255  2.3099
 6712SOL     OW31771   3.890   1.485   2.435 -0.2178 -0.0991 -0.0611
 6712SOL    HW131772   3.834   1.506   2.510 -1.2863 -0.6482 -0.7093
 6712SOL    HW231773   3.935   1.562   2.403 -0.9284  0.3027 -0.0857
 6713SOL     OW31774   3.950   4.445   6.753 -0.4490 -0.1010 -0.0275
 6713SOL    HW131775   3.922   4.356   6.775  0.8589 -0.5634 -0.2250
 6713SOL    HW231776   3.882   4.490   6.801  0.6560  1.5933 -0.0516
 6714SOL     OW31777   1.085   3.897   3.099  0.5382  0.3191 -0.1330
 6714SOL    HW131778   1.134   3.836   3.154  1.9401  1.0225 -0.5958
 6714SOL    HW231779   1.139   3.977   3.099  2.4005 -0.9262 -1.1670
 6715SOL     OW31780   0.161   3.068   2.213 -0.1761  0.5950  0.3330
 6715SOL    HW131781   0.235   3.008   2.229 -0.0084  0.8929  0.6875
 6715SOL    HW231782   0.200   3.127   2.149 -2.1600  0.2649 -1.1335
 6716SOL     OW31783   2.423   2.636   1.980  0.4248 -0.0296 -0.2175
 6716SOL    HW131784   2.437   2.694   1.905  0.1247 -0.0724 -0.3045
 6716SOL    HW231785   2.410   2.555   1.930  0.1842  0.0943 -0.3526
 6717SOL     OW31786   3.897   3.381  17.035  0.1211  0.3755  0.1609
 6717SOL    HW131787   3.861   3.440  17.102  1.7178  0.3222  1.0645
 6717SOL    HW231788   3.822   3.322  17.029 -0.9553  1.5971  1.5266
 6718SOL     OW31789   1.642   1.134   7.798 -0.1663  0.0659 -0.3020
 6718SOL    HW131790   1.661   1.137   7.704 -1.7953  0.5603 -0.6245
 6718SOL    HW231791   1.633   1.039   7.809 -1.1725  0.0590 -1.1765
 6719SOL     OW31792   4.533   0.315   6.660  0.4920  0.3897 -0.5142
 6719SOL    HW131793   4.545   0.405   6.692  1.7035  0.8112 -2.1354
 6719SOL    HW231794   4.621   0.287   6.684  0.2581  0.3414  0.2784
 6720SOL     OW31795   4.716   0.278   9.594 -0.9357 -0.4502 -0.6100
 6720SOL    HW131796   4.735   0.186   9.576 -1.7424 -1.2918  3.0243
 6720SOL    HW231797   4.661   0.268   9.671 -0.2386 -1.7452 -0.2770
 6721SOL     OW31798   3.316   1.529   8.040 -0.3942 -0.0021  0.0180
 6721SOL    HW131799   3.312   1.531   7.945  0.7352 -4.5917 -0.1368
 6721SOL    HW231800   3.262   1.453   8.062  1.2801 -1.1999  0.0462
 6722SOL     OW31801   2.591   3.855   1.288 -0.0103  0.6188  0.1811
 6722SOL    HW131802   2.677   3.826   1.318 -0.5941 -0.1312  1.1665
 6722SOL    HW231803   2.553   3.899   1.364  0.6098 -0.0928  0.9029
 6723SOL     OW31804   3.965   1.739   6.939  0.5637  0.4211 -0.1516
 6723SOL    HW131805   3.878   1.708   6.913  1.2372 -0.6392 -1.1985
 6723SOL    HW231806   3.974   1.703   7.027 -0.6726  1.4488  0.3956
 6724SOL     OW31807   1.864   2.004   5.500 -0.5143 -0.1011  0.5763
 6724SOL    HW131808   1.942   2.015   5.446 -0.4797  1.3502  0.9356
 6724SOL    HW231809   1.786   2.012   5.445  0.2133 -0.6086 -0.5259
 6725SOL     OW31810   0.413   4.105  12.215  0.0299  0.0628  0.4453
 6725SOL    HW131811   0.438   4.169  12.282  0.8246 -1.6767  1.8288
 6725SOL    HW231812   0.475   4.035  12.235 -0.6885 -0.6964  0.0295
 6726SOL     OW31813   0.267   1.976  17.735 -1.0800 -0.3743 -0.7115
 6726SOL    HW131814   0.343   1.942   0.038 -0.8214  0.6819 -0.3725
 6726SOL    HW231815   0.253   1.917  17.661  0.8299 -0.5453 -0.9564
 6727SOL     OW31816   2.220   2.842   3.262  0.7184  0.0626 -0.1099
 6727SOL    HW131817   2.310   2.815   3.278  0.8784  0.8756  0.3917
 6727SOL    HW231818   2.242   2.891   3.183 -1.9143 -1.0085 -1.5211
 6728SOL     OW31819   4.061   2.214   8.854  0.0450  0.1908 -0.4639
 6728SOL    HW131820   4.097   2.291   8.810 -2.8250  3.1831  2.4059
 6728SOL    HW231821   3.986   2.189   8.799  0.1160  1.2714 -1.0491
 6729SOL     OW31822   0.673   3.216  17.385  0.7873  0.6012 -0.4446
 6729SOL    HW131823   0.741   3.275  17.353  1.2295 -0.4454 -1.4285
 6729SOL    HW231824   0.636   3.194  17.300 -0.0653 -2.0965  0.5911
 6730SOL     OW31825   2.875   4.294  13.858  0.5808  0.4235  0.2764
 6730SOL    HW131826   2.912   4.254  13.779  0.2095 -1.2445  0.9424
 6730SOL    HW231827   2.897   4.385  13.840 -0.6207  0.9578  1.4984
 6731SOL     OW31828   0.634   3.716  15.548  0.0187 -0.0189  0.3026
 6731SOL    HW131829   0.544   3.692  15.526 -0.2820  2.0003 -0.6653
 6731SOL    HW231830   0.631   3.715  15.643  0.8043  2.6318  0.3448
 6732SOL     OW31831   2.208   3.421   8.189 -0.3591 -0.1298  0.3022
 6732SOL    HW131832   2.251   3.337   8.172 -1.7359 -0.6955 -0.3772
 6732SOL    HW231833   2.150   3.395   8.260 -0.9768  1.4575  0.3976
 6733SOL     OW31834   2.216   2.395   1.454  0.1038 -0.1812 -0.5805
 6733SOL    HW131835   2.227   2.310   1.409  0.1827 -0.2635 -0.4053
 6733SOL    HW231836   2.123   2.413   1.442  0.8565  3.3866 -1.0276
 6734SOL     OW31837   2.631   2.422  15.436 -0.5745 -0.0357  0.4112
 6734SOL    HW131838   2.688   2.404  15.361 -1.3426 -0.8995  0.0478
 6734SOL    HW231839   2.685   2.382  15.504 -1.8057 -1.2845  0.6364
 6735SOL     OW31840   2.565   0.226   3.478  0.1158  0.1997  0.5779
 6735SOL    HW131841   2.522   0.140   3.473  0.0688  0.1791  1.3666
 6735SOL    HW231842   2.511   0.277   3.417  1.0229 -0.5825 -0.8920
 6736SOL     OW31843   1.668   2.411   7.369  0.2760  0.0148  0.3144
 6736SOL    HW131844   1.617   2.365   7.303 -0.4056  1.3303 -0.0822
 6736SOL    HW231845   1.681   2.495   7.324 -0.7493  0.1581  0.2666
 6737SOL     OW31846   0.523   2.818   7.615 -0.6839  0.2744 -0.3335
 6737SOL    HW131847   0.515   2.787   7.524 -1.8428  1.4245 -0.6185
 6737SOL    HW231848   0.494   2.908   7.605 -0.6363  0.4154  0.9073
 6738SOL     OW31849   1.286   0.419   1.056 -0.9682  0.2738  0.0959
 6738SOL    HW131850   1.232   0.494   1.080 -0.3428 -0.1647  2.9311
 6738SOL    HW231851   1.375   0.453   1.063 -1.0557  0.7026 -0.8690
 6739SOL     OW31852   3.006   0.306   7.854 -0.4985  0.8000 -0.2011
 6739SOL    HW131853   3.094   0.307   7.817  0.3419 -1.4083  1.6763
 6739SOL    HW231854   3.008   0.216   7.889 -2.0379  0.3882 -1.1920
 6740SOL     OW31855   4.116   1.618   7.882 -0.5646  1.0582  0.2285
 6740SOL    HW131856   4.037   1.614   7.828 -0.5216  0.0679  0.2301
 6740SOL    HW231857   4.164   1.685   7.833 -1.0628  0.7192 -0.7209
 6741SOL     OW31858   1.556   4.539   6.262 -0.0210  0.5593  0.0581
 6741SOL    HW131859   1.574   4.520   6.354  0.2365  3.4946  0.6063
 6741SOL    HW231860   1.472   4.494   6.252  0.5458 -0.5660  0.2490
 6742SOL     OW31861   1.714   0.240   3.781 -0.4532 -0.0505 -0.3259
 6742SOL    HW131862   1.771   0.197   3.845 -1.0373 -1.2260 -0.5836
 6742SOL    HW231863   1.756   0.322   3.755 -0.0575 -0.2301 -0.2487
 6743SOL     OW31864   3.740   3.544   7.742  0.2737 -0.1677 -0.1481
 6743SOL    HW131865   3.710   3.548   7.832  0.5910 -0.6932 -0.0215
 6743SOL    HW231866   3.660   3.505   7.707  0.2695 -0.7405  0.5201
 6744SOL     OW31867   1.768   0.550   5.502 -0.1672 -0.0796  0.2807
 6744SOL    HW131868   1.743   0.556   5.595 -0.6232 -0.7828  0.2123
 6744SOL    HW231869   1.848   0.500   5.517 -1.2430 -1.0020  3.0172
 6745SOL     OW31870   2.033   1.150   6.000 -0.3271  0.0409 -0.3659
 6745SOL    HW131871   1.947   1.109   5.988 -0.8742  0.6661  1.2749
 6745SOL    HW231872   2.061   1.180   5.914  0.7467 -1.9684 -0.7133
 6746SOL     OW31873   2.281   0.805   4.611  0.1483  0.1311 -0.2834
 6746SOL    HW131874   2.355   0.745   4.621 -0.5744 -1.0458 -2.0886
 6746SOL    HW231875   2.214   0.754   4.656  0.1170  1.1248  0.7790
 6747SOL     OW31876   1.209   2.904   5.355  0.3755 -0.2985 -0.2714
 6747SOL    HW131877   1.210   2.859   5.440  0.4546  0.1143 -0.0514
 6747SOL    HW231878   1.257   2.836   5.308 -0.2209 -0.2584 -0.9302
 6748SOL     OW31879   1.492   4.254   8.410 -0.1852 -0.5447 -0.0707
 6748SOL    HW131880   1.405   4.242   8.447 -0.1110 -0.4442  0.1321
 6748SOL    HW231881   1.473   4.320   8.342  0.7284 -1.8563 -1.5996
 6749SOL     OW31882   4.512   1.803   2.714  0.6106 -0.2458 -0.5992
 6749SOL    HW131883   4.490   1.877   2.770  0.4112 -1.4099  0.8313
 6749SOL    HW231884   4.602   1.786   2.742  0.2827 -1.6869 -0.4452
 6750SOL     OW31885   3.677   0.783   4.967  0.4460 -0.1008 -0.1775
 6750SOL    HW131886   3.629   0.842   5.026  3.3506  2.1941 -0.1367
 6750SOL    HW231887   3.616   0.710   4.982  0.5632 -0.0882  0.3600
 6751SOL     OW31888   2.915   3.983   1.690 -0.8764  0.2640  0.7171
 6751SOL    HW131889   2.983   3.988   1.756  0.7540  0.5184 -0.9673
 6751SOL    HW231890   2.909   4.073   1.655  2.0298 -0.0031 -0.4884
 6752SOL     OW31891   0.414   1.042  12.019  0.1878  0.0723 -0.0943
 6752SOL    HW131892   0.336   0.990  12.040  1.0552 -1.0358  0.3159
 6752SOL    HW231893   0.446   1.007  11.936 -1.7023  0.6907 -1.1044
 6753SOL     OW31894   3.019   3.930   9.859  0.2867  0.0715 -0.1589
 6753SOL    HW131895   3.101   3.943   9.907 -0.4148  0.1509  1.0352
 6753SOL    HW231896   2.953   3.900   9.922  0.1585 -0.6272 -0.6232
 6754SOL     OW31897   4.315   0.918   4.279 -0.0484 -0.3131 -0.2554
 6754SOL    HW131898   4.351   0.918   4.368  1.8360 -0.0639 -1.0248
 6754SOL    HW231899   4.382   0.871   4.229 -2.1959 -1.6749 -1.8099
 6755SOL     OW31900   2.276   1.674  10.287 -0.3996 -0.0043  0.3597
 6755SOL    HW131901   2.315   1.756  10.256  0.7499 -1.4454 -2.0655
 6755SOL    HW231902   2.327   1.639  10.360  1.1601 -1.9032 -1.6006
 6756SOL     OW31903   3.648   1.922   4.992  0.1102  0.4917  0.0363
 6756SOL    HW131904   3.662   1.970   5.074 -2.0505  1.8564 -0.3727
 6756SOL    HW231905   3.570   1.970   4.963  0.1756 -0.2582 -1.3867
 6757SOL     OW31906   0.850   0.882   6.191  0.8389 -0.4370 -0.7567
 6757SOL    HW131907   0.837   0.798   6.148  0.1676 -0.7639  0.1002
 6757SOL    HW231908   0.849   0.946   6.119  1.0856  0.4797  0.0529
 6758SOL     OW31909   4.035   1.068   6.286  0.1427  0.0172 -0.2397
 6758SOL    HW131910   3.977   1.051   6.360 -1.6721  0.0997 -1.6296
 6758SOL    HW231911   3.984   1.028   6.216  1.5855  1.9231 -2.3702
 6759SOL     OW31912   2.522   4.592   5.081 -0.0887 -0.2189  0.4848
 6759SOL    HW131913   2.603   4.549   5.108 -0.4589 -0.7889  0.6963
 6759SOL    HW231914   2.551   4.681   5.101 -1.0700  0.2975 -0.3560
 6760SOL     OW31915   1.219   1.552   6.466  0.1697 -0.2154 -0.1045
 6760SOL    HW131916   1.167   1.632   6.457  0.7510 -0.0185 -1.7351
 6760SOL    HW231917   1.287   1.582   6.527 -0.6405  0.1684  0.6085
 6761SOL     OW31918   2.979   0.258  17.355 -0.0555  0.5873 -0.1089
 6761SOL    HW131919   2.920   0.201  17.306  0.4690 -0.3290  0.3143
 6761SOL    HW231920   2.941   0.265  17.442  0.2288 -0.4233  0.0985
 6762SOL     OW31921   4.043   2.441  16.075 -0.0596 -0.8761 -0.2304
 6762SOL    HW131922   4.012   2.430  16.165 -0.0581  1.5588  0.0753
 6762SOL    HW231923   3.986   2.389  16.018 -1.0177 -1.8560  1.6170
 6763SOL     OW31924   0.623   2.934   4.121  0.4768 -0.1863  1.1092
 6763SOL    HW131925   0.696   2.981   4.161  0.5027  1.0285 -0.3794
 6763SOL    HW231926   0.615   2.973   4.034  1.0377 -0.4089  0.9600
 6764SOL     OW31927   3.218   3.530   6.558 -0.3384 -0.3623  0.6060
 6764SOL    HW131928   3.184   3.574   6.636 -1.9424  0.0636 -0.3276
 6764SOL    HW231929   3.157   3.561   6.490  0.3545  0.2387  0.2519
 6765SOL     OW31930   4.104   1.492  16.890  0.5016  0.3666 -0.5513
 6765SOL    HW131931   4.170   1.471  16.824  1.7184 -1.8520  1.4011
 6765SOL    HW231932   4.049   1.414  16.885  0.9263  0.0665 -0.4319
 6766SOL     OW31933   2.564   1.094  16.295 -0.8139  0.1825  0.0031
 6766SOL    HW131934   2.625   1.020  16.290 -0.6033  0.5004 -1.9990
 6766SOL    HW231935   2.569   1.115  16.388 -1.0613 -2.3074  0.6025
 6767SOL     OW31936   1.290   0.733   8.511 -0.9636  0.5377 -0.1951
 6767SOL    HW131937   1.265   0.687   8.430 -1.8828  0.3599  0.1833
 6767SOL    HW231938   1.343   0.804   8.475  2.3838 -1.2175  1.2738
 6768SOL     OW31939   3.094   2.608   0.090 -0.2124 -0.2666  0.2601
 6768SOL    HW131940   3.172   2.555   0.074  1.2714  1.2393  2.5857
 6768SOL    HW231941   3.018   2.562   0.127 -1.0661 -0.1266 -1.3087
 6769SOL     OW31942   2.527   4.450   9.060 -0.6603  0.2536 -0.5590
 6769SOL    HW131943   2.565   4.466   8.974  0.7878 -0.5744 -0.0818
 6769SOL    HW231944   2.435   4.464   9.039 -0.5729  0.6998 -0.6300
 6770SOL     OW31945   1.636   4.585   7.855  0.0409  0.0817  0.0412
 6770SOL    HW131946   1.675   4.511   7.902  0.3391 -0.4790 -1.0934
 6770SOL    HW231947   1.707   4.649   7.856  0.0114  0.1229 -0.7668
 6771SOL     OW31948   0.452   4.282   6.637  0.1651 -0.3184  0.1331
 6771SOL    HW131949   0.401   4.324   6.569  0.3758  1.2631  0.9561
 6771SOL    HW231950   0.435   4.190   6.615 -1.1107  0.2583 -1.2767
 6772SOL     OW31951   0.624   2.738  11.663 -0.3028  0.1397  0.4287
 6772SOL    HW131952   0.613   2.748  11.568  0.0015  1.0489  0.4896
 6772SOL    HW231953   0.588   2.650  11.674 -0.3660  0.2630  1.2123
 6773SOL     OW31954   4.247   1.782  15.530 -0.3389 -0.0463  0.0082
 6773SOL    HW131955   4.246   1.769  15.436  0.4601  2.0272 -0.3061
 6773SOL    HW231956   4.269   1.876  15.532  0.8031 -0.3200  0.0581
 6774SOL     OW31957   1.384   2.553   1.161  0.0574  0.0650 -0.6184
 6774SOL    HW131958   1.406   2.493   1.232 -2.5511  0.2601  0.3356
 6774SOL    HW231959   1.310   2.597   1.202  0.0882  0.0856 -0.5850
 6775SOL     OW31960   2.173   4.682   1.236 -0.1419 -0.2946  0.6869
 6775SOL    HW131961   2.180   4.589   1.257  1.6038 -0.2181  0.4382
 6775SOL    HW231962   2.097   4.707   1.290  0.5377  1.5620  0.8102
 6776SOL     OW31963   4.153   1.795   3.581 -0.5541 -0.0220  0.2585
 6776SOL    HW131964   4.182   1.865   3.640  0.3014 -1.2148  1.2615
 6776SOL    HW231965   4.063   1.821   3.560 -0.0621  2.5434  1.3128
 6777SOL     OW31966   2.930   0.474   6.631 -0.5853  0.1567 -0.1879
 6777SOL    HW131967   2.984   0.533   6.579 -0.5405  0.6172  0.3774
 6777SOL    HW231968   2.850   0.525   6.644  0.4706  2.1114 -1.3276
 6778SOL     OW31969   3.759   3.422   3.441  0.0953  0.1716 -0.0041
 6778SOL    HW131970   3.758   3.335   3.481  0.2133  0.2422  0.1537
 6778SOL    HW231971   3.845   3.428   3.398 -0.8819  0.6008 -1.9199
 6779SOL     OW31972   4.322   3.019   9.311  0.2664  0.3655  0.0862
 6779SOL    HW131973   4.357   2.935   9.280  1.3741  0.5750  0.7818
 6779SOL    HW231974   4.229   3.010   9.291  0.7974 -2.5012 -1.1246
 6780SOL     OW31975   3.518   2.697  12.233  0.2053 -0.2578 -0.1262
 6780SOL    HW131976   3.510   2.661  12.145  1.6455  0.5213 -0.5664
 6780SOL    HW231977   3.431   2.735  12.247  0.0715 -0.8628  0.6933
 6781SOL     OW31978   2.566   0.136   5.162  0.4511 -0.2790 -0.1454
 6781SOL    HW131979   2.472   0.153   5.150  0.5958  0.0507 -0.8052
 6781SOL    HW231980   2.559   0.097   5.249 -2.3447 -2.5150 -1.3690
 6782SOL     OW31981   0.701   0.352   2.291  0.2576 -0.5486  0.3254
 6782SOL    HW131982   0.675   0.406   2.366  0.6081 -1.4673  1.1080
 6782SOL    HW231983   0.693   0.398   2.208  1.3795 -0.4008  0.3089
 6783SOL     OW31984   3.322   0.140   0.046  0.2316 -0.2296  0.8087
 6783SOL    HW131985   3.303   0.071   0.109 -0.8226  0.5007  1.2963
 6783SOL    HW231986   3.232   0.155   0.015  0.0607 -1.3799  0.7542
 6784SOL     OW31987   1.866   1.449   5.075 -0.6654 -0.6498 -0.4863
 6784SOL    HW131988   1.887   1.473   5.165  0.0717  3.6514 -1.7840
 6784SOL    HW231989   1.923   1.375   5.054 -2.3776 -1.7098 -1.3882
 6785SOL     OW31990   2.882   1.248   7.350  0.2266 -0.3028 -0.2730
 6785SOL    HW131991   2.892   1.264   7.444 -0.4700  2.0128 -0.6088
 6785SOL    HW231992   2.790   1.272   7.345 -0.0803 -1.2336  0.9965
 6786SOL     OW31993   1.316   3.338  15.736  0.1901 -0.5639 -0.7363
 6786SOL    HW131994   1.260   3.322  15.660 -0.1368  0.3746 -0.6999
 6786SOL    HW231995   1.372   3.399  15.688 -0.2156  1.7974  1.7724
 6787SOL     OW31996   3.331   3.948   5.955  0.1887 -0.1373 -0.1915
 6787SOL    HW131997   3.411   3.998   5.938 -0.0167  0.3404  0.2315
 6787SOL    HW231998   3.293   3.985   6.035 -0.6151  1.4095 -1.2876
 6788SOL     OW31999   2.945   3.765   4.969  1.0667  0.0575 -0.1445
 6788SOL    HW132000   2.976   3.752   5.058 -0.5420  0.6499  0.4917
 6788SOL    HW232001   3.002   3.701   4.926  2.6402  1.2013  0.2197
 6789SOL     OW32002   2.503   2.363   4.142  0.4491  0.2308 -0.3238
 6789SOL    HW132003   2.563   2.439   4.140 -0.7638  1.2173  1.0174
 6789SOL    HW232004   2.530   2.323   4.059 -2.6450 -0.3667 -1.0151
 6790SOL     OW32005   3.441   1.356   2.892 -0.4441  0.5819  0.0368
 6790SOL    HW132006   3.471   1.432   2.942 -0.2250  1.1688 -0.9900
 6790SOL    HW232007   3.475   1.282   2.941 -4.5056 -0.5755  1.0896
 6791SOL     OW32008   0.233   2.228   4.777 -0.5243 -0.4663 -0.2903
 6791SOL    HW132009   0.271   2.264   4.857 -0.8899  1.2004 -0.8773
 6791SOL    HW232010   0.154   2.282   4.775 -0.5944 -0.4873  1.8325
 6792SOL     OW32011   4.081   1.649   5.495  0.8884  0.7073  0.3540
 6792SOL    HW132012   4.007   1.701   5.528 -0.3482  0.0679 -1.4175
 6792SOL    HW232013   4.100   1.593   5.570 -1.6371  0.2514  0.6520
 6793SOL     OW32014   0.622   1.714   2.426  0.6357 -0.4145 -0.4594
 6793SOL    HW132015   0.656   1.722   2.336  2.0470 -1.7621 -0.0349
 6793SOL    HW232016   0.594   1.625   2.443 -0.4281 -0.2622 -1.3865
 6794SOL     OW32017   2.840   4.704   4.821  0.2996 -0.0844  0.6406
 6794SOL    HW132018   2.854   4.646   4.895  3.2873  0.6823  0.6522
 6794SOL    HW232019   2.899   4.657   4.762  1.1105  0.5577  0.9444
 6795SOL     OW32020   0.178   3.117  11.085  0.4296 -0.9007  0.3698
 6795SOL    HW132021   0.168   3.181  11.015  1.8750 -1.7177 -0.5977
 6795SOL    HW232022   0.127   3.156  11.155  2.9390  1.2000  1.0243
 6796SOL     OW32023   1.219   1.879   9.338 -0.1875  0.5250 -0.2415
 6796SOL    HW132024   1.192   1.941   9.406 -0.0943  0.3902 -0.0832
 6796SOL    HW232025   1.313   1.871   9.349 -0.1732  1.4943  0.3946
 6797SOL     OW32026   3.620   0.687   2.989 -0.6028 -0.1939  0.3528
 6797SOL    HW132027   3.714   0.686   3.005 -0.2364 -0.0140 -1.8620
 6797SOL    HW232028   3.620   0.689   2.894  0.5412 -2.5398  0.3087
 6798SOL     OW32029   0.806   0.013  13.007 -0.2234 -0.2396  0.4257
 6798SOL    HW132030   0.739   4.696  12.966 -0.8266  0.2304  0.7789
 6798SOL    HW232031   0.761   0.064  13.075  0.9309 -0.0853  1.0782
 6799SOL     OW32032   3.929   3.497   5.422 -0.1503 -0.1651 -0.3633
 6799SOL    HW132033   3.864   3.459   5.481 -1.3784  1.1919 -0.8844
 6799SOL    HW232034   3.998   3.518   5.486 -0.7996 -4.5274  1.8492
 6800SOL     OW32035   0.472   3.978   8.473  0.2179 -0.2658  0.0367
 6800SOL    HW132036   0.518   3.983   8.389 -1.5968  0.0894 -0.9260
 6800SOL    HW232037   0.484   4.069   8.502  0.2050 -0.4479  0.6121
 6801SOL     OW32038   2.253   3.299  13.314 -0.2925  0.4480 -0.5684
 6801SOL    HW132039   2.346   3.284  13.329 -0.7701 -1.3493  0.5392
 6801SOL    HW232040   2.250   3.301  13.218  0.2632 -2.7313 -0.6468
 6802SOL     OW32041   3.025   3.263  13.243  0.1583  0.8149 -0.5669
 6802SOL    HW132042   3.051   3.180  13.282  0.5127  1.0812 -0.2324
 6802SOL    HW232043   3.036   3.318  13.321  1.7006 -0.1617 -0.1106
 6803SOL     OW32044   2.782   3.983   2.523  0.2118  0.7306  0.2199
 6803SOL    HW132045   2.778   3.922   2.449 -1.7473  0.6613  0.3638
 6803SOL    HW232046   2.872   4.013   2.514 -0.0295  1.3509 -0.1844
 6804SOL     OW32047   2.244   1.289  15.906  0.0069 -0.1104  0.2451
 6804SOL    HW132048   2.304   1.270  15.978  0.7596  1.0796 -0.0650
 6804SOL    HW232049   2.276   1.242  15.829 -0.4341  1.0001 -0.6210
 6805SOL     OW32050   0.366   0.704  11.677  0.0176 -0.2631 -0.3975
 6805SOL    HW132051   0.387   0.631  11.734 -1.5808 -0.6190 -0.2654
 6805SOL    HW232052   0.442   0.762  11.671  0.9300 -1.3350  0.7753
 6806SOL     OW32053   2.030   2.034   8.152  0.6544  0.6311 -0.7784
 6806SOL    HW132054   2.106   2.059   8.205  0.4031 -0.5060  0.1365
 6806SOL    HW232055   2.018   1.943   8.177  3.1864  0.1185 -1.4835
 6807SOL     OW32056   3.940   1.697   1.776  0.3736  0.1045 -0.1988
 6807SOL    HW132057   3.896   1.746   1.706 -1.1765 -1.8946 -0.6278
 6807SOL    HW232058   4.027   1.688   1.739  0.1896 -0.9665 -0.3748
 6808SOL     OW32059   4.315   1.556   2.201 -0.4287 -0.1481  0.0970
 6808SOL    HW132060   4.316   1.552   2.297 -0.9827 -1.6859  0.0325
 6808SOL    HW232061   4.262   1.635   2.186  0.3513 -0.0691 -2.1379
 6809SOL     OW32062   4.497   4.163   2.612 -0.1003 -0.0707 -0.1705
 6809SOL    HW132063   4.582   4.119   2.618 -1.0600 -1.8546  0.4532
 6809SOL    HW232064   4.472   4.151   2.703 -2.2666 -1.6131 -0.9727
 6810SOL     OW32065   2.603   0.267   2.105  0.1414 -0.3889 -0.3172
 6810SOL    HW132066   2.605   0.354   2.067 -1.9244 -0.1783  0.0523
 6810SOL    HW232067   2.698   0.255   2.110  0.4336  1.7056 -1.1376
 6811SOL     OW32068   1.776   2.303   6.417  0.9682  0.4754 -0.2434
 6811SOL    HW132069   1.844   2.353   6.461 -0.6255  2.1046  0.3941
 6811SOL    HW232070   1.698   2.356   6.398  1.3050  1.2649  0.6423
 6812SOL     OW32071   3.514   4.158   5.895  0.2209  0.7812 -0.3820
 6812SOL    HW132072   3.606   4.178   5.912  0.5350 -1.0511  0.1411
 6812SOL    HW232073   3.525   4.086   5.832 -1.2244  0.3601 -0.1541
 6813SOL     OW32074   0.442   0.969   8.585 -0.4930 -0.5869 -0.3356
 6813SOL    HW132075   0.429   1.059   8.616  0.4347 -0.8738  0.8722
 6813SOL    HW232076   0.497   0.927   8.651 -0.3271 -0.2758 -0.2767
 6814SOL     OW32077   4.220   3.262   0.628 -0.3794 -0.3792  0.1717
 6814SOL    HW132078   4.295   3.237   0.574 -0.4541 -0.4333  0.0935
 6814SOL    HW232079   4.179   3.325   0.567 -0.4994  0.3285  0.9802
 6815SOL     OW32080   3.924   1.732  14.823  0.2827  0.4752 -0.0933
 6815SOL    HW132081   3.859   1.769  14.884 -0.4763  1.1406 -1.2946
 6815SOL    HW232082   3.859   1.672  14.787 -0.4079  0.7024  0.7637
 6816SOL     OW32083   0.149   3.251   5.140  0.0551  0.0845  0.5918
 6816SOL    HW132084   0.203   3.329   5.155  0.9124 -0.4148  0.1067
 6816SOL    HW232085   0.064   3.278   5.175  0.0392  1.0058 -0.1574
 6817SOL     OW32086   0.276   3.059  14.996  0.0900  0.4218 -0.0342
 6817SOL    HW132087   0.371   3.049  14.998  0.0462 -0.4061 -1.9580
 6817SOL    HW232088   0.245   3.061  15.087  0.9619  2.0120  0.2220
 6818SOL     OW32089   3.566   1.820   6.103  0.4802  0.2424  0.0407
 6818SOL    HW132090   3.559   1.885   6.032  1.0801 -0.1997 -0.4231
 6818SOL    HW232091   3.481   1.776   6.106  0.0604  1.2526  3.3397
 6819SOL     OW32092   1.924   0.516   4.353  0.0178 -0.0267  0.2936
 6819SOL    HW132093   1.932   0.534   4.447 -1.9981  2.2859  0.0333
 6819SOL    HW232094   1.956   0.595   4.310 -2.1899  0.8933  0.3448
 6820SOL     OW32095   0.632   4.592   5.609  0.7859 -0.0134  0.3839
 6820SOL    HW132096   0.583   4.661   5.654  0.1795 -0.8932  1.0930
 6820SOL    HW232097   0.688   4.555   5.678  1.0477  0.8436  0.6226
 6821SOL     OW32098   0.004   2.694   6.998  0.3339  0.2953  0.5927
 6821SOL    HW132099   4.679   2.631   6.960 -1.6006  1.1014  2.3596
 6821SOL    HW232100   0.084   2.683   6.947 -0.0355 -1.7732  0.4545
 6822SOL     OW32101   2.081   2.309  12.204 -0.0822  0.5846  0.3490
 6822SOL    HW132102   2.162   2.262  12.225  0.4707  2.1462  1.7245
 6822SOL    HW232103   2.120   2.388  12.243 -1.0851  1.8791 -1.2962
 6823SOL     OW32104   0.202   0.850  11.948  0.1297  0.6662  0.7726
 6823SOL    HW132105   0.203   0.755  11.961 -3.2322  0.5173 -0.1347
 6823SOL    HW232106   0.141   0.871  12.019  1.6977 -1.2071  2.6965
 6824SOL     OW32107   2.489   0.737   6.892 -0.1414 -0.2299  0.3803
 6824SOL    HW132108   2.459   0.695   6.972 -4.0785  0.3768 -0.7672
 6824SOL    HW232109   2.441   0.820   6.902 -0.7561 -0.6033  0.5446
 6825SOL     OW32110   2.188   3.531   2.929  0.2420 -0.1012  0.2211
 6825SOL    HW132111   2.092   3.536   2.924  0.5299  2.8602 -2.0414
 6825SOL    HW232112   2.205   3.456   2.872 -0.5929 -0.5120  0.5075
 6826SOL     OW32113   2.249   1.225   6.952 -0.2358 -0.3279 -0.0704
 6826SOL    HW132114   2.168   1.217   7.001 -0.5008 -0.2927 -0.4983
 6826SOL    HW232115   2.216   1.262   6.870  1.2606  1.2259  0.0206
 6827SOL     OW32116   0.990   3.092   6.363  0.0799 -0.3344  0.2918
 6827SOL    HW132117   0.958   3.049   6.283 -0.5275  0.3735  0.1588
 6827SOL    HW232118   1.042   3.163   6.327 -1.0255 -0.4787 -1.5793
 6828SOL     OW32119   1.656   4.167   4.139 -0.3024 -0.3488  0.1351
 6828SOL    HW132120   1.573   4.158   4.092 -1.5730  0.0036  2.2840
 6828SOL    HW232121   1.636   4.246   4.189  1.6032  0.6751 -0.7146
 6829SOL     OW32122   0.175   1.268   4.774 -0.0468 -0.5361 -0.5450
 6829SOL    HW132123   0.224   1.350   4.776 -1.5521  0.3323  0.9668
 6829SOL    HW232124   0.084   1.296   4.771 -0.5554 -2.1340 -0.0138
 6830SOL     OW32125   4.310   0.864   2.134  0.0482 -0.4745  0.1093
 6830SOL    HW132126   4.380   0.876   2.069  1.2554  2.5658  1.9625
 6830SOL    HW232127   4.345   0.811   2.205 -0.4530 -0.5112  0.3231
 6831SOL     OW32128   0.502   1.386  10.133 -0.3694  0.0359  0.1315
 6831SOL    HW132129   0.485   1.426  10.048  0.5406 -0.4444 -0.2725
 6831SOL    HW232130   0.522   1.301  10.095 -4.1321 -0.8839  0.2664
 6832SOL     OW32131   0.318   1.509   9.594 -1.0079 -0.0615  0.2401
 6832SOL    HW132132   0.245   1.560   9.629 -0.9458 -0.3587  0.8103
 6832SOL    HW232133   0.298   1.500   9.501 -1.1532  0.1619  0.2484
 6833SOL     OW32134   4.089   4.546   0.134  0.0626  1.1090 -0.0429
 6833SOL    HW132135   4.023   4.500   0.082  0.9335  0.4444 -0.5508
 6833SOL    HW232136   4.168   4.553   0.081 -0.1853  0.7969 -0.4562
 6834SOL     OW32137   0.221   2.911   7.930  0.3035 -0.4326 -0.1347
 6834SOL    HW132138   0.150   2.969   7.956  0.0418 -0.9557  0.3133
 6834SOL    HW232139   0.202   2.838   7.989  1.7104 -1.1040 -0.4978
 6835SOL     OW32140   0.452   3.417   4.962  0.2946 -0.4959  0.1917
 6835SOL    HW132141   0.440   3.357   4.888 -0.5254  1.1496 -0.9931
 6835SOL    HW232142   0.432   3.496   4.912  1.0354  0.1669  0.9510
 6836SOL     OW32143   2.268   3.003   1.529 -0.0231 -0.6802 -0.7578
 6836SOL    HW132144   2.191   3.028   1.582  0.9273 -0.6865  0.6289
 6836SOL    HW232145   2.323   3.079   1.548  1.0225 -1.6135 -0.0837
 6837SOL     OW32146   0.814   3.567   6.628 -0.1776 -0.2208 -0.1346
 6837SOL    HW132147   0.877   3.640   6.629  0.2302 -0.5731 -0.3277
 6837SOL    HW232148   0.839   3.519   6.550 -1.4152  1.1421 -1.3876
 6838SOL     OW32149   0.554   3.341  14.365  0.1055  0.5689 -0.2544
 6838SOL    HW132150   0.591   3.253  14.356  0.6034  0.7753 -0.1807
 6838SOL    HW232151   0.480   3.316  14.420  0.4159  0.8633  0.2891
 6839SOL     OW32152   3.212   3.118   2.997 -0.3397 -0.2620 -0.1376
 6839SOL    HW132153   3.146   3.186   3.015  1.5294  1.0757  1.6066
 6839SOL    HW232154   3.284   3.150   3.051  0.2265  1.6025 -1.9814
 6840SOL     OW32155   2.198   3.101  14.469 -0.4744  0.3816  0.5868
 6840SOL    HW132156   2.218   3.090  14.376 -1.7452 -1.5623  0.5285
 6840SOL    HW232157   2.287   3.116  14.501 -1.0116  0.8313  1.8847
 6841SOL     OW32158   2.504   2.226   5.114 -0.7872  0.1414  0.7216
 6841SOL    HW132159   2.454   2.307   5.124 -2.1396 -0.7091  0.8107
 6841SOL    HW232160   2.465   2.167   5.178  1.0830 -1.0406  0.7793
 6842SOL     OW32161   2.975   1.354  15.743 -0.2812 -0.2621  0.2207
 6842SOL    HW132162   2.922   1.281  15.773 -2.7398  1.0663 -0.8649
 6842SOL    HW232163   2.908   1.423  15.742  0.2443  0.2770  2.3286
 6843SOL     OW32164   4.254   0.574  11.892  0.4951  0.0229  0.0518
 6843SOL    HW132165   4.201   0.502  11.926  0.5989  1.5998  3.5667
 6843SOL    HW232166   4.192   0.629  11.845  0.4817 -0.4471 -0.4798
 6844SOL     OW32167   1.947   0.539  17.261 -0.3067  0.4435 -0.2771
 6844SOL    HW132168   1.962   0.631  17.281  0.6711 -0.1544  1.7384
 6844SOL    HW232169   1.875   0.519  17.321 -0.2901 -1.6166 -0.9495
 6845SOL     OW32170   1.401   1.703   1.682 -0.0515  0.1155  0.1417
 6845SOL    HW132171   1.443   1.649   1.749  0.4818  1.4728  0.8948
 6845SOL    HW232172   1.485   1.736   1.650 -0.8088  1.6814 -0.1964
 6846SOL     OW32173   3.109   1.230   1.805  0.0287 -0.7835 -0.0840
 6846SOL    HW132174   3.042   1.256   1.742 -0.5605 -1.2891  0.3387
 6846SOL    HW232175   3.158   1.164   1.756  2.1226  1.5213 -1.1295
 6847SOL     OW32176   2.764   0.029   1.725  0.4045  0.2113  0.3806
 6847SOL    HW132177   2.817   0.007   1.649  0.7306 -0.1514  0.7129
 6847SOL    HW232178   2.684   0.064   1.686  0.0471 -1.2598 -0.1747
 6848SOL     OW32179   3.474   0.857   6.123  0.3884  0.8322 -0.2472
 6848SOL    HW132180   3.536   0.806   6.071  1.4972  1.0832  0.8419
 6848SOL    HW232181   3.421   0.788   6.164  0.4787  1.6262  1.1947
 6849SOL     OW32182   3.898   4.082   4.783 -0.1060 -0.2510  0.0262
 6849SOL    HW132183   3.894   4.025   4.706  0.2322  0.1119 -0.2560
 6849SOL    HW232184   3.823   4.137   4.759  0.1814  0.9387  1.8790
 6850SOL     OW32185   1.593   1.013   4.051  0.3791 -0.1645  0.2102
 6850SOL    HW132186   1.597   0.917   4.047  1.6558 -0.1691  1.5738
 6850SOL    HW232187   1.681   1.024   4.015 -0.2012  2.3871 -0.4566
 6851SOL     OW32188   1.961   1.007   7.988 -0.2254  0.2365  0.3803
 6851SOL    HW132189   1.875   1.005   7.946  0.1157 -1.0660 -0.2418
 6851SOL    HW232190   1.938   1.085   8.039 -1.5100  0.6004 -0.7678
 6852SOL     OW32191   0.749   3.034  15.917  0.0556  0.2637  0.1134
 6852SOL    HW132192   0.815   2.990  15.863  0.4500  1.7994 -0.6720
 6852SOL    HW232193   0.737   3.105  15.854 -0.2049 -1.7286 -2.0875
 6853SOL     OW32194   3.622   3.507  17.126  0.5681  0.0720  0.5611
 6853SOL    HW132195   3.653   3.585  17.080  1.2164 -1.1615 -1.1201
 6853SOL    HW232196   3.595   3.547  17.208 -0.4612 -0.2930  0.4012
 6854SOL     OW32197   3.525   1.005   7.220  0.5862 -1.0676  0.0843
 6854SOL    HW132198   3.481   1.084   7.252  2.2392  0.0134 -0.2973
 6854SOL    HW232199   3.489   0.937   7.277 -2.7636  0.7546  0.1427
 6855SOL     OW32200   4.471   0.916   8.427 -0.3169  0.1556 -0.2148
 6855SOL    HW132201   4.459   0.922   8.333 -0.2608 -0.7587 -0.2786
 6855SOL    HW232202   4.381   0.888   8.447 -1.3066  2.8557 -0.8632
 6856SOL     OW32203   3.534   3.840   8.513  0.5140  0.1870 -0.6075
 6856SOL    HW132204   3.473   3.841   8.439  0.8059  1.1012 -0.8335
 6856SOL    HW232205   3.493   3.766   8.558 -0.5703  1.9076  1.2046
 6857SOL     OW32206   1.135   0.494   3.004  0.1365 -0.2142 -0.0475
 6857SOL    HW132207   1.051   0.464   3.040  0.2041  0.2917  0.5290
 6857SOL    HW232208   1.147   0.421   2.944 -0.1362 -1.2140  1.1148
 6858SOL     OW32209   0.079   3.090  14.794  0.2005  0.2539  0.3016
 6858SOL    HW132210   0.099   3.179  14.766  1.5859  0.5783  2.3011
 6858SOL    HW232211   0.147   3.086  14.862 -0.2850 -0.4862  0.7534
 6859SOL     OW32212   1.238   4.715   5.087  0.3806 -0.6454 -0.1774
 6859SOL    HW132213   1.226   0.060   5.135 -0.2964 -1.3744  0.8978
 6859SOL    HW232214   1.162   4.671   5.125 -1.4850  1.6728 -1.2168
 6860SOL     OW32215   2.673   3.149   1.177 -0.0138 -0.2775 -0.3275
 6860SOL    HW132216   2.632   3.222   1.224  2.4277  1.6097 -1.0824
 6860SOL    HW232217   2.600   3.119   1.123 -0.3621  0.2679 -0.1594
 6861SOL     OW32218   0.611   4.672   2.134  0.1921 -0.0033 -0.7730
 6861SOL    HW132219   0.595   4.628   2.050  0.8433 -1.1367 -0.3042
 6861SOL    HW232220   0.630   4.597   2.189  1.4828  1.0857  0.2676
 6862SOL     OW32221   2.834   0.048  10.581  0.4810  0.5255 -0.7457
 6862SOL    HW132222   2.927   0.063  10.594  0.7691 -0.1882 -1.9836
 6862SOL    HW232223   2.801   0.108  10.648  0.0594 -1.7983  1.0929
 6863SOL     OW32224   1.949   2.802   6.619 -0.1749  0.1522  0.4624
 6863SOL    HW132225   1.917   2.743   6.686 -1.9997  0.6284  0.0298
 6863SOL    HW232226   1.869   2.825   6.572  0.8116  1.3532 -0.6560
 6864SOL     OW32227   1.425   3.155   2.344  0.3016 -0.2242  0.1669
 6864SOL    HW132228   1.476   3.234   2.323 -0.1279  0.2749  1.0205
 6864SOL    HW232229   1.487   3.085   2.365 -0.0784 -0.7279 -0.3740
 6865SOL     OW32230   3.954   2.827  12.865 -0.2345  0.3944  0.6495
 6865SOL    HW132231   3.888   2.761  12.887  1.1782 -1.8831 -1.8392
 6865SOL    HW232232   3.903   2.908  12.860 -0.9855 -0.1235 -0.2165
 6866SOL     OW32233   3.549   2.794   7.834  0.0190  0.2106 -0.3533
 6866SOL    HW132234   3.542   2.701   7.812  0.4683 -0.2204  1.2890
 6866SOL    HW232235   3.463   2.830   7.816 -0.8356 -3.1034 -3.0306
 6867SOL     OW32236   2.629   0.784   2.651 -0.6803  0.4335  0.2944
 6867SOL    HW132237   2.672   0.740   2.724 -0.5971  0.1878  0.0982
 6867SOL    HW232238   2.698   0.849   2.637  0.7743 -1.0611  0.5490
 6868SOL     OW32239   4.214   4.455   3.092  0.1887  0.5393 -0.7459
 6868SOL    HW132240   4.162   4.390   3.139  0.6162 -0.2105 -1.3250
 6868SOL    HW232241   4.226   4.524   3.159 -2.3614  0.2823 -0.0411
 6869SOL     OW32242   0.879   0.207   5.135 -0.3282 -0.1548 -0.5833
 6869SOL    HW132243   0.859   0.252   5.053 -1.1328  2.0819  0.8212
 6869SOL    HW232244   0.859   0.120   5.101  0.1799 -0.7313  0.5879
 6870SOL     OW32245   2.043   4.037   5.069 -0.8401 -0.1529 -0.4133
 6870SOL    HW132246   2.103   4.103   5.104  1.2561 -1.1324 -2.1532
 6870SOL    HW232247   2.112   3.976   5.044 -0.7576 -0.8629  1.5164
 6871SOL     OW32248   4.094   2.546   8.444  0.1557 -0.4290  0.0407
 6871SOL    HW132249   4.165   2.600   8.477  0.1043  0.2940 -1.0296
 6871SOL    HW232250   4.073   2.601   8.368  0.9291  0.2780  0.3446
 6872SOL     OW32251   0.696   3.353   4.233  0.0859  0.1243 -1.0134
 6872SOL    HW132252   0.612   3.308   4.226  0.1669 -0.1052 -0.5468
 6872SOL    HW232253   0.719   3.320   4.320 -0.6383  0.1687 -0.8034
 6873SOL     OW32254   4.062   3.875   8.481  0.8890 -0.3195 -0.7410
 6873SOL    HW132255   4.045   3.935   8.408 -1.4693  3.1517  2.5947
 6873SOL    HW232256   3.980   3.863   8.529  0.6409  0.4011 -0.9747
 6874SOL     OW32257   2.513   4.604   8.814 -0.3403 -0.0056  0.2780
 6874SOL    HW132258   2.532   4.677   8.873  0.2039 -0.5612  0.7895
 6874SOL    HW232259   2.417   4.608   8.811 -0.2890  0.1209 -1.0019
 6875SOL     OW32260   0.451   4.630   8.360 -0.7902  0.1444  0.0606
 6875SOL    HW132261   0.496   4.609   8.278 -1.4051 -0.0353 -0.2299
 6875SOL    HW232262   0.460   4.725   8.370 -3.7904  0.7460 -2.7075
 6876SOL     OW32263   4.336   1.388   1.998  1.0112  0.3247  0.5948
 6876SOL    HW132264   4.290   1.308   2.025  1.0759  0.4456  1.0760
 6876SOL    HW232265   4.308   1.446   2.070  0.3043 -0.8071  1.2412
 6877SOL     OW32266   1.391   2.616   0.667  0.3450 -0.3951  0.2519
 6877SOL    HW132267   1.396   2.670   0.746  2.0134  0.7543 -0.6490
 6877SOL    HW232268   1.371   2.530   0.706  0.9611 -1.3393 -1.5315
 6878SOL     OW32269   0.738   1.809   8.113  0.6363 -0.2716 -0.4471
 6878SOL    HW132270   0.824   1.781   8.146  1.5870  1.2647 -1.6041
 6878SOL    HW232271   0.731   1.891   8.161 -2.3738 -0.0206 -1.3691
 6879SOL     OW32272   2.585   1.442   3.172 -0.1773 -0.6178 -0.3664
 6879SOL    HW132273   2.605   1.365   3.120 -1.7107 -0.3522 -1.3323
 6879SOL    HW232274   2.563   1.503   3.102 -1.0394 -0.5352 -0.0266
 6880SOL     OW32275   1.819   2.249   1.542 -0.3427 -0.2322 -0.0838
 6880SOL    HW132276   1.854   2.240   1.453  0.9788  1.2077  0.2856
 6880SOL    HW232277   1.884   2.305   1.584  1.5556 -2.0603 -0.5677
 6881SOL     OW32278   0.675   0.258   1.752 -0.1482  0.2926  0.4126
 6881SOL    HW132279   0.680   0.353   1.740 -0.1425  0.1157 -0.9528
 6881SOL    HW232280   0.746   0.227   1.695 -2.2360 -2.0269 -0.9185
 6882SOL     OW32281   4.471   1.634  15.010  0.2467 -0.4959 -0.6715
 6882SOL    HW132282   4.552   1.590  15.033 -0.0555 -0.3524  0.6447
 6882SOL    HW232283   4.504   1.662  14.924 -0.4283  2.6690  0.0932
 6883SOL     OW32284   3.707   2.524   6.168 -0.0391 -0.2992  0.3806
 6883SOL    HW132285   3.799   2.505   6.147 -0.1724  0.4402 -0.8328
 6883SOL    HW232286   3.676   2.434   6.179  1.2067 -0.8832 -0.8571
 6884SOL     OW32287   3.422   0.023   8.237 -0.3731 -0.1674 -0.5450
 6884SOL    HW132288   3.413   4.670   8.270  1.1137  0.1198  0.6545
 6884SOL    HW232289   3.472   0.067   8.306 -1.4486  3.1365 -1.8834
 6885SOL     OW32290   1.972   0.520   7.268 -0.4434  0.3696 -0.4255
 6885SOL    HW132291   1.913   0.445   7.255  0.1753 -0.1749 -0.0857
 6885SOL    HW232292   1.993   0.547   7.179  1.3268  2.5720  0.6654
 6886SOL     OW32293   3.541   0.035  15.113  0.2899  0.0890  0.4092
 6886SOL    HW132294   3.481   0.002  15.180 -0.3930  2.7699  1.1090
 6886SOL    HW232295   3.492   0.110  15.080  0.7285  1.3101  2.5641
 6887SOL     OW32296   3.251   4.342   3.880  0.2455 -0.6648 -0.2287
 6887SOL    HW132297   3.296   4.418   3.918  0.5699  0.1607 -2.2898
 6887SOL    HW232298   3.162   4.377   3.883  0.1630 -0.9506  0.7501
 6888SOL     OW32299   0.210   0.204   4.404 -0.0475  0.0277  0.0958
 6888SOL    HW132300   0.270   0.264   4.362 -0.0756  0.1547  0.2360
 6888SOL    HW232301   0.165   0.268   4.460  2.2423  1.4736  0.2478
 6889SOL     OW32302   0.625   4.514   7.625 -0.3394  0.2336  0.8562
 6889SOL    HW132303   0.595   4.529   7.715  2.7622  2.1531  1.5485
 6889SOL    HW232304   0.652   4.598   7.587  1.1928 -0.1112  1.2179
 6890SOL     OW32305   2.952   2.917   2.899  0.5376 -0.0857 -0.3157
 6890SOL    HW132306   3.003   2.909   2.980  2.5599 -0.1231 -1.5898
 6890SOL    HW232307   2.908   2.832   2.902  3.1695 -1.4623 -0.6751
 6891SOL     OW32308   0.821   4.602   4.716 -0.0038 -0.3812 -0.4689
 6891SOL    HW132309   0.879   4.530   4.740  0.0916  0.3028  1.3416
 6891SOL    HW232310   0.841   4.622   4.625 -2.5258 -2.0115 -1.3737
 6892SOL     OW32311   2.606   3.066   3.186 -0.0576 -0.3593  0.1640
 6892SOL    HW132312   2.620   3.010   3.110 -1.9724 -0.4389 -0.1462
 6892SOL    HW232313   2.673   3.132   3.170  0.7294 -1.0921  0.4143
 6893SOL     OW32314   3.713   3.266   3.015 -0.8157  0.3871 -0.1057
 6893SOL    HW132315   3.704   3.173   2.993 -1.4583  0.8209 -1.6663
 6893SOL    HW232316   3.776   3.256   3.087  0.6515  0.6720 -1.3598
 6894SOL     OW32317   3.890   2.671   0.758  0.2151 -0.6112 -0.0255
 6894SOL    HW132318   3.932   2.676   0.844 -1.5216 -2.2520  0.9096
 6894SOL    HW232319   3.825   2.603   0.771 -0.5360 -0.2299 -1.7712
 6895SOL     OW32320   0.174   1.301   6.775 -0.0477  0.0131 -0.0283
 6895SOL    HW132321   0.090   1.291   6.820  0.1694 -0.7031  0.2182
 6895SOL    HW232322   0.223   1.228   6.814  1.9963  2.8081  2.6478
 6896SOL     OW32323   0.992   2.675   7.331 -0.1242  0.6307  1.2265
 6896SOL    HW132324   1.071   2.705   7.376  2.5734 -0.1183 -3.0975
 6896SOL    HW232325   0.935   2.750   7.345 -0.9895  0.2988 -0.5766
 6897SOL     OW32326   0.260   0.609   3.658  0.5137 -0.2207 -0.4068
 6897SOL    HW132327   0.176   0.646   3.630 -0.5601 -2.3238  0.0830
 6897SOL    HW232328   0.317   0.667   3.606 -0.8650  1.5945  0.1128
 6898SOL     OW32329   4.576   1.527  12.390  0.3560 -0.2450  0.3008
 6898SOL    HW132330   4.635   1.454  12.406  0.3582 -0.0898  0.9765
 6898SOL    HW232331   4.619   1.574  12.461 -1.4723  1.3954  0.3144
 6899SOL     OW32332   3.466   3.466   2.914 -0.1241  0.4425 -0.3014
 6899SOL    HW132333   3.550   3.422   2.915 -0.4887 -0.2765 -1.3849
 6899SOL    HW232334   3.423   3.442   2.996  1.0897  1.2776  0.5685
 6900SOL     OW32335   2.117   2.124   9.985 -0.4030  0.1259  0.5353
 6900SOL    HW132336   2.097   2.153  10.074 -0.8030  1.6687 -0.0587
 6900SOL    HW232337   2.062   2.180   9.931 -0.0706  0.6850  0.7742
 6901SOL     OW32338   4.227   3.125   8.269  0.4191 -0.0533  0.4059
 6901SOL    HW132339   4.275   3.190   8.216  0.6384 -1.6353 -1.3112
 6901SOL    HW232340   4.140   3.149   8.237  0.9766  0.1063 -0.9913
 6902SOL     OW32341   4.541   2.946   0.643  0.2454  0.1229  0.6251
 6902SOL    HW132342   4.478   3.000   0.692  0.6769  1.3692 -0.2349
 6902SOL    HW232343   4.481   2.906   0.579  0.0848  0.6640  0.4421
 6903SOL     OW32344   1.232   1.109  16.597  0.3746 -0.1802 -0.6275
 6903SOL    HW132345   1.310   1.109  16.542  0.5126 -0.1514 -0.4326
 6903SOL    HW232346   1.168   1.046  16.563  0.7394 -1.3063  0.7616
 6904SOL     OW32347   3.306   3.895   4.930 -0.5831 -0.7572  0.1949
 6904SOL    HW132348   3.381   3.835   4.927 -0.3276 -0.4145 -0.2180
 6904SOL    HW232349   3.329   3.952   4.857  0.1175 -0.1500  0.8911
 6905SOL     OW32350   2.489   2.475   8.767 -0.0930  0.3032  0.2540
 6905SOL    HW132351   2.479   2.386   8.802  0.3104  0.2425  0.2259
 6905SOL    HW232352   2.457   2.474   8.677  0.5811 -1.0368  0.0212
 6906SOL     OW32353   3.579   2.481   4.037  0.4421 -0.6526 -0.0260
 6906SOL    HW132354   3.563   2.537   4.113  0.8254 -1.8467  0.9404
 6906SOL    HW232355   3.490   2.464   4.004 -0.9663  1.5074  2.6366
 6907SOL     OW32356   0.283   3.172   0.893  0.4214  0.0928  0.0172
 6907SOL    HW132357   0.270   3.204   0.982  1.7869  0.9598 -0.1009
 6907SOL    HW232358   0.249   3.242   0.837 -0.5425 -0.2008  0.2390
 6908SOL     OW32359   0.771   3.905   5.306  0.7084 -0.4626  0.1648
 6908SOL    HW132360   0.865   3.910   5.289  0.1836  1.9278 -2.1746
 6908SOL    HW232361   0.768   3.837   5.374 -2.4418 -3.2489 -2.8080
 6909SOL     OW32362   3.200   3.751  10.508 -0.1103 -0.2703 -0.1541
 6909SOL    HW132363   3.172   3.732  10.598 -2.0131 -2.7744 -1.3018
 6909SOL    HW232364   3.287   3.710  10.508  0.6989  1.4344  0.0172
 6910SOL     OW32365   2.678   1.953  17.595 -0.2501 -0.1580  0.1563
 6910SOL    HW132366   2.762   1.973  17.638 -0.0569  1.0661 -0.7867
 6910SOL    HW232367   2.720   1.911  17.520 -3.3544  0.1566 -1.7372
 6911SOL     OW32368   2.348   4.037   8.477  0.5178 -0.2153 -0.0313
 6911SOL    HW132369   2.409   3.988   8.533 -0.0058  0.4677  1.1394
 6911SOL    HW232370   2.270   3.981   8.470  0.0099  0.5904 -0.7256
 6912SOL     OW32371   3.209   2.283   8.779 -0.2108 -0.6899 -0.7322
 6912SOL    HW132372   3.135   2.294   8.719 -0.1322 -0.0699 -0.7143
 6912SOL    HW232373   3.171   2.293   8.866  0.6785 -0.0931 -0.4269
 6913SOL     OW32374   2.554   1.941   3.266 -0.5593 -0.3081 -0.5289
 6913SOL    HW132375   2.511   1.979   3.190 -1.9256  0.8427  0.8115
 6913SOL    HW232376   2.502   1.863   3.287 -0.5067 -0.5867 -1.4328
 6914SOL     OW32377   3.404   0.792   4.500 -0.3925  0.0566  0.1569
 6914SOL    HW132378   3.405   0.803   4.405 -0.0184  2.3043  0.4339
 6914SOL    HW232379   3.447   0.870   4.534 -2.1729  0.0329  2.3921
 6915SOL     OW32380   4.312   2.867   4.773  0.5665  0.0743  0.1792
 6915SOL    HW132381   4.383   2.898   4.828  2.5304  1.1971 -2.9972
 6915SOL    HW232382   4.237   2.915   4.809 -0.4150 -1.2211 -0.1050
 6916SOL     OW32383   0.938   0.712   5.594 -0.2597  0.6063  0.0909
 6916SOL    HW132384   0.947   0.655   5.517  1.3235 -1.9698  2.1696
 6916SOL    HW232385   0.940   0.800   5.556  0.3902 -0.2604 -1.9013
 6917SOL     OW32386   3.012   1.512   7.502 -0.7494 -0.1187 -0.1936
 6917SOL    HW132387   2.919   1.499   7.486 -1.1597 -0.9020  2.9263
 6917SOL    HW232388   3.048   1.548   7.421 -0.1638 -0.2317  0.0117
 6918SOL     OW32389   3.477   1.049  12.005  0.4553  0.0412 -0.1966
 6918SOL    HW132390   3.455   1.075  11.916  0.2585  1.2610  0.2026
 6918SOL    HW232391   3.474   0.954  12.000 -0.0811  0.0214  0.4291
 6919SOL     OW32392   3.377   4.531   1.503  0.1499  0.2723  0.1517
 6919SOL    HW132393   3.408   4.594   1.568  1.7248 -0.7514  0.3899
 6919SOL    HW232394   3.286   4.530   1.533  0.1919 -3.4836  0.1770
 6920SOL     OW32395   3.789   0.259   2.403  0.3598  0.6066 -0.1519
 6920SOL    HW132396   3.728   0.188   2.419 -0.8811  1.5831 -0.5411
 6920SOL    HW232397   3.729   0.333   2.415 -0.7464 -0.1170 -1.3027
 6921SOL     OW32398   4.390   1.899  14.740  0.6073  0.3530  0.1899
 6921SOL    HW132399   4.459   1.833  14.749  0.5375  0.3224  0.4861
 6921SOL    HW232400   4.309   1.852  14.721  1.2870 -0.4563 -0.7498
 6922SOL     OW32401   1.639   2.796   3.224 -0.0063  0.3495 -0.4686
 6922SOL    HW132402   1.705   2.861   3.201  0.5378  0.6182  1.9144
 6922SOL    HW232403   1.671   2.764   3.308 -0.8455  1.4583  0.2722
 6923SOL     OW32404   1.167   0.840   3.639 -0.0812 -0.6003 -0.1218
 6923SOL    HW132405   1.110   0.810   3.710 -0.5828  1.0909  0.1952
 6923SOL    HW232406   1.241   0.784   3.661 -0.3831  1.5226  6.1150
 6924SOL     OW32407   1.921   1.248  13.909 -0.2835  0.1643 -0.5630
 6924SOL    HW132408   1.848   1.300  13.945  1.8924  1.4131  2.0508
 6924SOL    HW232409   1.874   1.176  13.867  0.8352 -0.2444 -1.0989
 6925SOL     OW32410   2.320   0.053   0.742  0.5841 -0.4105  0.1172
 6925SOL    HW132411   2.287   0.125   0.795  0.8545 -0.7358  0.7193
 6925SOL    HW232412   2.314   4.711   0.796  0.4199 -0.9689 -0.7064
 6926SOL     OW32413   0.707   2.521   9.206  0.1837 -0.9891 -0.1815
 6926SOL    HW132414   0.787   2.486   9.168 -1.3431 -1.8771 -2.5847
 6926SOL    HW232415   0.651   2.451   9.172 -2.5254  0.7578  0.7270
 6927SOL     OW32416   2.453   3.883   6.306  0.4913  0.2745  0.0777
 6927SOL    HW132417   2.519   3.900   6.238  0.7970 -2.2029 -0.2671
 6927SOL    HW232418   2.367   3.894   6.266  0.9438  1.0721 -0.6721
 6928SOL     OW32419   1.089   3.756   3.877  0.7682  0.0639 -0.3404
 6928SOL    HW132420   1.146   3.778   3.803  1.6998 -3.1501 -0.5438
 6928SOL    HW232421   1.073   3.666   3.849 -0.5247  0.1349  0.1547
 6929SOL     OW32422   1.266   2.360   8.906  0.0702  0.0997 -0.6562
 6929SOL    HW132423   1.346   2.352   8.958  0.2250  0.9525 -0.7554
 6929SOL    HW232424   1.221   2.279   8.930 -0.8983  0.2124 -2.1079
 6930SOL     OW32425   2.013   3.200   6.539 -0.0625  0.0662 -0.3877
 6930SOL    HW132426   1.984   3.187   6.630 -1.2216  0.9307 -0.6289
 6930SOL    HW232427   1.982   3.290   6.533  2.1554  0.9739  1.5133
 6931SOL     OW32428   3.250   2.237   5.142 -0.1251  0.8646 -0.0737
 6931SOL    HW132429   3.198   2.170   5.187  0.3302  1.7039  1.7307
 6931SOL    HW232430   3.251   2.210   5.050 -1.9526  2.6283 -0.5910
 6932SOL     OW32431   4.276   0.874   5.021  0.1382 -0.0876 -0.1740
 6932SOL    HW132432   4.263   0.838   4.934  1.1276 -0.2263 -0.2683
 6932SOL    HW232433   4.311   0.960   4.996  0.7804 -1.1341 -2.8844
 6933SOL     OW32434   4.373   0.460   4.153  0.1425  0.0171  0.2207
 6933SOL    HW132435   4.303   0.470   4.217  0.1640  0.2157  0.2116
 6933SOL    HW232436   4.325   0.477   4.072 -2.0906 -1.5421  1.2235
 6934SOL     OW32437   4.426   0.272   3.119  0.5098  0.1863  0.8385
 6934SOL    HW132438   4.471   0.215   3.181 -0.0630  0.3224  1.3798
 6934SOL    HW232439   4.363   0.313   3.178 -0.7414 -2.9576  1.6959
 6935SOL     OW32440   0.025   3.419  13.434 -0.4074 -1.0697 -0.2054
 6935SOL    HW132441   0.116   3.411  13.405 -0.5571  1.6668 -1.5045
 6935SOL    HW232442   0.044   3.447  13.523 -2.5380  0.9463 -0.3710
 6936SOL     OW32443   0.419   3.963   1.677 -0.2631  0.6645 -0.8255
 6936SOL    HW132444   0.466   3.932   1.755  2.1686  2.6771 -1.5144
 6936SOL    HW232445   0.494   3.994   1.627 -0.1148  0.8830 -0.4725
 6937SOL     OW32446   2.501   4.027   6.952  0.1489  0.1522 -0.5665
 6937SOL    HW132447   2.408   4.010   6.942 -0.1420  1.5307 -0.1559
 6937SOL    HW232448   2.497   4.096   7.018  0.8034  0.5033 -0.8955
 6938SOL     OW32449   2.531   3.965   5.734 -0.1085 -0.1055 -0.0154
 6938SOL    HW132450   2.615   4.010   5.729 -0.6905  1.0259  0.3343
 6938SOL    HW232451   2.546   3.908   5.809 -0.1449  1.2768  1.0256
 6939SOL     OW32452   4.636   4.382   2.493  0.0835 -0.2646 -0.4516
 6939SOL    HW132453   4.576   4.377   2.418  0.1825  0.6437 -0.5958
 6939SOL    HW232454   4.620   4.300   2.539 -0.4526  0.2086  0.2136
 6940SOL     OW32455   1.325   1.624   7.060 -0.2861 -0.0790 -0.3116
 6940SOL    HW132456   1.393   1.671   7.013 -0.8132  2.4382  1.4253
 6940SOL    HW232457   1.351   1.533   7.044  1.5870 -0.2292  3.4889
 6941SOL     OW32458   4.171   4.244   7.993  0.5190 -0.5478 -0.2907
 6941SOL    HW132459   4.139   4.155   7.975  0.4379 -0.2399 -1.6914
 6941SOL    HW232460   4.094   4.276   8.040  0.3989  0.0222 -0.8689
 6942SOL     OW32461   3.719   0.281   4.166 -0.1623  0.3263  0.1673
 6942SOL    HW132462   3.640   0.313   4.121 -0.4797  0.7080  0.9889
 6942SOL    HW232463   3.687   0.210   4.222  1.1045  1.0256  1.7976
 6943SOL     OW32464   0.245   3.433   2.924  0.1795 -0.0867  0.1261
 6943SOL    HW132465   0.240   3.343   2.893  1.1756 -1.0943  2.8556
 6943SOL    HW232466   0.160   3.441   2.969  0.0442  0.2853 -0.1948
 6944SOL     OW32467   2.020   2.430   6.519 -0.0488 -0.5103  0.3263
 6944SOL    HW132468   2.088   2.498   6.527  0.7520 -1.1624 -0.9564
 6944SOL    HW232469   2.009   2.411   6.612  2.2281  0.1135  0.7413
 6945SOL     OW32470   1.426   0.934  12.564 -0.2441 -0.1508 -0.3950
 6945SOL    HW132471   1.351   0.970  12.518 -0.1975  0.1540 -0.2337
 6945SOL    HW232472   1.383   0.869  12.619 -4.0406  2.0671 -0.8084
 6946SOL     OW32473   0.167   4.471   3.258 -0.5211  0.4199  0.4148
 6946SOL    HW132474   0.154   4.513   3.173  1.2764  0.3592  0.1139
 6946SOL    HW232475   0.254   4.506   3.277  0.5385 -2.3301  0.6794
 6947SOL     OW32476   0.757   3.842  10.631  0.0850  0.3703 -0.0568
 6947SOL    HW132477   0.674   3.820  10.589  0.0984  2.2493 -1.0775
 6947SOL    HW232478   0.800   3.856  10.546  0.8218  1.3674  0.4842
 6948SOL     OW32479   0.612   3.202   1.377 -0.0935 -0.2347  0.2215
 6948SOL    HW132480   0.687   3.219   1.434  0.2473 -2.6465  0.4942
 6948SOL    HW232481   0.587   3.290   1.350  0.5553 -0.7170 -1.9643
 6949SOL     OW32482   1.720   4.593   6.510  0.3942  0.0045 -0.0403
 6949SOL    HW132483   1.645   4.574   6.566  0.7607 -1.2930  0.0036
 6949SOL    HW232484   1.709   4.688   6.500  1.2049  0.0901 -0.1089
 6950SOL     OW32485   2.213   0.744  17.576 -0.4540  0.7552  0.0966
 6950SOL    HW132486   2.223   0.760  17.670 -2.4252  1.7971  0.1190
 6950SOL    HW232487   2.218   0.648  17.575 -1.5425  0.6881  0.9100
 6951SOL     OW32488   3.841   2.147   7.091 -0.1064  0.3827  0.1247
 6951SOL    HW132489   3.846   2.223   7.149 -2.4929 -0.6657  1.7424
 6951SOL    HW232490   3.922   2.098   7.083  0.2506  0.9694  0.2069
 6952SOL     OW32491   0.519   2.291   5.277  0.2899 -0.0099 -0.5245
 6952SOL    HW132492   0.526   2.387   5.276  0.1426  0.0038 -0.1698
 6952SOL    HW232493   0.594   2.262   5.329 -1.2565  0.3869  1.9385
 6953SOL     OW32494   2.411   3.373   6.993 -0.4208 -0.4364 -0.4586
 6953SOL    HW132495   2.466   3.451   7.003 -1.7119  0.4967 -0.6513
 6953SOL    HW232496   2.326   3.397   6.958 -0.3442  1.4618  0.6801
 6954SOL     OW32497   4.432   1.473   3.852  0.6446 -0.2725 -0.3169
 6954SOL    HW132498   4.381   1.539   3.898 -0.3226  0.4512 -2.3952
 6954SOL    HW232499   4.511   1.467   3.906  2.0780 -1.7295 -2.5204
 6955SOL     OW32500   2.314   0.142   5.618 -0.1911  0.7597  0.4757
 6955SOL    HW132501   2.295   0.236   5.618  2.3265  1.2662  1.2854
 6955SOL    HW232502   2.237   0.111   5.665  0.4570 -0.8192  0.4791
 6956SOL     OW32503   0.555   1.676   9.253  0.0136 -0.4856  0.2105
 6956SOL    HW132504   0.612   1.750   9.230 -1.0261 -0.2010 -1.4640
 6956SOL    HW232505   0.522   1.709   9.337  1.2055  2.6393 -0.5369
 6957SOL     OW32506   3.988   4.401  16.810 -0.0948 -0.1791  0.2865
 6957SOL    HW132507   3.971   4.489  16.775 -1.9829 -0.3727  0.7155
 6957SOL    HW232508   3.898   4.373  16.795 -0.0456 -0.4355  0.4773
 6958SOL     OW32509   2.481   3.333   1.574 -0.7677  0.3909 -0.2040
 6958SOL    HW132510   2.484   3.427   1.592 -1.2013 -0.2085  2.9506
 6958SOL    HW232511   2.387   3.317   1.589 -0.8331  0.4251 -0.5720
 6959SOL     OW32512   1.920   0.087  11.708 -0.3492 -0.5933 -0.0136
 6959SOL    HW132513   1.934   0.103  11.615 -1.3287 -1.2443 -0.2720
 6959SOL    HW232514   1.886   0.174  11.729  0.9338  0.1604 -1.0729
 6960SOL     OW32515   0.481   2.254  11.440 -0.1906  0.2200  0.0437
 6960SOL    HW132516   0.520   2.313  11.376  1.4778  0.0498  0.9026
 6960SOL    HW232517   0.411   2.225  11.381  2.3044 -1.6387 -1.9707
 6961SOL     OW32518   4.109   3.568   5.607  0.5331 -0.0037 -0.2666
 6961SOL    HW132519   4.198   3.552   5.576  0.7876 -0.6477  0.8287
 6961SOL    HW232520   4.109   3.664   5.604 -0.7326 -0.0073 -0.4377
 6962SOL     OW32521   3.033   2.832   7.484  0.1446  0.4061 -0.3970
 6962SOL    HW132522   3.008   2.921   7.458 -0.8394  0.7199  1.6654
 6962SOL    HW232523   3.106   2.849   7.544 -0.0445 -0.3317  0.0419
 6963SOL     OW32524   2.079   1.133  12.151 -0.1513  0.4690 -0.3162
 6963SOL    HW132525   2.164   1.126  12.107  0.2189  1.5535  0.2268
 6963SOL    HW232526   2.088   1.188  12.228  0.0613  0.4187 -0.3043
 6964SOL     OW32527   0.520   2.217   8.035 -0.1771 -0.0965 -0.1162
 6964SOL    HW132528   0.560   2.157   7.971 -0.7268 -0.0634 -0.4854
 6964SOL    HW232529   0.461   2.272   7.983  0.5573  0.1730 -0.6672
 6965SOL     OW32530   4.536   1.899   4.290 -0.1162 -0.3748  0.3954
 6965SOL    HW132531   4.476   1.970   4.310 -1.0988 -1.0264 -0.2328
 6965SOL    HW232532   4.621   1.939   4.271 -0.1552 -0.3060  0.3685
 6966SOL     OW32533   1.729   2.609  16.196 -0.7202 -0.1302  0.2981
 6966SOL    HW132534   1.739   2.698  16.230 -0.5935  0.2060 -0.6209
 6966SOL    HW232535   1.816   2.570  16.189 -0.7734 -0.3075  0.6445
 6967SOL     OW32536   4.342   1.275  12.144  0.5828  0.4691  0.4967
 6967SOL    HW132537   4.251   1.280  12.176  0.0028 -1.8856 -0.8150
 6967SOL    HW232538   4.353   1.180  12.137 -1.2273  0.0930  2.6737
 6968SOL     OW32539   4.599   1.028   2.919  0.0004 -0.0638 -0.9847
 6968SOL    HW132540   4.601   0.945   2.965 -0.2147 -0.6618 -2.0489
 6968SOL    HW232541   4.559   1.093   2.977 -3.4944 -2.2782 -0.9190
 6969SOL     OW32542   2.977   1.868   5.478  0.1843  0.3850  0.5846
 6969SOL    HW132543   3.024   1.789   5.454 -1.2799 -0.9542  2.1094
 6969SOL    HW232544   2.890   1.837   5.505 -0.7265  2.6093  0.2720
 6970SOL     OW32545   2.032   0.010   3.437  0.0457  0.0894  0.0580
 6970SOL    HW132546   1.952   0.050   3.470 -0.2287  0.1383 -0.6561
 6970SOL    HW232547   2.042   4.672   3.495 -1.8782 -0.6777 -0.6026
 6971SOL     OW32548   0.064   2.937   9.495 -0.2136  0.3947 -0.1171
 6971SOL    HW132549   0.021   3.021   9.488  1.5856  1.2810 -0.6360
 6971SOL    HW232550   0.084   2.944   9.589 -0.3010 -0.1437 -0.0538
 6972SOL     OW32551   0.548   1.331  17.478 -0.2216 -0.1734  0.2455
 6972SOL    HW132552   0.540   1.272  17.553  2.1118 -0.3110  0.4135
 6972SOL    HW232553   0.492   1.405  17.500  0.2064  0.7244 -1.6803
 6973SOL     OW32554   1.494   4.056  16.279  0.3593 -0.1768  0.2903
 6973SOL    HW132555   1.575   4.034  16.232 -0.3151 -0.0908 -0.8976
 6973SOL    HW232556   1.423   4.054  16.216  1.6944  0.4473 -1.2394
 6974SOL     OW32557   4.494   0.782   4.151  0.4171 -0.4404  0.4282
 6974SOL    HW132558   4.559   0.744   4.210 -0.6216  0.3229  2.0895
 6974SOL    HW232559   4.454   0.704   4.113 -0.4358  1.1250 -1.8602
 6975SOL     OW32560   0.176   4.572  12.157  0.4458 -0.2671 -0.5935
 6975SOL    HW132561   0.125   4.625  12.219  0.3538  0.8386 -1.6168
 6975SOL    HW232562   0.250   4.621  12.121 -0.9185  0.7450 -1.9522
 6976SOL     OW32563   3.014   4.321   9.879  0.5487  0.4459 -0.2820
 6976SOL    HW132564   3.040   4.331   9.971  2.2153  0.0163 -0.6936
 6976SOL    HW232565   2.940   4.260   9.880 -0.8601  2.1848  0.3794
 6977SOL     OW32566   4.108   1.443   6.385  0.2417  0.3801 -0.0896
 6977SOL    HW132567   4.080   1.528   6.419 -0.3709 -0.8054  2.3546
 6977SOL    HW232568   4.048   1.421   6.314  1.0635 -1.8876 -0.0670
 6978SOL     OW32569   0.311   0.615  13.275  0.0037 -0.1997  0.1979
 6978SOL    HW132570   0.314   0.519  13.283 -1.4102 -0.2583 -0.0784
 6978SOL    HW232571   0.328   0.638  13.366 -0.8885  1.5901 -0.0865
 6979SOL     OW32572   3.439   1.020  15.818  0.7090 -0.4057 -0.1721
 6979SOL    HW132573   3.501   1.091  15.830  1.1094 -0.9660  1.0205
 6979SOL    HW232574   3.351   1.057  15.811  0.6926 -0.9699 -2.9721
 6980SOL     OW32575   4.649   3.596  11.882  0.2127 -0.4939  0.5523
 6980SOL    HW132576   4.641   3.666  11.946 -0.3499 -1.4953  1.5888
 6980SOL    HW232577   4.560   3.560  11.888 -0.7941  2.1164  1.3614
 6981SOL     OW32578   4.198   0.296   2.905 -0.3018  0.0827 -0.1187
 6981SOL    HW132579   4.171   0.205   2.908 -1.9241  0.5521 -0.3686
 6981SOL    HW232580   4.260   0.283   2.976  1.3816  3.0730 -1.0288
 6982SOL     OW32581   0.643   3.614  17.573 -0.3979 -0.1169 -0.4587
 6982SOL    HW132582   0.662   3.698  17.614  1.4800 -1.0491  0.6010
 6982SOL    HW232583   0.699   3.612  17.496  1.4810  2.1151  0.8556
 6983SOL     OW32584   3.021   0.796   7.453 -0.9129 -0.2423 -0.6673
 6983SOL    HW132585   2.981   0.881   7.473 -3.7330 -1.2920 -1.9161
 6983SOL    HW232586   2.988   0.745   7.526  1.1814 -1.3925 -0.5357
 6984SOL     OW32587   4.330   0.559   6.433 -0.1211 -0.3960  0.1772
 6984SOL    HW132588   4.375   0.640   6.457 -1.1629  0.4100 -0.5350
 6984SOL    HW232589   4.370   0.497   6.493 -1.0527 -2.1780 -1.0363
 6985SOL     OW32590   1.620   2.376   1.439 -0.5843 -0.2345  0.3501
 6985SOL    HW132591   1.683   2.323   1.488  1.4546  1.3805 -0.5453
 6985SOL    HW232592   1.676   2.413   1.371 -0.4033 -1.8898 -0.3861
 6986SOL     OW32593   1.057   1.469  17.350  0.6684  0.0279  0.2022
 6986SOL    HW132594   1.008   1.451  17.431 -0.0024  2.0816  0.2381
 6986SOL    HW232595   1.120   1.397  17.345 -0.4583 -0.8716 -1.1793
 6987SOL     OW32596   0.412   1.692  13.980  0.3648  0.1060  0.2062
 6987SOL    HW132597   0.458   1.631  13.923  0.5725  2.7096 -2.4268
 6987SOL    HW232598   0.332   1.716  13.932  0.0747  1.3528  1.3085
 6988SOL     OW32599   2.820   4.677   6.313 -0.1630 -0.1298 -0.3106
 6988SOL    HW132600   2.810   4.648   6.404  1.3593 -0.4584 -0.2348
 6988SOL    HW232601   2.853   0.030   6.320 -0.7564  0.1055 -0.6205
 6989SOL     OW32602   2.235   2.741   2.867 -0.0069  0.1855  0.3781
 6989SOL    HW132603   2.208   2.796   2.794  1.0160  0.6869  0.3806
 6989SOL    HW232604   2.147   2.722   2.898  0.2491  0.1223  1.0603
 6990SOL     OW32605   4.551   2.559   6.855  0.4275 -0.8345 -0.8536
 6990SOL    HW132606   4.549   2.463   6.848 -1.4857 -0.9294  0.9101
 6990SOL    HW232607   4.487   2.588   6.920  2.9089  1.9858  0.3020
 6991SOL     OW32608   1.481   4.550   5.126  0.3964  0.4274  0.7173
 6991SOL    HW132609   1.501   4.595   5.208  0.1940 -0.2314  1.1341
 6991SOL    HW232610   1.473   4.623   5.065  0.6700  0.7363  1.0536
 6992SOL     OW32611   4.730   3.456   7.589 -0.2246  0.4082 -0.3331
 6992SOL    HW132612   4.689   3.541   7.577 -2.0260 -0.4957 -0.5481
 6992SOL    HW232613   4.672   3.424   7.658 -1.4594 -1.0873 -2.0642
 6993SOL     OW32614   1.638   4.159   5.014 -0.3998 -0.4025 -0.4124
 6993SOL    HW132615   1.695   4.215   5.066 -1.1998  2.3726 -2.4917
 6993SOL    HW232616   1.694   4.082   5.004 -1.8641 -1.8899  2.8424
 6994SOL     OW32617   4.181   2.087  14.822  0.1435  0.2730 -0.3434
 6994SOL    HW132618   4.101   2.067  14.774  0.6765 -1.2808 -0.5705
 6994SOL    HW232619   4.247   2.070  14.755  1.2549  0.9847  0.5541
 6995SOL     OW32620   1.568   3.506   2.172  0.2376  0.3646 -0.4477
 6995SOL    HW132621   1.559   3.497   2.077  1.2402 -0.8224 -0.4377
 6995SOL    HW232622   1.631   3.436   2.189  2.8315  2.6585 -0.7706
 6996SOL     OW32623   4.218   4.727   5.234  0.1408 -0.2631 -0.3723
 6996SOL    HW132624   4.188   4.670   5.163  1.7958 -1.0779 -0.3979
 6996SOL    HW232625   4.164   4.700   5.308 -1.6036  2.0102 -0.7875
 6997SOL     OW32626   2.400   2.661   5.289 -0.4474  0.1696 -0.0402
 6997SOL    HW132627   2.454   2.588   5.259  1.7596  0.7694  2.4184
 6997SOL    HW232628   2.310   2.633   5.274 -0.4134  0.4600 -0.7729
 6998SOL     OW32629   3.120   4.698   6.392 -0.0935  0.5480  0.0475
 6998SOL    HW132630   3.157   0.020   6.327  0.4252 -1.7517 -1.7639
 6998SOL    HW232631   3.029   4.726   6.403 -0.3981  0.6303 -2.5819
 6999SOL     OW32632   1.344   3.485   3.742 -0.7652  0.4382 -0.2357
 6999SOL    HW132633   1.250   3.468   3.743 -0.2198 -2.3598  2.9438
 6999SOL    HW232634   1.373   3.420   3.807  1.7715  1.7368 -0.0433
 7000SOL     OW32635   0.858   0.024  16.672 -0.6712 -0.1959 -0.7860
 7000SOL    HW132636   0.781   0.076  16.694  0.3561  0.7493  0.5502
 7000SOL    HW232637   0.845   0.006  16.579  1.3558  0.2794 -1.1523
 7001SOL     OW32638   1.508   2.487   5.239 -0.4927 -0.3597 -0.2363
 7001SOL    HW132639   1.468   2.572   5.222 -0.7815 -0.5453 -0.4781
 7001SOL    HW232640   1.597   2.517   5.258 -0.5206  0.1410 -0.9046
 7002SOL     OW32641   2.651   4.138  17.195 -0.1448  0.1322 -0.4922
 7002SOL    HW132642   2.577   4.085  17.225  1.3120 -1.8271 -0.3726
 7002SOL    HW232643   2.601   4.218  17.175 -0.9353 -0.5369 -1.1780
 7003SOL     OW32644   1.385   2.305  11.713 -0.3633  0.5925 -0.0507
 7003SOL    HW132645   1.352   2.366  11.647  1.2903  0.0951 -1.3182
 7003SOL    HW232646   1.366   2.355  11.792 -0.2668  2.1534 -1.0325
 7004SOL     OW32647   1.643   3.904   6.595  0.1847  0.5039 -0.1592
 7004SOL    HW132648   1.650   3.941   6.683 -0.9851  2.0264 -0.7082
 7004SOL    HW232649   1.737   3.895   6.578  0.3355  0.6667  0.5749
 7005SOL     OW32650   1.295   0.120   6.504 -0.0852 -0.0654  0.5168
 7005SOL    HW132651   1.253   0.108   6.419  0.8034 -1.3363  0.2544
 7005SOL    HW232652   1.273   0.212   6.520 -0.0965 -0.4250  2.5040
 7006SOL     OW32653   3.713   3.814   4.698 -0.0924  0.0980  0.4620
 7006SOL    HW132654   3.685   3.752   4.630  0.9166 -2.1848  2.1325
 7006SOL    HW232655   3.787   3.854   4.653  0.2049 -0.7013  0.2481
 7007SOL     OW32656   3.690   1.845  16.408  0.2688  0.1289  0.2220
 7007SOL    HW132657   3.734   1.926  16.433 -0.9391  1.1890 -1.1624
 7007SOL    HW232658   3.607   1.881  16.378  0.6964  0.1601 -0.9060
 7008SOL     OW32659   4.072   1.605   5.183 -0.9130  0.3082 -0.1215
 7008SOL    HW132660   4.052   1.641   5.269 -1.7565 -1.6009  0.4683
 7008SOL    HW232661   4.156   1.560   5.193 -0.4056  1.5356  1.1219
 7009SOL     OW32662   0.759   0.831  12.875 -0.3976  0.0457  0.3930
 7009SOL    HW132663   0.752   0.916  12.920  4.1522  0.7977 -0.3847
 7009SOL    HW232664   0.686   0.778  12.906 -0.6454 -0.3855 -0.9507
 7010SOL     OW32665   3.188   0.630   6.817 -0.4184  0.1857 -0.2299
 7010SOL    HW132666   3.208   0.669   6.902  1.4107 -1.0543 -0.1046
 7010SOL    HW232667   3.147   0.710   6.783  0.9344  1.9995  2.3398
 7011SOL     OW32668   4.530   3.483   1.841 -0.1872 -0.1533  0.0594
 7011SOL    HW132669   4.493   3.565   1.809  0.4800  0.5099  0.9825
 7011SOL    HW232670   4.469   3.412   1.824 -1.2448  0.5967  0.7490
 7012SOL     OW32671   1.134   3.906  11.434  0.5544 -0.5070  0.0721
 7012SOL    HW132672   1.100   3.898  11.344  0.7277 -1.0786  0.0647
 7012SOL    HW232673   1.144   4.001  11.446  0.0261 -0.2247 -1.7470
 7013SOL     OW32674   3.808   0.412  15.050 -0.3519  0.4623  0.0926
 7013SOL    HW132675   3.799   0.323  15.085  0.4922 -0.1063 -1.1352
 7013SOL    HW232676   3.903   0.410  15.038 -0.4308 -0.3710 -0.4219
 7014SOL     OW32677   2.776   1.362   0.735  0.3358 -0.4093 -0.2369
 7014SOL    HW132678   2.694   1.393   0.696 -0.7186  0.4591  2.6489
 7014SOL    HW232679   2.824   1.444   0.749  0.2972 -0.0615 -2.1106
 7015SOL     OW32680   0.804   1.370   1.383  0.1730  0.4273 -0.0954
 7015SOL    HW132681   0.757   1.409   1.310  1.6186  2.0626 -0.1534
 7015SOL    HW232682   0.749   1.383   1.460 -0.6802 -1.3880 -0.3966
 7016SOL     OW32683   3.001   4.419   2.756 -0.7494 -0.3456  0.0494
 7016SOL    HW132684   3.032   4.338   2.796  1.6886 -0.2547 -1.6468
 7016SOL    HW232685   3.079   4.436   2.702 -0.6258 -0.1946  0.2783
 7017SOL     OW32686   3.993   1.946   2.004 -0.0007 -0.6392  0.2489
 7017SOL    HW132687   3.937   1.892   2.059  1.4875 -2.7810 -0.3289
 7017SOL    HW232688   4.054   1.886   1.962 -0.4134  0.4203 -1.9094
 7018SOL     OW32689   0.623   0.310   7.135 -0.0120 -0.6314 -0.3767
 7018SOL    HW132690   0.661   0.224   7.155  0.5360 -0.5466 -1.0427
 7018SOL    HW232691   0.531   0.291   7.153  0.5692 -0.3324  2.9210
 7019SOL     OW32692   1.156   1.117   2.933 -0.3130  0.1889  0.2185
 7019SOL    HW132693   1.224   1.162   2.982  0.7304 -1.0161 -0.1139
 7019SOL    HW232694   1.088   1.092   2.996 -0.3683 -0.7144 -0.1910
 7020SOL     OW32695   4.119   2.748  12.638 -0.0977  0.1903 -0.1625
 7020SOL    HW132696   4.035   2.758  12.682 -0.2119 -0.9011 -0.1315
 7020SOL    HW232697   4.109   2.668  12.586 -0.2036 -1.1538  1.9250
 7021SOL     OW32698   2.169   1.681   7.167 -0.1668 -0.3410 -0.1290
 7021SOL    HW132699   2.112   1.615   7.127  0.6039 -0.8430 -0.4036
 7021SOL    HW232700   2.165   1.749   7.100  0.5935  1.0301  1.2394
 7022SOL     OW32701   1.751   2.517  12.886  0.0243  0.3333  0.3050
 7022SOL    HW132702   1.705   2.590  12.927 -0.1779  0.8160 -0.7578
 7022SOL    HW232703   1.735   2.538  12.794  0.8540 -0.1039  0.0581
 7023SOL     OW32704   3.888   2.771  16.287  0.2078 -0.4056 -0.7691
 7023SOL    HW132705   3.983   2.757  16.278  0.2656 -0.0175 -0.7719
 7023SOL    HW232706   3.890   2.865  16.272 -1.8099 -0.0115  1.5008
 7024SOL     OW32707   4.232   0.043  10.454 -0.0172 -0.0278  0.1776
 7024SOL    HW132708   4.280   0.058  10.536 -0.2104  1.3949  0.0315
 7024SOL    HW232709   4.210   4.688  10.469 -0.6261  0.2014  0.7087
 7025SOL     OW32710   2.130   2.693   1.380  0.4552  0.6487  0.9616
 7025SOL    HW132711   2.163   2.708   1.469 -1.2995 -2.2102  2.0882
 7025SOL    HW232712   2.166   2.607   1.360  0.4972  0.4836  1.7191
 7026SOL     OW32713   3.861   2.731  12.361 -0.2579 -0.1790 -0.6566
 7026SOL    HW132714   3.847   2.814  12.408  1.5605  0.3497 -1.0475
 7026SOL    HW232715   3.956   2.739  12.355 -0.2699  1.3753  1.1322
 7027SOL     OW32716   4.449   0.765   6.172  0.1659  1.1053  0.7129
 7027SOL    HW132717   4.418   0.711   6.100  0.2250  2.6436 -0.4651
 7027SOL    HW232718   4.394   0.842   6.156  0.5063  1.7293  2.4447
 7028SOL     OW32719   3.610   2.166  11.677  1.2149  0.1112 -0.5584
 7028SOL    HW132720   3.547   2.238  11.669 -0.3578 -1.1535  0.5889
 7028SOL    HW232721   3.683   2.206  11.629 -0.1969  0.6098 -2.3206
 7029SOL     OW32722   0.173   4.013   6.947 -0.0938  0.4188 -0.0945
 7029SOL    HW132723   0.094   3.963   6.928 -2.1200  2.2748  3.3705
 7029SOL    HW232724   0.224   3.948   6.996  1.7579 -0.0623 -2.7093
 7030SOL     OW32725   3.607   0.107  12.700  0.0224 -0.5234 -0.4182
 7030SOL    HW132726   3.585   0.097  12.793 -0.5404 -3.7577 -0.9133
 7030SOL    HW232727   3.695   0.143  12.706 -0.0165 -0.5088  0.0955
 7031SOL     OW32728   3.979   0.732   7.720 -0.6086 -0.6547  0.2581
 7031SOL    HW132729   4.043   0.786   7.766  0.5144 -0.5542 -1.4388
 7031SOL    HW232730   3.917   0.717   7.791 -3.7887  0.1469 -2.3461
 7032SOL     OW32731   1.842   1.402   2.122  0.0182  0.0604 -0.5705
 7032SOL    HW132732   1.889   1.330   2.079 -0.1111 -0.5903  0.3697
 7032SOL    HW232733   1.831   1.466   2.051  2.3230  3.1007  1.8087
 7033SOL     OW32734   3.235   2.281   9.270 -0.1553 -0.0545  0.1651
 7033SOL    HW132735   3.286   2.345   9.221  1.5469 -0.9158  0.8274
 7033SOL    HW232736   3.302   2.247   9.329 -0.6477  1.1339  1.4173
 7034SOL     OW32737   0.113   3.995   2.354 -0.2183  0.2881  0.7031
 7034SOL    HW132738   0.183   4.060   2.345  0.2653 -0.5087 -1.3978
 7034SOL    HW232739   0.159   3.911   2.347 -3.6526 -1.6498  1.6455
 7035SOL     OW32740   4.655   3.693  14.573 -0.0862  0.7001 -0.0696
 7035SOL    HW132741   4.560   3.698  14.586 -0.1953  1.8973 -1.3975
 7035SOL    HW232742   4.658   3.754  14.499 -1.0174  1.4199  0.4779
 7036SOL     OW32743   2.330   4.358  10.464  0.0405  0.1631  0.5301
 7036SOL    HW132744   2.384   4.280  10.453  0.7789  0.7313  0.1411
 7036SOL    HW232745   2.257   4.343  10.403 -1.3764  0.3556  2.1870
 7037SOL     OW32746   3.982   4.441  14.048 -0.0903 -0.2551 -0.4219
 7037SOL    HW132747   3.891   4.468  14.050 -1.0360 -3.2768 -1.8371
 7037SOL    HW232748   3.997   4.404  13.960 -0.5202 -0.3621 -0.4497
 7038SOL     OW32749   4.486   3.460  10.454  0.5168 -0.1617  0.4318
 7038SOL    HW132750   4.472   3.475  10.547 -2.2073 -0.4433  0.0463
 7038SOL    HW232751   4.514   3.369  10.453  0.3581 -0.1928 -0.6984
 7039SOL     OW32752   4.595   0.858  11.473  0.9953 -0.1748  0.5468
 7039SOL    HW132753   4.617   0.938  11.427 -1.2709  0.0063 -0.2448
 7039SOL    HW232754   4.668   0.797  11.459  0.0765 -1.0132 -0.6859
 7040SOL     OW32755   3.978   3.494  10.677  0.2372 -0.5300 -0.2049
 7040SOL    HW132756   3.987   3.429  10.747 -0.9891 -0.7675 -0.2686
 7040SOL    HW232757   3.917   3.455  10.614 -0.3248  1.6802 -1.0026
 7041SOL     OW32758   0.094   2.011   2.223 -0.1230  0.3993 -0.1290
 7041SOL    HW132759   0.048   2.093   2.242 -0.0035 -0.0989  2.3007
 7041SOL    HW232760   0.088   1.957   2.302 -2.8239  1.5111  0.4307
 7042SOL     OW32761   1.871   4.006   5.478 -0.4016 -0.4535 -0.2502
 7042SOL    HW132762   1.839   4.082   5.429  0.4157 -0.0271 -0.1145
 7042SOL    HW232763   1.863   4.051   5.562 -1.0457 -2.3075  0.6967
 7043SOL     OW32764   3.089   4.026   1.919  0.3098  0.0489 -0.5672
 7043SOL    HW132765   3.180   4.051   1.904 -0.4082  3.0646  0.0962
 7043SOL    HW232766   3.108   3.958   1.983  0.6641  0.4585 -0.2377
 7044SOL     OW32767   2.080   1.547  16.647  0.4691  0.0095  0.3068
 7044SOL    HW132768   2.129   1.464  16.645 -1.7360 -1.2858  0.0917
 7044SOL    HW232769   2.093   1.562  16.741 -1.1615  1.5983  0.2697
 7045SOL     OW32770   4.264   4.018   4.056 -0.2487 -0.3507 -0.2563
 7045SOL    HW132771   4.338   3.960   4.073  0.2019  1.0066  2.3735
 7045SOL    HW232772   4.244   3.999   3.965 -2.3396 -1.0782  0.3431
 7046SOL     OW32773   2.289   0.718   6.273  0.1530  0.1774 -0.0871
 7046SOL    HW132774   2.381   0.716   6.250  0.3138 -0.5826  0.6302
 7046SOL    HW232775   2.256   0.800   6.236 -0.1545 -0.9811 -2.4093
 7047SOL     OW32776   2.280   4.455   6.081 -0.4115 -0.6643 -0.0656
 7047SOL    HW132777   2.243   4.386   6.136 -2.2999  0.5967  0.2192
 7047SOL    HW232778   2.294   4.517   6.153 -0.3211  0.1983 -0.8196
 7048SOL     OW32779   3.553   3.553   2.647  0.0528  0.0126 -0.0179
 7048SOL    HW132780   3.534   3.635   2.693  0.9737  1.0788 -1.5498
 7048SOL    HW232781   3.535   3.487   2.714 -0.6367 -1.9110 -2.1108
 7049SOL     OW32782   2.232   2.176   6.433 -0.0063  0.6300 -0.0938
 7049SOL    HW132783   2.296   2.239   6.467  1.8755 -0.0709 -2.3243
 7049SOL    HW232784   2.266   2.101   6.482 -0.6332  0.4237  0.0167
 7050SOL     OW32785   3.191   1.403  17.318 -0.3398 -0.7785 -0.3380
 7050SOL    HW132786   3.285   1.397  17.338 -0.7668 -1.5642  1.4209
 7050SOL    HW232787   3.155   1.343  17.383 -0.4056 -0.4571 -0.0762
 7051SOL     OW32788   0.840   0.825   2.910 -0.0439  0.7999 -0.4043
 7051SOL    HW132789   0.748   0.852   2.916 -0.1151  0.6383 -0.8048
 7051SOL    HW232790   0.864   0.877   2.833 -2.4110  1.7427 -0.5104
 7052SOL     OW32791   0.549   3.638   6.663 -0.3386  0.2678 -0.1065
 7052SOL    HW132792   0.551   3.711   6.724 -0.0798 -0.0214  0.2274
 7052SOL    HW232793   0.632   3.650   6.616  0.2437  0.7234  1.0592
 7053SOL     OW32794   2.106   1.372   6.112  0.1676 -0.2133 -0.4027
 7053SOL    HW132795   2.086   1.280   6.095  0.4124 -0.0595 -1.5433
 7053SOL    HW232796   2.043   1.382   6.182 -0.3808 -1.7490 -0.6788
 7054SOL     OW32797   3.808   1.085   2.094  0.8497 -0.2130  0.5102
 7054SOL    HW132798   3.732   1.046   2.051  0.3552  0.1251  1.0894
 7054SOL    HW232799   3.772   1.149   2.155 -0.0743  0.3701 -0.6459
 7055SOL     OW32800   3.705   1.488   2.703  0.3934 -0.7038  0.0910
 7055SOL    HW132801   3.738   1.512   2.789 -0.2976 -0.3315  0.2497
 7055SOL    HW232802   3.627   1.544   2.700  1.3235  0.5883 -0.0239
 7056SOL     OW32803   2.055   0.587  11.221  0.3276  0.0250 -0.5334
 7056SOL    HW132804   1.969   0.556  11.193 -0.2563 -0.3495  1.6167
 7056SOL    HW232805   2.077   0.659  11.162 -0.1304  0.0775 -0.6355
 7057SOL     OW32806   0.231   4.451   4.023  0.1278  0.0438  0.7029
 7057SOL    HW132807   0.162   4.507   4.058  0.1738  0.2429  0.4746
 7057SOL    HW232808   0.286   4.518   3.981 -0.4620 -0.2826 -0.5862
 7058SOL     OW32809   3.896   1.992   4.761  0.2323 -0.4909 -0.4144
 7058SOL    HW132810   3.823   1.980   4.823  1.6283 -1.0954  1.1050
 7058SOL    HW232811   3.841   2.031   4.693 -1.2136 -1.1599  0.3490
 7059SOL     OW32812   0.395   3.882   5.094 -0.5160 -0.0238 -0.1269
 7059SOL    HW132813   0.413   3.975   5.111 -1.1948  0.0677  0.1049
 7059SOL    HW232814   0.483   3.847   5.085 -0.6566 -0.4870  0.3679
 7060SOL     OW32815   0.786   3.905   7.185  0.2928  0.1526 -0.5624
 7060SOL    HW132816   0.774   3.878   7.094  0.1220 -0.1309 -0.4552
 7060SOL    HW232817   0.877   3.883   7.205 -0.0404 -1.6647 -1.1108
 7061SOL     OW32818   2.077   0.882   8.409  0.3017 -0.2711 -0.8185
 7061SOL    HW132819   2.120   0.947   8.464 -0.0818 -0.7574  0.0557
 7061SOL    HW232820   2.031   0.843   8.484  1.0699  0.4940  0.0379
 7062SOL     OW32821   0.449   1.313  11.567  0.6951  0.3800  0.1549
 7062SOL    HW132822   0.543   1.295  11.567  1.0095  2.0426 -1.2131
 7062SOL    HW232823   0.444   1.352  11.479 -2.3901  1.6001  0.8777
 7063SOL     OW32824   4.357   2.072  16.593  0.0293 -0.1305  0.5015
 7063SOL    HW132825   4.340   2.166  16.584  0.1624 -0.3353 -2.0103
 7063SOL    HW232826   4.276   2.035  16.627 -0.6226 -0.1759 -1.1038
 7064SOL     OW32827   2.052   4.723   0.593  0.0653 -0.4276  0.1260
 7064SOL    HW132828   2.137   0.002   0.635  0.3878 -1.0176 -0.2957
 7064SOL    HW232829   2.078   4.681   0.510  1.2597  2.2344 -0.8527
 7065SOL     OW32830   2.420   4.329  14.859  0.5580  0.0797  0.2828
 7065SOL    HW132831   2.412   4.240  14.826  1.6165  0.3750 -0.7747
 7065SOL    HW232832   2.388   4.330  14.949 -0.9983 -1.4225 -0.2612
 7066SOL     OW32833   3.010   0.970  10.015 -0.0409  0.4323 -0.1980
 7066SOL    HW132834   2.976   0.965  10.104 -1.0986  0.1467 -0.6243
 7066SOL    HW232835   2.936   1.012   9.972 -0.0537  1.3564  0.7210
 7067SOL     OW32836   4.478   4.093   3.231  0.3195  0.7445 -0.3786
 7067SOL    HW132837   4.507   4.177   3.265  0.9933 -0.1915  1.3905
 7067SOL    HW232838   4.384   4.106   3.222  0.4770  1.0256 -1.5505
 7068SOL     OW32839   0.813   4.081   4.611  0.1494 -0.0002 -0.5413
 7068SOL    HW132840   0.818   4.050   4.520  0.0679  0.2985 -0.6476
 7068SOL    HW232841   0.770   4.166   4.602 -1.4144 -1.0527 -3.2920
 7069SOL     OW32842   4.317   4.021   1.311  0.4891  0.2211 -0.1782
 7069SOL    HW132843   4.328   3.942   1.258 -1.2234  0.3711 -0.7470
 7069SOL    HW232844   4.376   4.080   1.264 -1.8815  1.2139 -1.8942
 7070SOL     OW32845   2.946   3.956   4.785 -0.5565  0.1070 -0.3445
 7070SOL    HW132846   2.938   3.903   4.864  1.1867  0.8328  0.3124
 7070SOL    HW232847   2.904   3.894   4.725 -2.5229 -0.1838  1.3634
 7071SOL     OW32848   1.365   4.703   7.422 -0.2808  0.3582  0.1551
 7071SOL    HW132849   1.347   4.717   7.329  0.6765  0.8427  0.0449
 7071SOL    HW232850   1.374   4.608   7.416 -2.3167  0.1891 -0.0489
 7072SOL     OW32851   3.961   3.229   3.733  0.2239 -0.0199 -0.0621
 7072SOL    HW132852   4.022   3.193   3.798  2.0337  0.9149 -1.2583
 7072SOL    HW232853   3.877   3.200   3.768 -1.6245  3.0362 -1.9684
 7073SOL     OW32854   1.859   3.244  12.816  0.8355 -0.2374  0.5738
 7073SOL    HW132855   1.915   3.189  12.869  0.8212  2.0987  3.0050
 7073SOL    HW232856   1.925   3.276  12.755  0.4949  1.1299  0.9152
 7074SOL     OW32857   0.329   2.334   7.891  0.1500  0.0231  0.3891
 7074SOL    HW132858   0.277   2.399   7.937  1.3792  0.2233  1.4981
 7074SOL    HW232859   0.322   2.368   7.801  0.8029  2.6667  1.3539
 7075SOL     OW32860   2.857   2.384  15.304  0.1254  0.2295  0.0240
 7075SOL    HW132861   2.935   2.330  15.314  0.7009  0.5666 -2.7180
 7075SOL    HW232862   2.882   2.461  15.355 -1.2771  0.7594 -0.0770
 7076SOL     OW32863   2.552   3.945   2.644  0.1910  0.0734 -1.0192
 7076SOL    HW132864   2.633   3.970   2.600  1.8022 -1.5498  1.0145
 7076SOL    HW232865   2.500   4.023   2.625  0.0638 -0.4832 -2.9065
 7077SOL     OW32866   1.631   1.170   4.453 -0.2604  0.1401 -0.4008
 7077SOL    HW132867   1.601   1.208   4.536  0.1078  0.6261 -0.4841
 7077SOL    HW232868   1.668   1.086   4.479  0.6057  0.7875  0.4759
 7078SOL     OW32869   0.016   1.572   9.428  0.2442  0.2407 -0.1125
 7078SOL    HW132870   0.001   1.636   9.358 -2.7849  0.8589  1.1170
 7078SOL    HW232871   0.094   1.533   9.387 -0.2042 -0.6805 -0.0890
 7079SOL     OW32872   1.264   0.941  13.579 -0.2287  0.7754 -0.8290
 7079SOL    HW132873   1.356   0.921  13.595 -0.5728 -1.7508 -2.0112
 7079SOL    HW232874   1.272   1.030  13.614 -0.9859  0.3732  0.3793
 7080SOL     OW32875   4.278   4.651   8.182  0.1035 -0.0487 -0.4444
 7080SOL    HW132876   4.295   4.731   8.232  0.3410  1.1454 -2.4405
 7080SOL    HW232877   4.275   4.574   8.239 -0.1595  1.9729  2.2839
 7081SOL     OW32878   3.444   3.274   8.036 -0.3655 -0.2048 -0.1632
 7081SOL    HW132879   3.356   3.307   8.054 -0.9064 -1.3391 -0.7134
 7081SOL    HW232880   3.479   3.259   8.124  0.7018 -0.5705 -0.6584
 7082SOL     OW32881   4.614   2.413  10.280  0.2770 -0.4116 -0.6874
 7082SOL    HW132882   4.693   2.446  10.237 -1.3506  2.2702 -1.6295
 7082SOL    HW232883   4.588   2.347  10.216  3.3327 -1.6765 -0.6294
 7083SOL     OW32884   0.408   2.068   2.398  0.4045  0.8963  0.2093
 7083SOL    HW132885   0.412   2.001   2.466  0.4647 -1.0861 -1.7411
 7083SOL    HW232886   0.343   2.128   2.435 -0.1085  0.4413  0.0481
 7084SOL     OW32887   2.423   2.830   1.769 -0.3099 -0.1326 -0.0521
 7084SOL    HW132888   2.430   2.863   1.680 -0.9362 -1.8898 -0.7516
 7084SOL    HW232889   2.425   2.909   1.823  1.6983 -0.9580  1.0914
 7085SOL     OW32890   3.340   0.265   2.451 -0.0847 -0.1198  0.0441
 7085SOL    HW132891   3.429   0.296   2.433  0.4529 -1.4778  0.3661
 7085SOL    HW232892   3.305   0.348   2.484  1.9894  1.1379 -0.8778
 7086SOL     OW32893   2.821   3.513   9.112  0.0613  0.2936 -0.4642
 7086SOL    HW132894   2.774   3.566   9.176 -2.0899 -1.9530 -0.2026
 7086SOL    HW232895   2.834   3.567   9.034 -1.5407  0.1120 -0.8439
 7087SOL     OW32896   1.129   2.221   4.606  0.2883  0.2313  0.5447
 7087SOL    HW132897   1.220   2.250   4.595 -0.1752  1.4357 -0.1280
 7087SOL    HW232898   1.146   2.133   4.640 -1.3390 -0.5802 -0.7669
 7088SOL     OW32899   3.499   4.606  11.401  0.4352  0.3418 -0.0965
 7088SOL    HW132900   3.441   4.550  11.350  0.1203  0.9193 -0.3711
 7088SOL    HW232901   3.473   4.695  11.378 -0.5564  0.4267  1.2748
 7089SOL     OW32902   1.907   0.345   3.580 -0.6606  0.4819 -0.2119
 7089SOL    HW132903   1.835   0.405   3.599  0.4674  1.7063  0.1809
 7089SOL    HW232904   1.864   0.290   3.515  1.5312 -1.4024 -0.0481
 7090SOL     OW32905   1.180   4.494   6.587  0.6109  0.3443  0.7576
 7090SOL    HW132906   1.192   4.406   6.624  1.9120  0.8377  1.4956
 7090SOL    HW232907   1.109   4.537   6.635  0.5300  1.5039 -0.4054
 7091SOL     OW32908   0.902   4.394  17.382  0.3080 -0.0400  0.9040
 7091SOL    HW132909   0.997   4.397  17.370  0.2069 -2.6520 -0.3702
 7091SOL    HW232910   0.866   4.352  17.305  1.1736  0.5338  0.1861
 7092SOL     OW32911   2.204   1.836  10.548  0.0734  0.6369 -0.1760
 7092SOL    HW132912   2.172   1.899  10.612 -0.8232  0.8769 -0.8653
 7092SOL    HW232913   2.217   1.893  10.472 -1.2930 -0.1637 -1.0268
 7093SOL     OW32914   3.974   0.160  16.365 -0.2759 -0.2966  0.1752
 7093SOL    HW132915   3.977   0.211  16.284  1.7198  0.2045  0.5658
 7093SOL    HW232916   4.036   0.092  16.338 -0.0516 -1.6413  4.0988
 7094SOL     OW32917   1.814   3.886   3.489 -0.4185  0.3514 -0.9344
 7094SOL    HW132918   1.732   3.934   3.501  0.9103  2.7828 -1.6875
 7094SOL    HW232919   1.820   3.833   3.569 -2.5755 -0.2229 -1.1564
 7095SOL     OW32920   1.275   0.839   9.581 -0.1202  0.6044 -0.0532
 7095SOL    HW132921   1.192   0.880   9.604 -0.7269 -0.5972 -0.1085
 7095SOL    HW232922   1.326   0.883   9.650 -2.7905  0.3321  2.0957
 7096SOL     OW32923   1.446   2.978   7.860 -0.1951 -0.1897  0.1292
 7096SOL    HW132924   1.442   2.963   7.954 -3.1811 -0.1924  0.0275
 7096SOL    HW232925   1.375   3.042   7.854 -0.8612 -1.1625 -2.4885
 7097SOL     OW32926   4.543   0.920  12.880 -0.3216 -0.3543  0.0065
 7097SOL    HW132927   4.530   1.002  12.831 -0.2578 -1.1353 -1.3069
 7097SOL    HW232928   4.637   0.902  12.878  0.0657  1.3786  2.1197
 7098SOL     OW32929   1.192   3.448   9.083  0.4163 -0.3122 -0.4917
 7098SOL    HW132930   1.098   3.444   9.100  0.3830 -1.0951 -0.8669
 7098SOL    HW232931   1.230   3.424   9.167  0.2352 -2.9804 -1.1760
 7099SOL     OW32932   0.236   1.568   3.052 -0.8498 -0.0249 -0.6611
 7099SOL    HW132933   0.180   1.495   3.078  0.9792 -0.8002  1.0718
 7099SOL    HW232934   0.322   1.536   3.080 -1.1881 -0.9739 -0.7065
 7100SOL     OW32935   3.282   1.559   0.633  0.8447 -0.2486 -0.4542
 7100SOL    HW132936   3.250   1.649   0.630  0.3638 -0.4085 -0.1938
 7100SOL    HW232937   3.282   1.538   0.539  1.7569  1.4133 -0.8155
 7101SOL     OW32938   3.222   1.966   3.900 -0.1498  0.1032  0.6544
 7101SOL    HW132939   3.234   1.885   3.850  0.4363  0.8309 -0.3744
 7101SOL    HW232940   3.214   2.035   3.835 -0.0469  0.9780  1.5603
 7102SOL     OW32941   2.892   4.132  14.791 -0.4554 -0.1885 -0.4981
 7102SOL    HW132942   2.942   4.196  14.740  1.3818 -1.1453  0.1151
 7102SOL    HW232943   2.946   4.120  14.868 -0.8984 -1.9199 -0.4497
 7103SOL     OW32944   0.454   0.771   8.151  0.8593 -0.3905  0.4074
 7103SOL    HW132945   0.359   0.783   8.157  0.7525 -1.2875  0.4292
 7103SOL    HW232946   0.485   0.839   8.211 -0.8857 -0.1662  1.0711
 7104SOL     OW32947   3.902   3.215   5.721 -0.4535  0.5142  0.4988
 7104SOL    HW132948   3.995   3.234   5.731 -0.1723 -0.4545 -0.3060
 7104SOL    HW232949   3.864   3.298   5.691 -0.9380 -0.0903 -0.5353
 7105SOL     OW32950   0.431   1.104   3.958 -0.0565  0.0376 -0.1727
 7105SOL    HW132951   0.449   1.022   4.004 -1.8179 -0.5709 -0.5841
 7105SOL    HW232952   0.341   1.095   3.927 -0.3404  3.2391 -0.3319
 7106SOL     OW32953   1.513   3.569  13.645  0.0837  0.3919 -0.4033
 7106SOL    HW132954   1.446   3.575  13.714  1.3548  1.9286  0.7131
 7106SOL    HW232955   1.478   3.629  13.578  2.3018  1.0806 -0.9551
 7107SOL     OW32956   1.429   1.735   3.530  0.2300  0.4019  0.7360
 7107SOL    HW132957   1.466   1.746   3.443 -0.1357 -0.2806  0.4896
 7107SOL    HW232958   1.336   1.730   3.508  0.0872 -0.0341  1.4382
 7108SOL     OW32959   1.580   4.397   5.483  0.1075 -0.7249 -0.1288
 7108SOL    HW132960   1.562   4.491   5.475  1.4314 -0.3221  1.4682
 7108SOL    HW232961   1.492   4.361   5.483 -2.0054  4.4287 -1.6122
 7109SOL     OW32962   3.582   1.429  11.904 -0.0007  0.5552 -0.0402
 7109SOL    HW132963   3.490   1.408  11.919 -0.2418  0.6344 -1.3801
 7109SOL    HW232964   3.618   1.428  11.992  0.1293 -0.3233 -0.0981
 7110SOL     OW32965   2.417   3.266   4.616  0.1283  0.1924 -0.2192
 7110SOL    HW132966   2.364   3.329   4.665  2.2756  0.6529  1.5095
 7110SOL    HW232967   2.457   3.324   4.551  0.1559 -0.5447 -0.8716
 7111SOL     OW32968   3.210   4.318   4.767  0.0166 -0.5976  0.3358
 7111SOL    HW132969   3.133   4.275   4.730 -0.6183  1.1562 -0.3997
 7111SOL    HW232970   3.260   4.238   4.782  4.1828  1.6250 -1.7320
 7112SOL     OW32971   2.520   4.638  17.193 -0.4443 -0.2903 -0.3200
 7112SOL    HW132972   2.466   4.675  17.262  1.2115  0.0873  0.7608
 7112SOL    HW232973   2.492   4.693  17.120 -0.7874  2.0766  1.6055
 7113SOL     OW32974   1.917   0.340   6.722  0.0992 -0.3263  0.4557
 7113SOL    HW132975   1.912   0.363   6.815  0.2986  1.1476  0.1019
 7113SOL    HW232976   1.889   0.418   6.673  1.6738 -0.3276 -0.4586
 7114SOL     OW32977   3.888   4.631  16.747  0.0885 -0.3384  0.0896
 7114SOL    HW132978   3.948   4.703  16.769  1.2218 -1.2914  0.0881
 7114SOL    HW232979   3.804   4.671  16.770 -0.0786 -1.9476  2.3186
 7115SOL     OW32980   0.693   2.375  11.946  0.2081  0.2724 -0.2426
 7115SOL    HW132981   0.762   2.439  11.965 -0.3227  1.1758 -1.3824
 7115SOL    HW232982   0.731   2.289  11.967 -2.5716 -0.8802  0.1278
 7116SOL     OW32983   1.763   3.367   2.448  0.0724  0.5246  0.1090
 7116SOL    HW132984   1.743   3.300   2.382  1.1869  0.6465 -0.3653
 7116SOL    HW232985   1.838   3.401   2.398 -1.0545  1.0924 -1.2197
 7117SOL     OW32986   1.871   0.569   3.294  0.0960 -0.7647 -0.6032
 7117SOL    HW132987   1.912   0.520   3.223  0.9434  0.0998 -0.7084
 7117SOL    HW232988   1.786   0.525   3.303 -1.3135  1.9684 -0.4723
 7118SOL     OW32989   1.647   2.756   8.096  0.2142 -0.4973  0.8083
 7118SOL    HW132990   1.677   2.729   8.183 -0.1204  0.7708  1.3153
 7118SOL    HW232991   1.552   2.750   8.105 -0.1410  2.4959 -0.8696
 7119SOL     OW32992   2.214   1.663   2.376 -0.1904  0.1521  0.2294
 7119SOL    HW132993   2.121   1.641   2.377  0.1813 -1.6122 -2.8735
 7119SOL    HW232994   2.260   1.591   2.333  1.2156  0.7717  0.6837
 7120SOL     OW32995   0.131   3.629   8.475 -0.2217 -0.1098  0.1020
 7120SOL    HW132996   0.088   3.696   8.527  0.7818  0.0415  0.7352
 7120SOL    HW232997   0.153   3.676   8.395  0.7484 -0.6930  0.0192
 7121SOL     OW32998   1.447   1.994  10.075 -0.2638 -0.3036 -0.8243
 7121SOL    HW132999   1.539   1.980  10.055 -0.3978 -0.1846 -1.5211
 7121SOL    HW233000   1.444   2.052  10.152 -0.4804 -0.7295 -0.5085
 7122SOL     OW33001   3.212   2.887  10.737 -0.1315 -0.3073  0.4818
 7122SOL    HW133002   3.246   2.924  10.818 -0.4617  1.2206 -0.0814
 7122SOL    HW233003   3.280   2.902  10.671 -0.8637  2.8470  0.4610
 7123SOL     OW33004   3.923   3.745   0.921 -0.4997 -0.6316  0.3098
 7123SOL    HW133005   3.947   3.834   0.895 -0.1016 -1.3752 -1.8427
 7123SOL    HW233006   3.967   3.690   0.857 -0.0044 -0.2617  0.3306
 7124SOL     OW33007   1.731   1.227   0.391 -0.2848  0.1924  0.5188
 7124SOL    HW133008   1.749   1.282   0.314 -1.6015 -0.9777 -0.6350
 7124SOL    HW233009   1.636   1.226   0.375 -0.0405  0.0790 -0.9579
 7125SOL     OW33010   2.533   0.660  17.540  0.0872 -0.6142 -0.1439
 7125SOL    HW133011   2.455   0.605  17.536  0.4452 -1.0549 -1.1379
 7125SOL    HW233012   2.498   0.749  17.549 -0.2563 -0.7002 -0.6482
 7126SOL     OW33013   4.279   2.335   3.741  0.3750 -0.2086  0.6926
 7126SOL    HW133014   4.253   2.323   3.832  1.2157 -1.4640  0.7672
 7126SOL    HW233015   4.213   2.398   3.714  0.7510 -0.3938 -0.6701
 7127SOL     OW33016   1.003   3.136   3.489 -0.0151 -0.0882  0.7113
 7127SOL    HW133017   1.002   3.206   3.553 -0.2023  0.7270 -0.1806
 7127SOL    HW233018   0.911   3.137   3.459 -0.0872  4.3047  1.0435
 7128SOL     OW33019   4.455   1.129   8.580 -0.6308 -0.0339 -0.1820
 7128SOL    HW133020   4.456   1.048   8.529 -2.4527 -0.6187  0.6899
 7128SOL    HW233021   4.413   1.196   8.526 -2.1080 -1.2927 -0.6175
 7129SOL     OW33022   0.544   2.728   3.560  0.5193 -0.1145  0.6326
 7129SOL    HW133023   0.521   2.701   3.471  2.8012 -1.2891  0.3995
 7129SOL    HW233024   0.627   2.686   3.579  0.1775  0.2423  2.8301
 7130SOL     OW33025   0.670   3.617   9.075 -0.5917  0.5863  0.2607
 7130SOL    HW133026   0.685   3.638   9.167 -1.3646  0.2229  0.4656
 7130SOL    HW233027   0.698   3.698   9.032  0.5124 -0.1291 -0.3722
 7131SOL     OW33028   2.639   3.557  15.108 -0.0974 -0.1519 -0.1398
 7131SOL    HW133029   2.579   3.631  15.099 -2.0830 -1.6089  1.2325
 7131SOL    HW233030   2.658   3.554  15.202 -0.6304 -0.8266 -0.0582
 7132SOL     OW33031   0.560   1.245   6.728  0.0449  0.6848  0.6407
 7132SOL    HW133032   0.570   1.291   6.645 -1.7182 -0.2683 -0.0948
 7132SOL    HW233033   0.602   1.161   6.710 -1.0792  0.1855  0.3481
 7133SOL     OW33034   3.228   0.056   5.195 -0.3268 -0.0349  0.0591
 7133SOL    HW133035   3.265   0.144   5.208 -2.1792  0.7830 -0.2056
 7133SOL    HW233036   3.138   0.069   5.226 -0.8553 -2.0449 -0.6868
 7134SOL     OW33037   2.221   1.389  14.532 -0.3696 -0.2768 -0.2231
 7134SOL    HW133038   2.299   1.339  14.556 -0.7258 -0.9936 -0.5719
 7134SOL    HW233039   2.157   1.385  14.604  0.6651 -2.7272  0.5525
 7135SOL     OW33040   4.397   1.044   7.593  0.5661 -0.6650  0.8256
 7135SOL    HW133041   4.440   0.992   7.524  1.4538  0.3323  0.6349
 7135SOL    HW233042   4.476   1.055   7.646  1.5893 -0.6820 -0.7002
 7136SOL     OW33043   1.608   2.332   7.044 -0.4140 -0.3491  0.1671
 7136SOL    HW133044   1.588   2.254   7.095 -0.5989 -1.1659 -1.1366
 7136SOL    HW233045   1.522   2.334   7.001  0.4936  1.4160 -1.5794
 7137SOL     OW33046   0.679   4.342   4.608  0.0559  0.0843  0.0956
 7137SOL    HW133047   0.703   4.401   4.680 -1.1898 -1.5344  1.8488
 7137SOL    HW233048   0.604   4.396   4.583  0.2955  0.6603  0.6063
 7138SOL     OW33049   2.340   1.255   2.393 -0.1909  0.0858 -0.0608
 7138SOL    HW133050   2.342   1.338   2.345 -2.3143  0.2914  0.2337
 7138SOL    HW233051   2.272   1.209   2.343 -1.1014  1.5684 -0.2005
 7139SOL     OW33052   0.508   1.189  13.476  0.4523  0.5642  0.9101
 7139SOL    HW133053   0.545   1.103  13.493 -0.8674 -0.1539  0.1553
 7139SOL    HW233054   0.561   1.214  13.401 -0.2105 -1.8138 -0.3390
 7140SOL     OW33055   4.275   0.982   6.743 -0.2287  0.1399  0.2787
 7140SOL    HW133056   4.342   0.942   6.688 -0.2966  0.1703  0.1736
 7140SOL    HW233057   4.215   1.024   6.682  0.5546 -0.0036 -0.6026
 7141SOL     OW33058   1.861   1.898   4.876 -0.0098 -0.0597 -0.9608
 7141SOL    HW133059   1.786   1.918   4.821 -1.9474  1.9862  2.4488
 7141SOL    HW233060   1.910   1.843   4.815  1.6258  1.0802 -0.6784
 7142SOL     OW33061   4.050   0.070  14.594  0.2781  0.8604 -0.2997
 7142SOL    HW133062   3.971   0.117  14.619 -1.0235 -1.7882  0.6338
 7142SOL    HW233063   4.083   0.125  14.523  0.3448  3.3752  1.6707
 7143SOL     OW33064   1.175   3.281   6.955 -0.5025 -0.0991 -0.3294
 7143SOL    HW133065   1.194   3.189   6.976  2.2184  0.9359  1.7236
 7143SOL    HW233066   1.144   3.269   6.865 -1.4282  1.3480 -0.1965
 7144SOL     OW33067   2.358   2.970   5.703 -0.4854 -0.5632  0.2411
 7144SOL    HW133068   2.368   2.983   5.609 -0.7038 -2.1032  0.0094
 7144SOL    HW233069   2.443   2.998   5.738 -0.2457 -1.9239  0.7134
 7145SOL     OW33070   3.941   2.200   3.725  0.3139 -0.4744  0.1373
 7145SOL    HW133071   3.982   2.287   3.716  0.3938 -0.5863 -0.5823
 7145SOL    HW233072   3.872   2.225   3.786 -0.4543 -1.3396 -0.3835
 7146SOL     OW33073   0.242   0.012  12.462  0.0658  0.0995 -0.1214
 7146SOL    HW133074   0.159   0.003  12.416  0.5095 -0.0446 -0.9046
 7146SOL    HW233075   0.213   0.052  12.544  0.4020 -0.7993  0.4367
 7147SOL     OW33076   4.090   4.473   5.092 -0.2258 -0.2194 -0.1844
 7147SOL    HW133077   4.116   4.381   5.079  1.2774  0.5350 -2.4230
 7147SOL    HW233078   4.015   4.457   5.149 -0.1243  0.9275  0.2532
 7148SOL     OW33079   4.203   1.056   2.949 -0.0842  0.5504 -0.1149
 7148SOL    HW133080   4.216   0.967   2.980  0.3679  1.3017  1.8650
 7148SOL    HW233081   4.123   1.042   2.899  1.0263 -0.5735 -1.5310
 7149SOL     OW33082   1.658   3.933  12.745 -0.3337 -0.1773 -0.0943
 7149SOL    HW133083   1.667   3.957  12.837  0.6706 -3.5029  0.6627
 7149SOL    HW233084   1.749   3.904  12.733  0.0536  1.0955 -0.3243
 7150SOL     OW33085   1.574   0.718   2.973 -0.0178  0.3526  0.1827
 7150SOL    HW133086   1.480   0.707   2.961  0.5376 -2.4285 -1.6481
 7150SOL    HW233087   1.617   0.646   2.927  1.4895 -0.2819  2.5926
 7151SOL     OW33088   3.644   4.097   2.818  0.4884 -0.4078  0.5084
 7151SOL    HW133089   3.633   4.018   2.870  0.1731 -0.1491  0.8323
 7151SOL    HW233090   3.595   4.160   2.872 -0.9877  0.2547 -1.5890
 7152SOL     OW33091   4.127   2.254  15.317 -0.0175 -1.0544 -0.1294
 7152SOL    HW133092   4.159   2.223  15.232 -2.0008  0.0141 -1.2596
 7152SOL    HW233093   4.200   2.303  15.355 -1.3421 -0.1814  1.3040
 7153SOL     OW33094   1.330   4.454   2.406 -0.3734 -0.2693  0.0365
 7153SOL    HW133095   1.307   4.469   2.498  2.1159  1.9346  0.3190
 7153SOL    HW233096   1.391   4.381   2.396  2.4635  1.7491  2.6523
 7154SOL     OW33097   0.091   2.606   9.677  0.3706 -0.1700 -0.8218
 7154SOL    HW133098   0.036   2.536   9.642 -1.7631  1.3503 -0.4468
 7154SOL    HW233099   0.128   2.565   9.755  0.0136  0.8365 -0.1279
 7155SOL     OW33100   3.749   1.819  11.930 -0.3153 -0.1076 -0.1003
 7155SOL    HW133101   3.762   1.888  11.995  1.0285 -2.1550  1.7987
 7155SOL    HW233102   3.842   1.805  11.912 -0.4948 -1.8940  0.2862
 7156SOL     OW33103   3.477   4.065  12.980  0.3664 -0.2061 -0.0516
 7156SOL    HW133104   3.486   4.074  12.885 -1.1535 -0.5956 -0.2437
 7156SOL    HW233105   3.385   4.089  12.991  0.9774  2.2694 -0.3128
 7157SOL     OW33106   1.898   3.963   3.073  0.1284 -0.2541 -0.6387
 7157SOL    HW133107   1.973   4.021   3.064 -1.4572  1.5839 -2.0043
 7157SOL    HW233108   1.841   4.017   3.018  1.7385  1.5607 -0.5394
 7158SOL     OW33109   3.718   4.666   3.622  0.3871  0.5315 -0.0138
 7158SOL    HW133110   3.748   0.020   3.627  2.1713 -0.0981  0.7129
 7158SOL    HW233111   3.796   4.637   3.575 -0.2057  0.7654 -1.1265
 7159SOL     OW33112   3.107   1.806   7.648 -0.0992  0.1217 -0.3224
 7159SOL    HW133113   3.041   1.835   7.585 -0.1325  0.2206 -0.2434
 7159SOL    HW233114   3.059   1.728   7.675  1.8561 -1.3568 -1.0856
 7160SOL     OW33115   3.342   3.457   8.695 -0.1897  0.0805 -0.3692
 7160SOL    HW133116   3.249   3.441   8.714 -0.4906  2.1785 -0.1088
 7160SOL    HW233117   3.354   3.546   8.726 -2.4896 -0.0868  1.0013
 7161SOL     OW33118   0.564   0.822   3.032  0.1420 -0.5450  0.1929
 7161SOL    HW133119   0.544   0.822   3.125  1.5507 -0.5869  0.4890
 7161SOL    HW233120   0.555   0.913   3.005 -3.2862 -1.2664 -1.1106
 7162SOL     OW33121   0.123   2.454   8.314 -0.0050 -0.1027  0.6501
 7162SOL    HW133122   0.166   2.369   8.318  2.2763  0.9392 -1.5799
 7162SOL    HW233123   0.178   2.507   8.371 -2.4504 -0.9757  3.8645
 7163SOL     OW33124   4.539   0.573   4.370  0.2370  0.0577 -0.3593
 7163SOL    HW133125   4.468   0.553   4.309  0.5087 -0.0490 -0.6380
 7163SOL    HW233126   4.498   0.528   4.444 -0.5966 -1.7692 -1.9332
 7164SOL     OW33127   3.128   0.043  11.269 -0.0517  0.0953 -0.2934
 7164SOL    HW133128   3.180   4.718  11.322 -1.0505  1.9613  2.8302
 7164SOL    HW233129   3.039   0.018  11.293  0.1683  0.9201  1.3883
 7165SOL     OW33130   2.924   3.735   2.677 -0.3378 -0.2674  0.2635
 7165SOL    HW133131   2.852   3.783   2.635 -2.0031 -1.2188  2.0378
 7165SOL    HW233132   2.894   3.653   2.638 -0.1110 -0.1453 -0.1639
 7166SOL     OW33133   3.771   0.276   7.364  0.1025 -0.2999  0.4622
 7166SOL    HW133134   3.815   0.354   7.331  0.7807 -0.8403  0.0931
 7166SOL    HW233135   3.793   0.205   7.304  1.4494  0.0669  0.5203
 7167SOL     OW33136   0.010   4.088   9.471 -0.2375 -0.4049 -0.1535
 7167SOL    HW133137   0.028   4.109   9.563  2.3598 -0.4378 -0.6555
 7167SOL    HW233138   4.689   4.161   9.449  0.0152 -0.8067 -2.1571
 7168SOL     OW33139   1.145   2.578   2.582 -0.1489  0.5138 -0.5173
 7168SOL    HW133140   1.121   2.575   2.674  0.0423 -1.5789 -0.5425
 7168SOL    HW233141   1.070   2.611   2.532  2.3238  1.1177 -3.8625
 7169SOL     OW33142   2.276   0.485  17.530  0.0012  0.6830 -0.0548
 7169SOL    HW133143   2.350   0.426  17.523 -1.9646 -1.7954 -0.0310
 7169SOL    HW233144   2.197   0.431  17.528  1.0859 -0.8203 -2.0746
 7170SOL     OW33145   2.796   2.949   8.856  0.5092  0.0651  0.6286
 7170SOL    HW133146   2.719   3.005   8.871  0.4038 -0.1627  0.9392
 7170SOL    HW233147   2.750   2.865   8.849  1.2753 -0.2599 -0.4440
 7171SOL     OW33148   3.977   2.316  11.936  1.1229 -0.7023 -0.4110
 7171SOL    HW133149   3.947   2.302  12.026 -0.8170  0.7393 -0.8409
 7171SOL    HW233150   3.893   2.336  11.895  1.3257 -1.5302 -1.2290
 7172SOL     OW33151   2.144   4.132  14.592  0.0427  0.0756  0.5744
 7172SOL    HW133152   2.093   4.104  14.517 -1.3988 -0.7889  1.8980
 7172SOL    HW233153   2.100   4.214  14.615  0.5044  0.5089 -0.0629
 7173SOL     OW33154   3.237   2.942   5.223  0.0916 -0.1535  0.0519
 7173SOL    HW133155   3.217   3.015   5.281 -1.7638 -0.8671  0.3202
 7173SOL    HW233156   3.289   2.885   5.280  1.3564 -0.0359 -0.9974
 7174SOL     OW33157   2.006   1.309   0.529 -0.1201  0.1225 -0.4311
 7174SOL    HW133158   1.920   1.303   0.488 -0.4385  0.7917  0.1448
 7174SOL    HW233159   2.045   1.388   0.490  3.8731 -1.1191  0.9748
 7175SOL     OW33160   2.764   0.468   7.682  0.4794 -0.1201  0.4089
 7175SOL    HW133161   2.749   0.385   7.637  2.4248  0.9353 -2.1382
 7175SOL    HW233162   2.823   0.441   7.753  1.2839 -0.0566 -0.2397
 7176SOL     OW33163   4.026   3.886  13.061  0.2598 -0.0059  0.2174
 7176SOL    HW133164   4.062   3.800  13.082 -0.7725 -0.5140 -0.1115
 7176SOL    HW233165   3.934   3.867  13.080  0.1039  0.3841 -0.1375
 7177SOL     OW33166   0.020   4.033   2.609  0.7876  0.5737 -0.0251
 7177SOL    HW133167   0.082   3.975   2.653 -0.6557 -0.8528  0.1244
 7177SOL    HW233168   0.051   4.028   2.518 -1.7725  1.7557 -0.9690
 7178SOL     OW33169   4.650   4.108  14.426 -0.8821 -0.7675  0.1129
 7178SOL    HW133170   4.684   4.019  14.417  0.3254 -0.3880  0.9247
 7178SOL    HW233171   4.628   4.128  14.335  2.0074 -1.2773 -0.7241
 7179SOL     OW33172   4.503   4.101   7.611  0.3873 -0.2097  0.0628
 7179SOL    HW133173   4.571   4.167   7.604  0.0451  0.0249 -1.0035
 7179SOL    HW233174   4.546   4.032   7.660  1.1867  0.0822 -0.2308
 7180SOL     OW33175   3.570   1.710   2.485 -0.2613 -0.1175 -0.3658
 7180SOL    HW133176   3.637   1.686   2.421  1.0061 -1.7522  1.5684
 7180SOL    HW233177   3.490   1.678   2.444 -0.3633  0.8432 -0.8951
 7181SOL     OW33178   3.765   3.383   1.665 -0.2743 -0.2641  0.8889
 7181SOL    HW133179   3.843   3.366   1.611 -1.3607 -0.5291 -0.5802
 7181SOL    HW233180   3.702   3.321   1.630  0.4507 -0.4659 -0.0640
 7182SOL     OW33181   1.430   0.733   4.799  0.0449  0.2568 -0.4324
 7182SOL    HW133182   1.351   0.729   4.744 -0.0179 -0.3696 -0.2890
 7182SOL    HW233183   1.448   0.640   4.803 -1.4011 -0.1117 -2.2613
 7183SOL     OW33184   2.246   3.884  14.114  0.3569 -0.4661  0.4605
 7183SOL    HW133185   2.164   3.901  14.160 -0.5311 -1.5728 -0.7491
 7183SOL    HW233186   2.257   3.794  14.146 -2.5290 -1.2031 -0.6226
 7184SOL     OW33187   0.882   2.596   5.336  0.6267 -0.3526  0.4197
 7184SOL    HW133188   0.863   2.577   5.428 -2.0846 -0.9603 -0.2669
 7184SOL    HW233189   0.881   2.691   5.349 -2.1955 -0.6397  2.2857
 7185SOL     OW33190   2.530   0.490   4.265 -0.4672  0.8355 -0.6510
 7185SOL    HW133191   2.514   0.444   4.347 -0.1196  2.3331  0.2525
 7185SOL    HW233192   2.575   0.423   4.212  2.1640  2.3291 -0.2936
 7186SOL     OW33193   2.881   0.334  11.544 -0.3066  0.3227  0.0268
 7186SOL    HW133194   2.917   0.349  11.457  0.1157  2.3421  0.5578
 7186SOL    HW233195   2.825   0.258  11.530  2.6669 -1.5074 -1.9291
 7187SOL     OW33196   4.637   3.827   5.690 -0.0900 -0.1277  0.0554
 7187SOL    HW133197   4.606   3.797   5.605  0.0999  1.1802 -0.4811
 7187SOL    HW233198   4.614   3.920   5.683  0.4465 -0.0280 -0.3489
 7188SOL     OW33199   3.537   2.974   6.894  0.2442 -0.4378 -0.5262
 7188SOL    HW133200   3.470   2.909   6.871 -0.1595  0.5992 -2.3196
 7188SOL    HW233201   3.608   2.919   6.928  0.3139  0.6918  1.1230
 7189SOL     OW33202   0.985   2.152   9.128  0.2006 -0.4004 -0.0774
 7189SOL    HW133203   0.930   2.230   9.127 -0.9037 -1.2024 -1.6571
 7189SOL    HW233204   1.074   2.178   9.153 -0.2112  0.7996  0.0993
 7190SOL     OW33205   0.170   3.477  15.065 -0.1215 -0.1622  0.3340
 7190SOL    HW133206   0.096   3.536  15.076 -0.3745 -0.0486 -2.1601
 7190SOL    HW233207   0.155   3.459  14.973  0.3290 -1.7975  0.5730
 7191SOL     OW33208   4.672   1.443   4.794 -0.0177  0.6664 -0.5503
 7191SOL    HW133209   4.602   1.477   4.850  0.6881  0.9799  0.1491
 7191SOL    HW233210   4.717   1.516   4.752  1.4015 -1.3384 -2.5180
 7192SOL     OW33211   0.518   0.961   7.214  0.3165  0.0749  0.0995
 7192SOL    HW133212   0.556   0.873   7.212  2.2774  0.9433 -0.8329
 7192SOL    HW233213   0.427   0.946   7.187  0.2340  1.5075 -0.4110
 7193SOL     OW33214   3.692   0.460   2.727  0.0962 -0.2580  0.9377
 7193SOL    HW133215   3.661   0.380   2.770  1.1876 -1.1839 -0.0019
 7193SOL    HW233216   3.787   0.450   2.740  0.3509 -0.6230 -1.3423
 7194SOL     OW33217   3.187   0.409   3.974 -0.3940  0.4032  0.1264
 7194SOL    HW133218   3.215   0.489   4.017 -0.3415 -0.0341  0.8977
 7194SOL    HW233219   3.125   0.379   4.041  0.2415  0.8541  0.9130
 7195SOL     OW33220   2.461   0.051   5.394 -0.5440 -0.0359  0.2467
 7195SOL    HW133221   2.407   0.086   5.465  0.2656 -0.6534  1.1708
 7195SOL    HW233222   2.420   4.702   5.384 -2.0869  0.6411  0.8664
 7196SOL     OW33223   4.672   2.243   6.698 -0.0961 -0.2616 -0.4688
 7196SOL    HW133224   0.006   2.288   6.744 -0.2724 -0.5787  0.1047
 7196SOL    HW233225   4.598   2.244   6.759  0.3632  0.5223  0.0764
 7197SOL     OW33226   2.362   4.671   4.851 -0.7537  0.2025 -0.1352
 7197SOL    HW133227   2.286   4.612   4.846 -1.8821  1.6180  0.0690
 7197SOL    HW233228   2.388   4.661   4.942  1.1322  2.5983 -0.4153
 7198SOL     OW33229   1.356   4.248  14.973  0.2163  0.1109  0.1211
 7198SOL    HW133230   1.431   4.300  15.000  0.5196 -1.4904  2.3701
 7198SOL    HW233231   1.403   4.166  14.965 -1.9960 -1.1120 -0.4254
 7199SOL     OW33232   2.309   0.565   8.696 -0.0158 -1.1318 -0.3123
 7199SOL    HW133233   2.373   0.534   8.631  0.7037  1.5629 -0.8795
 7199SOL    HW233234   2.232   0.524   8.658 -1.8604 -0.1130  2.3960
 7200SOL     OW33235   1.695   1.442   6.090 -0.0892  0.3996 -0.2097
 7200SOL    HW133236   1.688   1.510   6.158 -0.8171 -2.4000  2.5151
 7200SOL    HW233237   1.713   1.492   6.010  3.9792 -0.4075  0.1895
 7201SOL     OW33238   2.046   0.791   4.322  0.3597 -0.6555 -0.0654
 7201SOL    HW133239   2.122   0.783   4.381  0.5611  2.8143  0.1254
 7201SOL    HW233240   1.992   0.850   4.375  0.0324 -0.7614 -0.2827
 7202SOL     OW33241   1.422   3.992  15.005 -0.3092 -0.0454  0.3042
 7202SOL    HW133242   1.437   3.990  15.099  0.1197  0.4562  0.2439
 7202SOL    HW233243   1.433   3.902  14.975 -0.0866  0.0765  0.0109
 7203SOL     OW33244   3.242   1.766   6.541  0.0904  0.1718 -0.1255
 7203SOL    HW133245   3.238   1.853   6.582  1.0929 -0.1176  0.5781
 7203SOL    HW233246   3.262   1.791   6.451 -0.1430 -2.2675 -0.8549
 7204SOL     OW33247   0.065   2.544   7.890  0.7293 -0.6152 -0.4325
 7204SOL    HW133248   0.088   2.592   7.970  0.5758  1.5232 -1.6595
 7204SOL    HW233249   0.107   2.596   7.821  3.5001 -0.5850  1.2817
 7205SOL     OW33250   4.518   2.161   1.666 -0.2881 -0.2659  0.5978
 7205SOL    HW133251   4.542   2.219   1.593 -0.4297  2.3002  2.5875
 7205SOL    HW233252   4.574   2.088   1.639  2.1370  0.9519  2.2728
 7206SOL     OW33253   1.366   3.896   6.638  0.1052 -0.2860  0.1861
 7206SOL    HW133254   1.311   3.907   6.561  0.3220  0.7815  0.1767
 7206SOL    HW233255   1.455   3.885   6.604  0.1798 -0.8467  0.5682
 7207SOL     OW33256   2.242   2.031   3.614 -0.2825  0.5883  0.2662
 7207SOL    HW133257   2.177   1.967   3.644 -0.6987  1.9388  2.2232
 7207SOL    HW233258   2.213   2.119   3.635 -0.3333  0.8635 -0.9959
 7208SOL     OW33259   0.698   3.839   2.809 -0.4070 -0.2925  0.4498
 7208SOL    HW133260   0.688   3.915   2.753 -1.3431 -0.6062  0.1973
 7208SOL    HW233261   0.606   3.820   2.826 -0.7030  1.5673  0.9201
 7209SOL     OW33262   1.665   3.970  16.055 -0.2684  0.3683  0.6601
 7209SOL    HW133263   1.747   3.921  16.045 -0.9321  0.1169 -3.3757
 7209SOL    HW233264   1.624   3.964  15.969  1.7018  4.1484 -0.5080
 7210SOL     OW33265   2.054   4.034   7.534  0.0202 -0.1434 -0.4604
 7210SOL    HW133266   2.112   4.053   7.608 -1.2067  1.3342  0.1173
 7210SOL    HW233267   2.085   4.101   7.473  1.9020 -1.4497 -0.9307
 7211SOL     OW33268   0.845   1.809   9.776  0.2184  0.2532 -0.2775
 7211SOL    HW133269   0.897   1.785   9.853  0.5231  0.5268 -0.3988
 7211SOL    HW233270   0.863   1.741   9.711  0.7103 -0.9546  1.1219
 7212SOL     OW33271   1.677   3.068   4.257  0.1547  0.4599 -0.4284
 7212SOL    HW133272   1.698   3.048   4.165  1.5038  1.8068 -0.4245
 7212SOL    HW233273   1.636   3.154   4.248 -0.0583  0.1614 -2.3243
 7213SOL     OW33274   3.939   0.266  13.128 -0.0944  0.1797 -0.1171
 7213SOL    HW133275   3.846   0.282  13.143 -0.2396 -0.4732 -0.3140
 7213SOL    HW233276   3.964   0.317  13.204 -0.2348 -0.8552  0.6305
 7214SOL     OW33277   3.591   3.166   4.341  0.3942 -0.5756  0.4018
 7214SOL    HW133278   3.501   3.195   4.356  0.9226  0.4458  1.6280
 7214SOL    HW233279   3.647   3.218   4.399  1.2994  0.0855 -1.0630
 7215SOL     OW33280   3.668   1.024  14.546  0.1371 -0.8616 -0.2327
 7215SOL    HW133281   3.631   1.110  14.562 -0.6906 -0.9303 -1.8029
 7215SOL    HW233282   3.621   0.967  14.607  1.1573 -0.6972  0.6993
 7216SOL     OW33283   1.565   4.297   2.360  0.5021 -0.1144  0.2106
 7216SOL    HW133284   1.578   4.212   2.318  0.4716  0.5209 -1.0593
 7216SOL    HW233285   1.620   4.282   2.437 -0.4411 -0.1637  0.8749
 7217SOL     OW33286   3.283   2.172  16.181  0.0573  0.6348 -0.2908
 7217SOL    HW133287   3.199   2.130  16.162 -0.2026  0.3686  1.4579
 7217SOL    HW233288   3.253   2.263  16.175 -0.4540  0.3484 -1.9899
 7218SOL     OW33289   2.086   2.532  15.429 -0.0181 -0.0061  0.3630
 7218SOL    HW133290   2.178   2.522  15.453 -0.1864 -0.0606  1.0006
 7218SOL    HW233291   2.058   2.452  15.474 -1.7786 -0.9897 -2.5587
 7219SOL     OW33292   0.867   3.309   6.039  0.2144 -0.0093  0.1700
 7219SOL    HW133293   0.774   3.329   6.047 -0.0817 -0.2280 -2.5247
 7219SOL    HW233294   0.858   3.214   6.029  2.0122  0.0719 -2.1988
 7220SOL     OW33295   0.514   1.472  12.971  0.5276  0.4502 -0.2276
 7220SOL    HW133296   0.452   1.521  13.025  0.2920  0.3460 -0.4023
 7220SOL    HW233297   0.459   1.416  12.916  0.8042  0.2547 -0.3052
 7221SOL     OW33298   1.519   1.640   4.394  0.1241 -0.1604  0.5254
 7221SOL    HW133299   1.542   1.574   4.328  1.4806 -1.2541  2.0761
 7221SOL    HW233300   1.432   1.607   4.416 -0.0158  1.2913  2.1338
 7222SOL     OW33301   1.930   1.006   1.997  0.2964 -0.4761 -0.1665
 7222SOL    HW133302   2.013   1.036   1.959 -0.2557 -1.2776 -2.0274
 7222SOL    HW233303   1.959   0.985   2.085  1.0689 -0.7876 -0.4920
 7223SOL     OW33304   0.285   4.042   4.479 -0.9181  0.1633  0.2137
 7223SOL    HW133305   0.213   3.982   4.498 -1.0785  0.2082 -0.2331
 7223SOL    HW233306   0.353   3.983   4.511  0.2508  1.6199  0.4276
 7224SOL     OW33307   1.603   3.592  14.738  0.0367  0.2722  0.4536
 7224SOL    HW133308   1.605   3.679  14.777  1.2893 -0.2482  1.5773
 7224SOL    HW233309   1.576   3.607  14.648  0.2457  0.5989  0.4448
 7225SOL     OW33310   3.873   3.477  14.240 -0.0443  0.5500  0.4316
 7225SOL    HW133311   3.843   3.424  14.314 -1.3466  0.3757 -0.2136
 7225SOL    HW233312   3.939   3.537  14.275 -0.9165  1.2778  0.8277
 7226SOL     OW33313   3.640   2.117  13.910  0.6973  0.2679 -0.4825
 7226SOL    HW133314   3.608   2.154  13.828  0.8995 -0.1610 -0.7546
 7226SOL    HW233315   3.560   2.134  13.960  0.6235 -1.2347 -0.0874
 7227SOL     OW33316   1.528   3.891   8.264 -0.1757 -0.1856  0.2162
 7227SOL    HW133317   1.462   3.903   8.332  0.5229  2.2717  0.4303
 7227SOL    HW233318   1.577   3.813   8.292  0.9815  0.4141 -0.1526
 7228SOL     OW33319   3.517   3.018   4.748  0.5090 -0.3831 -0.0151
 7228SOL    HW133320   3.597   3.043   4.702  0.1614 -1.7322 -1.3576
 7228SOL    HW233321   3.543   3.068   4.825 -1.4122  2.1221 -1.0077
 7229SOL     OW33322   4.606   1.835   1.737 -0.2032  0.4902  0.0549
 7229SOL    HW133323   4.638   1.899   1.800  0.7843 -0.6078  0.6710
 7229SOL    HW233324   4.555   1.778   1.794  0.7204  0.0230  0.3989
 7230SOL     OW33325   3.846   2.788   4.298  0.2133  0.1012 -0.3738
 7230SOL    HW133326   3.753   2.811   4.305  0.3315  0.1260  1.1405
 7230SOL    HW233327   3.854   2.710   4.353  0.0256  0.4229  0.1033
 7231SOL     OW33328   3.244   4.101   8.720  0.0020  0.1500 -0.6013
 7231SOL    HW133329   3.246   4.155   8.799 -1.3694 -0.4099 -0.1806
 7231SOL    HW233330   3.335   4.115   8.693 -0.0619 -0.8669 -1.3532
 7232SOL     OW33331   1.035   3.246  15.709  0.5409  0.1673 -0.4278
 7232SOL    HW133332   1.075   3.268  15.625  0.6311  5.2572  0.9972
 7232SOL    HW233333   0.969   3.178  15.695 -0.0362  0.5817  0.3022
 7233SOL     OW33334   1.788   4.044  13.315 -0.5729 -0.4286 -0.5505
 7233SOL    HW133335   1.700   4.029  13.350  0.0187  0.0839  1.1675
 7233SOL    HW233336   1.833   4.081  13.391  1.1936  0.8661 -2.2292
 7234SOL     OW33337   4.047   0.503   2.583 -0.6610  0.5975  0.0806
 7234SOL    HW133338   3.985   0.550   2.528 -0.2684  0.2184 -0.6958
 7234SOL    HW233339   4.121   0.518   2.524 -2.4666 -0.7895 -2.5669
 7235SOL     OW33340   1.465   2.364   3.299 -0.1756  0.1199  0.1930
 7235SOL    HW133341   1.540   2.313   3.328 -0.1894  0.8520  1.5222
 7235SOL    HW233342   1.408   2.377   3.375  1.2746 -0.3808  1.3431
 7236SOL     OW33343   1.853   2.141   5.120  0.4137 -0.5732  0.0861
 7236SOL    HW133344   1.885   2.051   5.126 -1.3480 -1.4395 -3.6735
 7236SOL    HW233345   1.787   2.136   5.189  1.4681 -0.0147  1.1407
 7237SOL     OW33346   2.246   3.561   7.756  0.2418  0.2293 -0.2022
 7237SOL    HW133347   2.253   3.517   7.671 -0.2692  1.0505 -0.6784
 7237SOL    HW233348   2.190   3.495   7.796 -0.2797  0.8799  0.1287
 7238SOL     OW33349   1.105   0.948  16.343 -0.3271 -0.6038 -0.4714
 7238SOL    HW133350   1.016   0.949  16.378  0.3961 -0.5037  1.3397
 7238SOL    HW233351   1.141   0.868  16.381  1.0751  0.9361  1.4063
 7239SOL     OW33352   4.688   3.919   8.187  0.1811  0.0285 -0.9609
 7239SOL    HW133353   4.680   3.835   8.141  1.4561 -0.1726 -0.8240
 7239SOL    HW233354   0.047   3.921   8.184  0.1913  1.7663  0.1769
 7240SOL     OW33355   3.051   1.557   1.807  0.2415  0.3023 -0.5541
 7240SOL    HW133356   3.130   1.507   1.786  0.3041  1.0767 -2.1560
 7240SOL    HW233357   3.001   1.559   1.725 -3.6201 -0.5916  1.7521
 7241SOL     OW33358   4.428   3.940   7.917 -0.6644  0.5857  0.4962
 7241SOL    HW133359   4.441   4.031   7.943 -1.2164  0.9426 -0.4490
 7241SOL    HW233360   4.508   3.932   7.865 -0.8899 -1.0764  0.4115
 7242SOL     OW33361   1.161   3.026   5.090 -0.1204  0.3145 -0.2712
 7242SOL    HW133362   1.213   2.977   5.154 -0.6852  0.0877  0.0098
 7242SOL    HW233363   1.214   3.016   5.010  1.6432  3.4835  0.4850
 7243SOL     OW33364   0.745   2.573  15.264  0.6999 -0.1470  0.6242
 7243SOL    HW133365   0.772   2.516  15.192 -0.5320  2.4037 -1.8561
 7243SOL    HW233366   0.782   2.658  15.239  0.3926 -0.5004 -1.0135
 7244SOL     OW33367   4.200   0.022   2.964 -0.1563  0.0901  0.2527
 7244SOL    HW133368   4.291   0.022   2.934 -1.1889  1.7435 -2.9330
 7244SOL    HW233369   4.200   4.683   3.022  2.9874  0.0941  0.2246
 7245SOL     OW33370   1.682   4.418   3.017  0.8960 -0.2795 -0.2481
 7245SOL    HW133371   1.741   4.487   2.986  0.8828  0.2338  0.8550
 7245SOL    HW233372   1.694   4.413   3.112  0.6471 -0.8203 -0.2466
 7246SOL     OW33373   1.512   2.615   4.674 -0.1627 -0.4331 -0.0424
 7246SOL    HW133374   1.526   2.703   4.638  0.1718 -0.2014  0.6460
 7246SOL    HW233375   1.437   2.579   4.627 -1.2975  1.1389  0.5675
 7247SOL     OW33376   4.058   4.187   7.074  0.4813  0.4133 -0.3545
 7247SOL    HW133377   4.014   4.272   7.078 -0.6099 -0.2210  1.2414
 7247SOL    HW233378   3.985   4.126   7.078  0.5548  0.3056 -0.6904
 7248SOL     OW33379   1.930   1.735   4.006 -0.0847  0.1825  0.4846
 7248SOL    HW133380   1.980   1.654   3.992  2.7496  1.9614  0.2596
 7248SOL    HW233381   1.899   1.720   4.096  1.5589  0.9653  1.1803
 7249SOL     OW33382   4.378   4.166   1.676 -0.3646 -0.0790  0.1655
 7249SOL    HW133383   4.377   4.207   1.590 -1.7248  1.6853  1.0119
 7249SOL    HW233384   4.377   4.075   1.646 -0.5599 -0.8199  2.4492
 7250SOL     OW33385   4.391   3.841  14.159  0.7689 -0.1705  0.4658
 7250SOL    HW133386   4.428   3.817  14.074 -1.2362  1.4484 -0.8649
 7250SOL    HW233387   4.301   3.808  14.154 -0.1256  2.6738 -2.3050
 7251SOL     OW33388   3.319   4.027   7.496 -0.2066  0.2123 -0.3452
 7251SOL    HW133389   3.368   4.038   7.578 -1.9353 -0.6222  0.7878
 7251SOL    HW233390   3.280   4.114   7.503 -2.8604 -0.9337 -0.9922
 7252SOL     OW33391   4.650   4.725   8.206 -0.1415 -0.9604  0.0593
 7252SOL    HW133392   0.001   4.709   8.243 -0.9862 -1.7432  1.7509
 7252SOL    HW233393   4.643   4.643   8.157 -0.1350 -1.9389  1.6787
 7253SOL     OW33394   3.203   0.776  16.247 -0.3773  0.1325  0.1664
 7253SOL    HW133395   3.250   0.771  16.164 -1.3953  0.2445 -0.4132
 7253SOL    HW233396   3.119   0.815  16.223 -0.6851  1.7191  3.8067
 7254SOL     OW33397   1.183   3.666  10.874 -0.1357 -0.0103  0.0377
 7254SOL    HW133398   1.130   3.740  10.845 -1.4321 -1.5803 -1.6119
 7254SOL    HW233399   1.269   3.701  10.898 -1.9481  3.1790  1.8385
 7255SOL     OW33400   0.362   2.137  17.206 -0.1746  0.1561 -0.1041
 7255SOL    HW133401   0.341   2.200  17.137  2.5295  0.9942 -0.1541
 7255SOL    HW233402   0.337   2.062  17.151  0.7954 -1.9544  2.3377
 7256SOL     OW33403   0.736   3.090   3.458 -0.0858 -0.3217 -0.9460
 7256SOL    HW133404   0.702   3.022   3.517 -0.8989 -1.4123 -2.6523
 7256SOL    HW233405   0.656   3.136   3.435 -0.0270  0.9323  1.4314
 7257SOL     OW33406   1.557   2.372  14.058 -0.1963 -0.8245 -0.2859
 7257SOL    HW133407   1.583   2.401  14.145 -0.8229  2.5100 -1.2090
 7257SOL    HW233408   1.584   2.447  14.004  1.4089 -1.5143 -0.4355
 7258SOL     OW33409   4.269   1.333   2.937  0.1903  0.0735  0.3534
 7258SOL    HW133410   4.209   1.378   2.996 -1.9442 -1.8539 -0.3443
 7258SOL    HW233411   4.234   1.244   2.932 -0.1256  0.3540 -2.6498
 7259SOL     OW33412   4.232   2.025   6.158  0.0536  0.5017  0.1162
 7259SOL    HW133413   4.278   2.081   6.221  1.5105 -0.7775  0.2002
 7259SOL    HW233414   4.198   2.078   6.086  2.7513  0.1700 -1.3968
 7260SOL     OW33415   4.179   3.491   7.299 -0.0588  0.1294 -0.1351
 7260SOL    HW133416   4.215   3.437   7.229  1.2169 -1.5024  1.8138
 7260SOL    HW233417   4.171   3.428   7.370  1.3213  0.6408  0.4790
 7261SOL     OW33418   4.234   0.372   6.791 -0.2000 -0.2659  0.3814
 7261SOL    HW133419   4.251   0.422   6.870 -1.5968 -0.2403  0.6593
 7261SOL    HW233420   4.311   0.314   6.790  1.1328  1.5079  0.7576
 7262SOL     OW33421   3.908   2.333   9.557  0.0637  0.4742 -0.3809
 7262SOL    HW133422   3.869   2.245   9.556  2.7393 -0.6878 -1.3009
 7262SOL    HW233423   3.831   2.388   9.542 -0.0303  1.2533  2.9616
 7263SOL     OW33424   2.229   1.810   8.254  0.6698 -0.3719  0.8018
 7263SOL    HW133425   2.270   1.872   8.193 -0.8732  0.4118  0.5400
 7263SOL    HW233426   2.307   1.782   8.300  1.3734 -0.2899 -0.3399
 7264SOL     OW33427   1.675   2.759  15.304  0.5050 -0.3405  0.2273
 7264SOL    HW133428   1.747   2.708  15.269 -0.2306 -1.2363  0.0066
 7264SOL    HW233429   1.662   2.825  15.236  0.5592 -1.9206 -1.3279
 7265SOL     OW33430   3.345   1.419   3.684  0.2894 -0.0436  0.0749
 7265SOL    HW133431   3.318   1.500   3.727 -2.6004 -0.2502 -1.3074
 7265SOL    HW233432   3.301   1.356   3.740 -1.1878 -0.1532 -1.2046
 7266SOL     OW33433   1.350   1.197   3.103  0.0257 -0.6709 -0.3289
 7266SOL    HW133434   1.446   1.200   3.107 -0.1983  2.9184  1.5769
 7266SOL    HW233435   1.341   1.126   3.167 -3.2712  1.4503  1.5293
 7267SOL     OW33436   3.538   4.590   6.128  0.3648  0.0919  0.1136
 7267SOL    HW133437   3.567   4.648   6.058 -1.4102 -0.4191 -1.0589
 7267SOL    HW233438   3.457   4.551   6.093  0.2224  0.9224 -0.4786
 7268SOL     OW33439   2.123   0.661   0.450 -0.0224 -0.0884 -0.1336
 7268SOL    HW133440   2.136   0.617   0.366 -0.8291  0.2892 -0.4579
 7268SOL    HW233441   2.027   0.666   0.447  0.0030  1.0300  0.7305
 7269SOL     OW33442   0.993   0.721  13.177 -0.2378  0.5360 -0.0099
 7269SOL    HW133443   0.927   0.652  13.173 -0.6771  0.8072  2.2978
 7269SOL    HW233444   1.018   0.732  13.269  1.1582  0.4961 -0.3863
 7270SOL     OW33445   4.330   3.285   8.047  0.6442 -0.1321  0.0454
 7270SOL    HW133446   4.394   3.278   8.118  1.4173  1.0053 -0.5299
 7270SOL    HW233447   4.365   3.216   7.992  0.0972  0.1745 -0.6879
 7271SOL     OW33448   0.952   0.593   9.388 -0.1617 -0.0608  0.2410
 7271SOL    HW133449   0.882   0.581   9.453 -0.4330  0.0618 -0.0274
 7271SOL    HW233450   0.909   0.631   9.311 -2.3693 -3.0575 -0.0051
 7272SOL     OW33451   3.022   0.230   1.620 -0.1230 -0.2357  0.0405
 7272SOL    HW133452   3.063   0.310   1.588  0.6463 -0.0326  1.5135
 7272SOL    HW233453   3.093   0.166   1.626  1.2636  1.1288 -1.9686
 7273SOL     OW33454   1.590   3.676   4.008 -0.6224  0.0149 -0.3577
 7273SOL    HW133455   1.596   3.653   3.915  2.1347 -0.1997 -0.1318
 7273SOL    HW233456   1.569   3.588   4.040  1.9237  0.7324  3.2218
 7274SOL     OW33457   4.625   3.469   8.494  0.4940 -0.7407  0.9866
 7274SOL    HW133458   4.718   3.492   8.502 -0.2936  1.8066  2.7959
 7274SOL    HW233459   4.596   3.537   8.434 -0.0642 -1.9007 -0.0484
 7275SOL     OW33460   1.601   3.585  12.164  0.7657 -0.2736  0.4836
 7275SOL    HW133461   1.578   3.515  12.102  1.7562 -0.2869  0.1310
 7275SOL    HW233462   1.518   3.632  12.165 -0.3738 -2.2324 -1.3639
 7276SOL     OW33463   4.424   1.369  11.843  0.1948 -0.1694  0.0336
 7276SOL    HW133464   4.389   1.371  11.931 -0.1537 -0.1433 -0.1062
 7276SOL    HW233465   4.512   1.404  11.857  1.1403 -1.9109 -1.5664
 7277SOL     OW33466   2.512   2.616   6.870  0.4481 -0.1696  0.6762
 7277SOL    HW133467   2.429   2.608   6.823 -0.8061  1.9195  2.5440
 7277SOL    HW233468   2.579   2.618   6.801 -1.4762  0.7118 -1.1573
 7278SOL     OW33469   2.075   2.404   7.312  0.1159 -0.4716 -0.0552
 7278SOL    HW133470   2.012   2.403   7.240 -0.6210 -1.2094  0.5846
 7278SOL    HW233471   2.110   2.315   7.311  0.0468 -0.4939 -0.4886
 7279SOL     OW33472   1.901   0.483   4.627  0.3211 -0.3903 -0.0665
 7279SOL    HW133473   1.943   0.546   4.685 -1.9047  1.9682 -1.0204
 7279SOL    HW233474   1.948   0.408   4.664  0.0084 -0.6133 -0.1180
 7280SOL     OW33475   3.441   4.711   7.319  0.6752  0.4230  0.4085
 7280SOL    HW133476   3.362   0.024   7.296  0.6663  0.8080  1.2665
 7280SOL    HW233477   3.421   4.681   7.408  2.0275  0.1282  0.6209
 7281SOL     OW33478   2.294   0.644   1.768  0.3958  0.4196  0.0064
 7281SOL    HW133479   2.367   0.582   1.765 -0.7821 -0.9228 -1.3518
 7281SOL    HW233480   2.276   0.655   1.675 -1.7720  1.3690  0.5459
 7282SOL     OW33481   3.049   3.431   4.318 -0.3962 -0.0346  0.1314
 7282SOL    HW133482   3.080   3.390   4.399  1.4556  1.6031  0.2390
 7282SOL    HW233483   2.971   3.483   4.337  0.1896  0.4402  1.2342
 7283SOL     OW33484   0.339   3.239  14.521  0.4622 -0.1086  0.2015
 7283SOL    HW133485   0.279   3.200  14.458  1.0852  0.4483 -0.7545
 7283SOL    HW233486   0.392   3.162  14.540  1.5239  1.2675  2.8168
 7284SOL     OW33487   4.305   1.192   5.664 -0.2646  0.2313 -0.6381
 7284SOL    HW133488   4.389   1.204   5.706 -0.8226 -1.0715  0.8432
 7284SOL    HW233489   4.329   1.139   5.588 -0.8988 -0.0948 -0.6152
 7285SOL     OW33490   4.700   0.376  13.687 -0.3265 -0.6242 -0.1033
 7285SOL    HW133491   4.626   0.320  13.665 -0.5394 -0.6484  0.6704
 7285SOL    HW233492   0.029   0.355  13.621  0.8679  3.0600 -0.1199
 7286SOL     OW33493   2.093   2.449  14.156 -0.4178  0.5292 -0.0643
 7286SOL    HW133494   2.126   2.402  14.233 -0.5559 -0.2158 -0.4534
 7286SOL    HW233495   2.151   2.525  14.158 -1.1898  1.1452 -1.1914
 7287SOL     OW33496   1.613   2.345   2.898 -0.2381  0.3141 -0.3834
 7287SOL    HW133497   1.638   2.423   2.947  1.6161  0.3916 -1.4524
 7287SOL    HW233498   1.671   2.274   2.926 -0.6455  0.1701  0.1177
 7288SOL     OW33499   3.655   3.386  16.271 -0.1157  0.0404 -0.2869
 7288SOL    HW133500   3.678   3.437  16.349 -0.4042  0.9453 -0.7968
 7288SOL    HW233501   3.742   3.354  16.247  0.2568  1.3341 -0.6503
 7289SOL     OW33502   1.560   3.675   8.446 -0.0337  0.0917  0.6477
 7289SOL    HW133503   1.602   3.617   8.383 -2.3019  0.9121 -1.6155
 7289SOL    HW233504   1.568   3.635   8.533 -2.6486 -0.3500  0.6799
 7290SOL     OW33505   2.348   3.300   4.332 -0.2610  0.2373 -0.1077
 7290SOL    HW133506   2.303   3.344   4.404  1.1265 -0.2889  1.0657
 7290SOL    HW233507   2.264   3.275   4.292 -1.5501  3.3816  0.5903
 7291SOL     OW33508   2.610   0.102  16.187  0.8314  0.7532  0.0813
 7291SOL    HW133509   2.654   0.125  16.106  1.3360  0.3035  0.2335
 7291SOL    HW233510   2.523   0.142  16.176 -0.4069 -2.2982 -1.2060
 7292SOL     OW33511   4.387   3.942  17.195 -0.1450  0.0869  0.1669
 7292SOL    HW133512   4.468   3.982  17.228  1.1657 -1.3649 -1.2841
 7292SOL    HW233513   4.436   3.863  17.171 -0.2783  0.6227 -1.8724
 7293SOL     OW33514   3.117   1.668   8.365 -0.1083  0.3161  0.2098
 7293SOL    HW133515   3.078   1.586   8.334  1.0185 -1.2871  3.0223
 7293SOL    HW233516   3.036   1.718   8.369 -1.0069 -0.9408 -2.1474
 7294SOL     OW33517   3.184   0.559   5.001  0.2471  0.1469  0.8277
 7294SOL    HW133518   3.128   0.564   5.079 -0.8560 -0.4317  0.0706
 7294SOL    HW233519   3.129   0.613   4.945  2.8357  0.5102 -1.3774
 7295SOL     OW33520   3.559   3.536   8.538  0.4628  0.4712  0.9392
 7295SOL    HW133521   3.640   3.511   8.583  0.3229 -0.4613  0.6630
 7295SOL    HW233522   3.494   3.492   8.593  0.9301 -0.7570  0.5089
 7296SOL     OW33523   1.838   4.460   9.735  0.3795  0.3759  0.0826
 7296SOL    HW133524   1.867   4.523   9.801 -0.1657 -1.7225  2.3374
 7296SOL    HW233525   1.917   4.454   9.681 -0.4401 -1.2555 -0.9227
 7297SOL     OW33526   1.166   1.453   1.850 -0.1104  0.1021  0.1849
 7297SOL    HW133527   1.187   1.362   1.830 -0.8909  0.2125 -1.1524
 7297SOL    HW233528   1.226   1.480   1.920 -1.8286  2.4048  0.7924
 7298SOL     OW33529   3.487   1.777   3.797 -0.2520 -0.4072 -0.5668
 7298SOL    HW133530   3.408   1.739   3.757 -0.6916 -4.1481  3.8945
 7298SOL    HW233531   3.545   1.702   3.789  1.6359  1.0519 -0.5733
 7299SOL     OW33532   3.380   1.435  11.077  0.3333  0.4655 -0.6156
 7299SOL    HW133533   3.439   1.413  11.149  2.4486 -0.4898 -2.6600
 7299SOL    HW233534   3.399   1.527  11.059 -1.5284  1.5106  2.7601
 7300SOL     OW33535   0.718   1.491   6.838  0.6210  0.1490  0.1659
 7300SOL    HW133536   0.776   1.426   6.800 -0.2209 -0.6011  0.1640
 7300SOL    HW233537   0.636   1.443   6.843 -0.0310  1.2290  0.0134
 7301SOL     OW33538   3.534   1.231   5.091 -0.0287 -0.2543  0.2537
 7301SOL    HW133539   3.455   1.201   5.046 -0.1683  0.1857  0.1994
 7301SOL    HW233540   3.505   1.249   5.180 -0.7783  0.9805 -0.2390
 7302SOL     OW33541   2.345   1.053  14.789  0.2778 -0.0988 -0.4919
 7302SOL    HW133542   2.284   1.119  14.823  1.8318  1.0387  0.0959
 7302SOL    HW233543   2.421   1.110  14.776 -0.8796  1.7012  0.4878
 7303SOL     OW33544   2.121   2.536  12.358  0.3105  0.2688  0.1045
 7303SOL    HW133545   2.031   2.525  12.386  0.3257  1.9124  0.8092
 7303SOL    HW233546   2.166   2.578  12.432 -0.9853 -0.3187  1.2156
 7304SOL     OW33547   1.754   3.469   5.352 -0.2864 -0.4327  0.4409
 7304SOL    HW133548   1.742   3.443   5.261 -0.0308  0.5899  0.1088
 7304SOL    HW233549   1.828   3.416   5.380  0.5805  1.4211  1.6498
 7305SOL     OW33550   1.264   1.908   4.027 -0.0483 -0.2564 -0.4268
 7305SOL    HW133551   1.300   1.821   4.014  0.7218 -0.4705  3.2006
 7305SOL    HW233552   1.180   1.893   4.072  0.4910 -3.7345 -0.6190
 7306SOL     OW33553   1.073   1.697   1.149  0.2146  0.1102  0.2562
 7306SOL    HW133554   1.041   1.666   1.234 -2.5311  1.4754 -0.2774
 7306SOL    HW233555   1.098   1.788   1.167 -1.4990  1.0772 -2.3591
 7307SOL     OW33556   1.673   2.018   6.163 -1.0789 -0.0750  0.2003
 7307SOL    HW133557   1.605   1.997   6.227 -0.6683 -0.2145  0.5929
 7307SOL    HW233558   1.640   2.097   6.120  0.5081  0.0172 -0.8900
 7308SOL     OW33559   1.840   2.300   3.580 -0.4935 -0.3386 -0.1123
 7308SOL    HW133560   1.798   2.261   3.657  3.2193 -0.6690  1.7513
 7308SOL    HW233561   1.859   2.391   3.602  2.0333 -0.9052  0.0330
 7309SOL     OW33562   4.665   0.681   7.783 -0.3634  0.6368 -0.3270
 7309SOL    HW133563   4.623   0.599   7.759  0.6233  0.4403 -1.3761
 7309SOL    HW233564   4.700   0.649   7.866 -2.5787 -2.9102 -0.8108
 7310SOL     OW33565   2.153   0.798   2.394  0.5118  0.4122  0.4013
 7310SOL    HW133566   2.246   0.790   2.413  0.0712 -0.0008  2.4023
 7310SOL    HW233567   2.118   0.768   2.478  1.3219 -0.5221  0.3969
 7311SOL     OW33568   1.946   4.502   6.436 -0.2252  0.1060 -0.2128
 7311SOL    HW133569   1.859   4.534   6.459 -0.8058 -0.7105 -1.2886
 7311SOL    HW233570   2.003   4.576   6.457 -1.0609  0.2638  1.4817
 7312SOL     OW33571   3.792   0.635   4.241  0.7886  0.1699  0.3298
 7312SOL    HW133572   3.849   0.563   4.212  0.0210  0.0754 -0.9180
 7312SOL    HW233573   3.726   0.582   4.287  0.3276  0.9467  0.5515
 7313SOL     OW33574   2.901   1.030   7.601  0.9495 -0.2785  0.1307
 7313SOL    HW133575   2.843   0.985   7.662  1.4812 -3.7161 -1.9421
 7313SOL    HW233576   2.865   1.119   7.607 -1.7479 -1.1925 -2.3409
 7314SOL     OW33577   0.465   1.430   5.152 -0.2649  0.0529 -0.0290
 7314SOL    HW133578   0.477   1.517   5.114  2.1578 -0.1957  0.1519
 7314SOL    HW233579   0.382   1.437   5.198 -1.2932 -1.7702 -1.6005
 7315SOL     OW33580   3.475   2.266   7.182 -0.6739  0.0465  0.5527
 7315SOL    HW133581   3.391   2.312   7.190 -2.1496 -2.1086 -2.5780
 7315SOL    HW233582   3.498   2.244   7.272  1.2388  0.0354  0.0604
 7316SOL     OW33583   1.898   3.783   1.486  0.0680 -0.5571 -0.0906
 7316SOL    HW133584   1.977   3.756   1.532 -1.0982 -1.4940  1.3613
 7316SOL    HW233585   1.842   3.816   1.556 -2.4503 -1.3338 -1.7534
 7317SOL     OW33586   0.083   1.007   6.573 -0.2937 -0.8088 -0.1016
 7317SOL    HW133587   0.009   1.016   6.513 -0.9165  2.3944  1.1383
 7317SOL    HW233588   0.041   0.991   6.658 -0.1446 -3.0000 -0.4462
 7318SOL     OW33589   1.257   3.164   3.319 -0.2629  0.4696  0.0757
 7318SOL    HW133590   1.184   3.215   3.354 -0.1443  0.6858  0.0086
 7318SOL    HW233591   1.267   3.103   3.392  1.9384 -0.4293 -0.9852
 7319SOL     OW33592   0.611   3.035  13.132 -0.2351  1.3254  0.6952
 7319SOL    HW133593   0.585   2.979  13.059  0.8795  1.6348  0.0717
 7319SOL    HW233594   0.674   3.090  13.087 -0.2922  0.0389 -0.9499
 7320SOL     OW33595   1.605   2.878   2.929  0.1938  0.8908  0.0765
 7320SOL    HW133596   1.690   2.905   2.892  0.5824  1.1798  1.1791
 7320SOL    HW233597   1.632   2.864   3.020  0.5637 -0.8373 -0.3012
 7321SOL     OW33598   1.188   2.342   3.083  0.3891 -0.6034  0.5410
 7321SOL    HW133599   1.162   2.320   2.993  0.9778  2.5849 -0.4010
 7321SOL    HW233600   1.274   2.383   3.069 -1.0847  1.3749 -2.6403
 7322SOL     OW33601   2.891   1.217   3.626  0.4230 -0.1016  0.2470
 7322SOL    HW133602   2.893   1.296   3.679  2.9520  1.5410 -2.2973
 7322SOL    HW233603   2.803   1.181   3.639  0.7113 -0.5199  1.0285
 7323SOL     OW33604   1.113   2.231  12.140 -0.2095 -0.2121 -0.0319
 7323SOL    HW133605   1.188   2.274  12.182  1.1226 -1.0249 -1.5807
 7323SOL    HW233606   1.087   2.299  12.077 -1.8857  0.3864  1.3152
 7324SOL     OW33607   0.380   0.046  11.638 -0.4728  0.3571 -0.2722
 7324SOL    HW133608   0.319   0.104  11.590 -0.2218  0.6330 -0.2595
 7324SOL    HW233609   0.327   0.003  11.706 -2.1836  0.3522 -1.5984
 7325SOL     OW33610   0.374   1.483   4.780  0.1884  0.3294  1.0328
 7325SOL    HW133611   0.381   1.501   4.686  1.1805 -0.2439  0.9884
 7325SOL    HW233612   0.463   1.453   4.802  0.6591  1.7973  1.0969
 7326SOL     OW33613   0.833   1.350   7.949  0.1268  0.2109 -0.5623
 7326SOL    HW133614   0.796   1.262   7.946 -1.7223  1.0511 -2.4737
 7326SOL    HW233615   0.893   1.353   8.024 -0.8812  0.2585  0.2362
 7327SOL     OW33616   2.339   2.306   9.589  0.0520 -0.2831 -0.2374
 7327SOL    HW133617   2.289   2.291   9.670  0.5018 -2.2339 -0.3356
 7327SOL    HW233618   2.391   2.381   9.617  0.8579 -0.9044 -0.0690
 7328SOL     OW33619   3.771   3.194  11.684  0.1804  0.2155  0.1328
 7328SOL    HW133620   3.820   3.115  11.663 -0.6319  0.0964 -1.3457
 7328SOL    HW233621   3.836   3.263  11.698  0.6326  0.0049 -0.9176
 7329SOL     OW33622   4.684   0.818   2.230 -0.4351 -0.0279  0.2435
 7329SOL    HW133623   4.621   0.827   2.300  0.8645 -0.0720  1.4213
 7329SOL    HW233624   4.630   0.790   2.156  0.7116 -1.0769 -0.2039
 7330SOL     OW33625   2.063   3.456  12.975  0.5224 -0.3072 -0.0386
 7330SOL    HW133626   1.978   3.455  12.930 -0.0755  0.4997  1.0998
 7330SOL    HW233627   2.048   3.526  13.039 -4.2766 -2.0313  0.7466
 7331SOL     OW33628   2.736   3.789   5.543  0.0113 -0.5858 -0.4009
 7331SOL    HW133629   2.749   3.873   5.587 -3.7429  2.2940 -4.8618
 7331SOL    HW233630   2.671   3.738   5.593 -1.1406  1.2976  0.0133
 7332SOL     OW33631   2.637   2.858   6.554  0.1454  0.0086 -0.3664
 7332SOL    HW133632   2.601   2.901   6.631  0.9520  1.1665 -0.6370
 7332SOL    HW233633   2.564   2.861   6.491 -0.8853 -1.4506  0.7628
 7333SOL     OW33634   3.165   1.067   7.654  0.1352 -0.1018  0.4607
 7333SOL    HW133635   3.158   1.162   7.663 -2.6714 -0.4137  1.7618
 7333SOL    HW233636   3.078   1.062   7.616  1.4343  0.4070 -2.5514
 7334SOL     OW33637   2.164   1.329  15.188  0.4068  0.6627 -0.1686
 7334SOL    HW133638   2.241   1.386  15.175  0.1515  0.3713 -2.8692
 7334SOL    HW233639   2.134   1.334  15.279  0.4243  1.6361 -0.2072
 7335SOL     OW33640   1.027   2.192   8.015  0.0089 -0.0689  0.2794
 7335SOL    HW133641   0.962   2.244   8.063 -0.8565 -1.9501  1.1394
 7335SOL    HW233642   0.975   2.164   7.940  2.7581 -0.1239 -1.5952
 7336SOL     OW33643   0.967   4.659  16.951  0.8584  0.1011  0.0865
 7336SOL    HW133644   0.910   4.633  16.879  1.3806  2.6436 -1.2335
 7336SOL    HW233645   0.934   4.607  17.025  0.7149 -2.3342 -1.6819
 7337SOL     OW33646   1.357   0.123   7.670 -0.2650 -0.2496  0.2140
 7337SOL    HW133647   1.329   0.200   7.620  0.6986 -0.0606 -0.0413
 7337SOL    HW233648   1.356   0.062   7.596 -1.5018  1.6930 -1.3966
 7338SOL     OW33649   2.256   3.799   4.413 -0.2554 -0.2997 -0.2997
 7338SOL    HW133650   2.234   3.761   4.328  0.5894 -1.8230  0.1622
 7338SOL    HW233651   2.179   3.786   4.467  0.5820 -0.5079  0.8504
 7339SOL     OW33652   0.644   3.406  12.071 -0.0650 -1.1162  0.2215
 7339SOL    HW133653   0.648   3.456  11.989  3.1993  0.3316  1.2900
 7339SOL    HW233654   0.556   3.434  12.098 -0.8005 -2.3680 -0.8468
 7340SOL     OW33655   2.492   1.653  14.545  0.0047  0.3598  0.2881
 7340SOL    HW133656   2.526   1.569  14.577 -1.0021  0.2956  1.2283
 7340SOL    HW233657   2.405   1.630  14.510 -0.7085 -2.0824  3.6851
 7341SOL     OW33658   1.072   1.649   5.407  0.0726 -0.4286  0.2658
 7341SOL    HW133659   1.011   1.667   5.335  0.9283 -0.1150 -0.3694
 7341SOL    HW233660   1.082   1.729   5.459 -0.7854  0.7549 -1.3765
 7342SOL     OW33661   0.390   1.695   4.992 -0.1081  0.0832  0.1736
 7342SOL    HW133662   0.410   1.637   4.918 -2.9267 -1.5061  0.6696
 7342SOL    HW233663   0.296   1.711   4.989 -0.2074 -0.4971  0.1733
 7343SOL     OW33664   3.520   0.956   5.596  0.0069  0.1396 -0.1013
 7343SOL    HW133665   3.579   1.014   5.644 -1.4760  3.3593 -2.1513
 7343SOL    HW233666   3.446   1.010   5.566  0.5470  0.3849 -1.0031
 7344SOL     OW33667   1.343   1.506   9.354 -0.6743  0.7101  0.5985
 7344SOL    HW133668   1.303   1.563   9.288  1.0639  0.0066 -1.0694
 7344SOL    HW233669   1.436   1.504   9.334 -0.1655  1.0155  2.9142
 7345SOL     OW33670   1.170   1.219   8.015  0.4123 -0.1361  0.2593
 7345SOL    HW133671   1.181   1.128   7.990  0.7509  0.2948 -1.1798
 7345SOL    HW233672   1.263   1.235   8.030  0.7025 -0.6300 -0.9960
 7346SOL     OW33673   4.158   2.834   8.793  0.3222 -0.1333 -0.7618
 7346SOL    HW133674   4.125   2.911   8.839 -1.1603 -0.4608 -1.2625
 7346SOL    HW233675   4.094   2.766   8.814 -2.6341  2.5207 -0.9864
 7347SOL     OW33676   3.349   1.991  16.612 -0.4310 -0.8825  0.2866
 7347SOL    HW133677   3.321   1.901  16.595  1.2748 -1.1903 -0.9564
 7347SOL    HW233678   3.310   2.014  16.696 -0.6359 -0.2402  0.0167
 7348SOL     OW33679   0.585   2.461   2.972  0.2079 -0.2804 -0.7120
 7348SOL    HW133680   0.510   2.459   3.030  1.2022 -2.1182  0.5433
 7348SOL    HW233681   0.642   2.527   3.012  1.9976 -1.0815 -1.8980
 7349SOL     OW33682   0.387   1.656   8.691 -0.5426  0.1317 -0.3355
 7349SOL    HW133683   0.449   1.592   8.657  0.4142  1.6796 -1.5090
 7349SOL    HW233684   0.362   1.703   8.612  0.9448  1.0147 -0.3003
 7350SOL     OW33685   1.341   0.048   1.355  0.5308 -0.9291  0.3614
 7350SOL    HW133686   1.402   0.042   1.282  0.0335 -1.4271 -0.0183
 7350SOL    HW233687   1.355   0.136   1.388 -1.9517  0.0802 -1.2368
 7351SOL     OW33688   0.127   1.867   3.480 -0.8097  0.3199 -0.6714
 7351SOL    HW133689   0.139   1.840   3.389  0.4008  0.6562 -0.6030
 7351SOL    HW233690   0.134   1.963   3.478  0.0392  0.3239  2.5593
 7352SOL     OW33691   3.577   2.015   9.099 -0.0892  0.3050  0.7932
 7352SOL    HW133692   3.634   1.975   9.034 -2.1334 -1.5584  0.1181
 7352SOL    HW233693   3.561   1.941   9.159  2.8732 -0.6837  0.3367
 7353SOL     OW33694   4.706   4.027   3.088  0.1402 -0.0964 -0.4946
 7353SOL    HW133695   4.621   4.043   3.130 -0.7826  1.0458 -2.7666
 7353SOL    HW233696   0.020   4.086   3.143 -0.9011 -0.9990  1.4351
 7354SOL     OW33697   4.474   2.483   7.230 -0.7580 -0.3186 -0.1989
 7354SOL    HW133698   4.555   2.456   7.187 -0.5284 -0.2064  0.1624
 7354SOL    HW233699   4.440   2.524   7.151 -0.4325 -0.4000 -0.3814
 7355SOL     OW33700   3.225   3.747  16.243 -0.2540 -0.0117  0.3826
 7355SOL    HW133701   3.135   3.716  16.244 -0.0686 -0.5362  1.2715
 7355SOL    HW233702   3.247   3.710  16.329 -1.1552 -0.5868  0.3675
 7356SOL     OW33703   3.854   1.411   5.257  0.2923 -0.2937  0.0923
 7356SOL    HW133704   3.886   1.502   5.253  1.2495 -0.6538 -0.2856
 7356SOL    HW233705   3.758   1.419   5.263  0.0904 -1.0380 -1.9536
 7357SOL     OW33706   4.048   0.075  12.090  0.1298 -0.6541  0.4615
 7357SOL    HW133707   4.080   4.729  12.055 -1.5165 -1.0345 -0.1522
 7357SOL    HW233708   3.954   0.059  12.078  0.4121 -0.3330 -2.0423
 7358SOL     OW33709   0.851   1.381   5.179  0.2020  0.1169 -0.1094
 7358SOL    HW133710   0.818   1.455   5.127 -0.0532  0.4557  0.5268
 7358SOL    HW233711   0.909   1.337   5.117 -3.1373  2.1668 -4.7001
 7359SOL     OW33712   4.057   4.292   2.604 -0.2722  0.0845 -0.3491
 7359SOL    HW133713   3.962   4.301   2.601 -0.1500  1.4446  0.0889
 7359SOL    HW233714   4.065   4.305   2.698 -0.9975  2.0444 -0.5584
 7360SOL     OW33715   1.069   1.702   2.776 -0.3565  0.1108 -0.7465
 7360SOL    HW133716   0.995   1.642   2.766 -0.1363 -0.1954 -0.5594
 7360SOL    HW233717   1.146   1.649   2.756 -1.2175 -0.8938 -1.4206
 7361SOL     OW33718   1.855   3.184   7.633 -0.0162 -0.2113  0.2256
 7361SOL    HW133719   1.804   3.104   7.651 -1.2220 -0.3340 -3.6220
 7361SOL    HW233720   1.785   3.233   7.589  1.9215  0.4039 -2.1677
 7362SOL     OW33721   3.767   4.243   3.852 -0.2283 -0.6298 -0.1180
 7362SOL    HW133722   3.735   4.333   3.855 -0.2730 -0.6019 -1.3744
 7362SOL    HW233723   3.791   4.234   3.760 -1.9356 -0.9906 -0.5227
 7363SOL     OW33724   0.696   4.314   7.355 -0.1938 -0.0020 -0.4186
 7363SOL    HW133725   0.703   4.222   7.379  1.4386  0.5412  1.2290
 7363SOL    HW233726   0.616   4.336   7.404  1.6678  1.9651  1.7842
 7364SOL     OW33727   1.814   0.312  11.815  0.1191  0.3862 -0.6978
 7364SOL    HW133728   1.836   0.400  11.784  0.3727  0.6368  0.1841
 7364SOL    HW233729   1.854   0.318  11.901  1.7917 -1.0787 -1.3689
 7365SOL     OW33730   0.963   3.882  11.109  0.2982 -0.2260 -0.0305
 7365SOL    HW133731   0.971   3.839  11.024  0.6417 -1.3763  0.5867
 7365SOL    HW233732   1.048   3.925  11.120  0.5684 -1.0962  1.2073
 7366SOL     OW33733   4.719   3.152  13.605 -0.0391 -0.1412 -0.0397
 7366SOL    HW133734   4.694   3.102  13.527  1.2103 -2.6348  1.1289
 7366SOL    HW233735   4.731   3.236  13.562  0.6320  0.4146  1.2451
 7367SOL     OW33736   4.667   2.519  13.494  0.3230 -0.0040  0.2541
 7367SOL    HW133737   4.699   2.434  13.465 -1.2717 -1.0054  1.4067
 7367SOL    HW233738   4.668   2.502  13.588 -0.2333 -0.0316  0.2571
 7368SOL     OW33739   4.619   4.163   6.388  0.0357 -0.3298  0.3817
 7368SOL    HW133740   4.694   4.214   6.358 -1.0821  1.3519  0.4664
 7368SOL    HW233741   4.637   4.072   6.361  1.2293 -0.4075  1.4383
 7369SOL     OW33742   0.139   0.284  10.802 -0.4288 -0.2518  0.0830
 7369SOL    HW133743   0.229   0.256  10.787 -0.6897 -0.4012 -1.2299
 7369SOL    HW233744   0.122   0.324  10.717  0.2077 -2.5932 -1.1672
 7370SOL     OW33745   2.835   2.134   8.515  0.2385 -0.3556  0.2831
 7370SOL    HW133746   2.753   2.177   8.536 -0.0934 -1.5107  1.3601
 7370SOL    HW233747   2.806   2.066   8.453 -0.8224  0.5672 -0.2169
 7371SOL     OW33748   2.744   3.825  11.444  0.5089  0.4915  0.1204
 7371SOL    HW133749   2.679   3.771  11.490 -0.2143  1.3686  0.1405
 7371SOL    HW233750   2.685   3.894  11.415  0.4675  0.1782 -0.5409
 7372SOL     OW33751   4.249   1.264   3.406 -0.3896  0.2882 -0.2577
 7372SOL    HW133752   4.207   1.303   3.482  1.5811  0.2628  0.8473
 7372SOL    HW233753   4.176   1.283   3.347 -2.6489  1.5815  2.9965
 7373SOL     OW33754   0.676   2.445   3.569  0.2809  0.1288  0.4416
 7373SOL    HW133755   0.767   2.474   3.573  0.5376 -0.7195  0.7047
 7373SOL    HW233756   0.670   2.384   3.643 -0.9970  1.3954  1.3966
 7374SOL     OW33757   4.241   3.292   3.281 -0.6502 -0.8333  0.4502
 7374SOL    HW133758   4.280   3.207   3.262 -0.2536 -0.9689  1.8637
 7374SOL    HW233759   4.201   3.277   3.367 -1.1748 -1.9353  0.0060
 7375SOL     OW33760   2.413   2.523   2.888  0.2116 -0.0564  0.2083
 7375SOL    HW133761   2.366   2.599   2.852 -0.4160 -0.4471  0.1954
 7375SOL    HW233762   2.368   2.449   2.848 -0.7840  1.9264 -2.4007
 7376SOL     OW33763   2.386   2.017   9.498  0.6471  0.1105 -0.1176
 7376SOL    HW133764   2.300   1.990   9.530 -0.2787  1.6394 -1.3203
 7376SOL    HW233765   2.387   2.104   9.538 -0.3427  0.4004 -0.7104
 7377SOL     OW33766   3.895   2.240   2.639  0.1025 -0.3900 -0.2434
 7377SOL    HW133767   3.892   2.336   2.644 -0.2678 -0.4316  0.3727
 7377SOL    HW233768   3.989   2.230   2.629  0.0266  0.4943 -1.7743
 7378SOL     OW33769   1.612   4.339  10.913 -0.7914  0.1232  0.0804
 7378SOL    HW133770   1.548   4.276  10.880  2.5480 -2.3972 -1.5988
 7378SOL    HW233771   1.680   4.331  10.846 -2.3880  2.2602 -1.7794
 7379SOL     OW33772   3.513   3.726   4.910 -0.0476 -0.3086  0.1613
 7379SOL    HW133773   3.556   3.697   4.829 -1.1454 -0.7676 -0.2553
 7379SOL    HW233774   3.500   3.648   4.963  2.5097 -0.0637  1.1650
 7380SOL     OW33775   0.796   2.808   7.464  0.7504  0.1192  0.0017
 7380SOL    HW133776   0.738   2.776   7.533  1.6888 -1.3436  0.1188
 7380SOL    HW233777   0.861   2.854   7.516 -0.7536  1.9795  0.2294
 7381SOL     OW33778   1.482   4.368   2.787  0.2611 -0.1370  0.3765
 7381SOL    HW133779   1.408   4.422   2.758 -0.1734 -1.9801 -1.8986
 7381SOL    HW233780   1.532   4.432   2.838 -0.4837 -0.4842  1.5253
 7382SOL     OW33781   0.951   1.705   5.910  0.1883  1.2909  0.3352
 7382SOL    HW133782   0.864   1.677   5.879  0.3048 -1.0441  2.0875
 7382SOL    HW233783   0.927   1.797   5.915  0.5561  1.4410 -0.7828
 7383SOL     OW33784   3.585   3.196   7.812  0.0457  0.2839  0.6577
 7383SOL    HW133785   3.566   3.276   7.762 -0.4921  0.4409  1.1185
 7383SOL    HW233786   3.540   3.211   7.895  1.3735 -0.0306  1.4338
 7384SOL     OW33787   3.092   0.669   3.441  0.7504 -0.3888  0.0099
 7384SOL    HW133788   3.125   0.738   3.383  0.4970  0.5506  0.9910
 7384SOL    HW233789   3.080   0.716   3.523  1.2589 -1.1791  0.5359
 7385SOL     OW33790   4.589   1.014  11.096  0.5542  0.0048 -0.3490
 7385SOL    HW133791   4.571   0.960  11.173 -0.5904 -0.5498 -0.9988
 7385SOL    HW233792   4.684   1.014  11.093  0.5476  2.1354 -0.4889
 7386SOL     OW33793   4.156   4.573  15.665 -0.0754  0.0610  0.0923
 7386SOL    HW133794   4.093   4.535  15.726 -1.9089 -0.0741 -1.8848
 7386SOL    HW233795   4.134   4.523  15.587 -0.5710  0.6074 -0.1230
 7387SOL     OW33796   3.426   2.867   6.463 -0.3519  0.1918  0.5189
 7387SOL    HW133797   3.477   2.940   6.497 -0.2073 -0.0319  0.7857
 7387SOL    HW233798   3.498   2.813   6.431 -0.4183  0.8720 -0.7452
 7388SOL     OW33799   4.209   0.825   8.471  0.0463 -0.4835 -0.8418
 7388SOL    HW133800   4.122   0.790   8.453  0.0407 -1.7991  1.7026
 7388SOL    HW233801   4.173   0.910   8.497  0.6078 -0.8483  1.1249
 7389SOL     OW33802   4.435   0.801   6.527  0.5760  0.0491 -0.1922
 7389SOL    HW133803   4.408   0.873   6.471  2.2169 -0.4389 -1.6045
 7389SOL    HW233804   4.504   0.760   6.475 -0.1760 -0.2207 -0.9714
 7390SOL     OW33805   3.559   0.549   1.171  0.0344  0.0400  0.1157
 7390SOL    HW133806   3.641   0.511   1.139  1.1269  0.8648  1.8884
 7390SOL    HW233807   3.564   0.639   1.139  3.1650 -0.6041 -1.2835
 7391SOL     OW33808   3.957   3.514  13.470 -0.3477 -0.5828 -0.4762
 7391SOL    HW133809   4.025   3.512  13.403 -0.1399  1.3171 -0.3300
 7391SOL    HW233810   4.002   3.455  13.530 -0.9721 -0.6281 -0.0490
 7392SOL     OW33811   2.523   0.994   3.860  0.1447  0.2515 -0.5674
 7392SOL    HW133812   2.500   0.904   3.838  0.4925 -0.2728  1.1946
 7392SOL    HW233813   2.442   1.045   3.851  0.5340  1.0245  0.2455
 7393SOL     OW33814   1.746   3.415   5.100 -0.2853 -0.3320  0.2870
 7393SOL    HW133815   1.660   3.435   5.063  0.2325  1.2452 -0.0518
 7393SOL    HW233816   1.774   3.338   5.050 -0.7843 -0.0034 -0.5108
 7394SOL     OW33817   0.404   3.746  11.812  0.1007  0.5757  0.5685
 7394SOL    HW133818   0.317   3.708  11.827  0.2950  0.0463  0.3389
 7394SOL    HW233819   0.389   3.814  11.746 -0.4246 -1.1379 -1.0785
 7395SOL     OW33820   4.512   2.459   9.462  0.3699  0.3605 -0.1066
 7395SOL    HW133821   4.572   2.451   9.388 -1.0641  0.3223 -1.2666
 7395SOL    HW233822   4.536   2.545   9.496  0.4565  0.2735  0.0499
 7396SOL     OW33823   3.981   4.373   7.758 -0.1256  0.3356  0.2229
 7396SOL    HW133824   4.014   4.442   7.816 -0.5663  0.6468  0.1066
 7396SOL    HW233825   3.923   4.334   7.824 -0.3547 -0.1476 -0.2696
 7397SOL     OW33826   3.357   4.619   2.207  0.5357 -0.2806  0.0670
 7397SOL    HW133827   3.323   4.708   2.197  0.6570 -0.0004  2.1320
 7397SOL    HW233828   3.405   4.618   2.290  3.2403  0.5414 -1.4941
 7398SOL     OW33829   2.925   1.219   6.544 -0.1091 -0.2041 -0.2993
 7398SOL    HW133830   2.979   1.148   6.508  1.4512 -0.4008  2.4491
 7398SOL    HW233831   2.945   1.290   6.484  1.0013 -2.0687 -2.1549
 7399SOL     OW33832   3.933   2.128  13.291  0.2201  0.3416 -0.3071
 7399SOL    HW133833   3.870   2.178  13.344 -0.6838  0.8203 -1.8408
 7399SOL    HW233834   3.872   2.082  13.234  0.8605 -0.3309 -0.4438
 7400SOL     OW33835   3.032   4.083   5.208 -0.4512  0.3317 -0.0996
 7400SOL    HW133836   2.966   4.014   5.212 -1.4154  1.3508  1.5097
 7400SOL    HW233837   3.024   4.117   5.297  2.7485  0.0506  0.2906
 7401SOL     OW33838   3.347   3.286  10.776 -0.1993 -0.4765 -0.8878
 7401SOL    HW133839   3.369   3.269  10.685 -1.5295 -0.6071 -1.1799
 7401SOL    HW233840   3.259   3.321  10.764 -0.6165 -1.5821 -1.0549
 7402SOL     OW33841   4.012   3.784   7.478 -0.3172  0.1539 -0.0166
 7402SOL    HW133842   4.011   3.880   7.481 -0.5002  0.1303  0.7038
 7402SOL    HW233843   4.024   3.768   7.572 -0.3049  1.7572  0.2596
 7403SOL     OW33844   2.994   2.162   3.046  0.5894  0.1954  0.2009
 7403SOL    HW133845   3.052   2.195   3.114  0.7360 -2.9756  1.6114
 7403SOL    HW233846   2.932   2.119   3.104  0.3968  1.4994  0.9729
 7404SOL     OW33847   3.447   4.450   4.212 -0.3590  0.1005 -0.4477
 7404SOL    HW133848   3.364   4.493   4.191  0.2647  0.3701 -2.3727
 7404SOL    HW233849   3.513   4.514   4.185  0.6856 -0.0499  1.7763
 7405SOL     OW33850   1.538   4.088   8.886 -0.4249  0.7438 -0.7098
 7405SOL    HW133851   1.580   4.080   8.801  0.1214 -0.7504 -0.3029
 7405SOL    HW233852   1.559   3.999   8.915 -2.2623  1.0282  1.5105
 7406SOL     OW33853   2.518   3.845   8.592  0.5806  0.2072  0.3788
 7406SOL    HW133854   2.606   3.882   8.591 -0.2039  2.0109 -1.8702
 7406SOL    HW233855   2.523   3.786   8.518 -0.1500  0.0754  0.4345
 7407SOL     OW33856   4.334   2.619  17.590 -0.5856  0.1445  0.3889
 7407SOL    HW133857   4.309   2.527  17.598 -0.3346 -0.0465 -1.0299
 7407SOL    HW233858   4.429   2.609  17.590 -0.7514 -1.4107 -1.0554
 7408SOL     OW33859   2.236   2.568  13.111 -0.1490  0.8773 -0.1794
 7408SOL    HW133860   2.142   2.559  13.095 -0.1171  1.4353 -0.6910
 7408SOL    HW233861   2.229   2.611  13.196 -1.7235  1.9206 -0.8390
 7409SOL     OW33862   4.021   1.517   4.917  0.1443  0.1808  0.2863
 7409SOL    HW133863   3.928   1.517   4.893 -0.2559  2.9721  1.7469
 7409SOL    HW233864   4.019   1.541   5.010 -2.0895 -0.8314  0.5123
 7410SOL     OW33865   2.317   2.874   7.005  0.0976 -0.1985 -0.5979
 7410SOL    HW133866   2.256   2.947   7.003  0.5138  0.1657  0.0753
 7410SOL    HW233867   2.271   2.798   7.040 -2.2978  1.1545 -0.8327
 7411SOL     OW33868   2.141   0.454   3.474 -0.0328 -0.1180 -0.2966
 7411SOL    HW133869   2.058   0.413   3.497  0.2407 -0.9765 -0.8174
 7411SOL    HW233870   2.188   0.371   3.465  0.1351 -0.1801  1.1203
 7412SOL     OW33871   2.486   4.240   7.145  0.1731  0.2490 -0.1622
 7412SOL    HW133872   2.552   4.307   7.128  0.4505  0.4289  1.5694
 7412SOL    HW233873   2.496   4.221   7.238 -0.2727  2.0230  0.2638
 7413SOL     OW33874   1.381   4.143  15.499  0.0569 -0.0679 -0.4533
 7413SOL    HW133875   1.405   4.180  15.584 -1.1414 -0.0239 -0.1353
 7413SOL    HW233876   1.293   4.179  15.488 -0.5645 -1.0899  1.1379
 7414SOL     OW33877   2.567   1.608   7.490  0.3840 -0.1901  0.6383
 7414SOL    HW133878   2.581   1.526   7.536 -0.1204 -0.1762  0.8103
 7414SOL    HW233879   2.539   1.577   7.404  0.9997 -0.7872  0.6500
 7415SOL     OW33880   2.098   2.848   4.504  0.0003  0.2850  0.1072
 7415SOL    HW133881   2.166   2.905   4.540  0.6691 -1.4110  1.5012
 7415SOL    HW233882   2.090   2.788   4.578 -2.5637  2.0776  1.2896
 7416SOL     OW33883   0.819   2.155   3.411 -0.5194  0.5967  0.0959
 7416SOL    HW133884   0.881   2.213   3.455 -1.0860  1.4366 -0.2127
 7416SOL    HW233885   0.812   2.086   3.477 -0.6278  0.7482  0.2425
 7417SOL     OW33886   1.470   3.269   5.323 -0.1581 -0.1683  0.3910
 7417SOL    HW133887   1.509   3.295   5.406 -1.5110 -2.2118  1.6661
 7417SOL    HW233888   1.524   3.192   5.306 -0.1643  0.1685 -1.1861
 7418SOL     OW33889   1.520   4.620   6.736 -0.0042 -0.1418 -0.0598
 7418SOL    HW133890   1.511   4.524   6.734  1.2358 -0.2785  0.6870
 7418SOL    HW233891   1.429   4.648   6.735  0.2143  0.5500 -0.8371
 7419SOL     OW33892   1.259   1.579   2.108 -0.4129  0.1033  0.3875
 7419SOL    HW133893   1.249   1.496   2.155 -0.4666  0.0844  0.3421
 7419SOL    HW233894   1.315   1.629   2.168  0.1455  0.3346 -0.3275
 7420SOL     OW33895   4.211   3.303   4.985 -0.0809  0.4866 -0.3839
 7420SOL    HW133896   4.143   3.312   5.052 -0.7302  2.4272 -1.3244
 7420SOL    HW233897   4.270   3.368   5.024 -1.8084  0.6307  2.0060
 7421SOL     OW33898   2.755   3.857   2.266  0.1578  0.4262  0.1174
 7421SOL    HW133899   2.766   3.907   2.186  1.0450 -3.5045 -2.1950
 7421SOL    HW233900   2.661   3.848   2.275 -0.0805  0.7685 -2.0257
 7422SOL     OW33901   1.575   0.138  10.627  0.2293  0.8661  0.0332
 7422SOL    HW133902   1.547   0.206  10.689 -1.4223  1.2467 -1.1258
 7422SOL    HW233903   1.658   0.176  10.599  0.2967  0.0342 -0.8575
 7423SOL     OW33904   2.230   2.690  14.194 -0.0350 -0.4025 -0.3423
 7423SOL    HW133905   2.311   2.726  14.158  0.6442 -0.8413  0.7445
 7423SOL    HW233906   2.203   2.755  14.259 -1.8818 -2.8299  1.3287
 7424SOL     OW33907   4.214   1.811   6.337  0.0419  0.3966  0.4969
 7424SOL    HW133908   4.257   1.876   6.281 -0.3953  0.2439 -0.0162
 7424SOL    HW233909   4.133   1.798   6.288  0.0892 -1.1380  0.8371
 7425SOL     OW33910   0.938   2.153   5.719  0.6471  0.0268  0.2948
 7425SOL    HW133911   0.851   2.123   5.692  0.1547 -0.2526  2.1973
 7425SOL    HW233912   0.956   2.073   5.768  1.7262  0.4853  0.6332
 7426SOL     OW33913   4.412   1.505  12.722 -0.2193 -0.2100 -0.0076
 7426SOL    HW133914   4.375   1.549  12.799  0.7785  0.1076  0.3014
 7426SOL    HW233915   4.500   1.501  12.760 -1.6496 -3.3353  3.0022
 7427SOL     OW33916   2.681   1.828   1.741 -0.4867 -0.1776 -0.3722
 7427SOL    HW133917   2.684   1.913   1.698 -2.2290  0.2167  0.2699
 7427SOL    HW233918   2.714   1.854   1.827 -0.6686 -2.1332  0.3038
 7428SOL     OW33919   1.817   0.435  11.509  0.7811 -0.1753 -0.3240
 7428SOL    HW133920   1.762   0.485  11.569  1.2148  0.4919 -0.4771
 7428SOL    HW233921   1.892   0.410  11.563  0.3424 -1.1074 -0.1553
 7429SOL     OW33922   0.969   3.078   3.087  0.3274 -0.1178  0.3371
 7429SOL    HW133923   1.001   3.034   3.165  0.2465 -2.7975 -1.1182
 7429SOL    HW233924   0.894   3.023   3.063  1.1973 -0.3760 -1.7831
 7430SOL     OW33925   1.271   1.722  10.188  0.3114  0.1990  0.2824
 7430SOL    HW133926   1.293   1.800  10.240  0.8104  0.3741 -0.1911
 7430SOL    HW233927   1.272   1.757  10.099  1.4427  0.2036  0.2984
 7431SOL     OW33928   4.310   4.340   6.160  0.0717 -0.2983 -0.2880
 7431SOL    HW133929   4.271   4.387   6.234  0.3338 -0.1023 -0.2726
 7431SOL    HW233930   4.385   4.392   6.131  0.2896 -0.1020  0.6350
 7432SOL     OW33931   2.707   2.577  16.158 -0.3340  0.6185 -0.5286
 7432SOL    HW133932   2.702   2.532  16.242  0.2669  0.5545 -0.5310
 7432SOL    HW233933   2.770   2.525  16.108  1.8218  1.6057  1.1802
 7433SOL     OW33934   3.011   4.608   4.570 -0.4194  0.7552  0.6929
 7433SOL    HW133935   3.079   4.642   4.629  0.5803 -1.4050  0.7539
 7433SOL    HW233936   2.976   4.530   4.612  1.9901 -0.3609  0.6459
 7434SOL     OW33937   2.133   0.934   6.165 -0.0991 -0.5556  0.0323
 7434SOL    HW133938   2.108   0.951   6.256 -2.8650 -0.1506 -0.7977
 7434SOL    HW233939   2.109   1.023   6.137 -1.2935 -0.8338  0.1380
 7435SOL     OW33940   2.463   3.961   2.926  0.4575 -0.8900  0.2271
 7435SOL    HW133941   2.479   3.941   2.834  3.2821 -0.3775  0.6049
 7435SOL    HW233942   2.504   3.884   2.966 -2.9417 -2.3720  0.8335
 7436SOL     OW33943   3.976   1.185  17.720  0.5332  0.0995  0.2175
 7436SOL    HW133944   3.885   1.194   0.005 -0.2797  0.1275 -2.2430
 7436SOL    HW233945   3.970   1.105  17.668  0.0800 -0.3010  0.8831
 7437SOL     OW33946   4.674   2.200   6.257 -0.2993 -0.2932 -0.3956
 7437SOL    HW133947   0.032   2.199   6.269 -0.1540 -1.3291 -1.5124
 7437SOL    HW233948   4.672   2.192   6.161  1.6060  2.8209 -0.6747
 7438SOL     OW33949   4.476   2.467   4.933 -0.1269  0.0094 -0.1034
 7438SOL    HW133950   4.408   2.400   4.932  0.3991 -0.5567  0.8868
 7438SOL    HW233951   4.453   2.523   4.860  0.6947  0.6939  0.1666
 7439SOL     OW33952   2.879   1.830  17.394  0.1380  0.1417 -0.1142
 7439SOL    HW133953   2.939   1.756  17.397 -1.1677 -0.8554  1.7147
 7439SOL    HW233954   2.922   1.902  17.349 -1.1889 -0.6488 -2.6455
 7440SOL     OW33955   0.127   4.290   4.440 -0.6687 -0.2150 -0.1192
 7440SOL    HW133956   0.182   4.217   4.467 -1.9254 -1.1874 -0.1982
 7440SOL    HW233957   0.042   4.249   4.425 -1.1983  0.5542  0.6895
 7441SOL     OW33958   1.145   1.240   4.552  0.6705  0.5294  0.9702
 7441SOL    HW133959   1.134   1.205   4.640 -0.0189 -2.2210 -0.2089
 7441SOL    HW233960   1.207   1.311   4.568 -0.4057  1.8326 -0.5657
 7442SOL     OW33961   0.385   2.016   6.092  0.0587  0.4059 -0.5569
 7442SOL    HW133962   0.378   1.967   6.173 -0.5138  2.0786  0.4030
 7442SOL    HW233963   0.414   1.956   6.024 -1.0639 -0.4662 -0.2717
 7443SOL     OW33964   2.069   0.248  13.642  0.4214  0.2878  0.1028
 7443SOL    HW133965   2.117   0.190  13.583  0.5771  0.4928  0.0284
 7443SOL    HW233966   2.130   0.252  13.716 -1.0946  0.7792  1.3425
 7444SOL     OW33967   1.254   4.541   5.424  0.5601 -0.2168 -0.1125
 7444SOL    HW133968   1.310   4.619   5.414 -2.2228  1.7726 -0.2583
 7444SOL    HW233969   1.292   4.500   5.501  1.9924 -0.1656 -0.7897
 7445SOL     OW33970   0.346   0.827   7.735 -0.0212  0.4641  0.6888
 7445SOL    HW133971   0.259   0.822   7.695  0.2528  1.1056  0.0190
 7445SOL    HW233972   0.329   0.760   7.801 -2.4705 -0.0920 -0.4858
 7446SOL     OW33973   0.053   4.220   3.530 -0.2858  0.0737  0.2008
 7446SOL    HW133974   0.113   4.247   3.599 -0.8377  0.5846  0.4829
 7446SOL    HW233975   0.016   4.139   3.564 -1.3510  0.4092 -0.1762
 7447SOL     OW33976   0.632   0.514   3.280  0.1026 -0.3630 -0.1428
 7447SOL    HW133977   0.675   0.595   3.309  1.7497 -1.3157  0.0900
 7447SOL    HW233978   0.700   0.479   3.222  0.7996  1.5199 -0.4407
 7448SOL     OW33979   0.986   0.018   6.155  0.1862  0.2246  0.2794
 7448SOL    HW133980   1.001   4.670   6.113 -0.1572 -0.6638  1.9521
 7448SOL    HW233981   0.977   4.718   6.243 -0.9544  0.0382  0.0951
 7449SOL     OW33982   4.422   1.210   5.191  0.2202  0.2752 -0.0968
 7449SOL    HW133983   4.441   1.158   5.269 -0.2371  2.4985  1.5037
 7449SOL    HW233984   4.413   1.146   5.121  0.3051  0.4912 -0.3058
 7450SOL     OW33985   3.368   3.696   5.932  0.3957 -0.5432  0.2881
 7450SOL    HW133986   3.340   3.652   6.013 -1.7488  3.8566  1.9621
 7450SOL    HW233987   3.342   3.786   5.949  2.2211 -0.1348  0.8411
 7451SOL     OW33988   2.615   4.239  10.565  0.1494 -0.2117  0.5178
 7451SOL    HW133989   2.560   4.180  10.514  1.5595 -1.2999  0.2533
 7451SOL    HW233990   2.571   4.222  10.648  0.7547 -1.7736  0.5186
 7452SOL     OW33991   0.221   0.304   5.126  0.0754  0.2941  0.1089
 7452SOL    HW133992   0.210   0.368   5.056 -0.0056 -0.1130 -0.2492
 7452SOL    HW233993   0.281   0.357   5.179 -0.4594  1.5630 -0.5560
 7453SOL     OW33994   3.205   2.595   8.177 -0.0022  0.5157 -0.5522
 7453SOL    HW133995   3.222   2.528   8.110  0.2592 -0.4186  0.4427
 7453SOL    HW233996   3.113   2.601   8.202  0.2980  1.7389  0.2291
 7454SOL     OW33997   1.288   3.594   8.582 -1.1345 -0.2214 -0.0509
 7454SOL    HW133998   1.253   3.527   8.523 -0.9106 -2.9707  2.9148
 7454SOL    HW233999   1.364   3.544   8.612 -0.4775  0.2220 -0.9928
 7455SOL     OW34000   1.604   2.115  14.352  0.5002 -0.0774 -0.5171
 7455SOL    HW134001   1.562   2.188  14.399  0.4334  0.5525 -1.5685
 7455SOL    HW234002   1.545   2.071  14.291 -3.0339  1.2612  1.9258
 7456SOL     OW34003   1.155   1.806   6.393  0.3891 -0.2949  0.5407
 7456SOL    HW134004   1.132   1.898   6.398  1.0346 -0.1251  0.4444
 7456SOL    HW234005   1.240   1.810   6.348  1.4686  0.7706  2.6935
 7457SOL     OW34006   0.885   2.001  16.686  0.3078  0.0494 -0.1255
 7457SOL    HW134007   0.976   1.971  16.698  0.4846  0.5642 -0.1789
 7457SOL    HW234008   0.886   2.063  16.759  0.4181 -0.3982  0.2494
 7458SOL     OW34009   4.338   0.384   2.645  1.0005  0.1017  0.2217
 7458SOL    HW134010   4.407   0.317   2.646  0.2610 -0.6602 -0.0673
 7458SOL    HW234011   4.322   0.389   2.739 -1.3205 -2.0238 -0.0630
 7459SOL     OW34012   2.193   0.094   6.223  0.3538  0.6544 -0.3149
 7459SOL    HW134013   2.162   0.065   6.308 -0.0631 -0.3218 -0.7976
 7459SOL    HW234014   2.131   0.166   6.213  0.2031  0.4490 -0.8873
 7460SOL     OW34015   2.606   0.109   0.959 -0.3155 -0.2939  0.2802
 7460SOL    HW134016   2.671   0.128   1.026 -0.1292  1.4811 -0.3837
 7460SOL    HW234017   2.546   0.043   0.993 -0.4249 -0.2162  0.2386
 7461SOL     OW34018   4.374   3.615  13.009  0.3885  0.4848 -0.6233
 7461SOL    HW134019   4.446   3.593  13.068  0.1892 -0.0421 -0.5727
 7461SOL    HW234020   4.304   3.632  13.072  0.6973 -0.5369 -0.0041
 7462SOL     OW34021   2.541   1.560   7.904  0.1956  0.0616  0.4999
 7462SOL    HW134022   2.464   1.517   7.943  0.8890 -0.5172  1.2417
 7462SOL    HW234023   2.507   1.639   7.864  0.5335  0.3242  0.7278
 7463SOL     OW34024   2.993   1.091   4.221  0.2205 -0.2065 -0.3960
 7463SOL    HW134025   2.915   1.053   4.261 -0.2203  0.2927 -0.7818
 7463SOL    HW234026   3.059   1.025   4.240 -0.4771 -1.3302 -1.8592
 7464SOL     OW34027   1.201   0.854   6.057  0.2571  0.6116 -0.4769
 7464SOL    HW134028   1.213   0.812   5.972 -0.8050 -1.5413  0.4668
 7464SOL    HW234029   1.212   0.785   6.121 -0.1935  0.8420 -0.1497
 7465SOL     OW34030   1.413   3.874  11.337 -0.2762  0.0656  0.1382
 7465SOL    HW134031   1.349   3.895  11.406  0.2839 -1.1825  1.0130
 7465SOL    HW234032   1.373   3.804  11.286 -0.0487  0.1744 -0.1936
 7466SOL     OW34033   4.334   0.981   6.354  0.1000 -0.5077  0.1727
 7466SOL    HW134034   4.245   0.946   6.344 -0.6395  1.0216  1.2907
 7466SOL    HW234035   4.315   1.074   6.368 -1.1961 -1.1280  2.7222
 7467SOL     OW34036   0.286   2.193   5.896  0.5179 -0.0521 -0.4475
 7467SOL    HW134037   0.362   2.148   5.933 -0.6071 -2.2790 -0.8120
 7467SOL    HW234038   0.230   2.121   5.867  1.9186 -1.1607 -0.4163
 7468SOL     OW34039   1.318   0.645   2.907  0.0875 -0.0639  0.5835
 7468SOL    HW134040   1.241   0.604   2.947  0.0183  0.0210  0.5364
 7468SOL    HW234041   1.271   0.715   2.861  1.9749  1.1461  0.5206
 7469SOL     OW34042   1.310   0.885   3.350 -0.2214 -0.1685  0.5479
 7469SOL    HW134043   1.236   0.829   3.328 -1.4244  1.8097 -0.4696
 7469SOL    HW234044   1.291   0.880   3.444  1.5079  1.8310  0.9936
 7470SOL     OW34045   2.876   3.063   6.483 -0.2212 -0.2413  0.7372
 7470SOL    HW134046   2.829   3.147   6.484 -1.1143 -0.7406  0.5329
 7470SOL    HW234047   2.815   3.009   6.533  1.7473 -1.9708  1.2719
 7471SOL     OW34048   2.695   2.364   1.520  0.3757 -0.3258  0.1160
 7471SOL    HW134049   2.651   2.446   1.498  1.5629  0.8408  2.0350
 7471SOL    HW234050   2.758   2.367   1.448 -0.9564  0.8965 -0.9945
 7472SOL     OW34051   4.252   1.858   2.532 -0.3037 -0.4601 -0.0042
 7472SOL    HW134052   4.313   1.785   2.537  2.0709  1.6135  1.4665
 7472SOL    HW234053   4.310   1.922   2.491 -1.2677  0.1062 -0.4816
 7473SOL     OW34054   3.243   2.273   0.186 -0.2879  0.1799 -0.5249
 7473SOL    HW134055   3.258   2.231   0.102 -0.9536 -2.2215  0.5464
 7473SOL    HW234056   3.165   2.225   0.214  0.3625 -0.2675  0.5164
 7474SOL     OW34057   3.747   0.203   3.637  0.1612  1.0869  0.3089
 7474SOL    HW134058   3.693   0.265   3.686  0.7441  0.5765  1.6084
 7474SOL    HW234059   3.818   0.195   3.701  1.0606 -1.1490 -0.9532
 7475SOL     OW34060   1.632   1.297   5.459  0.3908  0.2101 -0.3047
 7475SOL    HW134061   1.604   1.386   5.477  2.0057  0.8235 -0.8093
 7475SOL    HW234062   1.701   1.275   5.522 -1.3376 -0.8824  1.1903
 7476SOL     OW34063   0.679   1.865   8.552  0.5982  0.0529 -0.2411
 7476SOL    HW134064   0.629   1.793   8.589  2.4679 -1.3369 -0.4437
 7476SOL    HW234065   0.609   1.917   8.511  0.2217 -0.9972 -0.9449
 7477SOL     OW34066   2.439   4.200  17.393 -0.7431  0.2318 -0.5334
 7477SOL    HW134067   2.445   4.154  17.477 -1.3060 -0.8666 -1.0862
 7477SOL    HW234068   2.347   4.223  17.386 -0.3791  1.4846 -1.1490
 7478SOL     OW34069   2.132   2.265  11.127 -0.1505  0.0755  0.5203
 7478SOL    HW134070   2.077   2.300  11.197  2.0826  0.2863  2.1586
 7478SOL    HW234071   2.199   2.333  11.128  0.5802 -0.5794 -2.3345
 7479SOL     OW34072   0.983   1.196  15.664  0.1681  0.2667 -0.0137
 7479SOL    HW134073   1.058   1.184  15.722  0.6723 -3.4644 -1.4231
 7479SOL    HW234074   1.029   1.185  15.581  0.0280 -1.1432  0.0884
 7480SOL     OW34075   1.004   1.902   7.853 -0.5269  0.0708 -0.2206
 7480SOL    HW134076   0.962   1.987   7.843  1.5047  1.2664  1.3504
 7480SOL    HW234077   0.958   1.854   7.784 -2.9972  0.0006  1.4655
 7481SOL     OW34078   3.302   1.878   1.833 -0.5591  0.4684  0.2325
 7481SOL    HW134079   3.256   1.957   1.862  0.6704  0.3569  2.4568
 7481SOL    HW234080   3.234   1.858   1.768 -2.0232  0.3687  1.7806
 7482SOL     OW34081   0.564   2.945   5.331  0.1037 -0.3318  0.1057
 7482SOL    HW134082   0.572   2.987   5.246  2.3183  0.2477  0.6091
 7482SOL    HW234083   0.478   2.903   5.324  0.7564 -1.8943  1.4910
 7483SOL     OW34084   3.812   4.372   2.990  0.0133  0.7627  0.1535
 7483SOL    HW134085   3.776   4.460   2.983 -0.9759  0.1863 -2.1307
 7483SOL    HW234086   3.732   4.319   2.985  1.3132 -1.5465  3.3395
 7484SOL     OW34087   1.856   2.472  10.009  0.6734  0.2433 -0.1530
 7484SOL    HW134088   1.767   2.488  10.040  1.8587 -0.4769  3.5717
 7484SOL    HW234089   1.883   2.403  10.069  0.0395 -0.0660 -0.2260
 7485SOL     OW34090   3.930   4.165   0.240 -0.2659 -0.1683  0.7695
 7485SOL    HW134091   3.841   4.172   0.274 -0.6988 -0.5243 -0.2894
 7485SOL    HW234092   3.966   4.080   0.268  0.6951 -0.0799 -0.1624
 7486SOL     OW34093   4.664   4.290   7.514  0.1405 -0.1240 -0.2713
 7486SOL    HW134094   0.001   4.317   7.568  1.5408 -1.3373 -1.5583
 7486SOL    HW234095   4.584   4.336   7.540 -0.6682 -1.4998 -0.2715
 7487SOL     OW34096   3.919   2.856  13.301  0.0634  0.0675 -0.0266
 7487SOL    HW134097   4.001   2.816  13.331  0.3185  2.5311  2.5510
 7487SOL    HW234098   3.947   2.907  13.225  1.8921  0.5044  0.9498
 7488SOL     OW34099   4.704   3.526   2.587 -0.1227  0.5889  0.0911
 7488SOL    HW134100   0.024   3.582   2.640  2.4128 -0.4970 -1.4820
 7488SOL    HW234101   0.032   3.466   2.550 -1.8441 -2.3981  1.9429
 7489SOL     OW34102   0.490   3.571   5.627  0.0225 -0.3258  0.2061
 7489SOL    HW134103   0.506   3.631   5.554 -0.3888 -0.9744 -0.4225
 7489SOL    HW234104   0.395   3.580   5.629 -0.0567 -0.3778 -3.0825
 7490SOL     OW34105   0.791   4.694   4.977 -0.1961  0.2722  0.2086
 7490SOL    HW134106   0.709   4.673   5.022  1.3613 -2.6680  1.7004
 7490SOL    HW234107   0.777   4.644   4.896  3.5922 -0.3665 -0.0358
 7491SOL     OW34108   1.848   2.976   1.553 -0.0199 -0.1193  0.3673
 7491SOL    HW134109   1.771   2.970   1.609 -2.5805  1.2155 -3.0450
 7491SOL    HW234110   1.914   2.949   1.617  2.3244  1.8997 -1.1917
 7492SOL     OW34111   2.743   1.282  10.927 -0.1812 -0.6298 -0.2840
 7492SOL    HW134112   2.778   1.254  10.842  0.4987  1.4136 -0.6599
 7492SOL    HW234113   2.821   1.291  10.981  1.4688  0.5022 -2.8412
 7493SOL     OW34114   3.063   4.109   3.844 -0.0542  0.1209  0.2234
 7493SOL    HW134115   3.134   4.158   3.803 -0.0897  1.0051  1.2212
 7493SOL    HW234116   3.110   4.076   3.921  2.5934  1.4019 -0.8587
 7494SOL     OW34117   1.893   1.501   5.601  0.1452  0.0578  0.2673
 7494SOL    HW134118   1.865   1.561   5.532  0.8910 -1.5207 -1.4246
 7494SOL    HW234119   1.970   1.539   5.641 -0.0228  1.2375 -0.5302
 7495SOL     OW34120   1.088   1.256   5.033  0.1303 -0.0380 -0.0627
 7495SOL    HW134121   1.121   1.340   5.063  2.1358 -1.1381  0.7760
 7495SOL    HW234122   1.104   1.197   5.107 -1.5775 -1.4181 -0.7857
 7496SOL     OW34123   1.838   2.197  14.240  0.3859  0.2445  0.8414
 7496SOL    HW134124   1.806   2.287  14.251 -0.4445  0.4566 -3.1061
 7496SOL    HW234125   1.763   2.152  14.278  0.0978  0.4059  0.4641
 7497SOL     OW34126   4.731   1.937   7.956  0.3111 -0.2022 -0.2580
 7497SOL    HW134127   0.083   1.937   7.993 -0.1797 -0.7080  0.9017
 7497SOL    HW234128   4.678   1.939   8.036 -0.3734 -1.5701 -0.6711
 7498SOL     OW34129   2.168   3.124  17.015  0.1248 -0.0639 -0.0802
 7498SOL    HW134130   2.167   3.195  16.951 -0.5758 -0.6194 -0.6998
 7498SOL    HW234131   2.081   3.124  17.054 -0.3693  0.7712 -1.1777
 7499SOL     OW34132   3.832   0.090   7.591 -0.0124 -0.1296 -0.0551
 7499SOL    HW134133   3.790   0.136   7.518  1.5477 -2.3601 -2.3580
 7499SOL    HW234134   3.896   0.158   7.615 -1.4429  1.0483  0.3997
 7500SOL     OW34135   4.430   3.984   9.764  0.1703  0.0560 -0.0797
 7500SOL    HW134136   4.427   4.080   9.762  0.8714  0.1050  1.5397
 7500SOL    HW234137   4.357   3.975   9.825 -1.3993  0.2713 -1.9377
 7501SOL     OW34138   0.437   3.131   3.911 -0.3342  0.1425 -0.1635
 7501SOL    HW134139   0.446   3.115   3.818 -0.7932 -0.6518 -0.0716
 7501SOL    HW234140   0.379   3.057   3.929  0.6483 -0.3196  1.1553
 7502SOL     OW34141   0.667   2.775  15.871  0.3547 -0.2562 -0.4354
 7502SOL    HW134142   0.603   2.766  15.800 -0.2962  4.2617 -0.4169
 7502SOL    HW234143   0.655   2.869  15.888  2.7164 -0.0144 -0.0744
 7503SOL     OW34144   0.120   1.733   5.285 -0.3642 -0.4197  0.3157
 7503SOL    HW134145   0.116   1.735   5.189 -1.5868  2.7009  0.4107
 7503SOL    HW234146   0.050   1.796   5.303  1.1790  1.8085 -1.3700
 7504SOL     OW34147   0.007   1.952   1.510  0.1990 -0.5182  0.7191
 7504SOL    HW134148   0.090   1.958   1.557  1.5478  0.1402 -1.7150
 7504SOL    HW234149   4.682   1.914   1.572 -0.2167  0.5258  0.9430
 7505SOL     OW34150   1.226   1.270   5.508  0.0635 -0.4076  0.4194
 7505SOL    HW134151   1.300   1.286   5.567 -0.5330  1.7305  0.5819
 7505SOL    HW234152   1.165   1.259   5.580  0.2229 -0.1546  0.5920
 7506SOL     OW34153   1.789   3.243   1.835  0.6697  0.4301  0.0003
 7506SOL    HW134154   1.878   3.277   1.846  0.5563  0.7331 -0.0251
 7506SOL    HW234155   1.790   3.211   1.744  2.7832 -2.4675  1.0568
 7507SOL     OW34156   2.132   1.437  13.831 -0.2087 -0.4777 -0.0134
 7507SOL    HW134157   2.133   1.413  13.739  0.2709  1.1704 -0.4432
 7507SOL    HW234158   2.045   1.403  13.852 -0.7882  0.3306 -1.1356
 7508SOL     OW34159   2.325   1.916   4.950 -0.0244 -0.0119 -0.2438
 7508SOL    HW134160   2.353   1.911   4.859  5.1661  0.9724  1.2708
 7508SOL    HW234161   2.255   1.981   4.940  0.8750  0.9941  0.0464
 7509SOL     OW34162   3.792   2.971   6.480 -0.8458  0.4225 -0.3457
 7509SOL    HW134163   3.703   2.994   6.505 -0.7983  1.3773 -1.0935
 7509SOL    HW234164   3.804   2.893   6.534  1.4336  0.2217 -1.1347
 7510SOL     OW34165   1.880   0.551   8.033  0.1824 -0.6452 -0.4708
 7510SOL    HW134166   1.950   0.495   8.066  0.8813 -0.5333 -1.7799
 7510SOL    HW234167   1.927   0.582   7.956  2.3842  0.3798  1.2920
 7511SOL     OW34168   1.621   0.594   7.342 -0.2391 -0.2987  0.2899
 7511SOL    HW134169   1.708   0.566   7.373 -0.0177  0.8912  0.7407
 7511SOL    HW234170   1.564   0.517   7.353 -1.7162  1.1760  2.8824
 7512SOL     OW34171   3.352   4.388   2.032 -0.2822 -0.3758 -0.3852
 7512SOL    HW134172   3.394   4.435   2.104 -0.2222 -2.7128  1.0944
 7512SOL    HW234173   3.274   4.442   2.016  0.7115  1.8289  2.1923
 7513SOL     OW34174   0.895   0.174   3.095  0.3513  0.3708  0.0237
 7513SOL    HW134175   0.899   0.093   3.145  0.9802  1.5577  1.9134
 7513SOL    HW234176   0.923   0.129   3.015  1.2474 -0.5800  0.8779
 7514SOL     OW34177   1.137   2.431   3.996  0.4695  0.1853  0.3605
 7514SOL    HW134178   1.093   2.405   3.915 -0.8990 -0.6167  1.3349
 7514SOL    HW234179   1.178   2.350   4.028  0.1610  0.0036  0.2983
 7515SOL     OW34180   1.342   1.166   9.720  0.2371 -0.2108 -0.0273
 7515SOL    HW134181   1.407   1.230   9.750 -0.0225 -0.2863  0.7108
 7515SOL    HW234182   1.356   1.164   9.626  0.2785  0.3760 -0.0320
 7516SOL     OW34183   1.208   4.526   3.371  0.1749  0.4314  0.2832
 7516SOL    HW134184   1.226   4.547   3.463  2.2617  2.5269 -0.6083
 7516SOL    HW234185   1.132   4.471   3.386 -0.2014  0.7295 -0.5281
 7517SOL     OW34186   4.065   4.433   2.307 -0.0032 -0.5724  0.2410
 7517SOL    HW134187   4.017   4.449   2.388  1.9860 -0.7530  1.4740
 7517SOL    HW234188   4.105   4.349   2.330 -2.7840 -1.4366  1.8232
 7518SOL     OW34189   1.517   4.435   0.411  0.0651 -0.3286 -0.8664
 7518SOL    HW134190   1.433   4.464   0.447  1.6386  0.1099  2.5086
 7518SOL    HW234191   1.521   4.350   0.455 -0.5595  0.1963  0.1966
 7519SOL     OW34192   4.289   3.180   7.636  0.1566 -0.3801 -0.0477
 7519SOL    HW134193   4.239   3.101   7.614  0.5134 -1.1879  2.0198
 7519SOL    HW234194   4.324   3.199   7.548  0.5691  1.9040  0.5978
 7520SOL     OW34195   3.468   3.504   5.058 -0.1333  0.0451  0.4467
 7520SOL    HW134196   3.459   3.461   5.143 -3.5199 -0.9244 -0.3847
 7520SOL    HW234197   3.380   3.537   5.042 -0.1682 -0.9318 -1.3890
 7521SOL     OW34198   2.941   3.636  16.259 -0.2916 -0.7967 -0.1684
 7521SOL    HW134199   2.862   3.648  16.207  0.4884  1.4726 -0.8168
 7521SOL    HW234200   2.978   3.553  16.228  0.1697 -0.4551 -0.5275
 7522SOL     OW34201   3.723   3.410   3.912  0.1782 -0.1353  0.5111
 7522SOL    HW134202   3.743   3.332   3.963  1.4383 -0.9766 -1.2671
 7522SOL    HW234203   3.634   3.433   3.939  0.1543 -0.6419  0.8483
 7523SOL     OW34204   0.010   2.769   4.292 -0.0063 -0.2939 -0.1758
 7523SOL    HW134205   0.078   2.718   4.247 -0.1306 -1.8925  1.4431
 7523SOL    HW234206   0.047   2.857   4.284 -0.5242 -0.1864 -1.4356
 7524SOL     OW34207   2.584   1.460   0.583  0.1263 -0.0752 -0.4603
 7524SOL    HW134208   2.507   1.512   0.608 -0.0439 -0.3083 -0.4971
 7524SOL    HW234209   2.567   1.443   0.490 -2.3169 -1.5315  0.2419
 7525SOL     OW34210   0.261   2.637   5.017 -0.1041 -0.1463 -0.6961
 7525SOL    HW134211   0.294   2.680   4.938 -0.7995 -0.1097 -0.9706
 7525SOL    HW234212   0.171   2.669   5.020  0.3485  0.9225  1.5370
 7526SOL     OW34213   0.638   0.591   5.287  0.0895 -0.2073  0.7181
 7526SOL    HW134214   0.711   0.529   5.287  0.5145  0.2967  0.0055
 7526SOL    HW234215   0.653   0.636   5.370  0.2904 -1.0421  1.1381
 7527SOL     OW34216   1.317   4.407  12.327  0.0012  0.0689 -0.0623
 7527SOL    HW134217   1.408   4.434  12.315  0.5826 -1.4930  0.9683
 7527SOL    HW234218   1.334   4.338  12.391 -0.6091 -0.0442 -0.0260
 7528SOL     OW34219   1.297   0.505   7.909 -0.3033  0.0942 -0.8721
 7528SOL    HW134220   1.256   0.421   7.928  0.1700  0.0635 -0.0200
 7528SOL    HW234221   1.232   0.534   7.844  1.8689  2.3259 -2.0590
 7529SOL     OW34222   3.048   2.038   2.812  0.3780  0.7799  0.3721
 7529SOL    HW134223   3.025   2.095   2.885 -0.8574  2.6846 -1.5073
 7529SOL    HW234224   3.089   2.099   2.752 -0.6977  0.0300 -1.1256
 7530SOL     OW34225   2.073   3.756   7.427  0.2105 -0.1297  0.3238
 7530SOL    HW134226   2.065   3.835   7.481 -0.5828  0.4521 -0.6539
 7530SOL    HW234227   2.101   3.799   7.347  1.3481  0.0726  0.8226
 7531SOL     OW34228   0.907   1.075   7.002 -0.0340 -0.7536  0.2686
 7531SOL    HW134229   0.988   1.052   7.049  0.8360  1.6701 -0.0755
 7531SOL    HW234230   0.908   1.169   6.988 -0.2512 -0.5234  1.7776
 7532SOL     OW34231   3.896   3.769   6.433 -0.0228  0.3616 -0.2864
 7532SOL    HW134232   3.891   3.722   6.516 -1.8435  1.4954  0.2624
 7532SOL    HW234233   3.949   3.847   6.445 -1.2908  1.0877  0.6084
 7533SOL     OW34234   4.665   4.629  14.920 -0.1289  0.5428  0.0492
 7533SOL    HW134235   4.735   4.582  14.966  0.0983  1.6921  0.8759
 7533SOL    HW234236   4.631   4.554  14.872  1.7546  1.7872 -3.2455
 7534SOL     OW34237   0.171   0.658   6.122  0.5458 -0.0446  0.5346
 7534SOL    HW134238   0.218   0.584   6.160  0.3514 -0.9029 -0.8750
 7534SOL    HW234239   0.079   0.629   6.118  0.8230 -1.1187  1.8178
 7535SOL     OW34240   2.671   1.817   6.239 -0.2952 -0.1445 -0.4472
 7535SOL    HW134241   2.663   1.840   6.146 -3.3809 -1.9231 -0.6050
 7535SOL    HW234242   2.761   1.847   6.255 -0.9010  0.5418  1.6234
 7536SOL     OW34243   3.214   1.597   8.608 -0.0128 -0.0907 -0.1343
 7536SOL    HW134244   3.170   1.629   8.529  0.1541 -0.4027 -0.3520
 7536SOL    HW234245   3.147   1.548   8.656  0.5055 -0.8058 -0.1550
 7537SOL     OW34246   2.835   1.860   6.645  0.2531 -0.0943  0.1696
 7537SOL    HW134247   2.822   1.954   6.637  1.5545 -0.0289 -1.2385
 7537SOL    HW234248   2.747   1.825   6.660  0.5627 -0.3336  1.3974
 7538SOL     OW34249   4.074   0.681   4.508 -0.1734 -0.1923 -0.1372
 7538SOL    HW134250   3.988   0.663   4.545 -0.0204 -0.5997  0.0169
 7538SOL    HW234251   4.038   0.763   4.473  1.8781  0.6779 -0.2406
 7539SOL     OW34252   1.590   2.558   7.605 -0.1877  0.6112 -0.1373
 7539SOL    HW134253   1.519   2.619   7.583 -4.0494 -2.7219  3.3297
 7539SOL    HW234254   1.608   2.527   7.516  3.7142  0.3109  0.7605
 7540SOL     OW34255   0.376   3.265   0.041  0.3688  0.0307  0.2943
 7540SOL    HW134256   0.465   3.268   0.006  0.3822  0.8616  0.3862
 7540SOL    HW234257   0.355   3.359   0.042  0.4970  0.0827 -1.7475
 7541SOL     OW34258   0.628   2.915   8.753 -0.2280  0.2514 -0.3346
 7541SOL    HW134259   0.592   2.837   8.795 -0.5204  0.8465  0.5356
 7541SOL    HW234260   0.612   2.974   8.827 -0.0304  2.8870 -2.3538
 7542SOL     OW34261   3.566   2.037   3.834  0.5080  0.2613  0.3145
 7542SOL    HW134262   3.580   2.074   3.747 -0.9776  1.1939  0.4755
 7542SOL    HW234263   3.569   1.943   3.818  0.1535 -0.0810  2.2516
 7543SOL     OW34264   2.572   0.643   7.335  0.1999 -0.4635  0.4583
 7543SOL    HW134265   2.642   0.662   7.397 -0.9708 -0.0522  1.6540
 7543SOL    HW234266   2.524   0.725   7.338 -0.8526 -1.0597  0.0153
 7544SOL     OW34267   4.515   3.691  16.869 -0.0282 -0.1611 -0.0636
 7544SOL    HW134268   4.454   3.719  16.801 -1.0829 -2.1032  0.0746
 7544SOL    HW234269   4.554   3.772  16.899 -0.3361  0.2158 -0.6805
 7545SOL     OW34270   3.389   4.046  13.413 -0.1594  0.2358  0.1112
 7545SOL    HW134271   3.427   4.048  13.501 -0.4920 -1.4550  0.2937
 7545SOL    HW234272   3.466   4.027  13.359 -0.8613 -1.5335 -0.2532
 7546SOL     OW34273   0.652   2.121   5.740 -0.5915 -0.5694 -0.1395
 7546SOL    HW134274   0.661   2.120   5.835 -0.6121 -2.7230 -0.1496
 7546SOL    HW234275   0.605   2.038   5.731  0.5160 -1.0557 -1.5314
 7547SOL     OW34276   1.026   1.555   3.894  0.2846  0.5732  0.0331
 7547SOL    HW134277   1.022   1.459   3.892 -1.1017  0.5934  1.2234
 7547SOL    HW234278   1.119   1.573   3.901 -0.0546  1.6792  1.7274
 7548SOL     OW34279   4.075   2.484  17.036  0.1390 -0.2284 -0.4857
 7548SOL    HW134280   3.994   2.472  17.086  1.6268 -2.3779  1.3929
 7548SOL    HW234281   4.074   2.420  16.965 -1.2302 -0.7050 -0.0383
 7549SOL     OW34282   4.367   0.290   8.662 -0.4196  0.8561 -0.2455
 7549SOL    HW134283   4.343   0.341   8.585  1.6498 -1.4511 -2.4265
 7549SOL    HW234284   4.291   0.231   8.658 -0.6866  1.2719 -1.1986
 7550SOL     OW34285   2.442   2.034   4.097 -0.3515 -0.4238 -0.2455
 7550SOL    HW134286   2.518   2.081   4.062 -0.9352 -0.8629 -2.0808
 7550SOL    HW234287   2.384   2.044   4.022  3.2855  1.4403 -2.7818
 7551SOL     OW34288   4.298   3.143  15.294  1.0267  0.0142  0.1118
 7551SOL    HW134289   4.243   3.147  15.215  1.5985  0.4308 -0.2695
 7551SOL    HW234290   4.314   3.050  15.308  1.0593 -0.1904 -1.2365
 7552SOL     OW34291   1.192   3.649   1.900  0.0828  0.3460  0.2292
 7552SOL    HW134292   1.264   3.603   1.856  0.8588  3.9406 -2.2776
 7552SOL    HW234293   1.235   3.669   1.983 -0.5349  0.4300  0.5247
 7553SOL     OW34294   1.568   2.071  12.133 -0.5796 -0.0296  0.1833
 7553SOL    HW134295   1.622   2.044  12.058 -1.6793  2.0658 -1.3551
 7553SOL    HW234296   1.604   2.158  12.150 -0.0120 -0.3429  0.6003
 7554SOL     OW34297   3.506   2.905   2.567 -0.0085 -0.3180  0.5062
 7554SOL    HW134298   3.425   2.861   2.542 -0.3135  0.9882 -0.7676
 7554SOL    HW234299   3.555   2.902   2.485 -0.3688 -0.7754  0.3092
 7555SOL     OW34300   2.338   3.623   2.453 -0.2816 -0.5710 -0.0916
 7555SOL    HW134301   2.395   3.663   2.519  0.5136 -0.4201 -0.8726
 7555SOL    HW234302   2.339   3.531   2.481  0.5536 -0.2041  1.0825
 7556SOL     OW34303   4.117   1.207  11.511 -0.6111  0.4323 -0.0321
 7556SOL    HW134304   4.195   1.170  11.551 -0.0514  2.3600  0.6575
 7556SOL    HW234305   4.122   1.302  11.528 -1.2418  0.2958  0.9716
 7557SOL     OW34306   1.832   1.439   8.500  0.8145 -0.1705  0.3662
 7557SOL    HW134307   1.775   1.384   8.554 -1.1810  1.4116 -0.1443
 7557SOL    HW234308   1.893   1.383   8.451 -0.8325 -3.1765  1.7748
 7558SOL     OW34309   4.027   3.060   6.605 -0.2467  0.4687  0.1543
 7558SOL    HW134310   3.994   3.150   6.600 -0.5247  0.2913 -1.0708
 7558SOL    HW234311   3.955   3.026   6.553  0.6511 -0.2778 -0.6132
 7559SOL     OW34312   3.848   4.160   6.575  0.0507 -0.1103 -0.2256
 7559SOL    HW134313   3.758   4.172   6.545 -0.2252 -1.1753  0.1770
 7559SOL    HW234314   3.836   4.128   6.665  0.2407 -3.0472 -1.2441
 7560SOL     OW34315   0.649   2.351  14.469  0.0264  0.1463 -0.0651
 7560SOL    HW134316   0.623   2.442  14.483 -3.0340 -0.6016 -0.8508
 7560SOL    HW234317   0.649   2.310  14.556 -2.6291 -1.8417 -0.9945
 7561SOL     OW34318   4.616   2.778  13.074 -0.7636  0.3000 -0.2593
 7561SOL    HW134319   4.572   2.792  13.158 -0.4702 -0.4664  0.0295
 7561SOL    HW234320   4.598   2.684  13.065 -1.7002  0.5126 -0.5099
 7562SOL     OW34321   4.323   2.388   4.219 -0.9109 -0.0145 -0.3492
 7562SOL    HW134322   4.414   2.374   4.193 -0.3608 -0.7227  1.9546
 7562SOL    HW234323   4.272   2.355   4.144 -1.3903  1.5116 -0.7052
 7563SOL     OW34324   2.746   1.438   1.736 -0.1893  0.3889 -0.3232
 7563SOL    HW134325   2.789   1.354   1.726  0.6884  0.8703 -0.5644
 7563SOL    HW234326   2.751   1.466   1.644  0.9616 -1.6144 -0.8591
 7564SOL     OW34327   3.528   2.862  17.010 -0.2305  0.1425  0.2381
 7564SOL    HW134328   3.472   2.937  17.030  0.4388  0.4461  0.9776
 7564SOL    HW234329   3.478   2.823  16.938 -2.6472  1.0876  1.4083
 7565SOL     OW34330   2.391   0.325   5.912 -0.0206 -0.0084  0.1038
 7565SOL    HW134331   2.369   0.360   5.998 -0.8950 -0.8221  0.2121
 7565SOL    HW234332   2.391   0.231   5.931 -0.2292 -0.1536 -0.6118
 7566SOL     OW34333   2.679   2.928   3.810 -0.3261  0.5999 -0.4828
 7566SOL    HW134334   2.756   2.906   3.759 -0.6492  1.7651 -1.4465
 7566SOL    HW234335   2.718   2.993   3.869  1.6530 -0.8040 -0.2585
 7567SOL     OW34336   3.607   1.415   1.431 -0.3272  0.2774  0.2319
 7567SOL    HW134337   3.561   1.337   1.462  0.1343  0.8809  2.4697
 7567SOL    HW234338   3.687   1.397   1.481  1.0823  0.1678 -2.0773
 7568SOL     OW34339   1.054   0.130   1.743  0.2738 -0.3199 -0.2187
 7568SOL    HW134340   1.120   0.199   1.753 -1.3940  1.2791 -0.2279
 7568SOL    HW234341   1.100   0.072   1.683  0.1144  2.4497 -3.0796
 7569SOL     OW34342   0.058   3.164   4.568 -0.0001  0.5380 -0.3434
 7569SOL    HW134343   4.730   3.093   4.573 -0.5184  1.1501  1.7358
 7569SOL    HW234344   0.019   3.214   4.496 -0.9296  1.1177  0.5581
 7570SOL     OW34345   1.358   0.442   5.023 -0.3127 -0.2121 -0.1990
 7570SOL    HW134346   1.381   0.427   4.931 -0.5578 -1.0121 -0.1346
 7570SOL    HW234347   1.263   0.431   5.023 -0.4053  0.6022  1.6868
 7571SOL     OW34348   3.268   3.187   7.640  0.1843  0.0459 -0.2869
 7571SOL    HW134349   3.290   3.135   7.717 -2.0921 -1.7398 -0.8444
 7571SOL    HW234350   3.343   3.169   7.582  0.7253  0.4271  0.2983
 7572SOL     OW34351   4.075   0.211   6.205 -0.1671 -0.2636 -0.1276
 7572SOL    HW134352   4.141   0.281   6.204 -2.4519  1.9579  4.9573
 7572SOL    HW234353   4.132   0.137   6.224  1.0941  1.1472  1.6101
 7573SOL     OW34354   2.220   0.838  13.072 -0.1836 -0.0923  0.1715
 7573SOL    HW134355   2.271   0.879  13.001 -0.5891  0.6403  0.3035
 7573SOL    HW234356   2.243   0.904  13.138  0.0018 -1.7511  1.7395
 7574SOL     OW34357   3.360   3.848   6.879 -0.1952 -0.2320 -0.1712
 7574SOL    HW134358   3.334   3.792   6.952  1.5105 -1.6830 -0.6815
 7574SOL    HW234359   3.426   3.804   6.826  1.4066  1.6611  0.2813
 7575SOL     OW34360   4.087   2.412   5.523  0.3517  0.5797  0.2083
 7575SOL    HW134361   4.165   2.461   5.497 -0.5911  1.0757 -1.6487
 7575SOL    HW234362   4.023   2.463   5.473 -1.1114 -0.8148  0.6564
 7576SOL     OW34363   2.700   0.116   2.797  0.1913  0.3588 -0.1772
 7576SOL    HW134364   2.665   0.126   2.886  0.5560 -1.8289  0.2174
 7576SOL    HW234365   2.633   0.160   2.745 -1.5650 -0.1440  1.6524
 7577SOL     OW34366   2.756   3.400   1.617 -0.3878 -0.2683 -0.1659
 7577SOL    HW134367   2.798   3.377   1.700 -0.2951  1.2463  0.2168
 7577SOL    HW234368   2.681   3.340   1.616 -1.4394  1.0297  0.2193
 7578SOL     OW34369   1.174   4.421   3.775  0.1489 -0.5966 -0.0101
 7578SOL    HW134370   1.082   4.448   3.774  0.7435  1.3613 -2.1583
 7578SOL    HW234371   1.173   4.338   3.727  0.8191 -0.1057 -0.8808
 7579SOL     OW34372   1.816   0.977   5.908  0.1860 -0.5049  0.6199
 7579SOL    HW134373   1.754   0.918   5.950  0.7170 -0.7788  1.0193
 7579SOL    HW234374   1.803   0.958   5.815 -0.0812  1.6329  0.2136
 7580SOL     OW34375   1.755   2.793   2.343  0.7138 -0.2737 -0.4167
 7580SOL    HW134376   1.832   2.819   2.292 -0.4523 -0.8421 -2.4422
 7580SOL    HW234377   1.749   2.700   2.323  0.5409 -0.2758 -0.3586
 7581SOL     OW34378   3.720   2.425   0.820  0.2874 -0.5183 -0.2935
 7581SOL    HW134379   3.756   2.360   0.881  2.1551  1.7613  1.0144
 7581SOL    HW234380   3.706   2.496   0.883  1.8219 -0.9249  0.5014
 7582SOL     OW34381   2.828   1.701  15.490  0.8175 -0.1514  0.1758
 7582SOL    HW134382   2.802   1.750  15.568  0.5871  1.7889 -1.1228
 7582SOL    HW234383   2.815   1.765  15.421  2.2734 -1.0053 -0.8866
 7583SOL     OW34384   2.827   1.438  15.356 -0.0079  0.7153 -0.1744
 7583SOL    HW134385   2.816   1.522  15.401 -1.1270  0.4754  0.0006
 7583SOL    HW234386   2.911   1.408  15.391  0.4256  0.4074 -1.4797
 7584SOL     OW34387   2.961   3.220   2.536  0.3376  0.4738 -0.0752
 7584SOL    HW134388   3.056   3.219   2.530  0.3958  1.6634  0.5205
 7584SOL    HW234389   2.953   3.131   2.570  0.5691  0.8932  1.0626
 7585SOL     OW34390   3.893   4.381   1.623  0.2092  0.1873 -0.6141
 7585SOL    HW134391   3.837   4.454   1.597 -2.1958 -1.8614 -1.1538
 7585SOL    HW234392   3.940   4.421   1.696 -1.7135 -0.7168  1.1295
 7586SOL     OW34393   4.343   1.341  12.508 -0.2752 -0.3759  0.0521
 7586SOL    HW134394   4.333   1.413  12.570  2.3811  0.1752 -0.1667
 7586SOL    HW234395   4.331   1.386  12.424  0.2826 -0.5126 -0.1011
 7587SOL     OW34396   4.477   1.914  11.832  0.1740 -0.2001  0.3439
 7587SOL    HW134397   4.538   1.886  11.765 -0.0322  2.2903 -0.8934
 7587SOL    HW234398   4.446   1.998  11.797 -1.6383  0.6714  4.0364
 7588SOL     OW34399   4.732   0.410   2.566 -0.3435 -0.2224  0.3714
 7588SOL    HW134400   0.078   0.400   2.518 -0.1643 -1.6430  0.9948
 7588SOL    HW234401   4.717   0.501   2.538 -0.7016  0.2053  1.9981
 7589SOL     OW34402   0.930   1.629   4.303  0.6851 -0.4739  0.0420
 7589SOL    HW134403   0.914   1.548   4.351  0.7697  0.8446  2.2895
 7589SOL    HW234404   1.023   1.615   4.286  0.9089  0.1289  0.7329
 7590SOL     OW34405   0.507   0.989   9.804 -0.0096  0.6894  0.6054
 7590SOL    HW134406   0.451   0.920   9.768 -0.4507  1.6756 -0.5967
 7590SOL    HW234407   0.499   0.966   9.897 -1.1924  0.6838  0.5023
 7591SOL     OW34408   2.082   0.050   4.413 -0.4208 -0.0322 -0.4680
 7591SOL    HW134409   2.040   4.703   4.431 -1.8022  0.2917 -2.1635
 7591SOL    HW234410   2.005   0.106   4.401  0.9023  2.1725  1.4176
 7592SOL     OW34411   4.457   4.060   8.250 -0.1242 -0.4973  0.1290
 7592SOL    HW134412   4.468   4.117   8.174 -1.7330 -0.9207 -0.4431
 7592SOL    HW234413   4.536   4.006   8.253 -0.1564 -0.5109  0.6294
 7593SOL     OW34414   3.273   1.256  16.553  0.0189  0.0212  0.0216
 7593SOL    HW134415   3.238   1.218  16.633  0.6315 -1.6288 -0.4767
 7593SOL    HW234416   3.288   1.181  16.494  3.4092  0.6310  0.0737
 7594SOL     OW34417   3.006   0.043   7.941  0.3499 -0.0221  0.3132
 7594SOL    HW134418   3.016   0.049   8.036  0.8213  1.9727  0.1267
 7594SOL    HW234419   3.057   4.701   7.921 -1.2314 -0.5406 -1.7137
 7595SOL     OW34420   4.437   0.323   2.264  0.1047  0.2095  0.8608
 7595SOL    HW134421   4.525   0.290   2.245 -0.4076  0.2304 -1.5927
 7595SOL    HW234422   4.379   0.283   2.198  0.4803  1.8933 -0.4951
 7596SOL     OW34423   2.346   1.605  16.229  0.1184  0.1289 -0.2012
 7596SOL    HW134424   2.369   1.628  16.139 -1.1551  0.3837 -0.4695
 7596SOL    HW234425   2.337   1.685  16.280  0.1356  0.3921 -0.6111
 7597SOL     OW34426   1.760   1.773   6.729  0.4000  0.4010 -0.1831
 7597SOL    HW134427   1.854   1.793   6.728  0.2212  1.2403  0.3418
 7597SOL    HW234428   1.767   1.677   6.730  2.6577  0.5704  0.9091
 7598SOL     OW34429   1.761   1.432   2.498 -0.3662  0.0941  0.2903
 7598SOL    HW134430   1.738   1.357   2.443 -0.6920  0.2704  0.1839
 7598SOL    HW234431   1.674   1.470   2.512  0.0509  0.7620  1.0944
 7599SOL     OW34432   3.813   0.739   6.605 -0.0469  0.1949 -0.5796
 7599SOL    HW134433   3.907   0.722   6.613 -0.2274 -0.7731 -0.5226
 7599SOL    HW234434   3.808   0.812   6.667  3.5707 -0.4752  0.5133
 7600SOL     OW34435   0.276   1.024   9.324 -0.5369 -0.3931 -0.8828
 7600SOL    HW134436   0.279   0.967   9.247 -0.4005 -0.6502 -0.6862
 7600SOL    HW234437   0.188   1.012   9.362 -0.2855 -0.2090 -0.2507
 7601SOL     OW34438   0.925   2.852   5.336  0.1238 -0.4367  0.0178
 7601SOL    HW134439   1.014   2.887   5.335 -0.1863  0.4690  1.8931
 7601SOL    HW234440   0.886   2.882   5.419  1.2817 -0.4296  0.5610
 7602SOL     OW34441   1.527   1.782   5.737  0.4156 -0.2488 -0.0530
 7602SOL    HW134442   1.608   1.743   5.769  1.1951  1.7567  0.4272
 7602SOL    HW234443   1.479   1.788   5.820  0.6766  1.3183 -0.0057
 7603SOL     OW34444   2.992   2.707   4.738  0.0358 -0.3855  0.1825
 7603SOL    HW134445   2.954   2.656   4.809  0.2738  2.5985  2.4532
 7603SOL    HW234446   2.978   2.796   4.771  0.9510 -0.4928  0.8732
 7604SOL     OW34447   2.677   2.132  13.305 -0.5826 -0.0263  0.1126
 7604SOL    HW134448   2.584   2.121  13.284 -0.1763  1.2255 -2.1976
 7604SOL    HW234449   2.718   2.177  13.232 -3.2233  1.9517 -0.1509
 7605SOL     OW34450   1.724   1.026   3.430 -0.5411  0.1621 -0.6466
 7605SOL    HW134451   1.665   0.986   3.494 -0.1384  1.2471  0.3930
 7605SOL    HW234452   1.681   1.007   3.347  1.6413  4.4055 -2.7375
 7606SOL     OW34453   4.038   2.126   6.405  0.0429 -0.0321 -0.0758
 7606SOL    HW134454   4.132   2.143   6.404 -0.0769  0.5966 -1.3554
 7606SOL    HW234455   4.021   2.106   6.497 -0.2688  2.3916  0.3982
 7607SOL     OW34456   4.033   4.005   9.088 -0.1303 -0.1843  0.2927
 7607SOL    HW134457   4.078   3.960   9.160  0.7515  1.8236  0.9883
 7607SOL    HW234458   4.052   3.947   9.014 -1.1734 -1.9576  1.4075
 7608SOL     OW34459   2.493   2.284  15.206 -0.2963  0.3773 -0.5051
 7608SOL    HW134460   2.571   2.229  15.210  0.6557  1.6996 -0.7097
 7608SOL    HW234461   2.499   2.357  15.268 -1.0894 -0.4814  0.5870
 7609SOL     OW34462   1.969   4.490   4.774 -0.2261 -0.2050 -0.5347
 7609SOL    HW134463   1.910   4.458   4.705  0.7279 -0.2616 -1.3232
 7609SOL    HW234464   2.033   4.420   4.784  1.1389  1.1303  0.0513
 7610SOL     OW34465   4.383   0.800   3.665  0.0845 -0.0040  0.1650
 7610SOL    HW134466   4.308   0.808   3.608  0.0261  0.3554  0.2926
 7610SOL    HW234467   4.369   0.884   3.709 -1.4090  0.2650 -0.8303
 7611SOL     OW34468   0.030   0.018   9.609  0.6407  0.3503  0.6589
 7611SOL    HW134469   0.072   0.026   9.694  0.4190  0.8601  0.7250
 7611SOL    HW234470   0.015   4.661   9.613 -1.3397  0.7264  1.9794
 7612SOL     OW34471   2.519   1.342   8.477 -0.5565  0.0411 -0.1474
 7612SOL    HW134472   2.565   1.259   8.466 -2.0406 -0.5483 -1.8582
 7612SOL    HW234473   2.525   1.353   8.572 -0.9004 -0.5988 -0.0508
 7613SOL     OW34474   3.968   0.651   7.047  0.3319  0.0224 -0.3439
 7613SOL    HW134475   4.000   0.604   7.124 -0.7598 -0.6434 -0.3035
 7613SOL    HW234476   3.912   0.721   7.081  3.0295  1.3646  1.3479
 7614SOL     OW34477   1.174   2.115  11.646  0.0175 -0.4118 -0.2386
 7614SOL    HW134478   1.259   2.156  11.662  0.5264 -0.9823 -1.4650
 7614SOL    HW234479   1.114   2.189  11.647  0.4511 -0.0954  3.5672
 7615SOL     OW34480   0.879   4.661   3.174 -0.1658 -0.0611 -0.8868
 7615SOL    HW134481   0.925   4.584   3.142 -0.1865 -0.7597  0.7634
 7615SOL    HW234482   0.813   4.613   3.225  0.9792 -0.7053 -0.0076
 7616SOL     OW34483   1.048   3.975   5.293  0.3033  0.3918 -0.3288
 7616SOL    HW134484   1.062   4.026   5.373 -0.3704 -1.3546  0.9008
 7616SOL    HW234485   1.080   4.027   5.219  1.0655  1.1663  0.5605
 7617SOL     OW34486   4.089   2.916  14.924 -0.2128 -0.5454 -0.1888
 7617SOL    HW134487   4.081   2.886  14.834 -0.6038  0.2653 -0.4244
 7617SOL    HW234488   3.997   2.922  14.949 -0.3128  0.2764 -0.7452
 7618SOL     OW34489   1.374   0.430   5.740  0.0621 -0.0053 -0.1028
 7618SOL    HW134490   1.332   0.480   5.670  1.1813 -0.3292 -1.0015
 7618SOL    HW234491   1.386   0.495   5.809 -0.0370 -0.9283  0.7743
 7619SOL     OW34492   4.044   3.996   7.914 -0.2918 -0.0370 -0.0834
 7619SOL    HW134493   4.029   3.906   7.944 -0.5585 -0.3912 -1.2501
 7619SOL    HW234494   3.978   4.006   7.845 -0.2865 -1.8544 -0.3635
 7620SOL     OW34495   3.146   3.153   6.836 -0.2776  0.2399 -0.3152
 7620SOL    HW134496   3.203   3.227   6.818  0.5879  0.5108  3.4823
 7620SOL    HW234497   3.134   3.113   6.750 -0.3449  1.3739 -0.8200
 7621SOL     OW34498   4.369   0.691  13.862 -0.3192  0.1324 -0.1379
 7621SOL    HW134499   4.377   0.782  13.834  0.5493 -0.3885 -1.5570
 7621SOL    HW234500   4.357   0.642  13.781 -0.3509 -1.2903  0.7247
 7622SOL     OW34501   4.031   0.963   4.763  0.1393  0.1599 -0.3139
 7622SOL    HW134502   4.025   1.056   4.787 -2.9725 -0.7682  2.3868
 7622SOL    HW234503   3.998   0.928   4.845  1.1753  0.6580  0.3214
 7623SOL     OW34504   2.781   0.764   4.769  0.1649 -0.1058 -0.4832
 7623SOL    HW134505   2.739   0.686   4.733 -0.4119  0.1004 -0.2493
 7623SOL    HW234506   2.747   0.756   4.858 -0.2770 -2.6465 -0.8849
 7624SOL     OW34507   1.498   0.460   2.857  0.5849  0.0823  0.1316
 7624SOL    HW134508   1.427   0.523   2.867  0.5855 -0.5464  4.0368
 7624SOL    HW234509   1.508   0.456   2.762 -0.1672 -2.4968  0.1609
 7625SOL     OW34510   2.630   1.289  13.537  0.0740  0.3629 -0.0024
 7625SOL    HW134511   2.696   1.219  13.532 -1.3495 -1.0320  0.9555
 7625SOL    HW234512   2.666   1.353  13.597  0.4866  0.7356 -0.6410
 7626SOL     OW34513   4.232   2.209  16.031  0.0071 -0.2493  0.5880
 7626SOL    HW134514   4.176   2.282  16.055  2.4256  1.4110  1.2689
 7626SOL    HW234515   4.265   2.171  16.113 -2.4243  0.4585  1.8785
 7627SOL     OW34516   4.465   3.505   6.345  0.1276 -0.2177  1.0819
 7627SOL    HW134517   4.392   3.538   6.398  2.4587  0.7536  3.6540
 7627SOL    HW234518   4.492   3.427   6.394  0.7377 -0.1597  0.8399
 7628SOL     OW34519   1.496   3.640   7.943 -0.5391  0.1323 -0.3988
 7628SOL    HW134520   1.501   3.671   8.034 -0.0838  2.1134 -1.1003
 7628SOL    HW234521   1.450   3.557   7.952  1.0588 -0.6242  0.7477
 7629SOL     OW34522   2.646   3.317   3.879 -0.0535  0.0618 -0.1910
 7629SOL    HW134523   2.573   3.264   3.848  1.2945 -1.5710 -0.5509
 7629SOL    HW234524   2.606   3.371   3.948 -0.9297  0.0117 -0.6632
 7630SOL     OW34525   3.018   4.034   2.907  0.3268 -0.3248  0.3041
 7630SOL    HW134526   2.928   4.042   2.937 -0.0904 -0.9464 -0.7645
 7630SOL    HW234527   3.062   4.095   2.966 -1.1456  2.4116 -1.4584
 7631SOL     OW34528   0.069   0.610  17.369 -0.2158  0.1802  0.4808
 7631SOL    HW134529   0.164   0.613  17.379 -0.4877 -1.0135  3.2865
 7631SOL    HW234530   0.053   0.705  17.373  0.7188  0.3367  0.6030
 7632SOL     OW34531   1.003   1.374   8.172  0.2834 -0.0457  0.0370
 7632SOL    HW134532   1.060   1.328   8.110 -1.3639 -0.8678 -0.8713
 7632SOL    HW234533   1.053   1.354   8.251  0.9911 -1.0905 -0.6696
 7633SOL     OW34534   2.603   2.178   3.908  0.6517 -0.3450 -0.4112
 7633SOL    HW134535   2.697   2.173   3.892  1.3056  1.4778  2.9552
 7633SOL    HW234536   2.567   2.125   3.837 -1.0709  0.7789 -0.3985
 7634SOL     OW34537   0.400   1.046  11.565 -0.0801 -0.2112 -0.1572
 7634SOL    HW134538   0.413   1.141  11.560 -2.5817  0.1101 -0.4779
 7634SOL    HW234539   0.331   1.045  11.631 -1.3631 -2.1555 -1.5359
 7635SOL     OW34540   1.104   3.085  15.066  0.2166 -0.3345  0.7689
 7635SOL    HW134541   1.167   3.109  15.134 -1.5385  1.5695  1.7318
 7635SOL    HW234542   1.146   3.117  14.986 -1.3899 -0.1470  0.0016
 7636SOL     OW34543   3.396   0.775   7.331 -0.1861  0.4663 -0.0000
 7636SOL    HW134544   3.373   0.684   7.311  0.2095  0.7656 -1.7885
 7636SOL    HW234545   3.437   0.764   7.417  1.5852  0.4228 -0.8458
 7637SOL     OW34546   2.726   0.364   5.198  0.1231  0.8328 -0.4804
 7637SOL    HW134547   2.664   0.305   5.155  0.5829 -0.7553  1.0905
 7637SOL    HW234548   2.686   0.380   5.283  0.3866 -1.1431  0.0168
 7638SOL     OW34549   4.252   0.674  14.129  0.4685 -0.2781 -0.0569
 7638SOL    HW134550   4.282   0.688  14.039 -2.0413 -1.2942 -1.0600
 7638SOL    HW234551   4.291   0.759  14.149 -0.1225  0.3424 -1.5023
 7639SOL     OW34552   3.487   1.718  11.899 -0.8233 -0.5871  0.1970
 7639SOL    HW134553   3.576   1.737  11.928 -0.1518 -0.0050 -2.2159
 7639SOL    HW234554   3.506   1.648  11.836 -1.8678 -1.6855  1.1015
 7640SOL     OW34555   0.200   1.048  11.753 -0.1091  0.1421 -0.5472
 7640SOL    HW134556   0.143   1.111  11.798  0.3217  1.2987 -1.6310
 7640SOL    HW234557   0.215   0.986  11.824  0.2897  0.6246 -0.2121
 7641SOL     OW34558   0.290   4.245   0.458 -0.0179 -0.0616 -0.0535
 7641SOL    HW134559   0.275   4.205   0.544 -2.7406  2.1300  0.4799
 7641SOL    HW234560   0.202   4.267   0.430 -1.2055 -1.7824  2.2807
 7642SOL     OW34561   0.976   1.609  12.969  0.1278 -0.3344 -0.0874
 7642SOL    HW134562   0.898   1.603  12.913  1.2118 -0.9785 -1.5164
 7642SOL    HW234563   1.034   1.650  12.905 -1.7128  2.7114  0.1905
 7643SOL     OW34564   4.053   2.606   9.027  0.2114 -0.1379  0.2793
 7643SOL    HW134565   4.059   2.580   8.935 -1.8001  0.3117  0.0266
 7643SOL    HW234566   4.129   2.556   9.058 -0.0666 -1.3867 -1.0417
 7644SOL     OW34567   4.668   3.618   2.202  0.7383 -0.0814  0.0536
 7644SOL    HW134568   4.584   3.624   2.155 -0.1638 -1.3353  1.5319
 7644SOL    HW234569   4.646   3.663   2.283 -0.3806  0.0632 -0.3354
 7645SOL     OW34570   3.013   2.507   8.471  0.5256  0.4155 -0.3578
 7645SOL    HW134571   3.003   2.513   8.376 -0.0654 -2.5044 -0.4749
 7645SOL    HW234572   3.053   2.420   8.475  2.5188  1.3283 -0.4746
 7646SOL     OW34573   3.782   0.256  11.230  0.1530 -0.9759 -0.2881
 7646SOL    HW134574   3.844   0.225  11.163 -0.3078 -2.1296 -0.1712
 7646SOL    HW234575   3.706   0.203  11.208 -1.4050  1.7228 -1.4113
 7647SOL     OW34576   2.199   4.512  13.083 -0.2611  0.2563 -0.5358
 7647SOL    HW134577   2.200   4.444  13.151 -0.8171  0.0501 -0.7364
 7647SOL    HW234578   2.149   4.587  13.116 -0.2383 -0.6219  1.5084
 7648SOL     OW34579   2.928   2.395  16.046  0.8371 -0.2370  0.1387
 7648SOL    HW134580   3.023   2.395  16.058  0.7957 -0.6231  0.4523
 7648SOL    HW234581   2.918   2.483  16.009  2.3106  0.0751  0.4952
 7649SOL     OW34582   3.719   2.175   2.194 -0.6703  0.4408 -0.1751
 7649SOL    HW134583   3.711   2.206   2.284  0.6987 -1.3503  0.5471
 7649SOL    HW234584   3.633   2.147   2.161 -0.5040 -0.1030 -0.1395
 7650SOL     OW34585   0.227   1.459   7.643  0.5812  0.2882  0.6081
 7650SOL    HW134586   0.302   1.468   7.702  0.0656  0.3122  1.2548
 7650SOL    HW234587   0.234   1.547   7.606  1.1002  1.2495  3.0139
 7651SOL     OW34588   0.023   0.510   0.953  0.1676  0.3022 -0.5850
 7651SOL    HW134589   0.111   0.546   0.937  0.7184 -0.9573 -0.3655
 7651SOL    HW234590   0.017   0.487   1.046  3.4688 -0.5064 -0.5673
 7652SOL     OW34591   1.224   1.915   7.456  0.6996 -0.2792  0.0438
 7652SOL    HW134592   1.258   1.879   7.374  0.8350 -2.6798  1.1681
 7652SOL    HW234593   1.180   1.835   7.485 -2.7052  1.0781 -1.3912
 7653SOL     OW34594   1.635   2.057   7.676  0.1154 -0.1202 -0.0478
 7653SOL    HW134595   1.631   2.096   7.763 -0.5960  1.0207 -0.5989
 7653SOL    HW234596   1.717   2.010   7.692  0.3271 -0.3415 -1.7463
 7654SOL     OW34597   2.930   0.795  16.083 -0.8795  0.0642  0.0503
 7654SOL    HW134598   2.980   0.851  16.024 -1.0597 -0.0319 -0.1911
 7654SOL    HW234599   2.900   0.730  16.020  1.7572 -1.0549 -0.0492
 7655SOL     OW34600   2.163   2.342   8.362  0.2484 -0.5342 -0.1724
 7655SOL    HW134601   2.149   2.254   8.395 -2.7772 -0.6903 -1.8674
 7655SOL    HW234602   2.208   2.318   8.281  1.2080 -1.6133  0.6854
 7656SOL     OW34603   0.011   4.708  12.339  0.4368  0.1975 -0.4896
 7656SOL    HW134604   4.710   4.622  12.358  1.3353 -0.1646 -0.3388
 7656SOL    HW234605   4.697   0.006  12.265 -0.1277 -1.6703 -0.9720
 7657SOL     OW34606   0.846   1.830   7.635  0.3096  0.5102 -0.3933
 7657SOL    HW134607   0.849   1.857   7.543 -0.5788 -0.7978 -0.8014
 7657SOL    HW234608   0.778   1.889   7.666  0.6746  0.4996  0.4125
 7658SOL     OW34609   1.357   4.319   5.823 -0.3108  0.5765  0.1672
 7658SOL    HW134610   1.370   4.238   5.871  1.5688  1.5645  1.3428
 7658SOL    HW234611   1.353   4.276   5.737  0.2268 -0.1659  0.5194
 7659SOL     OW34612   1.241   3.519   7.051  0.1828 -0.6981 -0.0858
 7659SOL    HW134613   1.222   3.429   7.026 -0.9510 -1.0372  1.9834
 7659SOL    HW234614   1.202   3.568   6.979 -0.1140 -1.2949 -0.3261
 7660SOL     OW34615   4.330   0.551   1.910 -0.2933 -0.2615 -0.0170
 7660SOL    HW134616   4.290   0.484   1.855 -0.5291 -0.4605  0.3979
 7660SOL    HW234617   4.278   0.546   1.991 -2.5868  1.3129 -1.3935
 7661SOL     OW34618   3.955   3.573   5.843  0.0037 -0.0728  0.3076
 7661SOL    HW134619   4.009   3.573   5.764  1.1049  1.3193  1.0552
 7661SOL    HW234620   3.921   3.663   5.844 -1.2158 -0.5478  1.3221
 7662SOL     OW34621   1.744   1.885   8.030 -0.1256  0.3361  0.6594
 7662SOL    HW134622   1.653   1.864   8.007  0.0225 -1.0367  1.3093
 7662SOL    HW234623   1.748   1.980   8.021 -1.3898  0.3963  0.7323
 7663SOL     OW34624   0.118   1.377   6.520 -0.5756 -0.3898 -0.1371
 7663SOL    HW134625   0.138   1.342   6.607 -1.6248  1.2020  0.7729
 7663SOL    HW234626   0.206   1.371   6.484 -1.0511 -2.1921 -0.9789
 7664SOL     OW34627   0.518   4.595   6.884  0.0377 -0.2665  0.0021
 7664SOL    HW134628   0.488   4.509   6.854 -1.1944  0.6232 -1.3038
 7664SOL    HW234629   0.562   4.568   6.965  1.2314 -1.6169 -1.0947
 7665SOL     OW34630   2.209   0.986   9.728 -0.4989 -0.2425 -0.5801
 7665SOL    HW134631   2.209   0.942   9.813 -0.3417 -0.5226 -0.7236
 7665SOL    HW234632   2.175   0.917   9.671  0.4336  0.7035 -2.2607
 7666SOL     OW34633   3.316   1.405   2.323  0.3717 -0.8842  0.0256
 7666SOL    HW134634   3.291   1.324   2.367 -0.6506 -0.6368 -0.1030
 7666SOL    HW234635   3.245   1.465   2.347  1.4336  0.1827  0.5241
 7667SOL     OW34636   0.380   4.045   9.674  0.2940  0.8593 -0.0353
 7667SOL    HW134637   0.326   4.123   9.663  0.8050  1.2809  0.4484
 7667SOL    HW234638   0.325   3.978   9.633 -1.6814  1.3906  1.7222
 7668SOL     OW34639   3.376   3.474  17.622  0.3201 -0.1053 -0.7609
 7668SOL    HW134640   3.299   3.426  17.653 -0.1959 -0.2420 -2.2685
 7668SOL    HW234641   3.372   3.538  17.693  1.2168 -0.5125 -0.3454
 7669SOL     OW34642   0.263   0.069   2.857  0.0836  0.0230 -0.3229
 7669SOL    HW134643   0.289   4.717   2.835  0.3773 -0.2037  0.9701
 7669SOL    HW234644   0.208   0.051   2.933 -0.2961 -0.8885 -0.8126
 7670SOL     OW34645   4.242   3.798  11.616 -0.1949  0.3704 -0.0892
 7670SOL    HW134646   4.279   3.878  11.580  0.9687 -0.2836 -0.3310
 7670SOL    HW234647   4.322   3.748  11.630 -1.2851 -0.9415  1.3965
 7671SOL     OW34648   0.876   1.765   9.406  0.1205 -0.2893 -0.0882
 7671SOL    HW134649   0.927   1.710   9.347  1.3596  1.0142 -0.2239
 7671SOL    HW234650   0.897   1.722   9.489  0.0574  1.3881  0.8110
 7672SOL     OW34651   3.746   2.991   7.745  0.1213  0.2404 -0.0745
 7672SOL    HW134652   3.694   2.921   7.785 -1.5151  1.0316 -0.8152
 7672SOL    HW234653   3.693   3.066   7.774 -0.1747 -0.1473  0.3786
 7673SOL     OW34654   4.624   0.708  11.165 -0.0535  0.2182  0.2576
 7673SOL    HW134655   4.678   0.692  11.242 -0.4224  0.6915  0.6131
 7673SOL    HW234656   4.542   0.672  11.199 -0.4791  0.6027 -0.3674
 7674SOL     OW34657   3.620   4.650   6.838 -0.0774  0.3232  0.4001
 7674SOL    HW134658   3.559   4.580   6.817 -0.2224  0.7121 -0.5022
 7674SOL    HW234659   3.601   4.676   6.928 -0.7625 -0.2840  0.4259
 7675SOL     OW34660   0.724   3.187   4.464 -0.3481  0.0449 -0.1258
 7675SOL    HW134661   0.661   3.115   4.455 -1.2541  0.4644  2.9656
 7675SOL    HW234662   0.753   3.165   4.552 -0.8070  0.7708  0.2100
 7676SOL     OW34663   0.687   3.543   6.894  0.5481  0.9892  0.1598
 7676SOL    HW134664   0.638   3.623   6.913  0.8432  1.6387 -1.7547
 7676SOL    HW234665   0.701   3.556   6.800 -3.5670  1.0694 -0.4496
 7677SOL     OW34666   0.435   1.130  10.056 -0.2187 -0.0677 -0.0118
 7677SOL    HW134667   0.360   1.151  10.111 -0.7351 -0.0893 -0.7035
 7677SOL    HW234668   0.407   1.040  10.043  2.2450 -0.9476  0.7947
 7678SOL     OW34669   1.439   4.015   3.585 -0.0139 -0.5149  0.3870
 7678SOL    HW134670   1.467   3.970   3.665  0.1174  1.0402  1.2222
 7678SOL    HW234671   1.405   3.935   3.546  0.5198 -0.3230 -0.4752
 7679SOL     OW34672   4.178   2.576   4.629 -0.6755 -0.2510 -0.0017
 7679SOL    HW134673   4.260   2.603   4.671 -0.5332  1.0043 -1.0870
 7679SOL    HW234674   4.193   2.483   4.612 -1.7135 -0.5681  0.8551
 7680SOL     OW34675   2.004   1.849   3.212 -0.1855  0.0129  0.9514
 7680SOL    HW134676   2.081   1.894   3.248 -0.5640  1.6850 -0.3687
 7680SOL    HW234677   1.994   1.894   3.129 -1.0431 -0.8969  0.5654
 7681SOL     OW34678   4.540   3.739   5.464  0.2870 -0.0096 -0.6515
 7681SOL    HW134679   4.594   3.777   5.394 -1.2886  1.0413 -1.2898
 7681SOL    HW234680   4.502   3.663   5.419 -1.0271  0.8101 -0.9079
 7682SOL     OW34681   1.077   3.332  17.053  0.3242  0.6252 -0.5983
 7682SOL    HW134682   1.110   3.258  17.105  0.6282  0.9214 -0.3648
 7682SOL    HW234683   1.098   3.405  17.112  0.1182  0.7945 -0.7355
 7683SOL     OW34684   0.898   1.539   0.697 -0.1789 -0.1407  0.1696
 7683SOL    HW134685   0.861   1.451   0.706  1.0043 -0.5315  1.2827
 7683SOL    HW234686   0.869   1.579   0.778 -2.0914  0.3349 -0.7523
 7684SOL     OW34687   4.362   1.538  14.671 -0.5734 -0.5672 -0.6021
 7684SOL    HW134688   4.398   1.545  14.582  1.4623  3.3849  0.5184
 7684SOL    HW234689   4.424   1.586  14.727 -1.4155 -0.4735  0.2409
 7685SOL     OW34690   1.193   3.448   2.779  0.1029  0.8521  0.4676
 7685SOL    HW134691   1.246   3.523   2.753 -0.4663  0.4905 -1.7909
 7685SOL    HW234692   1.214   3.445   2.872 -0.4637 -0.1234  0.5630
 7686SOL     OW34693   2.871   3.189  11.657  0.1182  0.3541 -0.1213
 7686SOL    HW134694   2.844   3.097  11.652  0.6128  0.3091 -1.9528
 7686SOL    HW234695   2.797   3.235  11.696 -0.5612  0.2524 -1.3025
 7687SOL     OW34696   4.222   4.331   6.752  0.2801 -0.0223 -0.4324
 7687SOL    HW134697   4.265   4.335   6.667  1.2947  2.8284  0.2337
 7687SOL    HW234698   4.145   4.381   6.727  0.3204  0.6694  0.8259
 7688SOL     OW34699   4.573   4.614  17.539  0.1789 -0.2385 -0.1464
 7688SOL    HW134700   4.592   4.643  17.449 -0.3625 -0.8032 -0.4473
 7688SOL    HW234701   4.658   4.634  17.578  0.5845  0.2148 -1.2634
 7689SOL     OW34702   3.921   3.722   6.163  0.1332  0.0055  0.4193
 7689SOL    HW134703   3.906   3.713   6.257  0.6910 -0.7755  0.4257
 7689SOL    HW234704   3.860   3.795   6.147 -1.3011 -0.9392  1.6467
 7690SOL     OW34705   4.551   3.808   1.867  0.2129 -0.7272  0.8022
 7690SOL    HW134706   4.544   3.903   1.875  2.3284 -0.6054  1.2292
 7690SOL    HW234707   4.644   3.789   1.853  0.2674 -0.1524  0.3766
 7691SOL     OW34708   3.227   1.651   7.051  0.4990  0.1967 -0.1801
 7691SOL    HW134709   3.185   1.628   6.968 -0.2807 -2.3482  0.9016
 7691SOL    HW234710   3.261   1.736   7.023 -0.3827  0.6587  0.1466
 7692SOL     OW34711   1.023   0.944   2.018  0.1695 -0.5360 -0.2443
 7692SOL    HW134712   0.978   1.002   2.079  3.2950  0.6427  0.9366
 7692SOL    HW234713   0.972   0.954   1.937  0.6778 -1.0778 -0.6326
 7693SOL     OW34714   2.669   4.249   5.105  0.5098  0.4503 -0.0919
 7693SOL    HW134715   2.762   4.258   5.084  0.2391  1.1148 -0.9793
 7693SOL    HW234716   2.668   4.284   5.194 -0.8146  0.1526  0.0092
 7694SOL     OW34717   2.349   2.453  11.110  0.0737 -0.2896 -0.2967
 7694SOL    HW134718   2.433   2.453  11.064 -1.0371  0.4151 -2.2978
 7694SOL    HW234719   2.382   2.456  11.200 -1.8215 -1.3336  0.4155
 7695SOL     OW34720   3.496   4.287   1.654 -0.1358 -0.9219 -0.2103
 7695SOL    HW134721   3.462   4.274   1.742  1.1684 -2.7446  0.0192
 7695SOL    HW234722   3.573   4.344   1.664 -0.1101 -0.7050 -1.6633
 7696SOL     OW34723   1.164   1.523   5.036 -0.9535 -0.2611  0.2229
 7696SOL    HW134724   1.208   1.521   5.121 -0.5246 -0.1656  0.0025
 7696SOL    HW234725   1.111   1.602   5.049 -0.7508 -0.0274 -0.3705
 7697SOL     OW34726   0.865   3.870   6.099 -0.3308  0.1825  0.3592
 7697SOL    HW134727   0.918   3.860   6.020 -0.9453  0.0660 -0.0378
 7697SOL    HW234728   0.777   3.883   6.066 -0.8521  0.0614  1.7032
 7698SOL     OW34729   0.036   1.547   5.895 -0.3333 -0.1382  0.1046
 7698SOL    HW134730   0.037   1.617   5.830  2.7418 -1.4928 -1.3143
 7698SOL    HW234731   4.691   1.563   5.942  0.0921  3.3150 -0.3275
 7699SOL     OW34732   4.572   3.416  17.567  0.4327  0.2557  0.3805
 7699SOL    HW134733   4.615   3.331  17.562  1.4878  0.7563  0.9947
 7699SOL    HW234734   4.621   3.457  17.495 -2.7461  2.0119 -0.8094
 7700SOL     OW34735   2.005   0.761   6.544  0.0384  0.3617  0.7916
 7700SOL    HW134736   1.974   0.828   6.605 -4.2156 -3.3133  2.6266
 7700SOL    HW234737   2.004   0.816   6.465 -0.1664 -2.6936 -1.3226
 7701SOL     OW34738   0.523   3.007   4.376 -0.1677  0.1372 -0.9354
 7701SOL    HW134739   0.540   2.968   4.290 -0.2342 -1.7775 -0.0792
 7701SOL    HW234740   0.442   3.054   4.355 -0.6329  0.4290  1.6108
 7702SOL     OW34741   4.216   3.398   0.935 -0.5106 -0.2756 -0.2949
 7702SOL    HW134742   4.153   3.329   0.956  0.6595 -0.7196  1.7727
 7702SOL    HW234743   4.175   3.448   0.864 -2.4990 -0.6151  0.6304
 7703SOL     OW34744   2.760   3.632   9.405 -0.2575  0.3482  0.3877
 7703SOL    HW134745   2.705   3.665   9.476  1.0619 -1.9757  2.4971
 7703SOL    HW234746   2.819   3.706   9.397 -1.6533  1.5318  0.9513
 7704SOL     OW34747   1.998   4.131   0.939  0.3579 -0.1984 -0.0488
 7704SOL    HW134748   1.986   4.039   0.959 -1.3666  0.0777  0.2012
 7704SOL    HW234749   1.979   4.126   0.846  1.8499 -0.8955 -0.3110
 7705SOL     OW34750   4.139   3.657  13.161  0.4715  0.2267 -0.4936
 7705SOL    HW134751   4.150   3.683  13.253  0.8734  2.4859 -1.1746
 7705SOL    HW234752   4.086   3.578  13.167  0.6969  0.2344  1.8106
 7706SOL     OW34753   0.841   4.251   8.122  0.3208 -0.5154  0.5693
 7706SOL    HW134754   0.924   4.209   8.147  1.0476  0.3655 -0.3847
 7706SOL    HW234755   0.877   4.337   8.101 -1.7022  0.3272  0.5599
 7707SOL     OW34756   3.455   3.618  10.516 -0.5865 -0.7055 -0.1087
 7707SOL    HW134757   3.442   3.605  10.610 -2.2370  1.3332 -0.0470
 7707SOL    HW234758   3.549   3.637  10.514 -0.5783 -0.6346  0.7856
 7708SOL     OW34759   1.958   1.304   1.846  0.5692 -0.3556 -0.6183
 7708SOL    HW134760   1.898   1.235   1.875  0.8237 -0.9967 -1.6564
 7708SOL    HW234761   1.947   1.294   1.752 -0.0487  1.6308 -0.7739
 7709SOL     OW34762   3.599   0.596  11.899  0.2462 -0.2674  0.2064
 7709SOL    HW134763   3.516   0.634  11.927  0.5749  1.0605 -0.6193
 7709SOL    HW234764   3.647   0.613  11.980 -0.7751 -1.4047  1.0482
 7710SOL     OW34765   0.305   0.086  12.001  0.0098 -0.4035 -0.4059
 7710SOL    HW134766   0.269   0.173  11.984  0.7108 -0.0429 -0.0382
 7710SOL    HW234767   0.393   0.110  12.031 -0.0435  2.7672 -2.8032
 7711SOL     OW34768   3.548   0.326   5.810  0.2108 -0.6372 -0.8732
 7711SOL    HW134769   3.505   0.312   5.726 -0.2108 -1.9960 -0.4326
 7711SOL    HW234770   3.638   0.313   5.782  0.2833  1.7340 -1.7023
 7712SOL     OW34771   0.129   0.272   9.350 -0.1151 -0.4058 -0.0161
 7712SOL    HW134772   0.090   0.288   9.436  0.6570  0.2873  0.1942
 7712SOL    HW234773   0.082   0.190   9.332  0.2149 -0.6377  0.1829
 7713SOL     OW34774   0.686   3.050   6.353 -0.3716  0.0290 -0.2853
 7713SOL    HW134775   0.773   3.015   6.370 -0.2949 -0.4597 -1.6885
 7713SOL    HW234776   0.629   2.974   6.364 -0.0885 -0.2818 -0.9369
 7714SOL     OW34777   1.227   1.613   0.926 -0.0162 -0.1252  0.0972
 7714SOL    HW134778   1.167   1.642   0.994  0.0101 -2.2608  1.0043
 7714SOL    HW234779   1.307   1.665   0.938  1.6693 -3.1204  1.8370
 7715SOL     OW34780   1.784   0.272  10.524 -0.1603  0.6793  0.1823
 7715SOL    HW134781   1.834   0.299  10.602  0.5025 -0.6913  0.2356
 7715SOL    HW234782   1.834   0.308  10.451  0.4103 -1.6125 -0.5393
 7716SOL     OW34783   0.592   2.470   4.916 -0.0975  0.0241  0.2984
 7716SOL    HW134784   0.615   2.380   4.894  0.1117  0.0242  0.5166
 7716SOL    HW234785   0.521   2.439   4.973 -1.5207 -0.8311 -1.9356
 7717SOL     OW34786   4.070   0.236   4.121 -0.4095 -0.0666  0.0640
 7717SOL    HW134787   4.027   0.295   4.058 -1.9110  0.1026  1.2338
 7717SOL    HW234788   4.055   0.283   4.203 -0.3895 -0.7309  0.4448
 7718SOL     OW34789   4.619   0.644   8.733 -0.2695 -0.1456  0.1777
 7718SOL    HW134790   4.534   0.681   8.759  0.0827  0.2195  0.8088
 7718SOL    HW234791   4.593   0.609   8.648 -2.3618 -0.0345  0.7672
 7719SOL     OW34792   2.436   1.702   8.512  0.6268 -0.2397 -0.3806
 7719SOL    HW134793   2.428   1.663   8.599 -0.8090  0.8306 -0.0484
 7719SOL    HW234794   2.499   1.774   8.519 -0.1695  0.3681  0.4242
 7720SOL     OW34795   3.187   0.353   5.535 -0.0863  0.0951  0.2614
 7720SOL    HW134796   3.151   0.373   5.622  2.4693  0.6966  1.1705
 7720SOL    HW234797   3.113   0.347   5.475  1.0443 -0.7715 -1.0290
 7721SOL     OW34798   0.858   3.569   5.334  0.1620  0.2585 -0.3566
 7721SOL    HW134799   0.800   3.494   5.322 -0.5044  0.9431 -1.4310
 7721SOL    HW234800   0.921   3.568   5.261 -1.7828  1.9005 -2.0454
 7722SOL     OW34801   0.961   3.397   9.392 -0.7869  0.4071  0.3441
 7722SOL    HW134802   0.944   3.452   9.468  0.7375 -0.1635  1.0860
 7722SOL    HW234803   0.928   3.443   9.315 -0.1360 -0.9527 -0.7518
 7723SOL     OW34804   4.032   0.502   7.277  0.0054 -0.5198  0.3845
 7723SOL    HW134805   4.120   0.509   7.312  0.8363  0.1758 -1.8057
 7723SOL    HW234806   3.979   0.508   7.356 -2.7740  1.5104 -1.5927
 7724SOL     OW34807   0.807   2.791   6.508  0.0516 -0.0695 -0.3484
 7724SOL    HW134808   0.716   2.768   6.530  0.4312 -0.6187  0.6415
 7724SOL    HW234809   0.854   2.729   6.563 -2.8967 -1.9592  0.0859
 7725SOL     OW34810   1.815   0.356   2.448  0.0161 -0.5337  0.4198
 7725SOL    HW134811   1.875   0.381   2.377  1.0339 -0.1183  1.4347
 7725SOL    HW234812   1.776   0.274   2.417 -0.0452 -0.3979  0.1355
 7726SOL     OW34813   1.510   2.291  13.380 -0.1356  0.5459 -0.2239
 7726SOL    HW134814   1.542   2.346  13.451 -1.2729  1.0789 -0.1122
 7726SOL    HW234815   1.581   2.280  13.316  1.3388 -1.2175  1.7255
 7727SOL     OW34816   1.747   1.270   8.239  0.2499 -0.2971 -0.1152
 7727SOL    HW134817   1.804   1.241   8.309 -0.1947  1.4362  0.9393
 7727SOL    HW234818   1.789   1.355   8.228  1.7488 -0.8796  1.0830
 7728SOL     OW34819   0.476   4.325   6.895  0.0477 -0.4533 -0.1906
 7728SOL    HW134820   0.455   4.307   6.803  3.8242  2.2368 -1.5857
 7728SOL    HW234821   0.512   4.242   6.924  2.2017  0.6782  0.3943
 7729SOL     OW34822   3.609   2.194   7.697 -0.3724 -0.2196 -0.0732
 7729SOL    HW134823   3.636   2.277   7.737 -0.5420 -0.1503 -0.1034
 7729SOL    HW234824   3.636   2.127   7.759 -0.1044 -0.7975 -0.8080
 7730SOL     OW34825   3.767   3.583   2.469  0.3684 -0.2173  0.0786
 7730SOL    HW134826   3.682   3.574   2.510  0.0779 -1.7993 -0.8936
 7730SOL    HW234827   3.793   3.670   2.501  0.9263 -0.7365  1.0239
 7731SOL     OW34828   1.854   1.089   9.640  0.2229  0.8360  0.5455
 7731SOL    HW134829   1.946   1.076   9.618 -0.1789 -0.3380 -0.3978
 7731SOL    HW234830   1.844   1.167   9.695 -1.4818 -1.2523  3.2077
 7732SOL     OW34831   0.159   3.951   7.260 -0.4328  0.1803 -0.3563
 7732SOL    HW134832   0.184   3.863   7.286 -0.2808  0.8444  1.7363
 7732SOL    HW234833   0.070   3.932   7.230  0.1047 -0.3312 -1.6358
 7733SOL     OW34834   0.986   1.593   9.236  0.2611 -0.3343 -0.4978
 7733SOL    HW134835   0.928   1.556   9.169 -0.0717 -1.1437  0.2375
 7733SOL    HW234836   1.004   1.517   9.291  0.4190  0.2241  0.2226
 7734SOL     OW34837   1.341   2.509  11.926  0.3020 -0.1138  0.2853
 7734SOL    HW134838   1.253   2.541  11.902  0.1274  0.5319  1.8213
 7734SOL    HW234839   1.394   2.584  11.954  1.7831 -0.3264 -1.9499
 7735SOL     OW34840   0.477   3.137   8.548 -0.2823 -0.5095 -0.2306
 7735SOL    HW134841   0.466   3.224   8.510 -0.2894 -0.4834 -0.1683
 7735SOL    HW234842   0.404   3.110   8.604 -0.1128  1.1908  0.8023
 7736SOL     OW34843   0.001   1.267  13.481  0.2127  0.4077  0.1164
 7736SOL    HW134844   0.032   1.192  13.429  1.3021 -0.5266  2.1116
 7736SOL    HW234845   0.085   1.284  13.524 -0.1030 -0.1922  0.9635
 7737SOL     OW34846   3.229   0.601   4.136  0.7115 -0.0411 -0.7813
 7737SOL    HW134847   3.274   0.578   4.217 -0.6564 -2.2752 -0.6579
 7737SOL    HW234848   3.140   0.595   4.171  1.6148  0.4388  1.6092
 7738SOL     OW34849   1.540   2.579   3.499 -0.4699 -0.7610  0.6190
 7738SOL    HW134850   1.494   2.503   3.534 -1.8463 -0.7161 -1.0744
 7738SOL    HW234851   1.541   2.553   3.407  0.5494  0.9181  0.1442
 7739SOL     OW34852   1.945   0.844  14.236  0.4950 -0.4167 -0.2117
 7739SOL    HW134853   1.971   0.934  14.255  1.6217 -0.9338  0.6959
 7739SOL    HW234854   1.872   0.862  14.176 -0.4883  3.9092  2.2804
 7740SOL     OW34855   0.809   2.694   5.571  0.2830  0.5412 -0.3421
 7740SOL    HW134856   0.774   2.784   5.566 -2.1298 -0.3223  0.6362
 7740SOL    HW234857   0.751   2.669   5.644  0.0970 -0.6071 -0.8830
 7741SOL     OW34858   3.136   1.061   0.289  0.7353  0.0325 -0.2833
 7741SOL    HW134859   3.112   0.969   0.302 -0.7200  0.5842  0.8649
 7741SOL    HW234860   3.175   1.043   0.203 -1.9750  1.8542 -1.8739
 7742SOL     OW34861   0.884   3.542   4.202  0.5534 -0.3285 -0.3402
 7742SOL    HW134862   0.860   3.582   4.118 -2.0252 -1.8911 -0.3511
 7742SOL    HW234863   0.817   3.474   4.195 -0.0088  0.0683  1.2675
 7743SOL     OW34864   1.780   4.352   4.536 -0.0118 -0.4966  0.0743
 7743SOL    HW134865   1.737   4.331   4.620 -0.3399  0.0135  0.0314
 7743SOL    HW234866   1.791   4.265   4.498  1.1535  0.1408 -1.0176
 7744SOL     OW34867   3.119   2.215  10.910 -0.1564  0.0730  0.3249
 7744SOL    HW134868   3.161   2.298  10.932 -1.9122  0.9792  0.2456
 7744SOL    HW234869   3.164   2.147  10.960  0.1257 -0.9259 -1.2834
 7745SOL     OW34870   1.888   4.581   6.895  0.3232  0.0952  0.0614
 7745SOL    HW134871   1.822   4.647   6.917 -0.4336 -0.9496  0.9170
 7745SOL    HW234872   1.939   4.640   6.840  1.0687 -0.6785 -0.0730
 7746SOL     OW34873   0.484   2.209  11.999 -0.6820  0.1892 -0.3701
 7746SOL    HW134874   0.539   2.196  11.922  0.0252  0.0446  0.1625
 7746SOL    HW234875   0.512   2.297  12.022  1.1845 -0.1624 -1.3286
 7747SOL     OW34876   1.037   3.519   7.719  0.0366  0.2235  0.6750
 7747SOL    HW134877   0.994   3.437   7.744 -1.0776  0.2800 -1.0928
 7747SOL    HW234878   1.014   3.576   7.793  2.7342  1.0846  0.8650
 7748SOL     OW34879   3.154   1.814   3.469  0.0968  0.5678  0.1482
 7748SOL    HW134880   3.102   1.894   3.478 -0.4325 -0.0134  2.1238
 7748SOL    HW234881   3.086   1.749   3.487  0.1031  0.3382 -0.6332
 7749SOL     OW34882   2.680   1.037   3.609 -0.1687  0.0693  0.1377
 7749SOL    HW134883   2.641   1.087   3.537 -1.3913 -1.2489 -0.0950
 7749SOL    HW234884   2.609   1.052   3.671 -0.7780  1.6428 -0.9238
 7750SOL     OW34885   3.923   3.716   3.057 -0.2636 -0.1524  0.1499
 7750SOL    HW134886   3.872   3.748   2.983  0.2474 -0.1925 -0.2198
 7750SOL    HW234887   3.911   3.624   3.034  2.2103 -1.4345  3.9998
 7751SOL     OW34888   0.567   0.699  13.206  0.1524  0.1521  0.0646
 7751SOL    HW134889   0.546   0.722  13.116  2.1237 -3.7798 -1.3870
 7751SOL    HW234890   0.486   0.658  13.237 -0.7772  1.0307 -1.2151
 7752SOL     OW34891   4.721   3.019   7.997  0.1494 -0.5112 -0.7291
 7752SOL    HW134892   4.629   3.020   7.969 -0.2815 -1.1260  0.6705
 7752SOL    HW234893   4.723   2.996   8.090  3.1437  1.5603 -0.2789
 7753SOL     OW34894   0.019   3.657  15.346  0.0710  0.1915  0.3926
 7753SOL    HW134895   0.036   3.678  15.254  2.9861 -0.0461  0.8812
 7753SOL    HW234896   4.663   3.637  15.335 -0.0046 -0.1911  1.7064
 7754SOL     OW34897   0.885   2.603   2.482 -0.2042 -0.0314 -0.1473
 7754SOL    HW134898   0.839   2.642   2.408 -0.2505  0.9521  0.3930
 7754SOL    HW234899   0.863   2.511   2.471 -0.8178  0.1601 -0.5062
 7755SOL     OW34900   1.817   4.613   2.457 -0.2481 -0.0358 -0.2092
 7755SOL    HW134901   1.725   4.635   2.471 -0.8097 -2.4518 -0.1252
 7755SOL    HW234902   1.834   4.572   2.541  2.8707 -1.2637 -1.4519
 7756SOL     OW34903   2.966   1.346   4.156  0.0859  0.0094 -0.3645
 7756SOL    HW134904   2.879   1.341   4.118  1.3795 -1.5324 -3.1491
 7756SOL    HW234905   2.989   1.258   4.184  0.7619  1.1763  2.6757
 7757SOL     OW34906   0.727   3.019  17.738  0.3730 -0.0577  0.1238
 7757SOL    HW134907   0.796   3.064   0.042 -0.8876  0.8188  1.0844
 7757SOL    HW234908   0.668   3.088  17.709  0.2409  0.3948  1.4612
 7758SOL     OW34909   4.645   0.159   4.104 -0.1402 -0.5107 -0.1214
 7758SOL    HW134910   4.640   0.212   4.184 -0.1514  0.5694 -0.8296
 7758SOL    HW234911   4.619   0.220   4.035  2.2599  1.2190  0.5111
 7759SOL     OW34912   0.559   3.432   2.650 -0.4650  0.7912  0.5752
 7759SOL    HW134913   0.463   3.427   2.659 -0.2020  1.3107  3.6613
 7759SOL    HW234914   0.568   3.346   2.609  0.9286  1.5067 -0.6141
 7760SOL     OW34915   4.383   3.082   7.889  0.0900  0.0238  0.1074
 7760SOL    HW134916   4.336   3.105   7.809  1.1932 -0.0961 -0.5752
 7760SOL    HW234917   4.418   2.994   7.880  0.8122  0.3551 -0.3254
 7761SOL     OW34918   1.618   3.475   3.454 -0.1313 -0.3937 -0.0301
 7761SOL    HW134919   1.629   3.381   3.460  0.9976 -0.2855 -0.4075
 7761SOL    HW234920   1.695   3.498   3.402  0.7948 -1.8180  0.7257
 7762SOL     OW34921   2.869   2.090   5.968  0.4372 -0.2659  0.3616
 7762SOL    HW134922   2.959   2.114   5.993  0.3675  1.8585 -1.3597
 7762SOL    HW234923   2.850   2.164   5.910 -2.4381 -2.2519 -1.1729
 7763SOL     OW34924   0.054   4.057   5.326 -0.2702  0.1195 -0.6775
 7763SOL    HW134925   0.029   4.080   5.236  0.2034  0.5647 -0.6943
 7763SOL    HW234926   4.725   4.102   5.379  0.6447 -0.5502  1.0273
 7764SOL     OW34927   0.608   2.989   7.157 -0.5360  0.6604  0.2772
 7764SOL    HW134928   0.513   2.998   7.146 -0.8363 -2.4485  0.2280
 7764SOL    HW234929   0.624   3.049   7.230 -1.0245  0.8137  0.2579
 7765SOL     OW34930   0.305   1.470   5.938  0.0407  0.0132  0.3179
 7765SOL    HW134931   0.317   1.396   5.878  1.1224 -1.9192  2.9032
 7765SOL    HW234932   0.211   1.483   5.933  0.4730  2.6426 -0.9623
 7766SOL     OW34933   4.407   1.268   9.989  0.5239 -0.0582  0.1209
 7766SOL    HW134934   4.483   1.261   9.931  0.1103 -1.6151 -0.2624
 7766SOL    HW234935   4.354   1.299   9.916  1.0294  1.1796  0.2941
 7767SOL     OW34936   2.714   0.751   4.050  0.4242 -0.1826 -0.3615
 7767SOL    HW134937   2.706   0.843   4.025 -1.8400 -0.8000 -1.9039
 7767SOL    HW234938   2.627   0.712   4.041  0.9444 -0.9524 -2.1449
 7768SOL     OW34939   2.553   3.198   0.420  0.1983  0.4039  0.7049
 7768SOL    HW134940   2.612   3.253   0.472  0.5255  0.8670 -0.1632
 7768SOL    HW234941   2.615   3.137   0.381 -0.4640  0.7565 -0.8894
 7769SOL     OW34942   0.773   4.185   5.272 -0.2262  0.3834 -0.1307
 7769SOL    HW134943   0.782   4.253   5.339  2.9635 -0.9439  0.8336
 7769SOL    HW234944   0.821   4.111   5.310 -1.6054 -0.2085  0.4691
 7770SOL     OW34945   0.184   0.992   3.788  0.7305 -0.2499 -0.1698
 7770SOL    HW134946   0.117   1.059   3.773 -1.9268 -2.8921  0.0120
 7770SOL    HW234947   0.240   1.018   3.716  0.8708  1.4585  0.5489
 7771SOL     OW34948   2.858   3.562   2.898 -0.0945 -0.7209  0.3118
 7771SOL    HW134949   2.875   3.620   2.824 -1.2444  1.7888  1.9916
 7771SOL    HW234950   2.816   3.625   2.956  1.8380 -0.1315  1.0570
 7772SOL     OW34951   0.109   3.958   5.022 -0.2365  0.3994  0.0209
 7772SOL    HW134952   0.181   3.898   5.040 -1.0000 -1.0465 -1.6673
 7772SOL    HW234953   0.152   4.024   4.968 -3.9958  1.5681 -1.5754
 7773SOL     OW34954   4.270   3.464   4.193 -0.1145  0.7087  0.1818
 7773SOL    HW134955   4.304   3.507   4.114  0.6586 -3.0900 -1.5294
 7773SOL    HW234956   4.335   3.398   4.217  0.9943  1.3629 -1.0329
 7774SOL     OW34957   2.743   3.104   4.010  0.2644  0.4391 -0.5742
 7774SOL    HW134958   2.692   3.184   3.994 -0.0351  0.4329  0.3591
 7774SOL    HW234959   2.804   3.131   4.078  1.3647  1.3157 -1.9188
 7775SOL     OW34960   0.560   3.121  16.080 -0.7727  0.1469  0.2455
 7775SOL    HW134961   0.609   3.062  16.137 -0.2301 -0.4882 -0.8637
 7775SOL    HW234962   0.627   3.146  16.017 -0.3486 -1.5002  0.0304
 7776SOL     OW34963   2.376   0.372   1.464 -0.1506 -0.5829 -0.3237
 7776SOL    HW134964   2.395   0.462   1.492  0.6621 -0.8515  0.0077
 7776SOL    HW234965   2.285   0.368   1.492 -0.5025 -0.3595 -1.4652
 7777SOL     OW34966   3.641   4.191   1.950  0.0362 -0.4191 -0.1373
 7777SOL    HW134967   3.671   4.264   2.004  0.2984 -1.8905  1.7066
 7777SOL    HW234968   3.720   4.155   1.911  0.8332  0.9823  0.2185
 7778SOL     OW34969   1.746   4.370   0.197  0.1452 -0.1334  0.3343
 7778SOL    HW134970   1.799   4.449   0.201  0.2068 -0.0754 -2.0703
 7778SOL    HW234971   1.665   4.404   0.159  0.2426 -0.0379  0.2149
 7779SOL     OW34972   2.550   1.172   4.487  0.1596  0.1572 -0.5618
 7779SOL    HW134973   2.603   1.123   4.425  1.1824 -0.7031  0.9825
 7779SOL    HW234974   2.493   1.227   4.433  0.9620  0.8725 -0.6899
 7780SOL     OW34975   1.141   1.598  14.867  0.5773  0.0013  0.2760
 7780SOL    HW134976   1.087   1.677  14.864  0.4088 -0.1287 -0.1906
 7780SOL    HW234977   1.147   1.583  14.961  1.4113 -1.8057 -0.0757
 7781SOL     OW34978   0.383   2.195  13.414  0.2896 -0.6339  0.3830
 7781SOL    HW134979   0.386   2.227  13.324 -2.1358 -0.7795  0.2442
 7781SOL    HW234980   0.379   2.283  13.451  0.3037  1.1126 -3.7292
 7782SOL     OW34981   3.960   0.433   3.487 -0.4434  0.2265  0.2794
 7782SOL    HW134982   3.922   0.345   3.482  0.9911 -0.2669 -2.0076
 7782SOL    HW234983   3.873   0.473   3.479 -0.4583 -0.0227 -0.8502
 7783SOL     OW34984   3.922   1.091  14.492 -0.7083  0.4241  0.4058
 7783SOL    HW134985   3.912   1.186  14.496  2.5309  0.8702 -2.3169
 7783SOL    HW234986   3.837   1.052  14.511 -0.7527  0.3728  0.0942
 7784SOL     OW34987   1.656   4.100   6.035 -0.0681  0.3171  0.1225
 7784SOL    HW134988   1.734   4.113   5.981  1.1061 -1.0000  1.5097
 7784SOL    HW234989   1.580   4.113   5.978 -0.6785 -0.0902  0.8319
 7785SOL     OW34990   0.516   3.126   2.285 -0.1154  0.3402 -0.1889
 7785SOL    HW134991   0.582   3.186   2.250 -0.1002  0.6707  0.3979
 7785SOL    HW234992   0.544   3.139   2.376 -0.9532  2.9048 -0.2857
 7786SOL     OW34993   4.260   3.092  13.319  0.6317 -0.2562  0.3117
 7786SOL    HW134994   4.207   3.111  13.396 -0.7967  0.4474 -0.8205
 7786SOL    HW234995   4.320   3.166  13.307 -0.1918  0.6149  1.5207
 7787SOL     OW34996   1.293   1.521   9.653 -0.5598 -0.4179 -0.4535
 7787SOL    HW134997   1.362   1.554   9.710 -1.6181  0.6852  0.2018
 7787SOL    HW234998   1.334   1.528   9.566  0.1090 -1.1466 -0.1886
 7788SOL     OW34999   4.639   0.995   4.059 -0.1301  0.2241 -0.2619
 7788SOL    HW135000   4.579   0.920   4.057  1.2272 -0.8591 -0.3515
 7788SOL    HW235001   4.721   0.948   4.040  0.4734  0.5232  1.6721
 7789SOL     OW35002   3.379   3.204   6.369  0.4386  0.3798 -0.1468
 7789SOL    HW135003   3.455   3.244   6.411  0.1119  0.6105  0.2296
 7789SOL    HW235004   3.430   3.142   6.317 -0.7165 -0.3278 -0.4592
 7790SOL     OW35005   3.704   4.365   2.149  0.1810 -0.4015  0.3014
 7790SOL    HW135006   3.775   4.307   2.173  0.6224  0.5332  1.2861
 7790SOL    HW235007   3.689   4.423   2.224 -1.3872 -0.2470 -0.1164
 7791SOL     OW35008   3.751   2.845   1.720 -0.3382 -0.3403  0.2317
 7791SOL    HW135009   3.749   2.841   1.815  2.0979  2.0145  0.3576
 7791SOL    HW235010   3.759   2.755   1.687 -0.4556 -0.1001 -0.4611
 7792SOL     OW35011   2.709   3.772   7.203 -0.2580  0.9707 -0.3352
 7792SOL    HW135012   2.688   3.783   7.110 -0.0873  0.1515 -0.4741
 7792SOL    HW235013   2.625   3.807   7.230  0.1173 -0.2556  2.3979
 7793SOL     OW35014   2.725   3.743   3.167 -1.1093 -0.2794  0.2488
 7793SOL    HW135015   2.713   3.821   3.221 -2.4458  0.4600 -1.1086
 7793SOL    HW235016   2.638   3.725   3.132 -0.9211 -0.6387 -0.0285
 7794SOL     OW35017   3.746   2.309  14.357  0.8370  0.7403 -0.7791
 7794SOL    HW135018   3.789   2.392  14.339 -0.0659  0.7478 -2.8370
 7794SOL    HW235019   3.720   2.288  14.268 -0.4525  0.1636 -0.2767
 7795SOL     OW35020   2.830   2.483   4.540 -0.6594  0.3863  0.7524
 7795SOL    HW135021   2.891   2.498   4.612 -0.9535 -0.4393  1.1785
 7795SOL    HW235022   2.810   2.570   4.506 -0.1512  0.2252  0.0455
 7796SOL     OW35023   0.240   0.885   1.618 -0.0505  0.0789 -0.0561
 7796SOL    HW135024   0.187   0.877   1.698 -0.8797 -0.5136 -0.6611
 7796SOL    HW235025   0.324   0.896   1.663  0.6997  0.1004 -1.4765
 7797SOL     OW35026   3.421   4.154  16.940  0.0974 -0.0388  0.7196
 7797SOL    HW135027   3.438   4.247  16.958 -0.5505  0.3663 -0.7056
 7797SOL    HW235028   3.364   4.161  16.863  1.1957  0.5284 -0.0478
 7798SOL     OW35029   4.166   2.857   6.104  0.4113 -0.0539  0.3380
 7798SOL    HW135030   4.111   2.852   6.183 -0.5054  1.9214 -0.1715
 7798SOL    HW235031   4.170   2.769   6.068 -0.6597 -0.3381  0.9211
 7799SOL     OW35032   3.529   4.604  15.363  0.1709 -0.2238 -0.0067
 7799SOL    HW135033   3.453   4.617  15.419  0.3993  3.1486 -0.4617
 7799SOL    HW235034   3.557   4.516  15.388  1.6573  0.5304  0.9491
 7800SOL     OW35035   2.618   1.185   9.554  0.5430 -0.6163  1.0369
 7800SOL    HW135036   2.524   1.190   9.538  0.8652  2.0883  0.0026
 7800SOL    HW235037   2.642   1.256   9.494 -1.8222 -1.2013 -0.6012
 7801SOL     OW35038   2.337   0.441   7.954  0.3844 -0.3261  0.1912
 7801SOL    HW135039   2.389   0.365   7.927 -0.8664 -1.6190  1.4666
 7801SOL    HW235040   2.306   0.469   7.868  0.5269  0.3698  0.3603
 7802SOL     OW35041   2.214   0.778  14.286 -0.3399 -0.1611  0.0427
 7802SOL    HW135042   2.127   0.817  14.274 -0.7843 -1.4745 -1.0522
 7802SOL    HW235043   2.244   0.825  14.364  0.1485 -1.5559  0.6818
 7803SOL     OW35044   0.364   2.778   5.242  0.8685  0.2529  0.0684
 7803SOL    HW135045   0.315   2.763   5.161  1.6256 -0.7412 -0.2059
 7803SOL    HW235046   0.440   2.723   5.223  0.8388 -0.8418  3.0327
 7804SOL     OW35047   2.321   1.601  13.285 -0.0299  0.0487  0.3198
 7804SOL    HW135048   2.338   1.685  13.242  0.9047 -1.0124 -1.4109
 7804SOL    HW235049   2.396   1.552  13.250 -0.1208  1.1807 -1.4414
 7805SOL     OW35050   4.566   2.044   4.775  0.0319 -0.0615 -0.3412
 7805SOL    HW135051   4.551   2.139   4.778  1.8728  0.2193  0.1200
 7805SOL    HW235052   4.610   2.027   4.691 -0.8322  2.6226 -1.3589
 7806SOL     OW35053   2.111   1.812   4.374 -0.0824 -0.0994  0.0370
 7806SOL    HW135054   2.188   1.784   4.326 -0.8115 -1.4398 -0.3552
 7806SOL    HW235055   2.046   1.741   4.376  0.3314 -0.4928 -0.4413
 7807SOL     OW35056   2.805   2.406  15.033  0.3559 -0.5718  0.3982
 7807SOL    HW135057   2.824   2.392  15.126 -0.0428 -3.1065  0.0958
 7807SOL    HW235058   2.761   2.491  15.026  0.2127 -0.6731  0.1048
 7808SOL     OW35059   3.154   1.660  11.518 -0.0355  0.2352 -0.2475
 7808SOL    HW135060   3.209   1.736  11.540  0.4602 -0.3288  0.4373
 7808SOL    HW235061   3.072   1.699  11.550  0.6993  1.4851  0.1357
 7809SOL     OW35062   1.222   3.628  12.538  0.0044  0.0016  0.0334
 7809SOL    HW135063   1.305   3.671  12.560 -0.1008 -0.7175  1.8352
 7809SOL    HW235064   1.250   3.552  12.487  0.1874  0.9135 -1.2179
 7810SOL     OW35065   1.235   2.533   7.908 -0.2757 -0.1368  0.1164
 7810SOL    HW135066   1.178   2.497   7.840 -0.0346 -1.9651  0.8733
 7810SOL    HW235067   1.197   2.619   7.926 -1.1417 -0.3785 -0.5278
 7811SOL     OW35068   1.221   4.715   3.150 -0.0267  0.1006  0.1804
 7811SOL    HW135069   1.214   4.667   3.233 -2.6872  0.7254  0.3064
 7811SOL    HW235070   1.242   0.066   3.180  0.9343 -1.0127  2.7261
 7812SOL     OW35071   4.548   0.727   1.997  0.4202  0.0591 -0.0030
 7812SOL    HW135072   4.479   0.662   1.983 -0.0935  0.8308 -1.0643
 7812SOL    HW235073   4.521   0.801   1.943  1.2990  2.1706  2.4390
 7813SOL     OW35074   0.498   0.585   2.076  0.0766 -0.0416 -0.0826
 7813SOL    HW135075   0.557   0.515   2.049  0.6332  0.7571 -0.9575
 7813SOL    HW235076   0.490   0.629   1.991  0.0837  1.0634  0.4838
 7814SOL     OW35077   3.576   1.897   7.561  0.7158 -0.4119  0.4932
 7814SOL    HW135078   3.648   1.960   7.561  2.6339 -2.6159 -0.7329
 7814SOL    HW235079   3.553   1.906   7.469  2.4539 -1.2432 -0.0320
 7815SOL     OW35080   1.486   3.107  13.014  0.0978  0.2088 -0.1011
 7815SOL    HW135081   1.438   3.133  13.093  1.6686  2.0204  0.2593
 7815SOL    HW235082   1.544   3.042  13.056  0.8470  1.5152  0.8798
 7816SOL     OW35083   3.626   1.597  16.102 -0.0053 -0.2694  0.2010
 7816SOL    HW135084   3.593   1.513  16.071 -0.4028 -0.6359  1.6557
 7816SOL    HW235085   3.555   1.656  16.078  1.4096  0.9423 -1.0503
 7817SOL     OW35086   4.490   1.567   8.050 -0.1551  0.9190 -0.4046
 7817SOL    HW135087   4.495   1.510   8.127  0.0601 -0.2509 -1.2822
 7817SOL    HW235088   4.535   1.639   8.094  2.2933 -0.9622  0.1817
 7818SOL     OW35089   2.780   2.380   9.729  0.4347  0.1501 -0.1466
 7818SOL    HW135090   2.688   2.371   9.755  0.7640  2.1330  1.7140
 7818SOL    HW235091   2.819   2.302   9.769 -0.7947 -0.3088  0.1665
 7819SOL     OW35092   0.752   1.196   3.569 -0.6173 -0.3526 -0.1590
 7819SOL    HW135093   0.728   1.243   3.649  3.7259  1.0643  0.3048
 7819SOL    HW235094   0.834   1.150   3.583 -2.1806 -2.4254  1.9980
 7820SOL     OW35095   4.207   3.764   1.783  0.3226  0.0120  0.6531
 7820SOL    HW135096   4.231   3.852   1.754  1.9949 -0.4751  0.5535
 7820SOL    HW235097   4.286   3.719   1.755  0.3330  0.2193  0.3571
 7821SOL     OW35098   1.465   2.373   7.969 -0.2430  0.4759  0.0210
 7821SOL    HW135099   1.416   2.443   7.925 -1.5931  1.2296  2.7472
 7821SOL    HW235100   1.398   2.323   8.015 -0.5033  0.3992 -0.4432
 7822SOL     OW35101   1.625   1.635   4.686 -0.0466  0.1160 -0.3696
 7822SOL    HW135102   1.613   1.626   4.592 -2.3002  0.5709 -0.1416
 7822SOL    HW235103   1.640   1.729   4.690 -0.5436  0.2201 -0.9301
 7823SOL     OW35104   3.760   1.495   7.181 -0.4107 -0.4467  0.3161
 7823SOL    HW135105   3.847   1.457   7.194 -0.4042 -0.6424 -0.3009
 7823SOL    HW235106   3.711   1.422   7.144  0.7540 -1.0978  0.0604
 7824SOL     OW35107   2.790   0.178   7.298  0.7036  0.2444 -0.4597
 7824SOL    HW135108   2.880   0.199   7.272  0.4081  1.6809 -0.3623
 7824SOL    HW235109   2.748   0.264   7.305 -1.2851 -0.6369 -1.8058
 7825SOL     OW35110   0.935   4.322   6.783  0.2891 -0.8611  0.1910
 7825SOL    HW135111   0.848   4.308   6.747  0.5209 -1.1059 -0.2667
 7825SOL    HW235112   0.946   4.413   6.755  1.4586 -1.3305 -0.8353
 7826SOL     OW35113   2.010   4.077   6.782 -0.1232  0.2222 -0.4105
 7826SOL    HW135114   1.986   4.141   6.715 -1.0353  0.2878 -0.0184
 7826SOL    HW235115   1.925   4.053   6.819  0.6056  1.0861  1.8349
 7827SOL     OW35116   0.455   2.654   7.399  0.4095  0.0954  0.3001
 7827SOL    HW135117   0.425   2.656   7.308  0.3363  0.6216  0.3343
 7827SOL    HW235118   0.462   2.562   7.422  1.1329  0.4101  1.3494
 7828SOL     OW35119   3.969   2.725  14.447  0.0124  0.5653 -0.3432
 7828SOL    HW135120   4.043   2.698  14.393 -0.1711 -1.0726  0.2208
 7828SOL    HW235121   3.916   2.646  14.434  0.8486  0.0371 -0.5497
 7829SOL     OW35122   0.057   0.343   4.569  0.3182  0.0866 -0.6945
 7829SOL    HW135123   0.025   0.430   4.593  1.0494 -0.0002  0.6119
 7829SOL    HW235124   0.008   0.291   4.633 -0.1123  1.0637 -0.2307
 7830SOL     OW35125   1.028   0.840   9.184  0.0850 -0.7779  0.1717
 7830SOL    HW135126   1.049   0.926   9.219 -0.4718  0.4376 -2.4930
 7830SOL    HW235127   1.090   0.792   9.239 -0.6726 -1.1645  0.6808
 7831SOL     OW35128   0.154   2.180   6.544 -0.2252  0.3051 -0.1830
 7831SOL    HW135129   0.072   2.205   6.587 -0.2102 -0.6567  0.4045
 7831SOL    HW235130   0.131   2.089   6.529  0.7277 -0.0750  0.6922
 7832SOL     OW35131   0.171   2.069  13.008 -0.7492  0.2790  0.3350
 7832SOL    HW135132   0.131   2.084  12.923 -0.1596 -3.0677 -0.5376
 7832SOL    HW235133   0.152   2.153  13.049  1.9581  1.6277 -1.1959
 7833SOL     OW35134   1.617   2.915   5.640  0.2127 -0.0149  0.3877
 7833SOL    HW135135   1.657   2.843   5.689  1.0527  0.1623 -0.0355
 7833SOL    HW235136   1.569   2.962   5.708 -2.7608 -0.7687 -1.2262
 7834SOL     OW35137   3.430   0.224  16.606 -0.1661  0.3403 -0.1954
 7834SOL    HW135138   3.385   0.307  16.586 -0.5242  0.1822 -0.0537
 7834SOL    HW235139   3.512   0.264  16.633 -0.9804  1.5826  0.4735
 7835SOL     OW35140   2.960   0.050  16.905 -0.2512  0.2256  0.1610
 7835SOL    HW135141   2.934   0.069  16.815 -1.4090 -1.6400  0.1097
 7835SOL    HW235142   3.034   4.727  16.892 -1.4181 -0.8878 -1.2839
 7836SOL     OW35143   2.407   1.214   7.790  0.0134  0.4839  0.1993
 7836SOL    HW135144   2.318   1.201   7.823 -0.4954  2.7673 -0.2268
 7836SOL    HW235145   2.462   1.201   7.867 -1.8923  0.4715  1.5520
 7837SOL     OW35146   0.138   1.024   8.336  0.1600  0.1617 -0.3060
 7837SOL    HW135147   0.106   1.104   8.378  1.2552  1.4432 -1.9127
 7837SOL    HW235148   0.112   0.962   8.404 -2.4759  1.6713  0.0620
 7838SOL     OW35149   3.306   1.731   4.697  0.1416  0.0981 -0.0621
 7838SOL    HW135150   3.396   1.748   4.724 -0.2965  2.8406 -0.2550
 7838SOL    HW235151   3.314   1.705   4.605  3.2937  0.4135  0.1418
 7839SOL     OW35152   4.182   2.878   8.142 -0.2025 -0.1926 -0.3822
 7839SOL    HW135153   4.258   2.844   8.094 -0.1167  1.5133 -1.4440
 7839SOL    HW235154   4.222   2.933   8.210  3.3402 -1.4439 -1.4384
 7840SOL     OW35155   0.882   0.040  14.863  0.0523 -0.1123  0.6304
 7840SOL    HW135156   0.861   0.030  14.770 -0.1302 -1.3506  0.8039
 7840SOL    HW235157   0.880   0.135  14.867 -1.7274 -0.0845 -0.6662
 7841SOL     OW35158   2.162   4.242   2.439  0.6715 -0.6560  0.0302
 7841SOL    HW135159   2.231   4.242   2.505 -1.1495 -0.3255  1.8957
 7841SOL    HW235160   2.089   4.276   2.489  0.0542  0.4512 -1.6040
 7842SOL     OW35161   2.596   1.627   2.556 -0.3595  1.0198 -0.3179
 7842SOL    HW135162   2.629   1.667   2.475 -0.3845  0.5550 -0.5604
 7842SOL    HW235163   2.613   1.695   2.621  1.6437 -1.5333  1.8018
 7843SOL     OW35164   1.588   2.250  10.067  0.0999 -0.6527 -0.1454
 7843SOL    HW135165   1.684   2.242  10.066  0.0664 -0.9061 -1.0888
 7843SOL    HW235166   1.567   2.250  10.161 -2.8552 -0.2728 -0.8112
 7844SOL     OW35167   0.459   3.540   8.013 -0.2297 -0.2571  0.5907
 7844SOL    HW135168   0.404   3.472   7.973  0.2334  1.1942 -2.4528
 7844SOL    HW235169   0.426   3.532   8.103 -2.1869 -0.5598 -0.1380
 7845SOL     OW35170   1.787   3.117   5.545  0.1575 -0.0235  0.3061
 7845SOL    HW135171   1.728   3.042   5.546 -2.7097  2.2056 -0.4455
 7845SOL    HW235172   1.812   3.126   5.454  1.4618  1.2321  0.7832
 7846SOL     OW35173   1.397   1.090   4.252  0.6446 -1.0900 -0.3881
 7846SOL    HW135174   1.471   1.066   4.196  0.0115 -4.1446  0.0421
 7846SOL    HW235175   1.321   1.066   4.197 -0.0891 -1.3821  0.7535
 7847SOL     OW35176   2.047   2.275  14.905  0.7031  0.2256 -0.1583
 7847SOL    HW135177   1.983   2.323  14.853  0.2016  0.3401  0.5621
 7847SOL    HW235178   2.058   2.209  14.837 -0.3597  1.2647 -1.3344
 7848SOL     OW35179   3.086   2.343   5.689  0.2341  0.5977 -0.8991
 7848SOL    HW135180   3.104   2.339   5.595  1.4293  1.2008 -0.6835
 7848SOL    HW235181   3.169   2.322   5.732  0.2874  0.6237 -0.9887
 7849SOL     OW35182   2.268   0.957   1.392 -0.3274 -0.4099  0.1450
 7849SOL    HW135183   2.267   1.029   1.455  0.0327  2.0554 -2.6845
 7849SOL    HW235184   2.204   0.985   1.328 -0.5375 -0.4074  0.3576
 7850SOL     OW35185   4.053   2.229   2.990  0.0552  0.0142 -0.2594
 7850SOL    HW135186   4.066   2.304   2.931 -1.7767  0.1194 -0.5334
 7850SOL    HW235187   4.122   2.166   2.969  1.0575  1.4055 -1.1566
 7851SOL     OW35188   0.416   0.014   6.123 -0.0713  0.0094  0.6492
 7851SOL    HW135189   0.446   0.087   6.070 -1.3109  0.7921  1.0204
 7851SOL    HW235190   0.493   0.010   6.181 -0.1494  1.2723  0.8361
 7852SOL     OW35191   0.176   3.922   7.628 -0.3712 -0.0595  0.1424
 7852SOL    HW135192   0.199   3.835   7.593 -2.3643 -1.2233  1.7603
 7852SOL    HW235193   0.223   3.980   7.568 -2.4202 -0.7883 -2.1398
 7853SOL     OW35194   4.052   4.609   3.929  0.6188  0.1338  0.5546
 7853SOL    HW135195   4.074   4.575   4.015  0.4697 -0.1849  0.4669
 7853SOL    HW235196   4.143   4.596   3.901  0.3881 -1.4265  0.5713
 7854SOL     OW35197   0.094   2.271  12.386 -0.3039 -0.7791  0.4471
 7854SOL    HW135198   0.150   2.264  12.309  1.1581  1.5678  1.2767
 7854SOL    HW235199   0.013   2.303  12.347  0.5440 -0.7573 -1.2566
 7855SOL     OW35200   3.735   2.474   3.552  0.0201 -0.2047 -0.6303
 7855SOL    HW135201   3.746   2.525   3.632 -0.2362  0.4347 -1.0010
 7855SOL    HW235202   3.806   2.509   3.498 -0.0331 -2.1222 -1.9591
 7856SOL     OW35203   1.394   3.403   3.030 -0.0620 -0.0659 -0.1202
 7856SOL    HW135204   1.481   3.438   3.049 -0.1267 -0.1074  0.2635
 7856SOL    HW235205   1.414   3.312   3.007  0.1056 -0.1038  0.1627
 7857SOL     OW35206   3.038   0.718   4.832  0.5630  0.3844  0.5934
 7857SOL    HW135207   2.950   0.717   4.795  1.2006 -0.3324 -0.9062
 7857SOL    HW235208   3.052   0.812   4.829 -0.9435  0.5487 -0.7316
 7858SOL     OW35209   1.296   2.960   4.854 -0.3768 -0.2195  0.2479
 7858SOL    HW135210   1.300   2.929   4.764 -1.2565  0.8187 -0.1525
 7858SOL    HW235211   1.383   2.938   4.889  0.4170  1.1659 -0.8520
 7859SOL     OW35212   1.891   2.557   6.261  0.6326  0.7497  0.1630
 7859SOL    HW135213   1.841   2.478   6.241 -1.4068  2.5902 -2.0378
 7859SOL    HW235214   1.842   2.591   6.336  0.7802  0.2467  0.4859
 7860SOL     OW35215   4.304   2.452   9.063 -0.5924 -0.0306 -0.5024
 7860SOL    HW135216   4.386   2.502   9.060  0.1183 -1.1702  0.0808
 7860SOL    HW235217   4.302   2.434   9.156 -2.2147 -1.3313 -0.7852
 7861SOL     OW35218   1.901   3.551   6.128  0.0544 -0.5554  0.4153
 7861SOL    HW135219   1.911   3.637   6.086 -0.8768 -0.4270  0.4479
 7861SOL    HW235220   1.979   3.549   6.183  0.9892  0.5672 -0.8770
 7862SOL     OW35221   1.114   1.243   4.194  0.4988  0.4457 -0.7086
 7862SOL    HW135222   1.189   1.204   4.240  0.4681 -1.1242 -1.9507
 7862SOL    HW235223   1.044   1.256   4.257 -1.1056 -0.8095 -2.2323
 7863SOL     OW35224   0.001   1.029  14.648  0.0929  0.2660 -0.0030
 7863SOL    HW135225   0.082   1.000  14.606  0.4291 -0.5389  1.1855
 7863SOL    HW235226   4.668   1.009  14.585 -0.0422  0.0214  0.2218
 7864SOL     OW35227   2.062   3.434   7.950 -0.1656 -0.1709 -0.2389
 7864SOL    HW135228   1.976   3.393   7.938 -0.1063 -0.1680 -0.6722
 7864SOL    HW235229   2.087   3.396   8.034 -1.8093 -1.1883 -0.2206
 7865SOL     OW35230   1.145   0.356   1.379  0.5271  0.5275 -0.2921
 7865SOL    HW135231   1.236   0.368   1.403  0.6825  2.6601 -1.9971
 7865SOL    HW235232   1.162   0.300   1.304  0.6812  1.3900 -0.9044
 7866SOL     OW35233   0.602   4.033   9.807  0.4881 -0.1330  0.4123
 7866SOL    HW135234   0.511   4.028   9.780  0.6476  0.1844 -0.1916
 7866SOL    HW235235   0.601   4.086   9.886 -1.9254 -1.1498  1.0667
 7867SOL     OW35236   0.636   0.200   0.280  0.1320 -0.3071 -0.2391
 7867SOL    HW135237   0.540   0.207   0.283  0.1049 -0.5448 -0.6021
 7867SOL    HW235238   0.639   0.109   0.251  0.9744 -0.7672  1.2833
 7868SOL     OW35239   0.825   0.326   8.842  0.1654  0.4919 -0.0700
 7868SOL    HW135240   0.811   0.302   8.750 -1.4071 -1.0874  0.5872
 7868SOL    HW235241   0.822   0.242   8.887  0.1363 -0.3536 -1.6429
 7869SOL     OW35242   2.234   1.569   7.595  0.0593 -0.2354 -0.1758
 7869SOL    HW135243   2.271   1.609   7.516 -0.0443 -0.7062 -0.4612
 7869SOL    HW235244   2.149   1.614   7.591  0.3148  0.5146  3.1427
 7870SOL     OW35245   2.828   3.114   9.109 -0.0322 -0.0837  0.4681
 7870SOL    HW135246   2.771   3.128   9.185 -0.4566 -0.3270  0.1923
 7870SOL    HW235247   2.825   3.023   9.078  0.6936  0.4784 -1.2282
 7871SOL     OW35248   4.424   2.267  17.412 -0.1183  0.0040  0.1719
 7871SOL    HW135249   4.436   2.269  17.317 -0.9938  0.1355  0.0614
 7871SOL    HW235250   4.460   2.183  17.438  1.0868  0.5650  0.2963
 7872SOL     OW35251   1.120   1.369   6.006  0.0105 -0.5921  0.0653
 7872SOL    HW135252   1.080   1.432   6.065  2.4595  0.0196  1.0406
 7872SOL    HW235253   1.115   1.288   6.056 -1.5144 -0.7704 -0.3822
 7873SOL     OW35254   2.911   3.531  15.015  0.7734 -0.4282 -0.7086
 7873SOL    HW135255   2.820   3.548  15.042  0.8219  0.9259 -1.4152
 7873SOL    HW235256   2.894   3.504  14.925  1.7428 -1.1026 -0.6837
 7874SOL     OW35257   4.232   4.578   3.516  0.2574 -0.3811 -0.0583
 7874SOL    HW135258   4.251   4.598   3.424  1.1192  1.0492  0.4255
 7874SOL    HW235259   4.318   4.573   3.559 -0.8122 -1.1657  1.9370
 7875SOL     OW35260   4.465   3.832   4.059  0.0342 -0.0850  0.0966
 7875SOL    HW135261   4.513   3.910   4.085 -1.1683  0.8838 -0.6178
 7875SOL    HW235262   4.537   3.770   4.045  0.0868  0.4542 -2.0223
 7876SOL     OW35263   0.957   4.488   8.152  0.1437 -0.0368  0.5227
 7876SOL    HW135264   0.965   4.563   8.211  1.3320  0.0883  0.2000
 7876SOL    HW235265   1.030   4.503   8.092  1.3322 -0.4596  1.8556
 7877SOL     OW35266   0.745   0.405   9.726 -0.2292  0.2411 -0.0161
 7877SOL    HW135267   0.720   0.420   9.635  2.4758  2.2546 -0.4276
 7877SOL    HW235268   0.824   0.458   9.737 -0.7255  1.0606 -0.3541
 7878SOL     OW35269   0.853   1.842   5.258  0.0826  0.3463  0.1794
 7878SOL    HW135270   0.856   1.935   5.232  0.2416  0.1556 -0.4931
 7878SOL    HW235271   0.770   1.814   5.220  1.0200 -1.9618 -0.1751
 7879SOL     OW35272   4.596   1.572   2.074  0.1943 -0.1831  0.7152
 7879SOL    HW135273   4.620   1.619   2.154  0.8106  0.5767  0.1005
 7879SOL    HW235274   4.511   1.542   2.103 -0.1782  0.2788  0.1153
 7880SOL     OW35275   3.887   1.327  11.367 -0.0134 -0.0050  0.0161
 7880SOL    HW135276   3.928   1.323  11.281  3.4242 -0.7754  1.7116
 7880SOL    HW235277   3.940   1.259  11.408 -1.0927 -0.2025  1.1119
 7881SOL     OW35278   2.587   1.794   4.337 -0.3790  0.5439  0.0374
 7881SOL    HW135279   2.549   1.878   4.309 -2.1890 -0.3034 -0.0581
 7881SOL    HW235280   2.635   1.825   4.414  0.3746  0.7429 -0.5151
 7882SOL     OW35281   4.284   1.171   4.569  0.2703  0.0941  0.1892
 7882SOL    HW135282   4.225   1.135   4.636 -1.6318 -0.0502 -1.5530
 7882SOL    HW235283   4.325   1.091   4.536 -1.1773 -0.6851  0.2500
 7883SOL     OW35284   3.523   2.283  16.951  0.4688 -0.5102  0.1038
 7883SOL    HW135285   3.579   2.359  16.967 -1.1902  0.5498  0.9270
 7883SOL    HW235286   3.586   2.213  16.966 -1.2066 -2.1237 -0.3637
 7884SOL     OW35287   1.471   4.475   3.810  0.5577  0.0786 -0.0268
 7884SOL    HW135288   1.524   4.406   3.770 -1.0830 -0.3585 -1.4019
 7884SOL    HW235289   1.384   4.437   3.811  0.5199  0.2180  1.6395
 7885SOL     OW35290   0.530   1.309   1.307 -0.2582 -0.2338 -0.7968
 7885SOL    HW135291   0.465   1.374   1.282 -0.4678 -0.7573 -1.6188
 7885SOL    HW235292   0.492   1.238   1.358 -0.2994 -0.8603 -1.7010
 7886SOL     OW35293   3.899   1.984  15.724  0.5613  0.1286  0.1480
 7886SOL    HW135294   3.955   1.991  15.646  0.1989 -0.6267 -0.1750
 7886SOL    HW235295   3.815   1.964  15.683  0.9055  1.4868 -1.2208
 7887SOL     OW35296   1.667   2.180   7.962 -0.4798  0.1382 -0.1323
 7887SOL    HW135297   1.728   2.252   7.978 -1.7294  1.1118  0.2656
 7887SOL    HW235298   1.599   2.236   7.925 -0.7765 -1.1638 -1.5759
 7888SOL     OW35299   4.692   4.631   5.446 -0.9333 -0.0089  0.8600
 7888SOL    HW135300   4.710   4.555   5.391 -2.0454  0.0405  0.4466
 7888SOL    HW235301   4.615   4.664   5.400 -0.5214  0.3531  0.4291
 7889SOL     OW35302   1.246   2.934   4.589  0.1451 -0.3516 -0.8098
 7889SOL    HW135303   1.156   2.946   4.619  0.5354  0.6522 -0.0475
 7889SOL    HW235304   1.242   2.864   4.524  2.2352 -0.7738 -0.4924
 7890SOL     OW35305   4.073   0.807  11.689 -0.2761  0.3150 -0.1834
 7890SOL    HW135306   3.992   0.771  11.653 -0.1224 -2.1732  1.9787
 7890SOL    HW235307   4.131   0.743  11.648  1.2916  0.3199  2.0259
 7891SOL     OW35308   2.492   2.876   4.395  0.0021 -0.0611 -0.4758
 7891SOL    HW135309   2.455   2.905   4.478  0.8495  0.5099 -0.3028
 7891SOL    HW235310   2.515   2.959   4.355 -0.5963  0.3744  0.0857
 7892SOL     OW35311   2.192   2.363  13.319  0.4274 -0.3062 -0.1356
 7892SOL    HW135312   2.146   2.446  13.328  0.8420 -0.3660  2.6143
 7892SOL    HW235313   2.286   2.372  13.304  0.7320 -3.3666 -0.1499
 7893SOL     OW35314   4.136   3.111   0.246 -0.1799 -0.0264 -0.5957
 7893SOL    HW135315   4.182   3.170   0.186  0.6393 -0.2797 -0.2128
 7893SOL    HW235316   4.050   3.151   0.259 -1.1431 -1.4547 -2.4727
 7894SOL     OW35317   2.581   3.289  11.675 -0.0813 -0.5300  0.1252
 7894SOL    HW135318   2.492   3.256  11.677 -0.4071  0.4275  1.0293
 7894SOL    HW235319   2.564   3.350  11.603  1.7163 -1.4141 -1.0539
 7895SOL     OW35320   0.606   4.072   6.975 -0.3278  0.0387  0.1088
 7895SOL    HW135321   0.552   4.066   7.054 -1.2841 -0.4120 -0.5858
 7895SOL    HW235322   0.675   4.128   7.012 -0.7798  0.9598 -0.4558
 7896SOL     OW35323   2.797   0.977  11.115 -0.8971  0.1548 -0.7201
 7896SOL    HW135324   2.708   1.011  11.116 -1.5558 -1.5953 -0.7634
 7896SOL    HW235325   2.844   1.060  11.111  0.7966 -0.7384  0.5082
 7897SOL     OW35326   1.349   1.471   6.218 -0.2405  0.0751  0.5574
 7897SOL    HW135327   1.396   1.446   6.298 -0.9404 -0.9881  0.6300
 7897SOL    HW235328   1.268   1.510   6.252  0.6645 -0.1322  2.9636
 7898SOL     OW35329   4.716   0.487   6.341  0.0333  0.2473 -0.0410
 7898SOL    HW135330   4.643   0.468   6.282  0.5890 -1.4660 -0.1981
 7898SOL    HW235331   4.707   0.581   6.355 -1.6946 -0.0325  0.6917
 7899SOL     OW35332   0.314   2.863   3.902  0.4020 -0.3759 -0.2473
 7899SOL    HW135333   0.302   2.874   3.808 -2.7463 -0.6053  0.1295
 7899SOL    HW235334   0.366   2.786   3.926 -1.3925 -1.0954  1.2721
 7900SOL     OW35335   3.879   2.068  12.994 -0.2897 -0.7176  0.1592
 7900SOL    HW135336   3.794   2.095  12.959 -1.1759  0.0444  2.9093
 7900SOL    HW235337   3.943   2.136  12.973 -0.1580 -0.5520  1.1071
 7901SOL     OW35338   4.180   2.054   9.269  0.4339  0.0767  0.3744
 7901SOL    HW135339   4.191   2.099   9.353 -1.6378 -2.1957  1.8563
 7901SOL    HW235340   4.234   2.110   9.213  2.8303 -2.3659  0.2054
 7902SOL     OW35341   3.446   1.342   7.175 -0.4395  0.9321  0.3175
 7902SOL    HW135342   3.423   1.291   7.253 -0.9282 -0.2720 -0.6134
 7902SOL    HW235343   3.524   1.300   7.139 -0.8031  0.1223  0.4687
 7903SOL     OW35344   4.135   1.413   7.374  0.3416 -0.3154 -0.5705
 7903SOL    HW135345   4.192   1.382   7.445  1.9742 -1.2096 -2.2651
 7903SOL    HW235346   4.170   1.358   7.304 -0.0788 -1.2675 -0.0309
 7904SOL     OW35347   1.993   3.077   2.891  0.3830 -0.6417 -0.1307
 7904SOL    HW135348   1.986   3.132   2.814  0.4781 -2.5428 -1.4863
 7904SOL    HW235349   2.088   3.081   2.895  0.3211  0.9652 -0.4498
 7905SOL     OW35350   3.692   3.792   1.827  0.0051  0.1572  0.9492
 7905SOL    HW135351   3.750   3.789   1.751  0.4541  0.8833  1.2574
 7905SOL    HW235352   3.649   3.708   1.816  1.2147 -0.1768 -1.2041
 7906SOL     OW35353   0.093   0.485   1.555 -0.3567  0.2404  0.2237
 7906SOL    HW135354   0.042   0.522   1.626 -2.4464 -0.0226 -1.1547
 7906SOL    HW235355   0.072   0.541   1.480  2.8175  0.5745 -0.4320
 7907SOL     OW35356   3.347   1.662   5.413  0.2950 -0.1408  0.2835
 7907SOL    HW135357   3.369   1.649   5.321  1.2503  2.4880  0.1305
 7907SOL    HW235358   3.375   1.580   5.454 -0.0048 -0.4002 -0.0321
 7908SOL     OW35359   3.438   2.335  10.086  0.1013  0.2052  0.3569
 7908SOL    HW135360   3.463   2.414  10.037 -2.4915  0.9463  0.2636
 7908SOL    HW235361   3.505   2.339  10.155 -0.7636 -0.4063  1.2310
 7909SOL     OW35362   2.033   2.074  13.955  0.0803 -0.1930  0.2324
 7909SOL    HW135363   2.066   2.061  14.044  0.2260  1.6985  0.4616
 7909SOL    HW235364   1.997   2.163  13.962  0.0013 -0.0926 -1.5601
 7910SOL     OW35365   1.963   1.229  12.636  1.1690 -0.3440 -0.1565
 7910SOL    HW135366   1.993   1.217  12.726  4.3559 -0.4340 -1.2575
 7910SOL    HW235367   1.876   1.267  12.654  1.3184 -0.2935  0.4702
 7911SOL     OW35368   2.823   1.093   0.703 -0.1225  0.7521  0.0714
 7911SOL    HW135369   2.803   1.185   0.719 -1.1329  0.6562 -0.6899
 7911SOL    HW235370   2.732   1.067   0.689 -0.4904  3.5864 -2.5836
 7912SOL     OW35371   3.207   3.141  16.292  0.1397  0.5927 -0.2821
 7912SOL    HW135372   3.277   3.198  16.260  1.8406 -1.3990 -0.1042
 7912SOL    HW235373   3.257   3.070  16.333 -0.2675 -0.2562 -1.2616
 7913SOL     OW35374   2.634   2.261   4.368  0.0668  0.3871 -0.3735
 7913SOL    HW135375   2.600   2.327   4.308 -0.5375  0.2058 -0.2238
 7913SOL    HW235376   2.719   2.244   4.326 -0.5804  0.9004 -1.8717
 7914SOL     OW35377   3.448   1.987   2.494 -0.1036  0.2374  0.5489
 7914SOL    HW135378   3.441   2.022   2.582  1.6668  1.2691  0.2808
 7914SOL    HW235379   3.498   1.907   2.513  2.3693  1.8054  0.6854
 7915SOL     OW35380   2.664   2.218   7.378 -0.9825  0.3049  0.2099
 7915SOL    HW135381   2.599   2.151   7.355  0.5096 -0.8397 -0.6367
 7915SOL    HW235382   2.648   2.220   7.473 -0.3454  2.6405  0.2614
 7916SOL     OW35383   3.470   3.683   5.303 -0.3919  0.2147 -0.3840
 7916SOL    HW135384   3.458   3.772   5.270 -1.5177  0.7128  1.3336
 7916SOL    HW235385   3.551   3.654   5.261 -0.1595 -1.2639  1.0913
 7917SOL     OW35386   3.870   1.537  11.523  0.1038  0.4286  0.3183
 7917SOL    HW135387   3.897   1.464  11.467  0.8976 -0.2949  1.6542
 7917SOL    HW235388   3.785   1.508  11.558 -0.2631  0.8541 -0.2132
 7918SOL     OW35389   2.393   4.356   7.441 -0.2628 -0.3431 -0.4438
 7918SOL    HW135390   2.394   4.451   7.426  0.1367 -0.4008 -0.7848
 7918SOL    HW235391   2.328   4.360   7.511 -1.0188 -0.6835 -1.1320
 7919SOL     OW35392   3.196   2.520   4.825 -0.3890 -0.4038 -0.3511
 7919SOL    HW135393   3.135   2.560   4.762 -1.2094 -0.4651  0.4074
 7919SOL    HW235394   3.226   2.594   4.878  0.0101 -0.9893  0.2392
 7920SOL     OW35395   0.008   1.727   7.760  0.4467  0.3490 -1.3522
 7920SOL    HW135396   0.093   1.745   7.719  2.1299 -0.6804  1.6405
 7920SOL    HW235397   4.718   1.805   7.809  1.3075  0.9018 -1.7539
 7921SOL     OW35398   2.081   4.192   0.149  0.2412 -0.1388 -0.2127
 7921SOL    HW135399   2.072   4.256   0.219 -3.2564 -1.4252  0.5084
 7921SOL    HW235400   2.165   4.152   0.173  0.0123 -0.9955 -0.8278
 7922SOL     OW35401   0.324   2.671   9.234  0.3804 -0.3769 -0.3125
 7922SOL    HW135402   0.304   2.712   9.149 -0.6010 -0.8770 -0.3277
 7922SOL    HW235403   0.377   2.742   9.269 -0.8422  0.2556  0.2674
 7923SOL     OW35404   1.147   0.663   7.729  0.1041 -0.7852 -0.8456
 7923SOL    HW135405   1.180   0.615   7.653 -2.7855 -2.3296 -1.1094
 7923SOL    HW235406   1.188   0.750   7.727 -0.9091 -0.2226  2.3502
 7924SOL     OW35407   3.217   3.758   8.030 -0.1813  0.5170  0.1292
 7924SOL    HW135408   3.263   3.697   8.086 -0.2296 -0.1206 -0.5240
 7924SOL    HW235409   3.176   3.691   7.975  0.7839 -0.0104  0.0594
 7925SOL     OW35410   1.003   2.824   8.698 -0.3143 -0.8398 -0.4312
 7925SOL    HW135411   1.093   2.812   8.727 -0.0853  0.7163 -0.4960
 7925SOL    HW235412   0.967   2.863   8.778  3.0547 -2.0065  1.6761
 7926SOL     OW35413   0.504   0.878   6.736  0.1104  0.2786 -0.1312
 7926SOL    HW135414   0.526   0.846   6.824  0.5897 -0.0831 -0.3868
 7926SOL    HW235415   0.583   0.927   6.717  0.4901 -0.4751 -0.4929
 7927SOL     OW35416   2.714   0.718   2.922 -0.4403  0.3662 -0.0236
 7927SOL    HW135417   2.633   0.763   2.945 -1.4561 -1.3738 -0.2709
 7927SOL    HW235418   2.775   0.790   2.938 -1.1793  0.9603  0.1322
 7928SOL     OW35419   1.724   2.890   6.409 -0.6246  0.1755 -0.3495
 7928SOL    HW135420   1.778   2.962   6.377  1.8632 -0.4120  2.5017
 7928SOL    HW235421   1.739   2.829   6.337 -4.2406 -1.5982  0.4110
 7929SOL     OW35422   2.080   3.931  11.706 -0.7093 -0.3417 -0.1490
 7929SOL    HW135423   2.049   3.869  11.772  1.6968 -1.8315 -0.4379
 7929SOL    HW235424   2.170   3.909  11.683 -1.4492 -0.9966 -2.4621
 7930SOL     OW35425   1.610   3.058   5.242 -0.5327 -0.2006  0.2361
 7930SOL    HW135426   1.702   3.077   5.228 -1.2384  1.1141 -2.5259
 7930SOL    HW235427   1.616   2.979   5.295 -1.0845  0.5214  1.3958
 7931SOL     OW35428   4.403   1.997   3.980  0.4326 -0.0673 -0.0630
 7931SOL    HW135429   4.475   1.944   4.014  0.1194  0.3110  1.2103
 7931SOL    HW235430   4.420   2.082   4.020 -0.8158  0.5052 -0.7509
 7932SOL     OW35431   2.875   2.353  17.072 -0.5369  0.1116 -0.3651
 7932SOL    HW135432   2.818   2.295  17.123  0.7793 -1.7791 -1.0260
 7932SOL    HW235433   2.817   2.429  17.072 -1.0432 -0.2710 -0.5601
 7933SOL     OW35434   4.560   1.005  15.489 -0.0497  0.2553  0.1653
 7933SOL    HW135435   4.590   0.993  15.398 -0.7738 -0.7255  0.0521
 7933SOL    HW235436   4.538   0.915  15.513 -0.6845 -0.2974 -2.4497
 7934SOL     OW35437   0.610   4.342   8.300 -0.6096  0.2748 -0.2692
 7934SOL    HW135438   0.678   4.311   8.240  0.5756  1.4747  0.4620
 7934SOL    HW235439   0.613   4.431   8.266  0.9270 -0.0994 -1.0962
 7935SOL     OW35440   3.389   3.986   1.340  0.7414  0.3476  0.4987
 7935SOL    HW135441   3.431   3.962   1.423  0.2390 -0.8317  0.4169
 7935SOL    HW235442   3.332   4.058   1.366  0.0518  1.0862 -3.0582
 7936SOL     OW35443   1.539   0.939   3.175  0.2122 -0.3134  0.1586
 7936SOL    HW135444   1.531   0.867   3.112 -0.0292 -1.0569  1.0350
 7936SOL    HW235445   1.463   0.925   3.232  0.6344 -4.1324 -0.2401
 7937SOL     OW35446   3.205   4.016   7.947  0.3869 -0.0540  0.0386
 7937SOL    HW135447   3.138   4.006   7.880 -0.1704  2.0238  0.2896
 7937SOL    HW235448   3.216   3.923   7.968  1.3947  0.0100 -0.1968
 7938SOL     OW35449   4.279   2.765   3.905  0.1094  0.3520  0.6918
 7938SOL    HW135450   4.340   2.788   3.835 -0.0115 -0.1347  0.4260
 7938SOL    HW235451   4.292   2.836   3.968  0.4194  1.1128 -0.2266
 7939SOL     OW35452   3.748   4.443   9.576 -0.5377  1.0191  0.2624
 7939SOL    HW135453   3.807   4.385   9.528 -1.1204  0.4866  0.1884
 7939SOL    HW235454   3.816   4.500   9.612  0.7838  0.4419 -1.2819
 7940SOL     OW35455   3.132   1.912   4.178 -0.1940  0.5793  0.5390
 7940SOL    HW135456   3.158   1.932   4.088  0.0104  1.7847  0.8626
 7940SOL    HW235457   3.194   1.967   4.227  1.1845 -1.6937  1.3257
 7941SOL     OW35458   1.712   3.280  14.514  0.6239 -0.1302 -0.8097
 7941SOL    HW135459   1.742   3.350  14.457 -0.8633  1.0354 -0.1607
 7941SOL    HW235460   1.621   3.288  14.486  1.6078  3.0917 -3.0458
 7942SOL     OW35461   0.642   1.380   2.445  0.4517 -0.1367 -0.1445
 7942SOL    HW135462   0.654   1.286   2.458 -0.8390 -0.4402 -1.2539
 7942SOL    HW235463   0.552   1.378   2.412  0.9821 -0.3354 -1.5919
 7943SOL     OW35464   4.616   1.037   6.385  0.1658  0.6268  0.2151
 7943SOL    HW135465   4.528   1.028   6.348 -1.1151  3.7187  2.4762
 7943SOL    HW235466   4.610   1.111   6.445  1.5275 -0.2028  1.3778
 7944SOL     OW35467   1.461   2.285  15.501 -0.5552 -0.3274  0.1706
 7944SOL    HW135468   1.512   2.367  15.496 -1.0121 -0.1716 -1.8077
 7944SOL    HW235469   1.425   2.281  15.412 -0.3885 -1.0836  0.1449
 7945SOL     OW35470   4.730   0.222   3.245  0.1527 -0.1776  0.5128
 7945SOL    HW135471   4.696   0.255   3.328 -0.7929  0.9580 -0.3347
 7945SOL    HW235472   0.013   0.132   3.272 -0.9850 -0.7405 -0.5154
 7946SOL     OW35473   2.823   2.528   7.427 -0.1737 -0.2535  0.3227
 7946SOL    HW135474   2.858   2.446   7.461  0.1143 -0.8214 -1.3583
 7946SOL    HW235475   2.846   2.529   7.335 -2.0391  0.3902 -0.1479
 7947SOL     OW35476   0.374   1.510   9.873 -0.0442  0.0193 -0.3240
 7947SOL    HW135477   0.362   1.563   9.952  0.5205  1.2286 -1.0524
 7947SOL    HW235478   0.299   1.452   9.866 -1.1267  1.7896 -3.5194
 7948SOL     OW35479   0.184   0.750   6.523  0.0737  0.0697  0.1710
 7948SOL    HW135480   0.140   0.834   6.515 -0.1370 -0.0409  0.1857
 7948SOL    HW235481   0.195   0.736   6.617  1.6943  0.6889  0.0772
 7949SOL     OW35482   3.936   3.523  16.405  0.0248  0.0745  0.2295
 7949SOL    HW135483   3.933   3.584  16.331  0.6779 -0.1849 -0.0113
 7949SOL    HW235484   3.964   3.443  16.363  0.4581  1.3633 -1.9267
 7950SOL     OW35485   4.549   4.102  14.154  0.2699 -0.1505 -0.3113
 7950SOL    HW135486   4.494   4.157  14.098 -1.5983  2.2561  3.8969
 7950SOL    HW235487   4.492   4.028  14.173 -1.4079  1.0579 -0.7138
 7951SOL     OW35488   4.589   2.104  16.197 -0.1123  0.2341  0.7808
 7951SOL    HW135489   4.595   2.168  16.127  0.9521 -1.0165 -0.2714
 7951SOL    HW235490   4.496   2.083  16.201  0.2420 -1.3674  0.7785
 7952SOL     OW35491   0.234   0.256   1.668 -0.4031 -0.5723 -0.0244
 7952SOL    HW135492   0.188   0.327   1.623  0.6679 -0.3471 -0.7370
 7952SOL    HW235493   0.188   0.180   1.631 -0.7817 -0.1672 -0.3905
 7953SOL     OW35494   1.436   1.593  15.857 -0.8814 -0.2279 -0.1172
 7953SOL    HW135495   1.508   1.649  15.827 -1.6281  1.1652  0.6654
 7953SOL    HW235496   1.488   1.518  15.885  0.8258  1.0476  0.1740
 7954SOL     OW35497   0.967   1.597   1.403  0.3178  0.2619  0.2107
 7954SOL    HW135498   0.916   1.520   1.429 -2.4352  2.2224  0.6156
 7954SOL    HW235499   1.028   1.610   1.476  1.2778  0.2405 -0.5870
 7955SOL     OW35500   0.276   0.858   7.095  0.0142  0.2397  0.0797
 7955SOL    HW135501   0.196   0.810   7.073 -0.4610  1.6883 -1.3255
 7955SOL    HW235502   0.334   0.782   7.106 -0.8210 -0.3688  0.3207
 7956SOL     OW35503   3.594   1.060   7.612 -0.3301  0.7553 -0.1302
 7956SOL    HW135504   3.628   1.110   7.537 -1.6120  0.5921 -0.8285
 7956SOL    HW235505   3.529   1.116   7.655 -0.2368 -0.4169  1.5244
 7957SOL     OW35506   1.997   0.954   0.201 -0.1627 -0.0331 -0.6068
 7957SOL    HW135507   1.966   0.881   0.147 -2.9557 -0.7045  1.8774
 7957SOL    HW235508   2.091   0.939   0.194 -0.0433  0.0709  0.6563
 7958SOL     OW35509   2.543   1.979   2.762  0.3236  0.0140 -0.5156
 7958SOL    HW135510   2.544   1.981   2.666 -0.1421  0.7403 -0.5013
 7958SOL    HW235511   2.616   1.921   2.785 -0.3407 -1.2207 -1.5247
 7959SOL     OW35512   3.917   2.622   5.789  0.3759  0.1358 -0.0893
 7959SOL    HW135513   3.848   2.645   5.727  0.5506  3.4126  0.9202
 7959SOL    HW235514   3.893   2.673   5.867 -1.8456 -0.0808 -0.6335
 7960SOL     OW35515   1.749   1.090   3.102 -0.2022 -0.1671  0.2475
 7960SOL    HW135516   1.758   1.081   3.008  1.1942 -1.6689  0.5338
 7960SOL    HW235517   1.700   1.011   3.125  0.5403 -0.5512  0.5405
 7961SOL     OW35518   0.330   2.494  16.457  0.3361  0.2365 -0.1076
 7961SOL    HW135519   0.367   2.556  16.395  0.1745  2.0106  1.5641
 7961SOL    HW235520   0.302   2.555  16.525  2.0281 -1.3466  2.0267
 7962SOL     OW35521   1.055   2.876   3.283  0.1210 -0.2915 -0.1539
 7962SOL    HW135522   1.008   2.808   3.330  4.3179 -1.7349  1.9075
 7962SOL    HW235523   1.084   2.935   3.353 -0.6931 -1.4282  1.1403
 7963SOL     OW35524   4.097   2.649   6.913 -0.5334 -0.1455  0.4975
 7963SOL    HW135525   4.038   2.721   6.932 -0.8949 -0.1636 -0.5079
 7963SOL    HW235526   4.092   2.640   6.817 -0.3614  1.7900  0.3058
 7964SOL     OW35527   1.852   0.064  10.345 -0.2913  0.1563 -0.0853
 7964SOL    HW135528   1.869   0.140  10.400  0.1554  0.4778 -0.6727
 7964SOL    HW235529   1.761   0.043  10.365 -0.7372  0.2862 -1.9464
 7965SOL     OW35530   2.871   2.731   2.223 -0.2365  0.3895  0.0940
 7965SOL    HW135531   2.869   2.792   2.149 -2.2249 -2.6986 -2.4125
 7965SOL    HW235532   2.797   2.672   2.205  0.7602 -1.3190  1.5570
 7966SOL     OW35533   2.638   3.221  11.925  1.1903 -0.2205 -0.4284
 7966SOL    HW135534   2.617   3.266  11.843 -1.8869 -2.1649 -0.7059
 7966SOL    HW235535   2.654   3.132  11.892 -1.9302 -0.8613 -0.1956
 7967SOL     OW35536   4.693   3.878   6.844 -0.1608 -0.2457  0.7032
 7967SOL    HW135537   4.736   3.822   6.780  0.6833  0.6731  0.4538
 7967SOL    HW235538   4.666   3.947   6.782 -1.1909 -1.3045 -0.0214
 7968SOL     OW35539   3.224   1.350   3.428 -0.0027 -0.6303  0.1589
 7968SOL    HW135540   3.209   1.255   3.427 -0.9770 -0.5034  2.2291
 7968SOL    HW235541   3.268   1.371   3.511 -2.4570  1.0439  1.0554
 7969SOL     OW35542   2.232   4.633   8.202  0.4495  0.3007  0.2367
 7969SOL    HW135543   2.146   4.638   8.161  1.2156 -2.4509 -1.7213
 7969SOL    HW235544   2.224   4.554   8.255 -1.5366 -0.5881 -1.3915
 7970SOL     OW35545   0.786   0.729   7.495  0.0814 -0.3137  0.0629
 7970SOL    HW135546   0.724   0.802   7.493 -0.7985 -1.1016 -1.1080
 7970SOL    HW235547   0.766   0.683   7.577 -0.1761  1.7099  1.1421
 7971SOL     OW35548   3.016   4.200   7.034  0.0669 -0.0257  0.1282
 7971SOL    HW135549   3.031   4.282   6.987 -0.9746 -0.2728 -0.6390
 7971SOL    HW235550   2.934   4.177   6.989  0.5750  0.6144 -1.1093
 7972SOL     OW35551   3.716   1.087   5.735  0.0948 -0.4331  0.3490
 7972SOL    HW135552   3.795   1.032   5.738  0.7303  0.4832  0.5401
 7972SOL    HW235553   3.745   1.173   5.767  0.4034  0.1016 -1.3806
 7973SOL     OW35554   2.454   0.584   4.628  0.2126 -0.0382 -0.2521
 7973SOL    HW135555   2.545   0.559   4.643  0.9902  2.5087 -0.8271
 7973SOL    HW235556   2.413   0.507   4.587  0.9831 -0.8434  0.4830
 7974SOL     OW35557   3.930   3.198   8.287  0.4608 -0.0943  0.0149
 7974SOL    HW135558   3.862   3.156   8.235  0.2061  2.1386 -1.4586
 7974SOL    HW235559   3.912   3.153   8.370  1.3168 -0.3864  0.0477
 7975SOL     OW35560   0.670   4.240  16.955  0.4381  0.3267  0.9816
 7975SOL    HW135561   0.695   4.150  16.937 -1.7370  0.3557 -2.2579
 7975SOL    HW235562   0.639   4.275  16.872  1.5190  0.8226  0.7917
 7976SOL     OW35563   3.989   3.921   5.630  0.2685  0.3528 -0.2897
 7976SOL    HW135564   3.941   3.897   5.709  1.2663  1.1419  0.5611
 7976SOL    HW235565   4.018   4.004   5.667 -1.1352  1.1546 -0.9766
 7977SOL     OW35566   1.321   0.920   9.841  0.4303  0.4257 -0.1585
 7977SOL    HW135567   1.320   1.011   9.811 -0.2410  0.0450 -1.2599
 7977SOL    HW235568   1.409   0.896   9.872 -0.2824 -1.2622  0.5700
 7978SOL     OW35569   3.654   4.299   9.821 -0.0368 -0.0515  0.4522
 7978SOL    HW135570   3.579   4.319   9.878  0.0413 -2.5418  1.4738
 7978SOL    HW235571   3.676   4.380   9.776  0.3673  0.6390  1.9055
 7979SOL     OW35572   3.581   3.507   8.267  0.4513 -0.1418 -0.0638
 7979SOL    HW135573   3.580   3.513   8.363 -1.3907 -3.6349  0.1551
 7979SOL    HW235574   3.595   3.413   8.254 -0.4685 -0.2681 -0.1671
 7980SOL     OW35575   0.150   4.206   6.036  0.1674  0.2260  0.2651
 7980SOL    HW135576   0.175   4.165   6.119  0.7198 -0.9668 -0.4832
 7980SOL    HW235577   0.225   4.212   5.977  1.8163  2.5997  2.6047
 7981SOL     OW35578   2.462   0.627   4.051  0.6331  0.2769  0.2542
 7981SOL    HW135579   2.436   0.553   3.996 -3.1548  0.9366  1.1856
 7981SOL    HW235580   2.491   0.581   4.131  1.5480 -0.4799 -0.5003
 7982SOL     OW35581   0.984   2.226  10.870 -0.7691 -0.6733  0.1015
 7982SOL    HW135582   0.989   2.321  10.880 -0.4832 -0.7797  0.9645
 7982SOL    HW235583   0.896   2.203  10.901 -0.8442 -1.3846 -0.6558
 7983SOL     OW35584   2.084   0.811   5.848  0.2598 -0.0192 -0.4074
 7983SOL    HW135585   2.006   0.865   5.845  1.6090  2.0100  0.9899
 7983SOL    HW235586   2.053   0.743   5.908  0.3913  0.8994  0.7036
 7984SOL     OW35587   3.497   0.161   2.198 -0.0270  0.3613  0.2794
 7984SOL    HW135588   3.536   0.248   2.205  1.9867 -0.4397 -1.0511
 7984SOL    HW235589   3.408   0.171   2.231 -0.2707  1.2812 -0.6674
 7985SOL     OW35590   0.395   4.463   8.560  0.2100  0.7809 -0.2771
 7985SOL    HW135591   0.423   4.479   8.470  0.8354  0.7491 -0.0884
 7985SOL    HW235592   0.338   4.540   8.555  0.1181  0.8287  1.4828
 7986SOL     OW35593   1.090   1.873   5.566  0.4084  0.2630  0.4910
 7986SOL    HW135594   1.134   1.909   5.643  2.5539  0.1533 -0.6780
 7986SOL    HW235595   1.108   1.934   5.494 -1.0642  0.3123  0.1715
 7987SOL     OW35596   3.097   0.369   5.818  0.2641 -0.1827 -0.3361
 7987SOL    HW135597   3.181   0.413   5.836 -0.1855 -0.0222  1.3416
 7987SOL    HW235598   3.055   0.351   5.902 -0.0442  0.1975 -0.4125
 7988SOL     OW35599   3.766   4.491   5.191 -0.0033 -0.4750  0.4949
 7988SOL    HW135600   3.792   4.581   5.174  1.5167 -0.9269  0.4761
 7988SOL    HW235601   3.757   4.459   5.101  0.3299 -0.5897  0.5037
 7989SOL     OW35602   2.723   4.270   4.535 -0.4960  0.2051 -0.4395
 7989SOL    HW135603   2.788   4.240   4.471  1.5472  0.1224  1.6757
 7989SOL    HW235604   2.646   4.221   4.507  1.4175 -2.1865 -1.5845
 7990SOL     OW35605   0.570   0.711   1.160  0.1102  0.0079 -0.4608
 7990SOL    HW135606   0.563   0.710   1.255  0.8679 -0.9055 -0.4122
 7990SOL    HW235607   0.494   0.762   1.132  0.5196 -0.1113 -1.7683
 7991SOL     OW35608   4.052   3.913   0.356 -0.1966  0.4831  0.3844
 7991SOL    HW135609   4.001   3.883   0.280 -0.2760  0.8544  0.2945
 7991SOL    HW235610   4.138   3.924   0.314 -0.4944  0.1371 -0.3262
 7992SOL     OW35611   0.078   1.827   6.119 -0.7506  0.0762 -0.3829
 7992SOL    HW135612   4.728   1.866   6.122  0.5117  2.8356  0.2288
 7992SOL    HW235613   0.126   1.873   6.050 -1.5324  0.9481 -0.3328
 7993SOL     OW35614   3.689   1.066  13.998  0.1244  0.1222 -0.1230
 7993SOL    HW135615   3.685   1.056  14.093 -1.0164 -2.3757 -0.4432
 7993SOL    HW235616   3.615   1.120  13.972  0.5298 -0.0501 -1.6259
 7994SOL     OW35617   3.370   1.799   7.725  0.6288  0.6420 -0.0570
 7994SOL    HW135618   3.434   1.833   7.663  0.7776  0.0034 -0.2559
 7994SOL    HW235619   3.294   1.788   7.668  0.7735 -1.2734  0.1316
 7995SOL     OW35620   0.194   2.109   1.862  0.4608 -0.1010 -0.8391
 7995SOL    HW135621   0.278   2.084   1.901 -1.3120 -0.5936  2.6194
 7995SOL    HW235622   0.209   2.068   1.777  3.1435 -0.3450 -0.2308
 7996SOL     OW35623   0.706   3.198   7.301 -0.1775  0.3530 -0.1932
 7996SOL    HW135624   0.779   3.238   7.349 -0.9174  0.8366  0.5302
 7996SOL    HW235625   0.673   3.277   7.259  0.0395  0.2875 -0.4894
 7997SOL     OW35626   2.840   2.701   7.654  0.3417 -0.4402  0.5481
 7997SOL    HW135627   2.857   2.651   7.575 -0.7250 -0.2735  0.2107
 7997SOL    HW235628   2.871   2.790   7.637 -0.0647 -0.0741  1.6938
 7998SOL     OW35629   2.099   2.059   4.916 -0.1428  0.3564  0.4266
 7998SOL    HW135630   2.090   2.103   4.831 -1.7110  1.3344  1.1039
 7998SOL    HW235631   2.039   1.985   4.909 -0.1130  0.5553 -2.0693
 7999SOL     OW35632   4.175   3.035   4.951 -0.2323 -0.3934 -0.2108
 7999SOL    HW135633   4.208   3.040   5.041  0.0680 -0.8324 -0.2958
 7999SOL    HW235634   4.166   3.129   4.939 -2.5735 -0.8278 -1.6799
 8000SOL     OW35635   2.033   1.684   6.401 -0.1679  0.4310 -0.1095
 8000SOL    HW135636   2.123   1.684   6.433  0.4672 -0.7130 -1.8889
 8000SOL    HW235637   2.054   1.721   6.316 -0.7896  0.6823 -0.1558
 8001SOL     OW35638   1.802   4.304   6.863 -0.1835 -0.0430 -0.3432
 8001SOL    HW135639   1.815   4.393   6.896  0.8309 -0.6456  0.8846
 8001SOL    HW235640   1.850   4.313   6.781 -1.2522  0.3061 -0.9307
 8002SOL     OW35641   4.347   0.319  11.682  0.0842  0.2613  0.8001
 8002SOL    HW135642   4.300   0.396  11.714 -0.9091 -0.7702  1.8137
 8002SOL    HW235643   4.428   0.358  11.648 -0.4346  1.2924  0.7415
 8003SOL     OW35644   4.584   4.270   0.789  0.6406  0.1435  0.0734
 8003SOL    HW135645   4.672   4.256   0.826  0.5584 -0.5916 -0.0293
 8003SOL    HW235646   4.599   4.357   0.751 -1.9868 -0.2826 -1.8560
 8004SOL     OW35647   3.901   1.785   4.439  0.1188  0.2191  0.1712
 8004SOL    HW135648   3.853   1.836   4.374  2.6400  1.8054 -0.4311
 8004SOL    HW235649   3.904   1.698   4.398 -0.8898  1.1053 -1.7732
 8005SOL     OW35650   0.986   3.479   4.945 -0.7578 -0.7381 -0.2432
 8005SOL    HW135651   1.001   3.404   5.003 -1.5108  0.9864  2.1688
 8005SOL    HW235652   0.893   3.489   4.963 -0.6085  0.4946 -0.1980
 8006SOL     OW35653   4.205   1.225   2.514 -0.1784 -0.3751 -0.0463
 8006SOL    HW135654   4.247   1.179   2.587  1.9086  1.8064  0.1230
 8006SOL    HW235655   4.181   1.307   2.557  0.9964 -0.2290  0.3439
 8007SOL     OW35656   2.630   4.319   5.368  0.0226  0.5814 -0.5020
 8007SOL    HW135657   2.679   4.258   5.423 -1.2131 -0.1368 -0.2005
 8007SOL    HW235658   2.537   4.313   5.390 -0.2247  2.5154 -0.9797
 8008SOL     OW35659   0.465   2.262   7.243  0.6096  0.5834 -0.7511
 8008SOL    HW135660   0.500   2.346   7.211 -0.5670  0.9760 -0.9863
 8008SOL    HW235661   0.539   2.248   7.303 -2.8510 -1.5944  3.0403
 8009SOL     OW35662   3.716   1.090   4.315 -0.4977 -0.2046 -0.7414
 8009SOL    HW135663   3.771   1.026   4.270  0.4447 -0.8833  1.3620
 8009SOL    HW235664   3.742   1.072   4.406 -0.1851  0.7944 -0.6292
 8010SOL     OW35665   2.933   1.670   3.548 -0.1894  0.0268  0.1550
 8010SOL    HW135666   2.893   1.620   3.620  0.5815 -1.2145 -0.2881
 8010SOL    HW235667   2.857   1.683   3.492  1.4926 -2.3395 -2.6602
 8011SOL     OW35668   4.015   4.098  13.869  0.2998  0.2420 -0.2264
 8011SOL    HW135669   3.997   4.139  13.954  1.7917  0.4101  0.0064
 8011SOL    HW235670   4.038   4.177  13.820  0.7896  0.2707  0.0439
 8012SOL     OW35671   4.118   4.230   3.577  0.3502  0.3814  0.1328
 8012SOL    HW135672   4.022   4.223   3.575  0.3102  1.3374 -0.7452
 8012SOL    HW235673   4.127   4.205   3.486  1.1792 -1.3356  0.6892
 8013SOL     OW35674   1.203   2.456   5.474 -0.1848  0.8892  0.3405
 8013SOL    HW135675   1.202   2.442   5.379 -1.3398  2.6512  0.1017
 8013SOL    HW235676   1.247   2.375   5.498  1.0241  1.5108  0.2428
 8014SOL     OW35677   3.930   0.389  11.439 -0.1581  0.1853  0.0552
 8014SOL    HW135678   3.839   0.407  11.460 -0.0220  1.1875 -0.2042
 8014SOL    HW235679   3.917   0.315  11.380 -3.3307  0.2982  0.6347
 8015SOL     OW35680   0.336   0.348  13.290 -0.5522 -0.6503 -0.3633
 8015SOL    HW135681   0.386   0.268  13.273  0.1893 -0.1472 -0.5833
 8015SOL    HW235682   0.249   0.309  13.284 -0.1050 -1.8197  0.6717
 8016SOL     OW35683   0.498   2.579  14.910 -0.4675  0.0346  0.0587
 8016SOL    HW135684   0.439   2.516  14.868 -0.8762  1.7758 -1.9875
 8016SOL    HW235685   0.453   2.591  14.993 -0.3307  0.3596  0.0853
 8017SOL     OW35686   2.111   2.165   7.557 -0.0542  0.3663  0.3113
 8017SOL    HW135687   2.031   2.204   7.522  0.1593  0.6511  0.1467
 8017SOL    HW235688   2.125   2.220   7.635 -0.3758 -1.6810  1.8186
 8018SOL     OW35689   1.088   3.097  17.186 -0.0961 -0.2140 -0.2896
 8018SOL    HW135690   1.027   3.061  17.250 -0.4932  0.5500 -0.2381
 8018SOL    HW235691   1.148   3.023  17.195 -1.7764 -1.6548 -0.8688
 8019SOL     OW35692   0.606   1.118   1.581  0.0458  0.2795  0.1533
 8019SOL    HW135693   0.701   1.106   1.588 -0.0722 -0.7861  0.0234
 8019SOL    HW235694   0.606   1.213   1.572 -0.9885  0.4028  1.4387
 8020SOL     OW35695   0.066   0.879  12.889  0.4665 -0.0278 -0.2703
 8020SOL    HW135696   0.092   0.971  12.893  0.8511 -0.1108 -0.7276
 8020SOL    HW235697   0.132   0.840  12.946 -0.5172  0.6186  1.3108
 8021SOL     OW35698   2.773   0.900  14.084 -0.1192 -0.1124  0.2053
 8021SOL    HW135699   2.721   0.864  14.013  2.1084  0.0153 -1.4968
 8021SOL    HW235700   2.788   0.818  14.131  0.1556 -0.1910 -0.0176
 8022SOL     OW35701   0.921   4.091  16.721 -0.2166  0.1344  0.2511
 8022SOL    HW135702   0.837   4.046  16.710 -1.0310  1.7329 -0.0634
 8022SOL    HW235703   0.970   4.049  16.792 -0.6315 -1.8351 -0.6379
 8023SOL     OW35704   2.815   1.243   0.992  0.2916  0.4439  0.2454
 8023SOL    HW135705   2.723   1.239   1.018  0.4929  0.7062  1.0032
 8023SOL    HW235706   2.800   1.291   0.911  0.6273  2.1888  1.2155
 8024SOL     OW35707   4.084   0.122  12.944 -0.2453  0.1098 -0.2372
 8024SOL    HW135708   4.045   0.192  12.997 -0.3489 -1.1194  1.3171
 8024SOL    HW235709   4.007   0.105  12.889  0.6916  0.5592 -1.6547
 8025SOL     OW35710   4.259   0.186  15.195 -0.0920 -0.4113  0.3261
 8025SOL    HW135711   4.266   0.207  15.101 -1.0817 -0.3000  0.2790
 8025SOL    HW235712   4.338   0.229  15.229 -0.9056  2.8566 -1.8284
 8026SOL     OW35713   3.586   1.166   8.476  0.4935 -0.0178 -0.1912
 8026SOL    HW135714   3.681   1.158   8.474  0.3373 -2.1007  0.3166
 8026SOL    HW235715   3.571   1.254   8.509  0.6265  0.5580 -1.6780
 8027SOL     OW35716   2.607   4.513   0.935 -0.4233  0.6142  0.6661
 8027SOL    HW135717   2.550   4.556   0.998  0.5970  0.8446  1.4314
 8027SOL    HW235718   2.602   4.578   0.865 -0.7799 -0.8455 -0.6784
 8028SOL     OW35719   1.112   0.695   1.983 -0.1433  0.3432  0.3652
 8028SOL    HW135720   1.096   0.685   1.890  0.3805  0.0843  0.3017
 8028SOL    HW235721   1.094   0.789   1.995 -0.0098  0.6799 -2.0857
 8029SOL     OW35722   0.532   3.222  12.837  0.2203 -0.3174 -0.0345
 8029SOL    HW135723   0.619   3.184  12.844  1.1316  1.8452  0.5710
 8029SOL    HW235724   0.541   3.281  12.912  1.3248  1.6192 -1.6767
 8030SOL     OW35725   1.912   0.184   3.972 -0.5134 -0.1436 -0.4553
 8030SOL    HW135726   1.928   0.212   4.062  0.3033  0.0847 -0.6699
 8030SOL    HW235727   1.937   0.091   3.975 -0.7817 -0.2229 -0.6894
 8031SOL     OW35728   3.729   1.610   6.528  0.1768  0.1965 -0.0577
 8031SOL    HW135729   3.724   1.550   6.603 -0.7317  2.5051  1.7376
 8031SOL    HW235730   3.748   1.545   6.460  1.9610  1.2398 -0.5460
 8032SOL     OW35731   4.717   1.217  16.606  0.3533  0.1226  0.1005
 8032SOL    HW135732   4.640   1.272  16.592 -0.5073 -0.7096  1.6149
 8032SOL    HW235733   0.050   1.281  16.598  0.2104  0.4040  1.1498
 8033SOL     OW35734   4.216   2.262  15.057  0.5735 -0.3298  0.0694
 8033SOL    HW135735   4.245   2.237  14.969  0.1224 -0.5871 -0.0056
 8033SOL    HW235736   4.183   2.349  15.033 -0.2246  0.2242  3.1754
 8034SOL     OW35737   3.486   2.089  10.003 -0.3516  0.4621 -0.4651
 8034SOL    HW135738   3.417   2.025  10.018 -0.8392  1.0129 -0.3390
 8034SOL    HW235739   3.441   2.169  10.032  0.6765  0.7639  0.3018
 8035SOL     OW35740   0.206   3.337  14.778 -0.5170 -0.2409  0.4454
 8035SOL    HW135741   0.145   3.409  14.766 -0.5077 -0.1464  0.9693
 8035SOL    HW235742   0.251   3.332  14.694  0.4509  0.5314  0.9143
 8036SOL     OW35743   3.569   3.462   6.712 -0.4315 -0.0850  0.4809
 8036SOL    HW135744   3.568   3.502   6.800  2.2676  2.9307 -0.8588
 8036SOL    HW235745   3.528   3.538   6.671 -2.4422 -1.2610  0.2966
 8037SOL     OW35746   2.620   3.447   8.384  0.5234  0.5432 -0.1515
 8037SOL    HW135747   2.620   3.510   8.456 -3.0142 -0.4465  0.7340
 8037SOL    HW235748   2.707   3.449   8.346  1.5674  0.1885  2.2057
 8038SOL     OW35749   4.371   4.731  15.636 -0.5615 -0.1344  0.1060
 8038SOL    HW135750   4.289   4.685  15.651  0.7050 -1.4897  3.0187
 8038SOL    HW235751   4.427   4.683  15.698  1.7916  1.4526 -0.7649
 8039SOL     OW35752   0.840   3.491  16.631  0.2860  0.2767  0.3602
 8039SOL    HW135753   0.779   3.418  16.643  1.2822 -0.4913  0.6924
 8039SOL    HW235754   0.790   3.567  16.600 -0.6772 -0.1728  0.7923
 8040SOL     OW35755   4.501   1.506   9.539 -0.5883  0.4297 -0.1117
 8040SOL    HW135756   4.465   1.594   9.552 -0.3586  0.5780 -0.4901
 8040SOL    HW235757   4.575   1.530   9.484  1.2105  0.2470  2.2750
 8041SOL     OW35758   2.131   0.452   8.562 -0.2672 -0.6142  0.5248
 8041SOL    HW135759   2.136   0.507   8.483  3.2879  0.1080  1.2299
 8041SOL    HW235760   2.176   0.376   8.525  0.6502  0.6191 -0.9184
 8042SOL     OW35761   3.942   2.561   3.390 -0.0147 -0.1298  0.3595
 8042SOL    HW135762   4.030   2.591   3.415 -1.3051  3.2808  0.7624
 8042SOL    HW235763   3.961   2.475   3.352 -1.4883  0.1715 -1.0592
 8043SOL     OW35764   2.382   1.085  15.462  0.3493  0.6914 -0.3731
 8043SOL    HW135765   2.406   1.001  15.503 -1.3453  0.9749  1.2112
 8043SOL    HW235766   2.356   1.049  15.377  0.8574  0.8607 -0.5977
 8044SOL     OW35767   4.185   3.584   5.176  0.3727 -0.4706 -0.0933
 8044SOL    HW135768   4.120   3.518   5.202 -2.0752  1.8350 -0.4140
 8044SOL    HW235769   4.131   3.656   5.145 -1.5948 -0.6974  2.8537
 8045SOL     OW35770   0.022   4.673   7.151 -0.1083 -0.4981 -0.8354
 8045SOL    HW135771   4.718   4.670   7.237  1.9132  0.5360  0.1575
 8045SOL    HW235772   0.016   4.584   7.117  1.9864 -0.6578 -0.7918
 8046SOL     OW35773   0.676   1.085  10.161  0.0093 -0.1062  0.4552
 8046SOL    HW135774   0.694   1.137  10.239  2.1681  1.5922 -1.1737
 8046SOL    HW235775   0.586   1.103  10.136  0.0690  0.7080  0.8499
 8047SOL     OW35776   0.005   4.271  14.103 -0.2412  0.4765  0.2630
 8047SOL    HW135777   0.027   4.256  14.012  0.7818  0.7154  0.4725
 8047SOL    HW235778   4.672   4.209  14.123 -0.1025  0.1336 -0.3157
 8048SOL     OW35779   2.850   0.994   6.940  0.1401  0.5472 -0.1801
 8048SOL    HW135780   2.890   1.081   6.947 -0.4656  0.8394 -0.3105
 8048SOL    HW235781   2.768   1.018   6.897 -0.9935 -2.8328  0.1173
 8049SOL     OW35782   4.432   4.445   7.514  1.0381 -0.5522  0.5273
 8049SOL    HW135783   4.346   4.402   7.515  1.9895 -2.4916 -0.1314
 8049SOL    HW235784   4.412   4.527   7.470  2.0341  0.1595  1.4219
 8050SOL     OW35785   2.851   4.091   1.221  0.4369 -0.6092 -0.5517
 8050SOL    HW135786   2.859   4.094   1.126 -2.0901 -3.1497 -0.8149
 8050SOL    HW235787   2.854   4.186   1.236 -1.3269 -1.1230  3.2004
 8051SOL     OW35788   0.186   0.798   2.473  0.3221 -0.0876 -0.2662
 8051SOL    HW135789   0.120   0.729   2.470  1.2600 -1.0436  1.1286
 8051SOL    HW235790   0.232   0.768   2.394  3.6476  0.4809  1.4485
 8052SOL     OW35791   0.865   4.229  17.155  0.2738  0.2874  0.2998
 8052SOL    HW135792   0.863   4.140  17.192  1.2256 -0.2860 -1.0023
 8052SOL    HW235793   0.800   4.221  17.085  2.1557 -1.2628 -1.2686
 8053SOL     OW35794   1.639   3.861  14.801  0.4535 -0.5947 -1.0080
 8053SOL    HW135795   1.687   3.864  14.719 -0.0246  0.3947 -1.2449
 8053SOL    HW235796   1.590   3.942  14.809  1.5726 -0.1234  1.1082
 8054SOL     OW35797   0.700   4.207  16.453 -0.3537 -0.1609 -0.1067
 8054SOL    HW135798   0.696   4.256  16.371  0.0126  1.1010  0.6336
 8054SOL    HW235799   0.727   4.276  16.513 -0.8421  0.8204 -1.0209
 8055SOL     OW35800   1.581   2.587  13.929  0.3058 -0.0934 -0.0899
 8055SOL    HW135801   1.648   2.632  13.876  0.9974  3.1623  3.5256
 8055SOL    HW235802   1.545   2.664  13.973  0.9743 -0.7581  1.5997
 8056SOL     OW35803   2.285   4.397   5.079  0.0091  0.1033 -0.3210
 8056SOL    HW135804   2.363   4.450   5.094 -0.0337 -0.6155  2.4573
 8056SOL    HW235805   2.290   4.394   4.984  0.6777  1.4945 -0.3272
 8057SOL     OW35806   0.605   2.081   5.101  0.4096  0.3390 -0.6759
 8057SOL    HW135807   0.572   2.112   5.017 -0.1620 -0.8317 -0.8964
 8057SOL    HW235808   0.561   2.133   5.168  0.7184 -0.3033  0.0175
 8058SOL     OW35809   2.537   0.495  10.057  0.2057 -0.1989 -0.2826
 8058SOL    HW135810   2.583   0.482  10.140  0.6527  2.2365 -0.1439
 8058SOL    HW235811   2.516   0.403  10.043  0.4794  0.0989 -2.6349
 8059SOL     OW35812   0.753   2.875  15.300  0.1083 -0.4264 -0.2754
 8059SOL    HW135813   0.755   2.956  15.249  1.9963 -0.0118  0.4286
 8059SOL    HW235814   0.679   2.830  15.259  1.0200 -1.5782 -0.6654
 8060SOL     OW35815   1.097   0.982   7.829 -0.7528  0.8237  0.3285
 8060SOL    HW135816   1.141   0.973   7.744  1.2752  1.5211  1.3010
 8060SOL    HW235817   1.010   0.963   7.796 -0.2020 -0.8001 -0.1913
 8061SOL     OW35818   0.243   4.684   5.821 -0.5327 -0.3687  0.3700
 8061SOL    HW135819   0.181   4.725   5.881 -0.7046  2.6041 -1.8211
 8061SOL    HW235820   0.192   4.704   5.743 -1.4600 -1.6308  0.6604
 8062SOL     OW35821   2.578   3.641  11.806  0.3394 -0.0618 -0.1367
 8062SOL    HW135822   2.539   3.619  11.721 -0.0649 -1.6504  0.4687
 8062SOL    HW235823   2.670   3.622  11.785  0.1341  1.5605 -2.5196
 8063SOL     OW35824   1.839   3.375   9.854  0.1206 -0.1828 -0.2381
 8063SOL    HW135825   1.789   3.439   9.905  0.9299 -0.5133  0.9620
 8063SOL    HW235826   1.883   3.437   9.796 -1.8023  1.8026  0.4025
 8064SOL     OW35827   4.228   4.427  15.025 -0.5940 -0.1760  0.5543
 8064SOL    HW135828   4.196   4.440  15.114 -0.6444 -0.5643  0.5921
 8064SOL    HW235829   4.233   4.521  15.005 -0.2432 -0.1303  0.8576
 8065SOL     OW35830   1.144   1.365   3.152  0.5801 -0.8858 -0.0883
 8065SOL    HW135831   1.208   1.294   3.155  0.2620 -1.2035 -0.8468
 8065SOL    HW235832   1.207   1.437   3.158  0.0529 -0.2468 -2.2525
 8066SOL     OW35833   2.992   0.408   8.240  0.0155  0.3228 -0.1065
 8066SOL    HW135834   3.045   0.485   8.219  1.5269 -0.4531  0.7906
 8066SOL    HW235835   3.052   0.340   8.273 -0.8904 -2.0169 -3.3646
 8067SOL     OW35836   3.602   1.271  14.644 -0.8391 -0.1737  0.3546
 8067SOL    HW135837   3.645   1.322  14.575 -2.4680  0.6120 -0.0848
 8067SOL    HW235838   3.643   1.317  14.717 -1.0336 -0.6245  0.7409
 8068SOL     OW35839   1.675   2.963   6.971 -0.4673  0.5085  0.0127
 8068SOL    HW135840   1.655   2.980   6.879  1.9225 -1.8643 -0.9571
 8068SOL    HW235841   1.607   3.011   7.017 -0.9756 -1.3944  1.2185
 8069SOL     OW35842   4.093   4.538   8.490  0.4370  1.7276 -0.4933
 8069SOL    HW135843   4.148   4.471   8.450  0.0484 -0.0979  1.9950
 8069SOL    HW235844   4.134   4.561   8.573  1.8933  0.5698 -0.8883
 8070SOL     OW35845   1.526   2.581  12.242  0.2586  0.2410 -0.0854
 8070SOL    HW135846   1.534   2.603  12.149 -0.4941 -0.5432 -0.3311
 8070SOL    HW235847   1.596   2.637  12.275 -0.5506  0.5190  1.1477
 8071SOL     OW35848   0.107   3.180   6.863  0.0635 -0.2983 -0.6080
 8071SOL    HW135849   0.136   3.210   6.949  0.8326  0.8141 -1.2552
 8071SOL    HW235850   0.026   3.137   6.888  0.2223 -0.1943  0.0918
 8072SOL     OW35851   2.602   0.949  17.339  0.1764  0.0594  0.1395
 8072SOL    HW135852   2.512   0.942  17.373 -0.9636  1.6811 -2.5194
 8072SOL    HW235853   2.646   0.899  17.408 -1.6793 -3.3430 -1.1090
 8073SOL     OW35854   3.946   0.423   2.221 -0.3071 -0.5566  0.3438
 8073SOL    HW135855   3.920   0.504   2.265  2.3988  1.3993 -1.7181
 8073SOL    HW235856   3.903   0.358   2.278  1.0887  0.4395  2.5042
 8074SOL     OW35857   0.099   0.669   8.000  0.2886  1.0987  0.3413
 8074SOL    HW135858   0.110   0.602   8.067 -0.5823  0.5586 -0.0622
 8074SOL    HW235859   0.119   0.749   8.048 -0.1673  1.4463 -0.0344
 8075SOL     OW35860   3.245   0.411  17.471  0.1816 -0.2545 -0.1441
 8075SOL    HW135861   3.165   0.361  17.457  0.3606 -0.6143  0.1262
 8075SOL    HW235862   3.258   0.454  17.386  1.6618  0.3942  0.3999
 8076SOL     OW35863   0.822   3.333   6.447 -0.6335  0.4005  0.1258
 8076SOL    HW135864   0.762   3.336   6.521 -0.6433  0.0064  0.1308
 8076SOL    HW235865   0.833   3.240   6.430  1.0296  0.7139 -0.5601
 8077SOL     OW35866   0.903   1.939   7.399  0.0960  0.4169 -0.1824
 8077SOL    HW135867   0.875   1.888   7.323 -0.0487 -0.6608  0.5912
 8077SOL    HW235868   0.923   2.023   7.358 -0.7418  0.1740 -1.0770
 8078SOL     OW35869   3.178   0.427   2.728  0.2212 -0.5918 -0.0047
 8078SOL    HW135870   3.171   0.516   2.695  2.4948 -0.0605  0.9741
 8078SOL    HW235871   3.089   0.396   2.712 -1.1497  1.6760  3.2297
 8079SOL     OW35872   3.782   4.117   8.574  0.3259 -0.3563  0.0893
 8079SOL    HW135873   3.853   4.168   8.536 -0.4427  1.5539  1.1813
 8079SOL    HW235874   3.773   4.048   8.509  3.6149  0.4285 -1.1734
 8080SOL     OW35875   0.325   4.362   4.768 -0.2351 -0.4783  0.3196
 8080SOL    HW135876   0.252   4.411   4.731  0.0122 -0.9903 -0.8354
 8080SOL    HW235877   0.383   4.376   4.694 -1.7871  0.7091 -0.6703
 8081SOL     OW35878   4.141   4.240   1.073 -0.3843 -0.1202  0.8301
 8081SOL    HW135879   4.125   4.149   1.097 -1.3717  0.1844  1.3369
 8081SOL    HW235880   4.213   4.235   1.011 -0.2634  0.7212  0.9013
 8082SOL     OW35881   1.379   2.696   0.931  0.5117 -0.0239  0.5715
 8082SOL    HW135882   1.381   2.616   0.984  0.2399  0.6605  1.6152
 8082SOL    HW235883   1.361   2.770   0.988  1.5370 -0.5250  1.5435
 8083SOL     OW35884   3.356   2.592   4.475 -0.3727 -0.0493 -0.3703
 8083SOL    HW135885   3.296   2.657   4.512  0.1290  1.1368 -1.6117
 8083SOL    HW235886   3.302   2.541   4.414 -1.2805 -1.8242  1.9293
 8084SOL     OW35887   4.281   4.262   1.412  0.3448  0.1305  0.0191
 8084SOL    HW135888   4.299   4.200   1.341 -2.5406  0.0659 -0.6764
 8084SOL    HW235889   4.191   4.239   1.434  0.1300  1.0189  0.0606
 8085SOL     OW35890   1.344   1.966   4.307 -0.5604  0.5594 -0.1056
 8085SOL    HW135891   1.421   1.926   4.268 -0.3429 -0.2608  1.1859
 8085SOL    HW235892   1.314   2.033   4.245 -1.1878  0.2650 -0.1253
 8086SOL     OW35893   2.122   3.164   7.608  0.4119 -0.0706  0.2175
 8086SOL    HW135894   2.028   3.156   7.625  0.9199 -1.1307  2.4540
 8086SOL    HW235895   2.152   3.076   7.628  0.3652 -0.3105 -0.7528
 8087SOL     OW35896   3.335   0.237   6.681  0.6899 -0.1539 -0.5868
 8087SOL    HW135897   3.248   0.203   6.659  0.3631  1.2117 -1.4003
 8087SOL    HW235898   3.387   0.158   6.693  2.1405  0.7200 -1.1457
 8088SOL     OW35899   0.294   0.255   8.920 -0.3839 -0.0890  0.2926
 8088SOL    HW135900   0.318   0.301   9.000 -0.7819  1.9953 -0.7700
 8088SOL    HW235901   0.213   0.214   8.949 -1.3520  0.9605 -0.9143
 8089SOL     OW35902   3.004   2.283   6.826 -0.0794  0.0641  0.0920
 8089SOL    HW135903   3.026   2.375   6.845 -2.0757  0.3299  1.0741
 8089SOL    HW235904   3.071   2.232   6.872  1.6881  0.8134 -1.6542
 8090SOL     OW35905   2.876   3.663   8.588 -0.2249 -0.0827  0.4643
 8090SOL    HW135906   2.943   3.608   8.547  0.2181  2.2745 -1.9735
 8090SOL    HW235907   2.940   3.732   8.609 -0.4881  0.6108 -0.9927
 8091SOL     OW35908   0.715   1.457   1.121 -0.0517  0.2365  0.1104
 8091SOL    HW135909   0.680   1.517   1.054  2.1436  0.7821 -0.5256
 8091SOL    HW235910   0.676   1.372   1.103  0.7438 -0.1967  0.4834
 8092SOL     OW35911   0.946   3.741   1.854 -0.2654 -0.5944 -0.3399
 8092SOL    HW135912   0.952   3.775   1.944 -2.4269  1.2225 -0.8829
 8092SOL    HW235913   1.037   3.729   1.826  0.1397 -0.2769  0.8106
 8093SOL     OW35914   0.627   0.344  13.388 -0.4560 -0.4384  0.3055
 8093SOL    HW135915   0.670   0.405  13.448  0.8413 -0.6588 -0.4211
 8093SOL    HW235916   0.535   0.344  13.414 -0.4488 -0.7267  0.3329
 8094SOL     OW35917   3.360   2.206   2.373 -0.4776 -0.1062  0.6108
 8094SOL    HW135918   3.389   2.125   2.415  0.9089  0.9536  1.7108
 8094SOL    HW235919   3.366   2.178   2.282 -1.3895 -0.7997  0.7669
 8095SOL     OW35920   1.993   4.026  12.311 -0.2598  0.7244 -0.0252
 8095SOL    HW135921   2.060   4.084  12.348  1.0889 -0.8153 -0.0844
 8095SOL    HW235922   1.931   4.028  12.384 -0.6689 -1.3017 -0.3175
 8096SOL     OW35923   1.576   3.030   6.198  0.4948 -0.0515 -0.4481
 8096SOL    HW135924   1.551   3.121   6.184 -1.5457 -0.4449  0.6257
 8096SOL    HW235925   1.664   3.054   6.227  0.1756  0.4306  0.0976
 8097SOL     OW35926   1.492   3.090   7.119 -0.0247  0.7416 -0.3527
 8097SOL    HW135927   1.508   3.078   7.213  1.3861 -2.4033 -1.0162
 8097SOL    HW235928   1.458   3.179   7.113 -0.5912  0.4366 -1.4806
 8098SOL     OW35929   1.525   1.270   1.221  0.2443  0.2747  0.3415
 8098SOL    HW135930   1.491   1.227   1.299 -2.1174  2.0094  0.2791
 8098SOL    HW235931   1.507   1.363   1.237 -0.6343 -0.0870  1.4314
 8099SOL     OW35932   0.024   4.688   4.787 -0.2763  0.1338  0.2475
 8099SOL    HW135933   0.064   4.613   4.743 -0.7019  0.3063 -0.4410
 8099SOL    HW235934   0.099   0.009   4.770 -0.0843  0.0159  0.7119
 8100SOL     OW35935   2.339   0.120   8.271 -0.2674  0.0616 -0.0716
 8100SOL    HW135936   2.306   0.032   8.251 -0.6165 -0.0781  1.1196
 8100SOL    HW235937   2.376   0.149   8.188  0.1562 -1.3434 -0.3718
 8101SOL     OW35938   1.498   3.007  12.739 -0.1564  0.1050  0.6587
 8101SOL    HW135939   1.485   3.022  12.833 -0.2077 -0.1700  0.6944
 8101SOL    HW235940   1.519   3.091  12.698  1.6656 -0.0950  1.1883
 8102SOL     OW35941   0.827   1.869   1.676  0.5555  0.2585 -0.2692
 8102SOL    HW135942   0.783   1.950   1.650 -1.3830 -0.5289  0.5533
 8102SOL    HW235943   0.898   1.903   1.731  1.4475  0.3734 -1.4993
 8103SOL     OW35944   1.206   3.218   6.177  0.2122  0.3011  0.2895
 8103SOL    HW135945   1.196   3.186   6.087  2.3680  1.1559 -0.2277
 8103SOL    HW235946   1.202   3.312   6.163  1.0656  0.3376  0.3075
 8104SOL     OW35947   3.833   0.456  15.805  0.6908  0.2121  0.4071
 8104SOL    HW135948   3.754   0.509  15.810  0.9364  0.7707 -1.5295
 8104SOL    HW235949   3.836   0.406  15.886  2.1113  0.4891  0.5286
 8105SOL     OW35950   4.636   4.047   0.595  0.3639  0.2301 -0.5569
 8105SOL    HW135951   4.571   4.103   0.636 -0.0090  0.0657 -0.9217
 8105SOL    HW235952   4.678   4.009   0.672 -1.2853  2.1869  1.2834
 8106SOL     OW35953   3.306   4.525   1.196 -0.5073  0.9410 -0.5268
 8106SOL    HW135954   3.304   4.518   1.292  0.4323  2.0512 -0.4288
 8106SOL    HW235955   3.245   4.454   1.174  2.0808 -1.3045 -0.4301
 8107SOL     OW35956   2.619   4.220   1.553  0.0864  0.6509  0.0252
 8107SOL    HW135957   2.714   4.225   1.564 -0.0155  1.4285  0.5795
 8107SOL    HW235958   2.596   4.313   1.561  2.6219  1.0975  1.9764
 8108SOL     OW35959   0.963   3.048  15.432 -0.4171  0.0154 -0.4287
 8108SOL    HW135960   0.923   3.015  15.352 -1.4389 -1.0169  0.5092
 8108SOL    HW235961   1.054   3.020  15.416 -1.6090 -2.0005 -3.6602
 8109SOL     OW35962   3.225   3.822   0.915  0.5272 -0.2912  0.1058
 8109SOL    HW135963   3.313   3.860   0.926 -0.1774  1.3577  0.1203
 8109SOL    HW235964   3.190   3.841   1.002  2.1823  2.6996  0.1282
 8110SOL     OW35965   4.722   0.744  15.434  0.3498 -0.1013 -0.3146
 8110SOL    HW135966   4.669   0.715  15.360 -1.0807 -1.7885  1.3748
 8110SOL    HW235967   0.049   0.808  15.402  0.2290  0.2092  0.0769
 8111SOL     OW35968   2.904   4.557   4.332  0.0437  0.7088 -0.1147
 8111SOL    HW135969   2.943   4.470   4.325 -1.7924  0.0186 -1.7539
 8111SOL    HW235970   2.949   4.590   4.410 -0.0807 -0.1414  0.3118
 8112SOL     OW35971   3.098   0.789   3.694  0.4127  0.6978  0.2112
 8112SOL    HW135972   3.109   0.883   3.683 -3.1302  1.2792  1.6867
 8112SOL    HW235973   3.077   0.779   3.786  2.4997 -0.3501  0.5942
 8113SOL     OW35974   1.919   1.408   6.514  0.2879 -0.0613  0.4044
 8113SOL    HW135975   1.938   1.501   6.500  1.0063  0.1624  2.9115
 8113SOL    HW235976   1.918   1.370   6.426  0.3675 -0.3289  0.5190
 8114SOL     OW35977   0.638   0.325   2.020 -0.7049  0.3766  0.4209
 8114SOL    HW135978   0.625   0.271   1.941 -0.6543  2.4121 -0.9695
 8114SOL    HW235979   0.729   0.346   1.999 -0.2144  0.5783  2.8096
 8115SOL     OW35980   3.432   2.880  10.573 -0.3647  0.2547 -0.2683
 8115SOL    HW135981   3.514   2.880  10.524  0.6867  1.2051  1.4805
 8115SOL    HW235982   3.389   2.812  10.521  0.2821 -0.8792  0.6903
 8116SOL     OW35983   3.368   4.281  17.581 -0.5380 -0.7929  0.1173
 8116SOL    HW135984   3.273   4.289  17.572 -0.5412 -0.6614  0.2772
 8116SOL    HW235985   3.382   4.365  17.625 -0.0626  0.4916 -2.4184
 8117SOL     OW35986   1.232   1.860   9.959  0.1888 -0.2896 -0.5019
 8117SOL    HW135987   1.153   1.913   9.953  0.3880  0.0192 -0.3609
 8117SOL    HW235988   1.299   1.925   9.978  2.5047 -2.8740  0.1399
 8118SOL     OW35989   3.103   1.252   9.717 -0.0648  0.2466 -0.3857
 8118SOL    HW135990   3.121   1.158   9.727  0.5968  0.4455  0.2569
 8118SOL    HW235991   3.008   1.243   9.705  0.2715 -1.5695 -1.6849
 8119SOL     OW35992   4.270   3.514   3.113 -0.1325 -0.3073  0.0408
 8119SOL    HW135993   4.260   3.459   3.190 -1.7053  0.7373  0.5765
 8119SOL    HW235994   4.188   3.491   3.069 -0.2166  1.3684 -0.6875
 8120SOL     OW35995   3.735   1.952   8.863 -0.3080  0.1745  0.1449
 8120SOL    HW135996   3.812   2.009   8.859  2.1100 -3.0065  1.0718
 8120SOL    HW235997   3.772   1.881   8.916  0.5691  0.1527 -0.5064
 8121SOL     OW35998   0.871   4.129  17.594  0.1306  0.3030  0.4284
 8121SOL    HW135999   0.945   4.123  17.655  1.0563 -0.7762 -0.8153
 8121SOL    HW236000   0.861   4.222  17.574 -2.8008  0.1160  1.0199
 8122SOL     OW36001   3.113   0.980  13.345 -0.0069  0.0180 -0.1716
 8122SOL    HW136002   3.037   0.954  13.292  0.0487  3.6601 -2.0694
 8122SOL    HW236003   3.184   0.928  13.307 -0.7001 -1.6529  0.8830
 8123SOL     OW36004   0.404   1.920  12.997  0.1806 -1.0096  0.2467
 8123SOL    HW136005   0.429   2.007  12.966 -0.7798 -0.7895  0.0662
 8123SOL    HW236006   0.319   1.946  13.035  0.6244  2.6526 -1.3162
 8124SOL     OW36007   1.259   3.964  15.881 -0.0500 -0.0105 -0.2598
 8124SOL    HW136008   1.206   3.949  15.803 -0.7036  3.2669 -0.4475
 8124SOL    HW236009   1.214   3.904  15.941  0.1333 -1.0755 -1.2030
 8125SOL     OW36010   2.057   1.943   1.721  0.0213 -0.0225  0.5517
 8125SOL    HW136011   2.090   1.880   1.785 -0.4144 -1.6480 -0.8327
 8125SOL    HW236012   1.965   1.944   1.747  0.1431  2.1946  0.9397
 8126SOL     OW36013   0.587   0.775   4.481  0.1840  0.2692 -0.1385
 8126SOL    HW136014   0.589   0.701   4.542 -2.6385 -0.0331 -0.4001
 8126SOL    HW236015   0.632   0.741   4.404 -1.2493 -0.9072 -0.4720
 8127SOL     OW36016   2.347   1.772   4.187 -0.3117  0.2280  0.0034
 8127SOL    HW136017   2.433   1.769   4.229  0.7685  2.0130 -2.0622
 8127SOL    HW236018   2.337   1.861   4.152  1.0029 -0.7315 -2.7627
 8128SOL     OW36019   1.101   0.975  15.229  0.1788  0.4508  0.7466
 8128SOL    HW136020   1.033   0.997  15.292 -0.7781 -3.2472  1.0467
 8128SOL    HW236021   1.150   0.902  15.267  2.2926  0.6876 -1.5251
 8129SOL     OW36022   3.540   1.190   3.091 -0.4021  0.0107  0.1231
 8129SOL    HW136023   3.520   1.166   3.181  1.1074  1.9366  0.9707
 8129SOL    HW236024   3.624   1.146   3.085 -0.7610 -0.4754 -1.3923
 8130SOL     OW36025   0.488   2.292   6.164  0.3450 -0.2049  0.5816
 8130SOL    HW136026   0.436   2.217   6.193  0.8390 -0.4725  0.7843
 8130SOL    HW236027   0.485   2.357   6.234 -0.9759  0.2638  0.0941
 8131SOL     OW36028   2.748   3.288   4.491  0.4991 -0.2967 -0.7527
 8131SOL    HW136029   2.813   3.354   4.514  0.4001 -0.4796  0.0648
 8131SOL    HW236030   2.739   3.238   4.572  0.1179  0.6320 -0.2199
 8132SOL     OW36031   0.150   3.677   7.231 -0.1657  0.1759 -0.0860
 8132SOL    HW136032   0.062   3.640   7.222 -0.5174  1.4742 -1.8959
 8132SOL    HW236033   0.206   3.600   7.224  0.1729  0.4149 -0.0341
 8133SOL     OW36034   3.603   1.456   3.551 -0.4164  0.1602 -0.1218
 8133SOL    HW136035   3.639   1.379   3.595 -0.1075  0.0697 -0.5409
 8133SOL    HW236036   3.529   1.481   3.606  0.7313  2.3972  0.4411
 8134SOL     OW36037   3.937   0.332   4.320  0.0511  0.0258 -0.2348
 8134SOL    HW136038   3.858   0.333   4.266  1.4173 -0.6232 -2.2687
 8134SOL    HW236039   3.902   0.294   4.401 -1.9785  0.6609 -0.8144
 8135SOL     OW36040   3.933   1.183   1.824  0.0809 -0.1673  0.1645
 8135SOL    HW136041   3.892   1.150   1.904  1.0316 -2.0996 -0.1436
 8135SOL    HW236042   3.990   1.247   1.865  0.2109 -0.2839  0.1657
 8136SOL     OW36043   3.462   1.888   8.806 -0.0822 -0.3410  0.5742
 8136SOL    HW136044   3.440   1.897   8.899  0.2110  1.7466  0.4539
 8136SOL    HW236045   3.546   1.936   8.800 -0.8971  1.0109 -0.1105
 8137SOL     OW36046   1.167   4.192   3.617 -0.7474  0.1641 -0.3441
 8137SOL    HW136047   1.126   4.108   3.595 -0.2425  0.0266 -0.7479
 8137SOL    HW236048   1.259   4.167   3.609 -1.0295 -0.5398 -1.5105
 8138SOL     OW36049   2.230   2.367  12.601 -0.2380 -0.3167 -0.1206
 8138SOL    HW136050   2.303   2.322  12.645 -0.8961 -0.9376  0.3389
 8138SOL    HW236051   2.224   2.321  12.517 -2.2660  0.7013 -0.5184
 8139SOL     OW36052   2.485   4.506  10.633 -0.1775 -0.8751  0.8821
 8139SOL    HW136053   2.425   4.508  10.707 -2.1007  0.9707 -0.7211
 8139SOL    HW236054   2.439   4.445  10.575  2.7638  0.3483 -2.7889
 8140SOL     OW36055   4.556   4.679   3.716 -0.1645  0.4600  0.4137
 8140SOL    HW136056   4.645   4.658   3.685  0.1245 -1.3162  2.4825
 8140SOL    HW236057   4.564   4.644   3.804 -1.9637  0.8112  0.7100
 8141SOL     OW36058   4.054   0.799  15.765 -0.1220  0.7732 -0.3685
 8141SOL    HW136059   4.125   0.839  15.715  1.1953 -1.0154  0.0649
 8141SOL    HW236060   4.045   0.719  15.714 -0.2960  0.8216 -0.4153
 8142SOL     OW36061   0.074   3.318  11.297 -0.3850  0.3150 -0.1011
 8142SOL    HW136062   0.127   3.368  11.359 -0.8428  1.1003 -0.3366
 8142SOL    HW236063   0.038   3.253  11.358  1.9771 -2.1169 -1.2765
 8143SOL     OW36064   2.171   4.426   8.348  0.3623  0.0299 -0.3551
 8143SOL    HW136065   2.110   4.474   8.404 -0.9825  0.7485 -2.4651
 8143SOL    HW236066   2.136   4.337   8.346  0.9711 -0.1556 -2.7102
 8144SOL     OW36067   0.458   2.974   8.312  0.3518  0.3642 -0.2213
 8144SOL    HW136068   0.488   3.059   8.281  2.0303 -0.2078 -0.1824
 8144SOL    HW236069   0.488   2.982   8.402  3.4155 -1.1100 -1.1120
 8145SOL     OW36070   0.202   2.711  15.966 -0.6639 -0.3181 -0.1793
 8145SOL    HW136071   0.263   2.778  15.995 -0.8877  0.0663 -0.5882
 8145SOL    HW236072   0.198   2.731  15.872  0.0336  2.9326  0.5052
 8146SOL     OW36073   2.482   2.529  14.916 -0.4793 -0.4544  0.3490
 8146SOL    HW136074   2.424   2.561  14.985  1.0176  0.9930  0.9289
 8146SOL    HW236075   2.434   2.455  14.879 -1.5199 -0.1895  1.1687
 8147SOL     OW36076   2.775   4.026   9.210  0.7960  0.0869 -0.3283
 8147SOL    HW136077   2.715   4.100   9.201 -0.1627 -0.6861 -0.2658
 8147SOL    HW236078   2.834   4.038   9.136  0.2534  2.1402 -0.4052
 8148SOL     OW36079   3.111   3.667   5.362  0.0145  0.7125 -0.2630
 8148SOL    HW136080   3.171   3.721   5.311 -1.8850  0.7629 -2.4570
 8148SOL    HW236081   3.113   3.714   5.445 -0.0944  0.3998 -0.0810
 8149SOL     OW36082   1.362   1.132   1.011  0.0191  0.2486 -0.2318
 8149SOL    HW136083   1.399   1.202   1.066  3.4292 -0.0372 -2.1437
 8149SOL    HW236084   1.291   1.183   0.974 -0.7746  0.7960  2.0673
 8150SOL     OW36085   3.084   1.627   5.439 -0.2165 -0.2185 -0.2126
 8150SOL    HW136086   3.083   1.549   5.494 -0.6979  0.2894  0.5002
 8150SOL    HW236087   3.179   1.634   5.425 -0.2776  0.1992 -0.4428
 8151SOL     OW36088   2.999   4.729   9.503 -0.0698 -0.1398 -0.3233
 8151SOL    HW136089   3.037   4.668   9.567 -1.0606  0.1946  0.5867
 8151SOL    HW236090   2.911   4.707   9.532  0.6226 -1.2705  0.9292
 8152SOL     OW36091   0.376   3.281   4.752  0.6763 -0.2252  0.1978
 8152SOL    HW136092   0.434   3.205   4.746  0.1512 -0.6684  0.7751
 8152SOL    HW236093   0.290   3.243   4.770 -0.5367  1.9757 -0.9792
 8153SOL     OW36094   3.989   3.248  15.980 -0.0667 -0.4203  0.3316
 8153SOL    HW136095   4.034   3.275  15.900 -0.8292 -0.5616 -0.1422
 8153SOL    HW236096   3.909   3.212  15.942 -0.7161 -0.2061  1.5027
 8154SOL     OW36097   3.271   4.445   6.364  0.1456  0.2386  0.2279
 8154SOL    HW136098   3.221   4.526   6.378  0.9332  1.0343 -1.6006
 8154SOL    HW236099   3.243   4.416   6.278 -0.3891  1.0032  0.1464
 8155SOL     OW36100   1.938   0.283  12.038  0.2376 -0.1155 -0.0632
 8155SOL    HW136101   1.973   0.363  12.078 -3.0565  0.8011  0.9676
 8155SOL    HW236102   1.906   0.235  12.115 -1.4567 -1.8116 -1.8458
 8156SOL     OW36103   2.378   2.119   1.757 -0.7097  0.5007 -0.1328
 8156SOL    HW136104   2.369   2.026   1.739  2.2436 -0.6022  4.2599
 8156SOL    HW236105   2.445   2.149   1.695  0.1583  0.9841  1.0300
 8157SOL     OW36106   2.552   4.299  11.783  0.0095 -0.0244 -0.4866
 8157SOL    HW136107   2.623   4.358  11.806  0.4450 -1.5780  2.1153
 8157SOL    HW236108   2.573   4.250  11.703  0.9492 -1.5322  0.6822
 8158SOL     OW36109   1.008   1.464   7.403  1.0182  0.2791 -0.4120
 8158SOL    HW136110   0.992   1.534   7.467 -0.8018 -0.3532 -0.1660
 8158SOL    HW236111   0.964   1.389   7.441  1.7771 -0.5354 -1.1447
 8159SOL     OW36112   2.948   1.425  16.627  0.2362  0.0288 -0.1751
 8159SOL    HW136113   2.989   1.338  16.622  0.7249  0.3177 -1.3411
 8159SOL    HW236114   3.023   1.476  16.657  0.3727 -0.0011 -0.4561
 8160SOL     OW36115   3.679   1.817   3.386  0.0205 -0.7344  0.0908
 8160SOL    HW136116   3.684   1.836   3.292  2.2950  1.2287  0.6256
 8160SOL    HW236117   3.587   1.835   3.405  0.6952  1.0538  1.5550
 8161SOL     OW36118   0.597   1.088   2.961 -0.0666  0.4342  0.4798
 8161SOL    HW136119   0.619   1.167   2.911  0.4966  1.6682  2.6854
 8161SOL    HW236120   0.512   1.111   3.000 -0.0491  0.4811  0.4901
 8162SOL     OW36121   4.075   4.625   7.276 -0.0915 -0.1672  0.3519
 8162SOL    HW136122   4.035   4.712   7.270  0.0730 -0.0369  1.1848
 8162SOL    HW236123   4.011   4.579   7.329 -1.4037  0.7520 -0.4251
 8163SOL     OW36124   0.983   0.157  17.069 -0.2939  0.3170  0.3050
 8163SOL    HW136125   1.016   0.223  17.008 -0.1281  2.0795  2.2847
 8163SOL    HW236126   0.960   0.082  17.015  1.8231  0.8294 -1.3086
 8164SOL     OW36127   1.607   2.525  15.456 -0.0490  0.5920 -0.2520
 8164SOL    HW136128   1.607   2.529  15.551 -1.3649  0.3043 -0.2305
 8164SOL    HW236129   1.647   2.609  15.435  2.1634 -0.1912  0.8807
 8165SOL     OW36130   4.329   2.307  17.670 -0.0718 -0.0702 -0.0368
 8165SOL    HW136131   4.360   2.302  17.580 -0.4443  1.3691 -0.2411
 8165SOL    HW236132   4.413   2.310  17.716 -1.1726  0.0613  1.9529
 8166SOL     OW36133   3.961   1.730  15.484 -0.3787  0.1901  0.0267
 8166SOL    HW136134   4.044   1.708  15.527 -0.0261 -0.7574 -1.1571
 8166SOL    HW236135   3.963   1.822  15.458 -1.8892  0.4632  0.8656
 8167SOL     OW36136   1.009   3.926   6.554  0.0726  0.3800 -0.4197
 8167SOL    HW136137   0.943   3.873   6.510  0.1091  1.1281 -1.3535
 8167SOL    HW236138   1.072   3.948   6.485  1.8689  2.7638  1.9773
 8168SOL     OW36139   1.669   4.486   0.632  0.5121  0.4595 -1.1638
 8168SOL    HW136140   1.630   4.490   0.545  0.3126  2.8008 -0.9571
 8168SOL    HW236141   1.731   4.416   0.612  1.5672  1.0226  0.0970
 8169SOL     OW36142   4.428   3.867   3.444  0.1413 -0.6052  0.2179
 8169SOL    HW136143   4.418   3.929   3.516  3.2260 -1.3525  1.3140
 8169SOL    HW236144   4.464   3.927   3.379 -0.2786 -1.6481 -0.9800
 8170SOL     OW36145   3.867   2.624   4.526  0.1655 -0.1215  0.1011
 8170SOL    HW136146   3.932   2.573   4.575 -0.8460 -1.1156  0.3932
 8170SOL    HW236147   3.866   2.705   4.576  0.3769 -0.7750  1.1772
 8171SOL     OW36148   1.879   1.721  14.558  0.6618 -0.6108  0.9906
 8171SOL    HW136149   1.806   1.779  14.536  2.3730  1.5467  1.0059
 8171SOL    HW236150   1.858   1.648  14.499 -0.4110  0.7087 -0.2762
 8172SOL     OW36151   1.732   1.114   1.795  0.1421  0.3202  0.1306
 8172SOL    HW136152   1.650   1.117   1.844 -0.8237  0.2601 -1.4981
 8172SOL    HW236153   1.761   1.022   1.796  1.7432  0.8288  0.3308
 8173SOL     OW36154   0.936   2.456   3.081  0.3423 -0.5939 -0.2784
 8173SOL    HW136155   0.873   2.390   3.051 -1.7208  1.0439  0.4176
 8173SOL    HW236156   1.022   2.416   3.086  0.2951 -0.4701  1.5451
 8174SOL     OW36157   2.742   0.672   2.219  0.1376 -0.0759 -0.5875
 8174SOL    HW136158   2.747   0.759   2.181  2.4399  0.4190  0.7928
 8174SOL    HW236159   2.651   0.660   2.246  0.2916  0.4485  0.1869
 8175SOL     OW36160   0.649   1.557   6.293 -0.0912  0.4319 -0.1379
 8175SOL    HW136161   0.669   1.515   6.209 -0.0996  0.5268 -0.1879
 8175SOL    HW236162   0.564   1.596   6.273 -0.0394  0.5102 -0.2072
 8176SOL     OW36163   0.288   2.275  11.660 -0.3275  0.6430  0.7944
 8176SOL    HW136164   0.346   2.325  11.601 -0.4547  0.2918  0.3686
 8176SOL    HW236165   0.313   2.186  11.634  2.2817  1.2785  1.1325
 8177SOL     OW36166   0.450   0.529   6.194  0.1957 -0.2446 -0.6226
 8177SOL    HW136167   0.428   0.592   6.263  1.5703  0.8286 -1.1784
 8177SOL    HW236168   0.490   0.452   6.233  0.5278  0.1265 -0.2242
 8178SOL     OW36169   4.373   2.041   7.817 -0.0263 -0.4451 -0.2786
 8178SOL    HW136170   4.404   2.045   7.907 -3.8557 -1.3908  1.0471
 8178SOL    HW236171   4.459   2.079   7.799  0.3168 -1.2111 -0.2659
 8179SOL     OW36172   3.952   1.669   1.119  0.5186 -0.7282  0.2576
 8179SOL    HW136173   4.019   1.692   1.184  0.0782  2.3805 -0.4227
 8179SOL    HW236174   3.898   1.607   1.169  0.0599 -1.4060 -1.0787
 8180SOL     OW36175   2.646   2.815   5.207  0.1076 -0.4216 -0.3061
 8180SOL    HW136176   2.584   2.774   5.267  0.1749  1.2591  0.8994
 8180SOL    HW236177   2.620   2.764   5.131  0.6627  1.4067 -1.7110
 8181SOL     OW36178   3.798   0.367   7.088  0.5313  0.1153 -0.4510
 8181SOL    HW136179   3.749   0.446   7.112  0.9614  0.1484  0.3136
 8181SOL    HW236180   3.864   0.406   7.029  0.3601  0.0983 -0.6544
 8182SOL     OW36181   3.551   2.621   4.296  0.7792  0.8234  0.2648
 8182SOL    HW136182   3.555   2.715   4.281 -2.3750  0.8023 -0.7574
 8182SOL    HW236183   3.477   2.619   4.357 -0.0194 -0.2834 -0.7326
 8183SOL     OW36184   4.461   4.399   5.128 -0.4426  0.2465  0.1342
 8183SOL    HW136185   4.400   4.376   5.057 -2.8807 -1.5721  2.7710
 8183SOL    HW236186   4.453   4.494   5.122  1.4087  0.3013 -1.4008
 8184SOL     OW36187   4.370   3.350   5.836  0.0382  0.8071  0.1748
 8184SOL    HW136188   4.377   3.382   5.926  0.5537  3.5056 -0.8400
 8184SOL    HW236189   4.443   3.402   5.804  1.1731  0.1663  1.7361
 8185SOL     OW36190   0.889   2.087   8.772 -0.1223  0.1087 -0.0931
 8185SOL    HW136191   0.969   2.135   8.755  0.4732 -1.2628 -1.1508
 8185SOL    HW236192   0.931   2.015   8.820 -1.3865  0.5715  1.7197
 8186SOL     OW36193   0.531   3.754   7.041  0.2149  0.0225  0.0750
 8186SOL    HW136194   0.451   3.730   6.993 -0.7529 -0.9794  2.1952
 8186SOL    HW236195   0.547   3.840   7.004 -1.3899  0.6118  0.7426
 8187SOL     OW36196   3.072   2.823   3.159  0.1123 -0.2498 -0.4788
 8187SOL    HW136197   3.055   2.731   3.177  1.4194 -0.4880 -0.4552
 8187SOL    HW236198   3.018   2.869   3.223 -1.5960 -0.9376 -1.4285
 8188SOL     OW36199   1.469   0.985  12.913 -0.7003  0.3706 -0.0516
 8188SOL    HW136200   1.423   1.030  12.984  3.5079  2.2130  1.5713
 8188SOL    HW236201   1.467   1.054  12.847 -0.6107  0.8664  0.4664
 8189SOL     OW36202   2.517   3.820  17.371 -0.2524  0.1252  0.3109
 8189SOL    HW136203   2.497   3.787  17.284  2.5997  0.7934 -0.6038
 8189SOL    HW236204   2.610   3.806  17.355 -0.7033 -1.0950 -1.1657
 8190SOL     OW36205   2.536   4.368  17.090 -0.1805 -0.0180 -0.7146
 8190SOL    HW136206   2.529   4.456  17.128  2.6954  0.3988 -1.2028
 8190SOL    HW236207   2.578   4.393  17.008  0.7005  1.0658  0.0676
 8191SOL     OW36208   2.589   3.585   5.678  0.2839  0.2910  0.0599
 8191SOL    HW136209   2.600   3.493   5.702 -0.0857  0.1147 -0.4503
 8191SOL    HW236210   2.535   3.622   5.749  1.4650 -0.7386  1.4870
 8192SOL     OW36211   2.210   3.917   6.130  0.3150  0.1619  0.3318
 8192SOL    HW136212   2.191   4.004   6.094 -0.1048  0.6319  1.6927
 8192SOL    HW236213   2.127   3.876   6.105  0.9015 -1.0319  0.3049
 8193SOL     OW36214   1.936   2.723   3.938  0.0582 -0.2076  0.2719
 8193SOL    HW136215   1.886   2.727   3.857 -2.4871  1.8797  1.9566
 8193SOL    HW236216   1.870   2.741   4.004  1.5760 -1.5041  2.1590
 8194SOL     OW36217   1.675   4.202  17.047  0.4993  0.3415  0.2085
 8194SOL    HW136218   1.718   4.288  17.049  1.9063 -0.3844  1.5981
 8194SOL    HW236219   1.751   4.156  17.009  2.1849  0.9354  2.8699
 8195SOL     OW36220   0.966   3.714   8.221  0.3977  0.1179  0.1913
 8195SOL    HW136221   0.952   3.621   8.239 -1.9224  0.3673 -0.3178
 8195SOL    HW236222   0.893   3.762   8.259  0.5430  1.1688 -0.8618
 8196SOL     OW36223   1.107   4.174   4.285  0.4865  0.3027  0.4152
 8196SOL    HW136224   1.191   4.133   4.306  1.1075  1.1203 -0.4699
 8196SOL    HW236225   1.068   4.196   4.370 -0.2109 -0.3618  0.2672
 8197SOL     OW36226   2.444   1.768  12.302  0.0266  0.2162 -0.0867
 8197SOL    HW136227   2.358   1.750  12.262 -0.7444  0.2905  1.5231
 8197SOL    HW236228   2.510   1.731  12.244 -0.7739  1.0104 -1.4976
 8198SOL     OW36229   0.456   0.689   9.325  0.1259  0.4015  0.5661
 8198SOL    HW136230   0.383   0.660   9.380 -1.1102 -1.1336 -1.8923
 8198SOL    HW236231   0.403   0.739   9.261  0.8969 -0.6838 -0.9140
 8199SOL     OW36232   2.217   1.843   8.800  0.3283  0.3588 -0.3375
 8199SOL    HW136233   2.294   1.867   8.748  0.4389  1.6054  0.4156
 8199SOL    HW236234   2.253   1.763   8.837 -0.6068  0.6939  1.2731
 8200SOL     OW36235   4.447   3.446   4.829  0.1534  0.3517 -0.5261
 8200SOL    HW136236   4.415   3.470   4.742  0.5990 -1.8633 -1.2804
 8200SOL    HW236237   4.487   3.530   4.854  0.0843  0.0298  0.6943
 8201SOL     OW36238   3.181   0.885   5.144  0.0499  0.4109  0.1396
 8201SOL    HW136239   3.128   0.923   5.073  0.2251  0.1588 -0.1256
 8201SOL    HW236240   3.143   0.936   5.216  4.3010  2.3395  1.0123
 8202SOL     OW36241   3.799   2.868   1.995 -0.3480  0.7535  0.6259
 8202SOL    HW136242   3.889   2.874   2.026  0.4394  1.2375 -1.7534
 8202SOL    HW236243   3.779   2.797   2.056  0.3124 -0.6404 -0.7871
 8203SOL     OW36244   0.313   3.595  16.075  0.1603 -0.4707 -0.3577
 8203SOL    HW136245   0.269   3.592  15.991 -2.1971 -2.3981  0.9742
 8203SOL    HW236246   0.359   3.512  16.064 -0.6836 -1.1214  1.0253
 8204SOL     OW36247   1.432   0.691   1.231  0.2851 -0.2305  0.0047
 8204SOL    HW136248   1.354   0.640   1.210 -0.2232  0.9180 -0.9164
 8204SOL    HW236249   1.487   0.676   1.155  0.1951 -0.4747 -0.0103
 8205SOL     OW36250   0.723   4.437   5.805  0.1774  0.1333 -0.6942
 8205SOL    HW136251   0.638   4.439   5.849  0.6881  0.9315  0.2475
 8205SOL    HW236252   0.746   4.344   5.808 -0.0492  0.2781  4.3255
 8206SOL     OW36253   0.568   4.027   5.448 -0.2951  1.1573 -0.8218
 8206SOL    HW136254   0.484   4.037   5.404 -0.5896 -0.5589 -0.6681
 8206SOL    HW236255   0.629   4.007   5.377  2.2595  0.5376  1.5133
 8207SOL     OW36256   2.628   4.460  16.512  0.1439  0.8067  0.0433
 8207SOL    HW136257   2.583   4.544  16.514 -0.7600  0.3321 -0.4521
 8207SOL    HW236258   2.675   4.459  16.596  2.4921 -0.6938 -1.2995
 8208SOL     OW36259   3.321   4.238   1.426 -0.2962 -0.0754  0.3110
 8208SOL    HW136260   3.394   4.285   1.385 -0.2751 -1.0937 -0.8362
 8208SOL    HW236261   3.357   4.241   1.515 -1.1678  0.2311  0.6431
 8209SOL     OW36262   4.102   1.238   6.070 -0.3772 -0.2537 -0.1539
 8209SOL    HW136263   4.093   1.187   6.150 -0.7814  1.5853  0.9607
 8209SOL    HW236264   4.197   1.237   6.061 -0.3838 -0.6326 -0.1930
 8210SOL     OW36265   1.603   3.420   1.932 -0.2601  0.6993 -0.0336
 8210SOL    HW136266   1.544   3.354   1.968  1.4848 -0.7816  0.1203
 8210SOL    HW236267   1.670   3.367   1.889 -0.1870  0.2216  0.6748
 8211SOL     OW36268   4.265   4.328  16.710  0.1569 -0.0125  0.4359
 8211SOL    HW136269   4.179   4.342  16.748  0.1662 -1.4282  0.9845
 8211SOL    HW236270   4.319   4.402  16.739  0.2987  0.5356 -1.2293
 8212SOL     OW36271   3.250   2.722  10.212 -0.3302 -0.0181 -0.4682
 8212SOL    HW136272   3.215   2.734  10.300 -0.0760  0.9859 -0.5032
 8212SOL    HW236273   3.343   2.743  10.222 -0.6176  1.5666 -1.0804
 8213SOL     OW36274   3.865   2.069   9.516 -0.1133 -0.2364 -0.0974
 8213SOL    HW136275   3.817   2.078   9.434  0.9118  0.5664 -0.6054
 8213SOL    HW236276   3.932   2.011   9.483 -0.8392  1.1937 -4.0093
 8214SOL     OW36277   0.788   1.911   3.962  0.0192  0.2989 -0.1821
 8214SOL    HW136278   0.792   1.823   4.001  1.7163 -0.4729 -2.1410
 8214SOL    HW236279   0.756   1.884   3.876 -1.1002  1.1040 -0.0174
 8215SOL     OW36280   2.101   0.157   2.703 -0.1658  0.8390  0.1109
 8215SOL    HW136281   2.091   0.168   2.798  3.3455 -1.7165  0.7905
 8215SOL    HW236282   2.032   0.094   2.682  1.2583 -0.9841  0.9381
 8216SOL     OW36283   1.971   1.031   6.421 -0.3058 -0.0522 -0.1028
 8216SOL    HW136284   1.902   1.088   6.387 -2.0003 -2.3370 -0.4904
 8216SOL    HW236285   2.038   1.083   6.465 -2.6233  3.0294 -0.2999
 8217SOL     OW36286   4.346   3.457   2.254  0.1662  0.1879 -0.5027
 8217SOL    HW136287   4.336   3.512   2.332  1.0230 -0.3769 -0.0008
 8217SOL    HW236288   4.385   3.522   2.195 -0.6961  1.2516  0.1052
 8218SOL     OW36289   1.607   0.698  11.139 -0.4721  0.0704  0.0442
 8218SOL    HW136290   1.617   0.793  11.133  0.7255 -0.1379 -1.2938
 8218SOL    HW236291   1.525   0.698  11.187  0.3623 -0.8405  1.4771
 8219SOL     OW36292   1.944   4.176   4.065  0.0065 -0.3266 -0.6515
 8219SOL    HW136293   1.948   4.238   3.993  1.4699  0.2917 -0.0292
 8219SOL    HW236294   1.854   4.183   4.098  0.1882  0.4413 -0.3169
 8220SOL     OW36295   0.565   2.681  12.469 -0.5534 -0.1159 -0.2659
 8220SOL    HW136296   0.520   2.765  12.477  1.7629  1.2645 -1.6588
 8220SOL    HW236297   0.593   2.675  12.560  2.8104  2.8550 -1.1061
 8221SOL     OW36298   2.810   0.796   3.605  0.1522 -0.0430 -0.2947
 8221SOL    HW136299   2.892   0.810   3.654  1.2181 -2.0376 -1.4786
 8221SOL    HW236300   2.774   0.884   3.606 -0.2103 -0.1974  0.9979
 8222SOL     OW36301   4.029   4.234   3.150 -0.1859 -0.2563 -0.1827
 8222SOL    HW136302   3.963   4.179   3.190  0.4555 -0.5073  0.5336
 8222SOL    HW236303   3.979   4.297   3.097 -0.6520 -0.1401  0.3964
 8223SOL     OW36304   0.760   2.924   3.045  0.0220  0.1173  0.3904
 8223SOL    HW136305   0.677   2.890   3.012  0.5584 -0.1347 -0.7227
 8223SOL    HW236306   0.753   2.870   3.124 -2.8077 -1.2536 -0.8082
 8224SOL     OW36307   3.607   1.228   7.946  0.3171 -0.1798  0.1890
 8224SOL    HW136308   3.566   1.148   7.979  0.8470 -1.0679 -1.2668
 8224SOL    HW236309   3.547   1.241   7.873  0.9824  0.7842 -0.1823
 8225SOL     OW36310   1.707   0.669   5.271  0.0384  0.3451 -0.2048
 8225SOL    HW136311   1.707   0.619   5.353  0.7273 -2.2990 -1.7959
 8225SOL    HW236312   1.710   0.756   5.309 -1.9228  0.1398  0.4472
 8226SOL     OW36313   4.734   1.904  16.306  0.2382 -0.5567 -0.5704
 8226SOL    HW136314   4.701   1.990  16.281 -0.4842 -0.8973 -0.7806
 8226SOL    HW236315   0.091   1.916  16.288  0.0076 -0.8105 -1.9399
 8227SOL     OW36316   4.595   0.413  15.120  0.4067  0.2486  0.4248
 8227SOL    HW136317   4.635   0.329  15.141  0.4325  0.2313  0.3078
 8227SOL    HW236318   4.656   0.446  15.053  0.3795 -2.1247 -0.7475
 8228SOL     OW36319   3.480   1.366  17.444 -0.5340  0.3710 -0.2338
 8228SOL    HW136320   3.543   1.330  17.382 -0.8302 -0.4082 -0.0870
 8228SOL    HW236321   3.518   1.358  17.532  1.8312 -1.4279 -1.4242
 8229SOL     OW36322   1.231   2.549   5.796  0.1695  0.3443 -0.3409
 8229SOL    HW136323   1.303   2.487   5.798 -0.6824 -0.6803 -1.5020
 8229SOL    HW236324   1.156   2.493   5.815  0.9646 -0.3428  0.7302
 8230SOL     OW36325   0.591   0.756   9.001  0.1586  0.4711  0.0250
 8230SOL    HW136326   0.561   0.681   8.950 -0.1471  0.5963  0.0194
 8230SOL    HW236327   0.526   0.822   8.975  0.7007  0.6474 -0.8773
 8231SOL     OW36328   4.324   4.495   1.252  0.2803  0.8102  0.4263
 8231SOL    HW136329   4.231   4.512   1.236  0.2489 -0.5978 -0.9369
 8231SOL    HW236330   4.310   4.432   1.322  0.1040  1.2619  0.7918
 8232SOL     OW36331   3.441   2.079   2.134  0.7915 -0.1974  0.0513
 8232SOL    HW136332   3.488   2.001   2.165  1.8788  1.4318  2.5115
 8232SOL    HW236333   3.358   2.043   2.102  0.9176  0.7705 -1.3586
 8233SOL     OW36334   0.529   3.424   1.276 -0.1022  0.4606 -0.2610
 8233SOL    HW136335   0.511   3.472   1.196 -1.2629  2.1271  0.9901
 8233SOL    HW236336   0.576   3.488   1.330 -1.1162 -0.4432  1.7006
 8234SOL     OW36337   1.112   3.549   5.510 -0.2942 -0.3582  0.0401
 8234SOL    HW136338   1.092   3.578   5.421  1.7210  0.1951 -0.2319
 8234SOL    HW236339   1.206   3.534   5.497 -0.0462 -1.3982  3.0712
 8235SOL     OW36340   1.203   2.130  10.735  0.0279 -0.0022 -0.5729
 8235SOL    HW136341   1.190   2.042  10.771 -2.3901  0.4425 -0.3510
 8235SOL    HW236342   1.118   2.174  10.735 -0.5048 -1.0146  2.9460
 8236SOL     OW36343   2.891   3.647  10.868  0.4655  0.0820  0.1231
 8236SOL    HW136344   2.864   3.559  10.845 -0.4220  0.2522  0.5074
 8236SOL    HW236345   2.888   3.622  10.960  1.0194  2.2147  0.7421
 8237SOL     OW36346   1.276   2.535   4.206 -0.2291  0.0690  0.1361
 8237SOL    HW136347   1.187   2.532   4.171 -0.5651 -0.0286  0.9913
 8237SOL    HW236348   1.322   2.487   4.138 -1.2807 -0.5603 -0.1307
 8238SOL     OW36349   0.307   3.392   3.647  0.6692  0.0489  0.1793
 8238SOL    HW136350   0.333   3.304   3.675  2.8423  0.6389  0.0507
 8238SOL    HW236351   0.375   3.442   3.693 -0.7441  0.4915  1.8022
 8239SOL     OW36352   1.010   1.651  10.205 -0.2551  0.4796 -0.3430
 8239SOL    HW136353   1.105   1.667  10.205  0.0917 -1.5355  2.1392
 8239SOL    HW236354   1.002   1.642  10.110  0.3395  0.7103 -0.4156
 8240SOL     OW36355   2.006   1.765   6.114  0.2725 -0.3851  0.8596
 8240SOL    HW136356   1.926   1.809   6.085 -0.9971 -1.6289  2.4528
 8240SOL    HW236357   2.080   1.795   6.061 -0.2234 -1.1411 -0.2618
 8241SOL     OW36358   3.954   0.656   3.904  0.3451 -0.0539  0.2017
 8241SOL    HW136359   3.890   0.714   3.945  0.9522  1.5292 -1.0676
 8241SOL    HW236360   3.974   0.698   3.820 -0.6546 -1.7246 -0.8715
 8242SOL     OW36361   1.330   4.632  14.016 -0.1002  0.7986  0.4875
 8242SOL    HW136362   1.311   4.694  14.087  0.3770  2.0170 -0.4439
 8242SOL    HW236363   1.290   4.671  13.938  2.4513  2.8351  0.1708
 8243SOL     OW36364   1.691   0.766   3.973  0.2092 -0.2506 -0.1893
 8243SOL    HW136365   1.652   0.797   3.890  1.7582  0.0414 -0.8133
 8243SOL    HW236366   1.781   0.761   3.942 -0.1498  0.6968 -1.4088
 8244SOL     OW36367   1.771   3.839   1.706  0.1116 -0.7572 -0.3734
 8244SOL    HW136368   1.810   3.918   1.744 -1.5910  0.0579 -0.3415
 8244SOL    HW236369   1.680   3.844   1.736  0.2259 -2.0602  0.2266
 8245SOL     OW36370   2.046   4.435  17.246 -0.3614 -0.5706 -0.3468
 8245SOL    HW136371   2.097   4.364  17.285  0.7364 -0.1312 -0.9677
 8245SOL    HW236372   2.119   4.483  17.206  1.2527 -1.8742  1.0475
 8246SOL     OW36373   0.608   0.093   2.937 -0.1933  0.4737 -0.6091
 8246SOL    HW136374   0.609   0.184   2.906 -1.0654 -0.7158 -4.1612
 8246SOL    HW236375   0.593   0.045   2.856  1.4942  0.4620 -0.9224
 8247SOL     OW36376   2.096   1.011   4.857  0.4415 -0.1923 -0.5586
 8247SOL    HW136377   2.101   0.994   4.951 -0.4892  1.2982 -0.2326
 8247SOL    HW236378   2.002   1.020   4.845  0.3699  1.4918  1.2972
 8248SOL     OW36379   1.042   0.024   8.261 -0.2208  0.8094 -0.2665
 8248SOL    HW136380   1.020   0.006   8.352 -2.0833 -0.1602 -0.9090
 8248SOL    HW236381   1.135   0.001   8.258 -0.3133  0.1676  2.3655
 8249SOL     OW36382   1.163   4.339  14.784 -0.0981 -0.5227  0.0217
 8249SOL    HW136383   1.180   4.432  14.802 -0.5294 -0.1078 -1.6994
 8249SOL    HW236384   1.230   4.298  14.839  2.4984  2.1218 -1.0886
 8250SOL     OW36385   4.717   3.107   4.285  0.3922  0.7548 -0.0730
 8250SOL    HW136386   4.658   3.039   4.318 -1.2307  0.9532 -2.5761
 8250SOL    HW236387   4.657   3.172   4.247  1.1404  0.5995 -1.5007
 8251SOL     OW36388   2.185   0.662   2.841 -0.3793  0.1723  0.1553
 8251SOL    HW136389   2.225   0.745   2.866  0.6360  0.3748 -2.1146
 8251SOL    HW236390   2.221   0.600   2.905 -2.3061  0.3737  1.4210
 8252SOL     OW36391   2.461   3.307   7.248  0.3085  0.3767 -0.1046
 8252SOL    HW136392   2.435   3.319   7.157 -0.7806 -1.4854 -0.0375
 8252SOL    HW236393   2.489   3.217   7.265 -0.2475  0.1859 -0.2000
 8253SOL     OW36394   3.045   1.958   5.047  0.2950  0.0514  0.3072
 8253SOL    HW136395   3.063   1.874   5.004 -0.7814 -0.0189  0.0004
 8253SOL    HW236396   3.065   2.028   4.985  1.8571 -0.8495 -0.2088
 8254SOL     OW36397   3.879   0.345   5.999  0.2660  0.1933 -0.1499
 8254SOL    HW136398   3.832   0.348   6.082 -1.4160  0.0348 -1.0874
 8254SOL    HW236399   3.916   0.256   5.997  1.0801  0.5455 -1.0390
 8255SOL     OW36400   0.143   2.521   1.982  0.0522  0.4028  0.1499
 8255SOL    HW136401   0.080   2.569   2.037 -2.5785 -0.7529 -1.8500
 8255SOL    HW236402   0.214   2.489   2.038 -0.8945  1.5779  2.0080
 8256SOL     OW36403   0.815   1.857  17.070  0.2776 -0.5135 -0.4506
 8256SOL    HW136404   0.812   1.783  17.131  1.5473  0.0630  0.2949
 8256SOL    HW236405   0.889   1.834  17.013  0.5657  0.8885 -0.6450
 8257SOL     OW36406   0.597   2.653   5.766  0.6634 -0.2534 -0.1094
 8257SOL    HW136407   0.518   2.624   5.722 -0.2365  2.2793 -0.1714
 8257SOL    HW236408   0.602   2.592   5.840  1.7639 -0.1225 -0.0694
 8258SOL     OW36409   2.887   2.102   8.856  0.1639  0.4048  0.0897
 8258SOL    HW136410   2.906   2.194   8.874  0.1439  0.2347  0.9711
 8258SOL    HW236411   2.852   2.084   8.943 -2.1041  2.3889 -0.3963
 8259SOL     OW36412   0.739   2.589   8.654  0.3500  0.3167 -0.5438
 8259SOL    HW136413   0.795   2.620   8.726 -0.1394  0.5804 -0.2707
 8259SOL    HW236414   0.750   2.494   8.659 -1.1276  0.1536 -0.1858
 8260SOL     OW36415   1.624   2.274  12.873 -0.4214  0.2896  0.8919
 8260SOL    HW136416   1.609   2.284  12.779 -0.2097  1.6650  1.0063
 8260SOL    HW236417   1.679   2.350  12.890  0.5522 -0.0649 -0.6544
 8261SOL     OW36418   1.083   4.188   4.562 -0.4106  0.2160 -0.0939
 8261SOL    HW136419   0.998   4.163   4.600 -0.7824  1.8860  0.2085
 8261SOL    HW236420   1.142   4.174   4.636  1.1946 -1.2599 -1.6633
 8262SOL     OW36421   4.694   0.355   4.303  0.1580 -0.1422 -0.1534
 8262SOL    HW136422   4.635   0.424   4.331 -0.5297 -0.6156 -0.4409
 8262SOL    HW236423   0.021   0.344   4.374 -0.2104  2.4927  0.5627
 8263SOL     OW36424   3.344   3.340  16.572 -0.0456  0.6574 -0.1107
 8263SOL    HW136425   3.421   3.284  16.569 -0.2501  0.3252  0.9193
 8263SOL    HW236426   3.269   3.287  16.544  2.3731 -2.6273 -0.3923
 8264SOL     OW36427   0.985   0.834  12.716 -0.0672 -0.0547 -0.0997
 8264SOL    HW136428   0.891   0.823  12.728  0.3023 -2.0817  0.9056
 8264SOL    HW236429   1.006   0.834  12.810  1.1013 -0.1736 -0.3559
 8265SOL     OW36430   0.179   2.459   8.916  0.2940 -0.1970  0.6003
 8265SOL    HW136431   0.262   2.430   8.878 -0.6287 -0.1093 -1.4962
 8265SOL    HW236432   0.128   2.404   8.856  1.6929 -3.0875  2.0874
 8266SOL     OW36433   0.941   0.152   9.520 -0.0345  0.2617 -0.2177
 8266SOL    HW136434   1.034   0.149   9.542 -0.5614  0.4262  2.0710
 8266SOL    HW236435   0.905   0.071   9.558  0.8726 -0.0284  0.0217
 8267SOL     OW36436   2.062   2.966   7.305 -0.0868 -0.1863  0.5045
 8267SOL    HW136437   2.051   3.061   7.297  0.2935 -0.0458  1.6160
 8267SOL    HW236438   1.980   2.954   7.353  1.0917 -0.6512  2.3952
 8268SOL     OW36439   0.681   1.039   8.860 -0.0189 -0.2838 -0.1193
 8268SOL    HW136440   0.591   1.013   8.881 -1.0533  2.3421 -1.2711
 8268SOL    HW236441   0.718   0.951   8.860  0.5255 -0.0518 -1.1695
 8269SOL     OW36442   3.719   3.712   0.751  0.0863  0.1179 -0.1402
 8269SOL    HW136443   3.774   3.759   0.814  0.2945  1.1896 -1.1190
 8269SOL    HW236444   3.768   3.725   0.670 -0.0903  0.4550 -0.1931
 8270SOL     OW36445   2.731   1.459  10.520 -0.2768  1.0234 -0.5088
 8270SOL    HW136446   2.647   1.480  10.479 -0.3205  0.6794 -0.5938
 8270SOL    HW236447   2.794   1.467  10.448 -1.4848  1.5879 -1.4963
 8271SOL     OW36448   2.290   0.438   6.153 -0.5266 -0.0695 -0.3483
 8271SOL    HW136449   2.310   0.531   6.160  0.9957 -0.4329  0.1791
 8271SOL    HW236450   2.205   0.426   6.195  0.3774 -0.3176  1.3786
 8272SOL     OW36451   3.804   3.947   3.429 -0.0860  0.3000 -0.8668
 8272SOL    HW136452   3.834   3.865   3.467 -0.4396  0.3270 -0.5247
 8272SOL    HW236453   3.717   3.920   3.399 -0.7123 -1.1965  2.3203
 8273SOL     OW36454   2.381   0.159   7.869  0.4910  0.0628  0.4905
 8273SOL    HW136455   2.422   0.161   7.956 -1.6759 -0.0019  1.5156
 8273SOL    HW236456   2.433   0.096   7.819 -0.1118  0.8900 -1.1716
 8274SOL     OW36457   1.572   0.586   7.715 -0.3797  0.2663  0.3496
 8274SOL    HW136458   1.638   0.547   7.658  0.3892  1.4004  0.4597
 8274SOL    HW236459   1.568   0.528   7.791 -0.1529  0.3162  0.3980
 8275SOL     OW36460   2.168   3.536  13.421 -0.0948 -0.0829 -0.8509
 8275SOL    HW136461   2.098   3.581  13.374 -0.0045 -1.0827 -1.9549
 8275SOL    HW236462   2.180   3.458  13.366 -0.0518  1.3964 -2.9442
 8276SOL     OW36463   2.836   0.662  14.175  0.1166  0.0604 -0.7689
 8276SOL    HW136464   2.864   0.654  14.266 -1.4204  0.1130 -0.2862
 8276SOL    HW236465   2.915   0.632  14.131  0.6251 -1.0130  0.8964
 8277SOL     OW36466   0.587   0.787   1.458 -0.0170  0.2615 -0.0185
 8277SOL    HW136467   0.638   0.782   1.539  1.8131 -0.9183 -1.2277
 8277SOL    HW236468   0.508   0.737   1.476 -0.1919  0.7301  0.4972
 8278SOL     OW36469   4.331   2.428   1.328 -0.1595 -0.0612 -0.2199
 8278SOL    HW136470   4.423   2.417   1.351  0.6334  1.2708 -2.7214
 8278SOL    HW236471   4.303   2.337   1.329 -0.4680  0.0608  2.0858
 8279SOL     OW36472   2.790   0.048   0.293  0.0608 -0.6928  0.1828
 8279SOL    HW136473   2.876   0.037   0.333  0.1739 -2.7331 -0.6048
 8279SOL    HW236474   2.807   0.039   0.199 -0.4116  2.9885 -0.2565
 8280SOL     OW36475   0.396   3.656   2.932  0.0223  0.1858 -0.2852
 8280SOL    HW136476   0.342   3.586   2.896 -0.9939  0.5048  0.6471
 8280SOL    HW236477   0.402   3.713   2.855  0.7707  0.2644 -0.1700
 8281SOL     OW36478   4.480   3.372   7.722  0.3486  0.2125 -0.3584
 8281SOL    HW136479   4.441   3.286   7.729 -1.5449  1.1530  0.6111
 8281SOL    HW236480   4.420   3.409   7.658 -0.1320 -0.1979 -0.1380
 8282SOL     OW36481   1.002   0.124   9.031 -0.1371 -0.0123  0.8255
 8282SOL    HW136482   0.917   0.085   9.013 -0.4008  1.4972 -1.1263
 8282SOL    HW236483   1.005   0.152   9.123 -2.7166 -0.3504  1.0048
 8283SOL     OW36484   2.922   2.401   9.006  0.6508 -0.5098  0.0151
 8283SOL    HW136485   2.986   2.334   9.031 -1.1446 -2.2383 -0.0498
 8283SOL    HW236486   2.968   2.451   8.938  1.0746 -2.6612 -1.2886
 8284SOL     OW36487   0.332   4.346   8.267  0.1886  0.1606 -0.1177
 8284SOL    HW136488   0.350   4.376   8.178 -0.4028 -4.1621 -1.6955
 8284SOL    HW236489   0.422   4.332   8.297 -0.3433  0.3095  1.5451
 8285SOL     OW36490   3.277   4.709   0.447 -0.1834  0.4343  0.7188
 8285SOL    HW136491   3.365   4.672   0.457  0.0183 -0.0893 -2.8458
 8285SOL    HW236492   3.277   0.045   0.509 -2.1378  0.6934  0.3976
 8286SOL     OW36493   1.008   1.765  11.529  0.2265  0.3351 -0.4876
 8286SOL    HW136494   0.918   1.752  11.559  1.0993 -1.5944  1.2516
 8286SOL    HW236495   1.052   1.778  11.613  1.1232 -1.7949 -0.6349
 8287SOL     OW36496   0.281   2.764   8.971 -0.2152  0.4215  0.3620
 8287SOL    HW136497   0.333   2.708   8.915 -0.1160 -0.7855  1.6532
 8287SOL    HW236498   0.324   2.849   8.961 -1.3840  0.9869  0.1377
 8288SOL     OW36499   3.165   0.178   0.624  0.5474  0.0268 -0.0735
 8288SOL    HW136500   3.131   0.262   0.653 -2.0781 -0.7641 -0.8123
 8288SOL    HW236501   3.238   0.179   0.685  0.7889 -1.2766 -0.3253
 8289SOL     OW36502   0.752   0.473   2.879 -0.0162 -1.1228 -0.2318
 8289SOL    HW136503   0.669   0.520   2.871  0.2727 -0.4810  0.5154
 8289SOL    HW236504   0.757   0.430   2.793  1.5573  0.5438 -0.9748
 8290SOL     OW36505   4.554   1.973   6.400 -0.9066  0.3101 -0.0798
 8290SOL    HW136506   4.595   2.040   6.345  0.3019  1.1447  1.8413
 8290SOL    HW236507   4.487   2.025   6.445  1.2307  0.9198  2.3944
 8291SOL     OW36508   0.736   0.056   8.919 -0.1572 -0.0466  0.1260
 8291SOL    HW136509   0.744   4.699   8.902  0.9539  0.3330 -1.3928
 8291SOL    HW236510   0.648   0.073   8.887  0.0351  1.7213  0.5263
 8292SOL     OW36511   0.949   3.492   5.853 -0.1082  0.0922 -0.2299
 8292SOL    HW136512   0.909   3.436   5.920  0.8367  0.9927  1.0646
 8292SOL    HW236513   1.025   3.435   5.846 -1.3005 -1.1597 -3.0820
 8293SOL     OW36514   4.530   4.077   1.873 -0.5867  0.1979 -0.2637
 8293SOL    HW136515   4.479   4.110   1.947 -0.2335 -0.3223  0.2090
 8293SOL    HW236516   4.473   4.116   1.807  0.4444 -0.5718 -1.6031
 8294SOL     OW36517   0.856   1.272  13.532 -0.2352  0.5015  0.3423
 8294SOL    HW136518   0.938   1.297  13.490 -0.0974  1.2237  1.0447
 8294SOL    HW236519   0.793   1.283  13.460 -1.2155 -1.7672  0.8783
 8295SOL     OW36520   4.494   1.440   8.281  0.4505  0.0306  0.9408
 8295SOL    HW136521   4.523   1.487   8.359  0.2846  0.2840  0.8503
 8295SOL    HW236522   4.431   1.389   8.331  1.9821 -0.3280  2.4721
 8296SOL     OW36523   1.644   4.547   7.373 -0.2035  0.1029 -0.4590
 8296SOL    HW136524   1.603   4.478   7.322  0.4647  0.0917 -0.9795
 8296SOL    HW236525   1.608   4.536   7.461  2.3410  0.6593  0.6586
 8297SOL     OW36526   3.571   0.613  11.047 -0.6355 -0.0538  0.2032
 8297SOL    HW136527   3.608   0.629  10.960 -0.2284 -1.9250  0.0220
 8297SOL    HW236528   3.486   0.649  11.022 -0.8438  0.4188  1.5779
 8298SOL     OW36529   0.065   0.753   1.467 -0.4223  0.8521 -0.2344
 8298SOL    HW136530   0.123   0.808   1.519 -0.2779  1.1611 -0.7193
 8298SOL    HW236531   0.071   0.784   1.377 -2.2461 -0.0343 -0.6680
 8299SOL     OW36532   3.109   2.222   9.055 -0.8677 -0.0567 -0.5447
 8299SOL    HW136533   3.153   2.222   9.140 -1.6382  2.2944 -0.1472
 8299SOL    HW236534   3.109   2.127   9.054  0.6677 -0.0806  0.1827
 8300SOL     OW36535   0.716   0.214   5.506  0.1398 -0.0451  0.1261
 8300SOL    HW136536   0.622   0.202   5.490  0.3401 -0.1248 -1.0315
 8300SOL    HW236537   0.758   0.132   5.479 -0.0630 -0.2651  0.4811
 8301SOL     OW36538   1.259   3.934   3.354 -0.3654 -0.2578 -0.2685
 8301SOL    HW136539   1.298   3.982   3.281  0.0366 -2.6684 -1.6387
 8301SOL    HW236540   1.306   3.851   3.345 -1.1917 -0.8597  1.0871
 8302SOL     OW36541   0.565   2.027   1.957 -0.1349 -0.2975 -0.1588
 8302SOL    HW136542   0.510   2.013   1.879  0.7500 -1.7523 -0.5139
 8302SOL    HW236543   0.506   2.071   2.019  1.4696  1.8623 -0.1898
 8303SOL     OW36544   4.414   1.979   9.718 -0.1928  0.4942  0.1078
 8303SOL    HW136545   4.345   1.968   9.784  1.1425  0.8670  1.5592
 8303SOL    HW236546   4.415   2.075   9.710 -1.2059  0.3143 -2.0370
 8304SOL     OW36547   1.159   4.138  15.196 -0.4108 -0.1850  0.0287
 8304SOL    HW136548   1.236   4.082  15.182  0.4046  1.1110 -0.6916
 8304SOL    HW236549   1.144   4.204  15.128 -1.3762 -0.1252  0.2988
 8305SOL     OW36550   2.484   0.370   0.903 -0.4038  0.5577  0.4402
 8305SOL    HW136551   2.410   0.324   0.864  0.2542 -0.4934  0.4567
 8305SOL    HW236552   2.541   0.295   0.915 -0.2695  0.9189  1.9900
 8306SOL     OW36553   1.560   3.871  10.084  0.3963 -0.2867  0.2637
 8306SOL    HW136554   1.639   3.923  10.065 -1.5708  2.0686 -1.4967
 8306SOL    HW236555   1.588   3.783  10.058  2.2150 -0.3111  2.2674
 8307SOL     OW36556   3.887   4.699   0.267  0.4372  0.0765 -0.0038
 8307SOL    HW136557   3.903   0.046   0.223  2.3728  0.8687  2.2527
 8307SOL    HW236558   3.955   4.647   0.225 -0.9925 -1.4666 -0.4138
 8308SOL     OW36559   0.695   1.482   0.394  0.2738  0.7537 -0.8799
 8308SOL    HW136560   0.736   1.564   0.419  0.3100  0.0799  1.2566
 8308SOL    HW236561   0.765   1.417   0.400  1.9199  2.5618 -0.8641
 8309SOL     OW36562   1.182   0.276   7.955 -0.6695  0.7738  0.0421
 8309SOL    HW136563   1.095   0.240   7.971 -0.2197 -0.6893 -0.8236
 8309SOL    HW236564   1.233   0.195   7.962  0.0070  1.1942 -0.0237
 8310SOL     OW36565   0.922   1.928   8.542 -0.5418 -0.0343 -0.1170
 8310SOL    HW136566   0.837   1.884   8.540 -0.5081 -0.1608  1.5759
 8310SOL    HW236567   0.905   1.987   8.615 -1.4851 -0.9978  0.4397
 8311SOL     OW36568   3.890   1.016   5.214  0.1206 -0.4625  0.4747
 8311SOL    HW136569   3.818   1.073   5.240 -0.8643 -1.9316  1.0260
 8311SOL    HW236570   3.962   1.075   5.235 -1.4947  1.0486  1.8315
 8312SOL     OW36571   0.336   2.434   2.215  0.6299 -0.4668  0.0723
 8312SOL    HW136572   0.294   2.462   2.296  0.4905 -0.1277 -0.1146
 8312SOL    HW236573   0.394   2.507   2.193  1.2479 -0.9358  0.1496
 8313SOL     OW36574   2.189   3.373   5.883 -0.4578 -0.6302  0.1039
 8313SOL    HW136575   2.153   3.289   5.853 -1.3309  0.3369 -1.5157
 8313SOL    HW236576   2.270   3.341   5.924 -0.1670 -0.3247 -0.2330
 8314SOL     OW36577   0.964   2.625   8.204 -0.1559 -0.1160 -0.1095
 8314SOL    HW136578   0.879   2.584   8.189  0.1656 -0.2260 -1.5915
 8314SOL    HW236579   0.955   2.654   8.295 -0.8350  2.0639 -0.8577
 8315SOL     OW36580   1.291   2.715  10.298 -0.4978  0.1161 -0.2913
 8315SOL    HW136581   1.359   2.772  10.332 -0.0717 -0.2194 -0.5829
 8315SOL    HW236582   1.259   2.764  10.222  1.3520  0.2458 -0.9741
 8316SOL     OW36583   3.088   1.553   4.400  0.3636  0.1517  0.1684
 8316SOL    HW136584   3.045   1.491   4.340  0.4728  0.3870 -0.1479
 8316SOL    HW236585   3.071   1.514   4.486 -0.5351 -0.9373 -0.5025
 8317SOL     OW36586   3.752   3.402  13.760 -0.8534 -0.1961 -0.4091
 8317SOL    HW136587   3.774   3.310  13.745 -0.8147 -0.4985  1.5527
 8317SOL    HW236588   3.662   3.400  13.793 -0.6763 -0.9023  0.0361
 8318SOL     OW36589   3.161   2.800  16.283 -0.1201  0.3815 -0.4088
 8318SOL    HW136590   3.088   2.855  16.254 -1.2771 -0.9160  0.0775
 8318SOL    HW236591   3.117   2.715  16.290  1.2680 -0.3164 -0.1076
 8319SOL     OW36592   2.304   3.351   2.751  0.3598  0.5491 -0.5640
 8319SOL    HW136593   2.274   3.363   2.661 -0.4207  2.2956 -0.0590
 8319SOL    HW236594   2.399   3.368   2.750  1.0158 -3.0981 -2.7217
 8320SOL     OW36595   3.127   4.078   8.205 -0.1454  0.0700 -0.3719
 8320SOL    HW136596   3.121   4.050   8.114 -2.8776 -1.4592  0.2711
 8320SOL    HW236597   3.057   4.030   8.249 -1.4803  2.2543 -0.0778
 8321SOL     OW36598   2.699   2.895  12.473 -0.4058 -0.7580  0.0577
 8321SOL    HW136599   2.680   2.857  12.559  1.3559 -0.3921  0.6207
 8321SOL    HW236600   2.618   2.945  12.459  0.6510  0.5767 -1.3487
 8322SOL     OW36601   2.635   1.796   7.142 -0.1672  0.2138  0.6821
 8322SOL    HW136602   2.716   1.835   7.110 -1.3103  1.0275 -1.2771
 8322SOL    HW236603   2.592   1.798   7.056  0.3587  0.2120  0.4204
 8323SOL     OW36604   2.912   0.376  12.466  0.5928  0.3930 -0.3132
 8323SOL    HW136605   2.865   0.325  12.533  3.3256 -1.6196  0.0907
 8323SOL    HW236606   2.874   0.336  12.387  0.4858 -1.7302  0.8121
 8324SOL     OW36607   0.995   0.547   4.225  0.1925 -0.2978  0.2916
 8324SOL    HW136608   1.035   0.612   4.167 -0.3428  0.5369  0.8797
 8324SOL    HW236609   0.945   0.506   4.154  0.7345  0.8095 -0.7320
 8325SOL     OW36610   0.399   4.536   7.207 -0.0238 -0.9714  0.0804
 8325SOL    HW136611   0.489   4.529   7.175  0.3047 -1.3197  1.1008
 8325SOL    HW236612   0.370   4.610   7.154 -1.3549 -2.9776 -1.9725
 8326SOL     OW36613   4.540   0.675   3.479  0.0077  0.0867 -0.2931
 8326SOL    HW136614   4.489   0.722   3.544 -1.2456  0.5676 -1.6278
 8326SOL    HW236615   4.465   0.640   3.431 -1.4585  1.4018  1.0973
 8327SOL     OW36616   2.586   1.744   6.636  0.2733 -0.1420  0.0466
 8327SOL    HW136617   2.502   1.779   6.606  0.0707 -1.5243 -0.9760
 8327SOL    HW236618   2.578   1.649   6.639  1.7492 -0.2553  0.4416
 8328SOL     OW36619   1.173   4.038  11.871 -0.1017  0.1930  0.6314
 8328SOL    HW136620   1.150   4.131  11.870  0.9759  0.4525  0.2831
 8328SOL    HW236621   1.251   4.022  11.818 -0.2967  1.5252 -0.0538
 8329SOL     OW36622   2.127   1.693   3.528 -0.0653  0.0968 -0.1167
 8329SOL    HW136623   2.048   1.744   3.546  1.6640  2.4617  0.7591
 8329SOL    HW236624   2.094   1.613   3.487 -0.0337  0.3589 -0.6554
 8330SOL     OW36625   2.451   0.647   0.927 -0.5865  0.3744 -0.1885
 8330SOL    HW136626   2.361   0.660   0.957 -0.1103  2.3719  0.4213
 8330SOL    HW236627   2.450   0.560   0.888 -2.2516  0.0034  0.6616
 8331SOL     OW36628   1.520   0.213   5.629 -0.0755  0.1612 -0.2743
 8331SOL    HW136629   1.562   0.251   5.552 -3.2934  0.5336 -1.8696
 8331SOL    HW236630   1.469   0.289   5.656  2.6429  1.6543  0.5908
 8332SOL     OW36631   1.381   1.254   1.481  0.0938 -0.0230  0.3809
 8332SOL    HW136632   1.412   1.317   1.546 -0.6834 -0.3786  1.0880
 8332SOL    HW236633   1.372   1.179   1.539  2.9800 -1.3046 -0.8488
 8333SOL     OW36634   1.755   0.392   1.878  0.2735  1.0629 -0.1728
 8333SOL    HW136635   1.828   0.362   1.932 -0.1304 -0.5412 -0.5174
 8333SOL    HW236636   1.751   0.483   1.908  1.4027  1.5191 -1.4401
 8334SOL     OW36637   3.628   0.971   8.662  0.8792 -0.5394  0.1730
 8334SOL    HW136638   3.628   1.058   8.622  1.7497  0.2292  1.8270
 8334SOL    HW236639   3.659   0.996   8.749  2.0466  2.3530 -1.0627
 8335SOL     OW36640   0.363   1.823   4.648 -0.2082  0.3426 -0.2371
 8335SOL    HW136641   0.416   1.745   4.627 -1.5566 -0.5542 -0.3054
 8335SOL    HW236642   0.408   1.889   4.596 -0.7718  0.1600 -0.9636
 8336SOL     OW36643   1.812   1.612   7.287  0.3406  0.2917  0.4928
 8336SOL    HW136644   1.799   1.616   7.382 -2.7673 -0.8566  0.1107
 8336SOL    HW236645   1.772   1.695   7.262 -0.3691 -0.4011 -0.7013
 8337SOL     OW36646   4.393   0.758  13.469 -0.0090 -0.1468  0.1728
 8337SOL    HW136647   4.335   0.769  13.394  1.5502  0.7057 -0.9202
 8337SOL    HW236648   4.423   0.671  13.444 -1.7668 -0.4916 -0.6970
 8338SOL     OW36649   3.856   4.148  17.044  0.0975 -0.1453  0.7695
 8338SOL    HW136650   3.810   4.108  17.118 -2.1857  1.6470  0.3412
 8338SOL    HW236651   3.885   4.228  17.088  2.9824 -1.3649  1.0647
 8339SOL     OW36652   2.270   3.376   9.754 -0.8570 -0.1504 -0.1675
 8339SOL    HW136653   2.249   3.448   9.813  1.6813  0.7821 -0.3977
 8339SOL    HW236654   2.359   3.403   9.731 -1.5996  2.3390 -0.2153
 8340SOL     OW36655   0.255   4.579  11.825  0.3164  0.1356 -0.6401
 8340SOL    HW136656   0.272   4.493  11.864  0.5497  0.9852  1.1217
 8340SOL    HW236657   0.265   4.640  11.898  1.1793 -0.3522 -0.3413
 8341SOL     OW36658   4.168   2.586  14.850 -0.1391  0.2705  0.2973
 8341SOL    HW136659   4.149   2.526  14.779  0.1331  1.2800 -0.6373
 8341SOL    HW236660   4.081   2.626  14.849 -0.4790 -0.4861 -0.3403
 8342SOL     OW36661   0.601   1.095   2.541 -0.2787 -0.0925  0.0054
 8342SOL    HW136662   0.542   1.051   2.602  2.8921 -1.6044  2.0121
 8342SOL    HW236663   0.573   1.060   2.457 -0.4750  2.0490 -0.8305
 8343SOL     OW36664   3.608   0.613   7.117  0.0469  0.3885 -0.1086
 8343SOL    HW136665   3.544   0.565   7.170 -0.0260  0.2221 -0.3490
 8343SOL    HW236666   3.580   0.588   7.029 -0.2437  0.7861 -0.1357
 8344SOL     OW36667   4.535   0.250  12.170 -0.2648  0.3851  1.1371
 8344SOL    HW136668   4.447   0.227  12.141  0.1497  1.2851 -0.8778
 8344SOL    HW236669   4.525   0.268  12.263 -0.0063 -0.5395  1.3493
 8345SOL     OW36670   3.955   0.888   8.290  0.7399 -0.3551 -0.5440
 8345SOL    HW136671   4.022   0.879   8.223  0.7916 -0.8768 -0.4195
 8345SOL    HW236672   3.883   0.899   8.228  1.5032 -1.0150 -1.5351
 8346SOL     OW36673   4.634   2.169  12.536  0.2392  0.4086  1.1613
 8346SOL    HW136674   4.600   2.258  12.531  2.0093  1.0267  0.2980
 8346SOL    HW236675   4.708   2.178  12.477 -0.8118  1.8859  0.0702
 8347SOL     OW36676   3.512   0.195   9.311  0.4541 -0.0061  0.5281
 8347SOL    HW136677   3.579   0.253   9.273 -0.0214 -1.2483 -2.2267
 8347SOL    HW236678   3.569   0.153   9.376  0.9172 -1.2626 -0.6959
 8348SOL     OW36679   1.180   2.210   3.331 -1.0469 -0.2950  0.0790
 8348SOL    HW136680   1.111   2.169   3.279 -1.0861  1.3652 -1.1903
 8348SOL    HW236681   1.220   2.271   3.268  0.6586  0.7730  2.1710
 8349SOL     OW36682   0.553   0.597   4.840 -0.0464  0.7324  0.5230
 8349SOL    HW136683   0.630   0.652   4.828  1.1283 -0.5971  2.0319
 8349SOL    HW236684   0.582   0.526   4.897 -1.5465 -0.5645 -0.3197
 8350SOL     OW36685   4.123   3.296   2.107  0.4117  0.0786 -0.1859
 8350SOL    HW136686   4.076   3.369   2.066 -0.2418  0.1376  0.6726
 8350SOL    HW236687   4.190   3.349   2.150 -0.0739 -0.5784  1.3757
 8351SOL     OW36688   3.895   2.618  14.793  0.2902  0.2352  0.7674
 8351SOL    HW136689   3.816   2.598  14.842  0.4352 -1.0470  0.4794
 8351SOL    HW236690   3.901   2.541  14.735  0.4544  1.2859 -0.6179
 8352SOL     OW36691   0.730   3.284   6.728  0.1465 -0.0229 -0.1240
 8352SOL    HW136692   0.647   3.238   6.716  0.0040 -0.3771  2.3231
 8352SOL    HW236693   0.722   3.316   6.818  1.4963 -1.1535  0.3976
 8353SOL     OW36694   3.239   2.207   3.761  0.6512 -0.3414  0.9170
 8353SOL    HW136695   3.269   2.230   3.674  3.1171  1.2768  2.1895
 8353SOL    HW236696   3.297   2.265   3.811  0.7538  0.6282 -0.3461
 8354SOL     OW36697   3.663   2.720   0.028 -0.8672  0.8609  0.3193
 8354SOL    HW136698   3.687   2.628   0.025  1.7481  1.5738 -0.0955
 8354SOL    HW236699   3.583   2.728  17.721  0.6320  0.0600 -2.0823
 8355SOL     OW36700   1.961   3.356   5.448  0.1907  0.3038  0.0428
 8355SOL    HW136701   1.989   3.382   5.536  0.1987 -0.0088  0.1319
 8355SOL    HW236702   1.948   3.264   5.470  0.6986  0.6548  1.8512
 8356SOL     OW36703   3.310   2.069   8.331 -0.2736  0.2791 -0.2775
 8356SOL    HW136704   3.399   2.038   8.346 -0.1360  1.2887  1.0020
 8356SOL    HW236705   3.318   2.139   8.266  3.9507 -0.1429 -0.2211
 8357SOL     OW36706   3.025   4.147  10.779 -0.3090  0.0789 -0.0291
 8357SOL    HW136707   2.960   4.149  10.849  1.1645 -1.9108  1.4050
 8357SOL    HW236708   2.973   4.120  10.704  0.1557 -1.9308  0.3671
 8358SOL     OW36709   1.942   3.716   7.103  0.1329 -0.5948  0.2504
 8358SOL    HW136710   1.850   3.697   7.081  0.6065 -1.9420 -0.5780
 8358SOL    HW236711   1.940   3.802   7.145 -2.0053 -1.6653  2.3901
 8359SOL     OW36712   2.772   3.745   4.590  0.0821  0.4049 -0.5169
 8359SOL    HW136713   2.709   3.750   4.662 -0.1961  0.2401 -0.7468
 8359SOL    HW236714   2.724   3.780   4.515 -1.0659 -1.4559 -0.6766
 8360SOL     OW36715   4.305   3.082   4.181  0.5159  0.1498 -0.1730
 8360SOL    HW136716   4.245   3.039   4.242 -0.9731  0.1584 -1.6079
 8360SOL    HW236717   4.340   3.149   4.239  1.2518  0.4378 -0.9472
 8361SOL     OW36718   4.195   1.915   8.133  0.3565  0.1751 -0.0104
 8361SOL    HW136719   4.237   1.969   8.199  2.1341  1.2974 -2.0689
 8361SOL    HW236720   4.274   1.885   8.089 -0.4251 -2.2190  0.1933
 8362SOL     OW36721   4.588   4.487   2.839  0.0988  0.3668  0.1426
 8362SOL    HW136722   4.559   4.452   2.923 -1.2952 -1.9591 -1.3227
 8362SOL    HW236723   4.566   4.581   2.839 -3.0556 -0.3941 -1.5288
 8363SOL     OW36724   4.116   1.829   7.387  0.1880 -0.5429 -0.4271
 8363SOL    HW136725   4.189   1.886   7.411 -1.7970  1.1961  1.4752
 8363SOL    HW236726   4.144   1.790   7.304 -0.5715 -0.9018 -0.5163
 8364SOL     OW36727   1.076   0.794   8.132  0.2389 -0.0237 -0.1963
 8364SOL    HW136728   1.019   0.754   8.067  2.0663 -2.8883 -0.0851
 8364SOL    HW236729   1.011   0.856   8.164 -1.1380 -1.3483 -0.4493
 8365SOL     OW36730   4.055   2.287  15.658  0.7602 -0.0901 -0.1408
 8365SOL    HW136731   4.142   2.247  15.664  0.6589 -0.1725  0.8860
 8365SOL    HW236732   4.020   2.248  15.739  1.3873  1.1296  0.7194
 8366SOL     OW36733   1.713   4.674   9.618 -0.4355 -0.3356 -0.7223
 8366SOL    HW136734   1.759   4.594   9.643  1.8880  0.4329 -2.5302
 8366SOL    HW236735   1.699   4.709   9.706 -0.2526 -3.1272  0.4396
 8367SOL     OW36736   2.518   4.047   8.206 -0.4663 -0.0642 -0.1913
 8367SOL    HW136737   2.549   4.134   8.230  0.1165 -1.7657  5.1783
 8367SOL    HW236738   2.476   4.038   8.291  1.7635  0.4369  0.9673
 8368SOL     OW36739   2.433   3.068   2.338  0.1979 -0.5823  0.0613
 8368SOL    HW136740   2.387   3.122   2.274  1.8822 -0.3821 -0.9655
 8368SOL    HW236741   2.521   3.070   2.300  1.5458 -0.2310  3.2049
 8369SOL     OW36742   4.678   1.109   3.756  0.2329 -0.0245  0.4306
 8369SOL    HW136743   4.638   1.039   3.809  1.4300 -0.5734  0.6135
 8369SOL    HW236744   4.642   1.091   3.669  1.7243 -2.1557  0.2415
 8370SOL     OW36745   2.629   0.501   1.116 -0.1916  0.4798 -0.2099
 8370SOL    HW136746   2.566   0.475   1.048 -0.8371  0.3306  0.4499
 8370SOL    HW236747   2.696   0.541   1.061 -0.3139  1.3237  0.2664
 8371SOL     OW36748   3.981   1.676   3.296  0.2571 -0.1365  0.2643
 8371SOL    HW136749   3.931   1.701   3.219  0.9278  0.2971 -0.0289
 8371SOL    HW236750   3.953   1.743   3.359  0.2537 -1.1627  1.3559
 8372SOL     OW36751   1.266   2.901   6.308  0.6198 -0.2781  0.0701
 8372SOL    HW136752   1.324   2.937   6.241  0.4583 -0.3490 -0.1088
 8372SOL    HW236753   1.319   2.855   6.373 -1.6533 -1.9254  0.7735
 8373SOL     OW36754   3.498   3.604  16.720  0.0220  0.1539 -0.3045
 8373SOL    HW136755   3.484   3.556  16.802  0.0004  1.1967  0.2921
 8373SOL    HW236756   3.554   3.538  16.678 -0.2516 -0.1050 -0.2576
 8374SOL     OW36757   3.984   1.177   3.805  0.2263 -0.0176 -0.0327
 8374SOL    HW136758   4.075   1.203   3.815  0.0062  0.6734  0.1263
 8374SOL    HW236759   3.973   1.145   3.895  0.5270  0.8495  0.3132
 8375SOL     OW36760   0.999   3.688   9.790  0.3005  0.4862  0.4457
 8375SOL    HW136761   0.921   3.743   9.783  0.8845  1.7199  3.5087
 8375SOL    HW236762   0.956   3.612   9.829 -1.9751  1.6163  0.1330
 8376SOL     OW36763   1.099   1.346   9.376  0.0334  0.1568 -0.3134
 8376SOL    HW136764   1.081   1.293   9.455 -1.4032  0.7725 -0.2255
 8376SOL    HW236765   1.185   1.372   9.409  0.3024 -0.3691 -0.5958
 8377SOL     OW36766   0.110   3.546   3.223 -0.0116  0.1099  0.6244
 8377SOL    HW136767   0.198   3.577   3.202  0.5189 -0.1953  2.3541
 8377SOL    HW236768   0.109   3.511   3.312  0.9092 -2.4499 -0.3733
 8378SOL     OW36769   0.255   3.326  11.997 -0.1736 -0.1546  0.1759
 8378SOL    HW136770   0.264   3.232  12.014 -0.8560 -0.0001  1.4172
 8378SOL    HW236771   0.313   3.360  12.065  3.0468 -3.0506 -1.1152
 8379SOL     OW36772   3.277   2.673  11.504 -0.1292 -0.3053 -0.2666
 8379SOL    HW136773   3.334   2.749  11.493  2.0771 -1.9091  0.0041
 8379SOL    HW236774   3.339   2.600  11.506 -0.0056 -0.2148 -0.8062
 8380SOL     OW36775   4.233   1.842   7.750  0.2781  0.3242 -0.8246
 8380SOL    HW136776   4.260   1.925   7.789 -1.1275  0.7266 -0.7123
 8380SOL    HW236777   4.312   1.809   7.706  0.3843 -0.4308 -0.0742
 8381SOL     OW36778   2.798   2.767   6.224 -0.1554  0.1895 -0.3284
 8381SOL    HW136779   2.880   2.815   6.212  1.2696 -2.0978  0.1313
 8381SOL    HW236780   2.756   2.838   6.271 -0.7195 -0.1353 -0.3513
 8382SOL     OW36781   0.249   2.543  10.427  0.1596  0.3858 -0.0444
 8382SOL    HW136782   0.201   2.514  10.505  0.9257 -3.2306 -0.8936
 8382SOL    HW236783   0.179   2.519  10.366  0.9304 -0.2211 -0.6911
 8383SOL     OW36784   2.297   2.976   4.048 -0.2716 -0.5060  0.5111
 8383SOL    HW136785   2.214   3.006   4.085  0.7487  1.4518  1.2387
 8383SOL    HW236786   2.329   2.938   4.130  2.2690  2.5819  0.9745
 8384SOL     OW36787   1.739   2.996   2.706 -0.4898 -0.2074  0.5121
 8384SOL    HW136788   1.722   3.071   2.763 -1.1024 -1.4111  1.9262
 8384SOL    HW236789   1.678   2.988   2.632  0.6630 -1.3034 -0.3120
 8385SOL     OW36790   1.140   3.970   8.597 -0.1341  0.1254  0.2533
 8385SOL    HW136791   1.185   4.004   8.675  0.5711 -0.2613  0.0183
 8385SOL    HW236792   1.083   3.902   8.631 -1.3997  0.7442 -0.6499
 8386SOL     OW36793   4.736   1.637   6.515  0.2688  0.2042 -0.2112
 8386SOL    HW136794   0.024   1.546   6.535 -2.2023 -0.8810 -2.0594
 8386SOL    HW236795   4.701   1.630   6.427  0.9849 -2.8589 -0.2450
 8387SOL     OW36796   3.726   4.311  10.414 -0.1087  0.0532  0.2653
 8387SOL    HW136797   3.716   4.216  10.404 -1.8464  0.2910 -0.3897
 8387SOL    HW236798   3.721   4.316  10.509 -0.8764 -1.7001  0.3223
 8388SOL     OW36799   1.386   4.734  13.580  0.3241 -0.3121 -0.6283
 8388SOL    HW136800   1.410   0.023  13.669 -1.5957 -0.5524 -0.0418
 8388SOL    HW236801   1.464   4.688  13.551 -0.8646 -2.6938 -0.0529
 8389SOL     OW36802   2.211   4.361   4.115 -0.0026  0.6566 -0.0720
 8389SOL    HW136803   2.294   4.314   4.107 -0.6256 -0.3980 -0.1935
 8389SOL    HW236804   2.154   4.303   4.065  0.6374  2.2519 -2.6184
 8390SOL     OW36805   1.687   3.653   8.185  0.7832  0.6463  0.1284
 8390SOL    HW136806   1.765   3.633   8.132  1.0544  1.8719  0.0677
 8390SOL    HW236807   1.656   3.566   8.210 -0.1108  0.8594 -0.2571
 8391SOL     OW36808   4.308   3.553   1.146  0.0387  0.4969 -0.4507
 8391SOL    HW136809   4.270   3.505   1.072  0.8271  1.5855 -1.5557
 8391SOL    HW236810   4.386   3.498   1.155  0.4396  1.4782  2.0273
 8392SOL     OW36811   1.929   3.675   8.002  0.0638  0.5409  0.9122
 8392SOL    HW136812   1.989   3.603   7.982 -0.7103 -0.6035  2.6842
 8392SOL    HW236813   1.899   3.710   7.919 -1.3676 -0.9027  0.8154
 8393SOL     OW36814   1.904   2.871   7.500 -0.1012 -0.1890  0.0252
 8393SOL    HW136815   1.900   2.883   7.595 -0.5495  0.6311 -0.1012
 8393SOL    HW236816   1.944   2.784   7.496  0.9817  0.2788  0.4789
 8394SOL     OW36817   1.859   2.287  12.367  0.1257  0.0155  0.2940
 8394SOL    HW136818   1.932   2.277  12.306 -0.0957  1.6910 -0.2281
 8394SOL    HW236819   1.914   2.321  12.438  0.2119  1.0511 -0.2732
 8395SOL     OW36820   0.162   4.177  14.922 -0.3545 -0.3336  0.3723
 8395SOL    HW136821   0.097   4.146  14.985  0.8487 -0.7759  1.3949
 8395SOL    HW236822   0.248   4.151  14.955  0.8076 -0.3501 -2.6476
 8396SOL     OW36823   4.360   1.004   3.202  0.1798 -0.0536  0.0431
 8396SOL    HW136824   4.353   1.079   3.144  2.0071  2.1492  2.6942
 8396SOL    HW236825   4.372   1.043   3.289  0.8184  0.1335 -0.1312
 8397SOL     OW36826   3.249   2.399   7.270 -0.8318  0.3129 -0.2954
 8397SOL    HW136827   3.208   2.485   7.260  2.6062  1.7585 -2.0358
 8397SOL    HW236828   3.222   2.371   7.357  0.6939 -0.0743  0.0459
 8398SOL     OW36829   3.826   3.296   9.585 -0.1410  0.4179 -0.6561
 8398SOL    HW136830   3.754   3.310   9.523 -1.4075  1.4320  1.0461
 8398SOL    HW236831   3.774   3.270   9.661  0.1165 -1.3362 -1.0716
 8399SOL     OW36832   1.855   1.722   2.922  0.5514  0.2546  0.1056
 8399SOL    HW136833   1.928   1.776   2.952  1.9102 -1.1954 -0.5629
 8399SOL    HW236834   1.775   1.750   2.966 -0.7164 -3.0810 -0.0822
 8400SOL     OW36835   2.258   1.080   8.156  0.1480 -0.2674  0.3384
 8400SOL    HW136836   2.288   1.100   8.244 -1.7036 -0.7238  1.0646
 8400SOL    HW236837   2.223   0.993   8.176  1.1848 -1.1278 -1.5553
 8401SOL     OW36838   3.831   0.282   4.577  0.0437 -0.3375  0.3413
 8401SOL    HW136839   3.738   0.261   4.585  0.1051  0.3177  2.6964
 8401SOL    HW236840   3.847   0.318   4.664 -1.2118 -0.3325  0.5691
 8402SOL     OW36841   4.239   1.715   6.855 -0.0520 -0.1150 -0.0791
 8402SOL    HW136842   4.282   1.757   6.780  1.3261 -0.0769  0.7370
 8402SOL    HW236843   4.148   1.696   6.833  0.5273  1.4583 -3.7897
 8403SOL     OW36844   1.139   4.391  15.092  0.5581 -0.1302 -0.0253
 8403SOL    HW136845   1.140   4.481  15.125  0.4859 -0.2230  0.2329
 8403SOL    HW236846   1.230   4.361  15.093  0.2949 -0.9386  0.0931
 8404SOL     OW36847   2.794   1.921   3.682  0.0038 -0.1433  0.5940
 8404SOL    HW136848   2.822   1.837   3.647 -0.2931 -0.4176  1.0166
 8404SOL    HW236849   2.706   1.896   3.709  0.6470 -3.1124 -0.1324
 8405SOL     OW36850   1.717   0.134   3.523 -0.2318  0.1283 -0.2647
 8405SOL    HW136851   1.717   0.116   3.617  0.9284  1.9060  0.0617
 8405SOL    HW236852   1.634   0.177   3.505 -0.4835 -0.0699  0.4540
 8406SOL     OW36853   4.040   1.106  13.410 -0.1302  0.5115  0.3742
 8406SOL    HW136854   4.027   1.100  13.315  0.6650  0.3645  0.2761
 8406SOL    HW236855   4.102   1.179  13.418  1.0831 -0.5198  0.3033
 8407SOL     OW36856   2.231   4.417  10.141  0.0256 -0.0827 -0.0344
 8407SOL    HW136857   2.186   4.474  10.203 -1.9296  0.8285 -2.2748
 8407SOL    HW236858   2.212   4.333  10.182 -0.4663 -0.4702 -1.0371
 8408SOL     OW36859   1.226   1.072  10.952  0.0315  0.0082  0.0547
 8408SOL    HW136860   1.303   1.034  10.910 -0.8196 -2.0681  0.3701
 8408SOL    HW236861   1.207   1.142  10.890 -1.1814 -1.1442 -0.8806
 8409SOL     OW36862   3.935   0.470  17.438  0.5837  0.1905  0.7000
 8409SOL    HW136863   3.849   0.448  17.403  0.5502  1.7892 -0.2359
 8409SOL    HW236864   3.981   0.443  17.358  0.1971  1.0073  0.2006
 8410SOL     OW36865   1.914   0.166  11.432 -0.3587 -0.5294 -0.2603
 8410SOL    HW136866   1.876   0.253  11.426 -0.6851 -0.6190  0.4892
 8410SOL    HW236867   1.954   0.156  11.345 -1.4368  0.2433 -0.8373
 8411SOL     OW36868   4.184   4.217   5.042  0.7592  0.3135 -0.1129
 8411SOL    HW136869   4.143   4.131   5.030 -1.8483  1.4693  0.6380
 8411SOL    HW236870   4.237   4.190   5.117 -0.5662  3.4272  1.9308
 8412SOL     OW36871   2.859   3.331   7.301  0.9773  0.0749 -0.4114
 8412SOL    HW136872   2.889   3.275   7.230 -2.4387 -1.7637 -0.4145
 8412SOL    HW236873   2.881   3.418   7.269  2.2464 -0.0706  0.0519
 8413SOL     OW36874   2.704   4.556   2.779 -0.2057  1.0507  0.0848
 8413SOL    HW136875   2.732   4.639   2.818 -4.0419  1.8557  1.1186
 8413SOL    HW236876   2.774   4.498   2.809 -1.5514 -0.5151  0.2330
 8414SOL     OW36877   4.150   0.336   9.024  0.2589  0.0757 -0.1318
 8414SOL    HW136878   4.100   0.284   9.086 -0.0142 -0.6244 -0.9476
 8414SOL    HW236879   4.207   0.271   8.982 -0.8599 -0.8521 -0.1794
 8415SOL     OW36880   3.639   4.399   7.290 -0.0256  0.1383 -0.3825
 8415SOL    HW136881   3.573   4.354   7.237 -0.6100  1.7111 -1.0008
 8415SOL    HW236882   3.609   4.369   7.376  1.6374  1.5763  0.7013
 8416SOL     OW36883   0.296   0.018   7.091  0.4043 -0.6747  0.3097
 8416SOL    HW136884   0.283   0.003   6.997  1.2849  0.6902 -0.0288
 8416SOL    HW236885   0.206   0.023   7.124 -0.2777 -2.6417 -1.2555
 8417SOL     OW36886   0.754   4.667   8.452  0.1954 -0.0528 -0.2632
 8417SOL    HW136887   0.843   4.684   8.482 -0.1727  0.0880  0.7447
 8417SOL    HW236888   0.716   4.619   8.525 -0.0207 -0.0324 -0.3598
 8418SOL     OW36889   0.259   1.709   7.582  0.0459 -0.2988 -0.9888
 8418SOL    HW136890   0.261   1.741   7.492 -0.4195  1.4432 -0.3705
 8418SOL    HW236891   0.341   1.747   7.615 -0.5729  0.9322 -0.8719
 8419SOL     OW36892   3.884   4.091   1.268 -0.0056 -0.7059  0.2921
 8419SOL    HW136893   3.946   4.138   1.324 -1.8622  2.2996 -0.1656
 8419SOL    HW236894   3.942   4.035   1.216  0.7631 -0.9998  1.4849
 8420SOL     OW36895   3.146   3.663  10.749 -0.7294  0.3498 -0.0007
 8420SOL    HW136896   3.149   3.701  10.837  2.4363 -1.8385  0.8049
 8420SOL    HW236897   3.151   3.572  10.776 -1.2268  0.7387  1.4026
 8421SOL     OW36898   3.853   1.826   8.296 -0.2948  0.0425  0.5727
 8421SOL    HW136899   3.827   1.794   8.209  1.7375 -1.4190  0.5042
 8421SOL    HW236900   3.861   1.918   8.271  1.3056 -0.0530  0.7216
 8422SOL     OW36901   3.776   3.803   7.966 -0.0702 -0.3035 -0.0791
 8422SOL    HW136902   3.777   3.823   8.060 -0.7467 -0.1538 -0.1052
 8422SOL    HW236903   3.714   3.730   7.967 -1.6072  1.0249  0.8344
 8423SOL     OW36904   2.733   1.613   5.820 -0.1161  0.1859 -0.1152
 8423SOL    HW136905   2.695   1.653   5.898 -0.7196  1.3345 -0.9996
 8423SOL    HW236906   2.787   1.546   5.861  1.0604 -0.0426 -2.0109
 8424SOL     OW36907   3.976   2.700   1.835 -0.0616  0.1629 -0.1483
 8424SOL    HW136908   4.027   2.707   1.755 -2.9658 -1.5876 -2.1629
 8424SOL    HW236909   4.022   2.762   1.891 -0.1106  2.2637 -2.4370
 8425SOL     OW36910   1.986   2.096   0.024  0.1986 -0.0472 -0.1835
 8425SOL    HW136911   2.081   2.090   0.017  0.4897  1.7789  2.3494
 8425SOL    HW236912   1.970   2.022   0.082  2.9422  0.4531  1.2295
 8426SOL     OW36913   1.643   3.410  13.831 -0.3383  0.3777  0.2648
 8426SOL    HW136914   1.552   3.400  13.857 -0.2777  0.6049  0.5671
 8426SOL    HW236915   1.635   3.467  13.755  3.7919  0.8453  0.1454
 8427SOL     OW36916   3.805   3.196   2.673 -0.2209  0.4981 -0.7285
 8427SOL    HW136917   3.849   3.264   2.622  2.7905  1.2708  2.9384
 8427SOL    HW236918   3.860   3.119   2.656 -0.0374 -0.1466  2.7219
 8428SOL     OW36919   0.517   1.290   3.760 -0.2009 -0.2250 -0.5587
 8428SOL    HW136920   0.592   1.326   3.805  0.2723  1.5570 -2.7796
 8428SOL    HW236921   0.499   1.223   3.827  2.3568 -0.7412 -0.3894
 8429SOL     OW36922   4.046   2.186   1.850 -0.6025 -0.1715 -0.8030
 8429SOL    HW136923   4.019   2.110   1.903 -0.0629  0.3231  0.1784
 8429SOL    HW236924   4.113   2.133   1.808 -0.8145 -1.7647  0.8206
 8430SOL     OW36925   1.449   4.146   7.253 -0.2548 -0.0685 -0.2462
 8430SOL    HW136926   1.539   4.144   7.283  0.3667  0.6111 -2.0810
 8430SOL    HW236927   1.407   4.108   7.330 -1.5581 -2.1226 -1.9629
 8431SOL     OW36928   2.510   3.893   9.137  0.2544 -0.3297  0.0335
 8431SOL    HW136929   2.530   3.976   9.179  0.1031  0.2945 -1.1326
 8431SOL    HW236930   2.555   3.898   9.053 -1.2607 -1.4003 -0.8546
 8432SOL     OW36931   4.270   0.238  12.089 -0.3587  0.4153 -1.1230
 8432SOL    HW136932   4.201   0.180  12.123  0.7139 -0.6848 -0.7862
 8432SOL    HW236933   4.225   0.283  12.018  0.7668  1.3350 -1.2531
 8433SOL     OW36934   1.929   3.027   9.124 -0.7092 -0.7874 -0.0245
 8433SOL    HW136935   1.966   2.949   9.167  0.7659  1.2287  2.3376
 8433SOL    HW236936   2.002   3.049   9.067 -1.3927 -1.5767 -1.1929
 8434SOL     OW36937   3.593   3.915  11.019  0.0021 -0.5596  0.2627
 8434SOL    HW136938   3.509   3.872  11.002 -0.4994  0.9993 -1.1760
 8434SOL    HW236939   3.653   3.844  10.996 -0.5010 -0.8968 -0.0148
 8435SOL     OW36940   1.270   3.247  11.415  0.5131 -0.2865 -0.5626
 8435SOL    HW136941   1.231   3.238  11.328 -0.1944 -0.8456 -0.1884
 8435SOL    HW236942   1.218   3.320  11.447  0.9216 -0.4880  0.5520
 8436SOL     OW36943   0.139   3.277   7.489  0.2122 -0.3868 -0.2252
 8436SOL    HW136944   0.079   3.345   7.519 -0.9548 -1.6807  0.4022
 8436SOL    HW236945   0.209   3.286   7.553  0.8930  2.9127 -1.4363
 8437SOL     OW36946   1.493   3.282   6.228 -0.1658  0.5123  0.5490
 8437SOL    HW136947   1.544   3.339   6.170  0.1360 -1.7529 -1.3842
 8437SOL    HW236948   1.407   3.324   6.236  0.1979  1.0672  1.6012
 8438SOL     OW36949   0.232   3.741   3.450 -0.0296 -0.0232  0.9964
 8438SOL    HW136950   0.159   3.754   3.390  0.9295  3.0689  0.4932
 8438SOL    HW236951   0.296   3.700   3.392 -2.6860 -0.3003 -1.7125
 8439SOL     OW36952   4.020   2.027  15.472  0.1312  0.2216 -0.2477
 8439SOL    HW136953   4.016   2.102  15.413  1.6877  0.7033  0.2694
 8439SOL    HW236954   4.110   2.031  15.504 -0.2237 -0.6346  0.8770
 8440SOL     OW36955   0.173   3.851   2.810 -0.7768 -0.8162 -0.1737
 8440SOL    HW136956   0.264   3.838   2.784 -0.8429 -2.5213  0.4421
 8440SOL    HW236957   0.133   3.766   2.791  1.6904 -1.7784 -1.0473
 8441SOL     OW36958   2.002   3.353   8.517 -0.0089 -0.1309 -0.5139
 8441SOL    HW136959   2.005   3.447   8.531 -0.8349  0.0593 -1.6335
 8441SOL    HW236960   2.001   3.344   8.422 -0.5184  2.1230 -0.7202
 8442SOL     OW36961   1.952   3.303   1.342 -0.1994 -0.0203  0.6161
 8442SOL    HW136962   1.911   3.374   1.292  1.4702  1.2775  1.0667
 8442SOL    HW236963   1.960   3.352   1.424  0.8656  0.5951  0.1437
 8443SOL     OW36964   2.870   0.844   5.628  0.2897 -0.4287  0.2609
 8443SOL    HW136965   2.923   0.803   5.696 -0.9785  2.7004  3.1181
 8443SOL    HW236966   2.783   0.826   5.662 -0.7720  1.1822 -1.5811
 8444SOL     OW36967   2.359   3.354   2.467  0.2402 -0.3463  0.2594
 8444SOL    HW136968   2.405   3.331   2.387  0.2983 -1.0578  0.4934
 8444SOL    HW236969   2.281   3.301   2.456  0.1119  0.1318 -1.1549
 8445SOL     OW36970   4.036   4.057   4.204  0.0274 -0.5820  0.2093
 8445SOL    HW136971   3.999   4.103   4.129 -0.9105  0.1315  1.1150
 8445SOL    HW236972   4.114   4.019   4.165  0.4001 -0.0526  0.4397
 8446SOL     OW36973   2.321   0.281  10.059  0.3571 -0.7412 -0.4918
 8446SOL    HW136974   2.355   0.198  10.092 -1.4127 -0.9024  0.9245
 8446SOL    HW236975   2.316   0.324  10.144 -0.9664 -4.0530  1.1115
 8447SOL     OW36976   3.107   1.421   6.078  0.1016 -0.0301  0.4317
 8447SOL    HW136977   3.066   1.506   6.067  1.0879  0.4299  0.3248
 8447SOL    HW236978   3.104   1.390   5.987 -0.5012 -1.3368  0.8942
 8448SOL     OW36979   4.574   3.481   9.739 -0.2384 -0.5870 -0.2321
 8448SOL    HW136980   4.574   3.576   9.748 -1.7495 -0.7534  1.6194
 8448SOL    HW236981   4.531   3.463   9.823 -1.7849  1.0265 -0.6720
 8449SOL     OW36982   1.631   0.430   3.227 -0.2975 -0.6328 -0.7272
 8449SOL    HW136983   1.552   0.481   3.247 -1.6656 -2.4655 -1.4351
 8449SOL    HW236984   1.590   0.343   3.226  1.8039 -1.6300  0.3578
 8450SOL     OW36985   3.574   4.404   3.544 -0.4698 -0.4041 -0.0430
 8450SOL    HW136986   3.627   4.484   3.549  1.0775 -1.4112 -0.1127
 8450SOL    HW236987   3.602   4.365   3.461  0.1427  0.6899 -0.3529
 8451SOL     OW36988   1.282   3.077   8.905 -1.0642  0.2771  0.7854
 8451SOL    HW136989   1.259   3.021   8.832  2.6226 -0.5325  0.2368
 8451SOL    HW236990   1.372   3.100   8.881 -0.8833 -0.1393  1.0417
 8452SOL     OW36991   1.707   3.882  15.057  0.6738  0.1060 -0.6614
 8452SOL    HW136992   1.675   3.792  15.061 -0.1557  0.3452 -2.1621
 8452SOL    HW236993   1.711   3.901  14.963 -1.1634  2.0938 -0.3303
 8453SOL     OW36994   2.779   3.814  10.277 -0.1978  0.0872  0.0038
 8453SOL    HW136995   2.744   3.751  10.215  1.6328 -0.2374 -0.7016
 8453SOL    HW236996   2.871   3.831  10.256 -0.6834  0.6739 -1.5943
 8454SOL     OW36997   3.714   1.791   8.626  0.2702  0.6356 -0.3273
 8454SOL    HW136998   3.690   1.818   8.714  0.4384 -0.6875  0.1261
 8454SOL    HW236999   3.652   1.719   8.615  1.1232 -0.1124 -0.2905
 8455SOL     OW37000   2.285   1.124   3.910 -0.3124 -0.5056  0.1048
 8455SOL    HW137001   2.211   1.076   3.947 -0.8026 -0.5619 -0.9474
 8455SOL    HW237002   2.243   1.188   3.852  0.0307  0.0850  0.5090
 8456SOL     OW37003   3.730   1.060  15.537  0.6002 -0.2187 -0.4561
 8456SOL    HW137004   3.709   1.152  15.522  1.9886  0.0541 -0.7148
 8456SOL    HW237005   3.815   1.069  15.580 -0.4190  1.3174  1.1867
 8457SOL     OW37006   0.965   3.247   4.317 -0.3813  0.3746  0.2596
 8457SOL    HW137007   0.915   3.231   4.397  0.7067 -0.6487  0.7472
 8457SOL    HW237008   1.022   3.319   4.343 -0.1035  0.5882 -0.9365
 8458SOL     OW37009   1.822   4.079  12.498  0.4792  0.3066 -0.2656
 8458SOL    HW137010   1.756   4.056  12.564  1.0405 -0.6091 -0.0248
 8458SOL    HW237011   1.859   4.162  12.527  0.0693  0.0818  0.8962
 8459SOL     OW37012   0.549   2.590   4.504 -0.3362  0.1881 -0.2228
 8459SOL    HW137013   0.603   2.538   4.444 -0.6586 -0.6505  0.2148
 8459SOL    HW237014   0.587   2.561   4.587 -0.9164 -0.3899 -0.1536
 8460SOL     OW37015   1.217   2.681   5.192 -0.0389 -0.3989  0.4824
 8460SOL    HW137016   1.160   2.604   5.192 -0.6003  0.0228  1.7963
 8460SOL    HW237017   1.279   2.659   5.123  1.4435  1.9847  1.0479
 8461SOL     OW37018   2.675   3.242   7.484  0.4809 -0.0269 -0.1781
 8461SOL    HW137019   2.753   3.253   7.430  1.7530  0.5566  1.7698
 8461SOL    HW237020   2.662   3.149   7.467 -2.4534  0.3931 -0.2915
 8462SOL     OW37021   1.479   2.633   7.181  0.5788  0.5389 -0.9183
 8462SOL    HW137022   1.449   2.548   7.215  1.8497 -0.7043 -2.9213
 8462SOL    HW237023   1.525   2.610   7.101 -0.1716  1.1781 -1.5245
 8463SOL     OW37024   1.344   0.654   6.186 -0.3612 -0.0609 -0.2890
 8463SOL    HW137025   1.285   0.625   6.255 -0.7066 -0.9098 -0.9477
 8463SOL    HW237026   1.429   0.628   6.223 -0.3384 -0.2452 -0.4732
 8464SOL     OW37027   3.167   0.603  15.914 -0.5249  0.8086 -0.6084
 8464SOL    HW137028   3.078   0.626  15.887  0.1753  1.9257 -1.9752
 8464SOL    HW237029   3.213   0.684  15.935 -0.2989  0.3880  0.5237
 8465SOL     OW37030   2.631   1.423  14.612  0.0616  0.1135 -0.3242
 8465SOL    HW137031   2.624   1.342  14.662 -1.5002  1.1380  1.1132
 8465SOL    HW237032   2.696   1.461  14.671  0.4215  1.4363 -1.5532
 8466SOL     OW37033   1.285   4.716   7.142  0.2449 -0.1024 -0.0824
 8466SOL    HW137034   1.205   4.695   7.094 -1.2983  0.0027  2.4392
 8466SOL    HW237035   1.349   4.656   7.103  0.0165  1.0963 -2.2700
 8467SOL     OW37036   3.064   2.544  11.599  0.2434  0.5561  0.1035
 8467SOL    HW137037   3.119   2.609  11.554 -1.3811  1.3343 -0.7402
 8467SOL    HW237038   3.088   2.574  11.687 -1.2634  0.0197  0.6888
 8468SOL     OW37039   0.580   3.620  15.845 -0.0601 -0.2313 -0.3632
 8468SOL    HW137040   0.615   3.595  15.930 -2.2332  3.0110  1.4680
 8468SOL    HW237041   0.509   3.556  15.838 -0.3965  0.1432 -0.3544
 8469SOL     OW37042   1.267   4.613   6.113 -0.2915  0.4807 -0.1130
 8469SOL    HW137043   1.246   4.604   6.206  1.1080  0.7619  0.2328
 8469SOL    HW237044   1.248   4.525   6.079 -0.6957  1.1050 -1.5030
 8470SOL     OW37045   0.232   1.216   4.219 -0.5529  0.0478 -0.3242
 8470SOL    HW137046   0.201   1.126   4.207 -1.7018  0.3960 -0.0446
 8470SOL    HW237047   0.327   1.205   4.213 -0.5405 -0.5087  0.8398
 8471SOL     OW37048   3.590   1.901   7.889  0.0490  0.1564  0.3391
 8471SOL    HW137049   3.661   1.884   7.827 -1.7323  1.2417 -2.0039
 8471SOL    HW237050   3.519   1.858   7.841  1.2841 -1.5440  0.0766
 8472SOL     OW37051   3.876   3.585   7.185 -0.1883  0.4074  0.1635
 8472SOL    HW137052   3.807   3.533   7.226  1.1628 -0.9096  0.7778
 8472SOL    HW237053   3.956   3.539   7.211  0.6563  2.3547  1.0496
 8473SOL     OW37054   2.066   3.947   3.409 -0.2363 -0.1129  0.2495
 8473SOL    HW137055   2.059   3.874   3.347  0.6149 -0.5048  0.6119
 8473SOL    HW237056   1.980   3.939   3.450 -0.1812  0.0046  0.3877
 8474SOL     OW37057   4.324   0.754   7.814  0.1130 -0.3008  0.3043
 8474SOL    HW137058   4.253   0.817   7.824  0.1407 -0.1152 -0.7155
 8474SOL    HW237059   4.391   0.813   7.848 -0.4055  2.0003 -2.6212
 8475SOL     OW37060   3.530   4.415   4.970 -0.1753  0.3466  0.4423
 8475SOL    HW137061   3.585   4.476   4.921  1.0078 -2.0014 -1.1561
 8475SOL    HW237062   3.448   4.462   4.987  0.0697 -0.0893  2.8101
 8476SOL     OW37063   3.291   4.643   7.549  0.0631 -0.1675  0.4035
 8476SOL    HW137064   3.205   4.602   7.558 -0.9282  2.3433  2.3082
 8476SOL    HW237065   3.342   4.576   7.594 -0.9682 -1.9198 -1.0475
 8477SOL     OW37066   3.505   4.135   8.648  0.0350  0.1124 -0.3614
 8477SOL    HW137067   3.542   4.049   8.627 -1.8470 -0.8736  0.3025
 8477SOL    HW237068   3.584   4.183   8.621 -1.2139  2.3404 -0.0545
 8478SOL     OW37069   1.955   2.675   0.661 -0.0159  0.2389 -0.3279
 8478SOL    HW137070   1.886   2.672   0.726 -0.0896  0.2962 -0.4026
 8478SOL    HW237071   1.907   2.655   0.581  0.1279  0.2101 -0.4080
 8479SOL     OW37072   2.552   1.081  17.641  0.3873  0.3176 -0.2369
 8479SOL    HW137073   2.490   1.010  17.623  1.8389 -1.4880  1.9936
 8479SOL    HW237074   2.638   1.041  17.630  0.1701 -0.3765  0.5640
 8480SOL     OW37075   0.708   1.571   7.800  0.2619  0.4566  0.6912
 8480SOL    HW137076   0.776   1.525   7.851 -0.4746 -2.2893 -0.7823
 8480SOL    HW237077   0.770   1.600   7.733  1.5026 -1.4071  1.0189
 8481SOL     OW37078   3.704   2.121  15.360 -0.1409  0.1488  0.3236
 8481SOL    HW137079   3.714   2.074  15.442  1.2065  3.5188  2.0666
 8481SOL    HW237080   3.784   2.096  15.315 -0.5858 -0.6443 -0.0277
 8482SOL     OW37081   3.586   1.540   7.964  0.0910 -0.2491  0.4305
 8482SOL    HW137082   3.589   1.504   7.875  1.2999  0.9318 -0.0008
 8482SOL    HW237083   3.494   1.535   7.988 -0.4983  1.6641 -1.3979
 8483SOL     OW37084   0.341   1.788   8.448  0.4003 -0.4144  0.0587
 8483SOL    HW137085   0.381   1.752   8.369 -2.9182 -1.2113 -1.2482
 8483SOL    HW237086   0.305   1.870   8.412  2.3836  0.8074  0.8809
 8484SOL     OW37087   2.667   1.302   4.101  0.0684 -0.1360  0.0588
 8484SOL    HW137088   2.664   1.394   4.074 -1.5840 -0.6580 -1.5964
 8484SOL    HW237089   2.641   1.255   4.021  1.7193 -1.9728  0.6126
 8485SOL     OW37090   3.036   2.325  14.233 -0.0032 -0.0636 -0.1620
 8485SOL    HW137091   2.999   2.276  14.306  0.3260  1.7694  1.2329
 8485SOL    HW237092   2.973   2.290  14.170 -0.6146 -0.7997  0.8797
 8486SOL     OW37093   4.419   0.581   6.718 -0.5136  0.6853 -0.0903
 8486SOL    HW137094   4.438   0.661   6.668 -0.5294 -0.1146 -1.3680
 8486SOL    HW237095   4.329   0.556   6.698 -0.1025 -1.2990  0.5685
 8487SOL     OW37096   3.058   1.325  15.472  0.4721  0.0053 -0.0013
 8487SOL    HW137097   3.146   1.290  15.469  0.6032  0.5618 -2.6834
 8487SOL    HW237098   3.031   1.312  15.563  2.6538  3.9066  1.2160
 8488SOL     OW37099   2.200   0.849   7.121  0.4676  0.3119  0.1999
 8488SOL    HW137100   2.283   0.896   7.109  0.2475  0.4852 -0.6777
 8488SOL    HW237101   2.228   0.760   7.139 -1.4542 -0.0032  1.6362
 8489SOL     OW37102   1.905   0.163  11.173  0.2062 -0.9220  0.2756
 8489SOL    HW137103   1.950   0.218  11.109  0.5468  0.8464  2.0315
 8489SOL    HW237104   1.829   0.136  11.122 -0.2283  0.4495  0.1805
 8490SOL     OW37105   4.581   0.161   5.922  0.5525 -0.4054  0.3353
 8490SOL    HW137106   4.502   0.124   5.962  0.9591 -0.2727  1.2481
 8490SOL    HW237107   4.576   0.146   5.827  2.9860  0.8723  0.0143
 8491SOL     OW37108   4.321   2.108  16.290 -0.0880  0.0457  0.4176
 8491SOL    HW137109   4.239   2.076  16.329 -1.4249  2.1364 -0.6603
 8491SOL    HW237110   4.369   2.123  16.371 -0.0540 -1.8549  0.7401
 8492SOL     OW37111   3.062   2.754   5.155  0.1899  0.6624 -0.3530
 8492SOL    HW137112   3.116   2.676   5.169 -2.1579 -0.9548 -0.3881
 8492SOL    HW237113   3.133   2.819   5.148 -0.7507  1.7409  0.1043
 8493SOL     OW37114   1.678   4.065   7.347 -0.7600  0.4355  0.0713
 8493SOL    HW137115   1.697   4.041   7.438 -1.2498 -1.1828 -0.2502
 8493SOL    HW237116   1.763   4.104   7.327 -0.1972 -0.6663  0.2900
 8494SOL     OW37117   0.714   3.486   5.023 -0.1275 -0.2719  0.3928
 8494SOL    HW137118   0.670   3.564   5.059 -2.1551 -0.4499 -1.7295
 8494SOL    HW237119   0.632   3.452   4.987  1.2611 -0.7870 -2.2393
 8495SOL     OW37120   4.225   4.127   8.670 -0.3438  0.2908  0.0100
 8495SOL    HW137121   4.152   4.150   8.728  0.5656 -0.5962  1.5383
 8495SOL    HW237122   4.246   4.038   8.701  1.2456  1.1001  1.2765
 8496SOL     OW37123   3.595   1.328  10.304 -0.1950 -0.0878 -0.7401
 8496SOL    HW137124   3.530   1.397  10.289 -0.1026  0.2419  0.4414
 8496SOL    HW237125   3.546   1.255  10.265  1.5662 -1.8921  0.4671
 8497SOL     OW37126   0.668   3.621   6.346 -0.3580 -0.3833  0.3206
 8497SOL    HW137127   0.580   3.615   6.309 -0.7146  2.5341  0.7083
 8497SOL    HW237128   0.723   3.554   6.306  0.0567  0.1538 -0.0084
 8498SOL     OW37129   0.279   4.402   6.456 -0.1530  0.5455 -0.2496
 8498SOL    HW137130   0.266   4.497   6.451 -2.3855  0.2973  1.0371
 8498SOL    HW237131   0.237   4.378   6.374 -0.5645  1.1457 -0.2165
 8499SOL     OW37132   2.786   0.731   6.374  0.1068 -0.0616 -0.1199
 8499SOL    HW137133   2.881   0.733   6.381 -0.0157  0.5588  1.2213
 8499SOL    HW237134   2.763   0.776   6.455 -2.2412 -0.1288 -0.7255
 8500SOL     OW37135   1.604   2.254   0.338 -0.5848 -0.5384  0.0165
 8500SOL    HW137136   1.621   2.175   0.286  0.7682  1.2767 -2.2950
 8500SOL    HW237137   1.669   2.315   0.303 -0.2363 -2.1568 -2.1702
 8501SOL     OW37138   1.749   2.053  13.664 -0.1171 -0.3686 -0.2407
 8501SOL    HW137139   1.658   2.025  13.675  0.0325 -1.2797 -1.3495
 8501SOL    HW237140   1.765   2.113  13.737  2.7334  1.8395 -2.6413
 8502SOL     OW37141   2.273   3.540   3.190 -0.3044 -0.4686  0.2558
 8502SOL    HW137142   2.341   3.477   3.166  2.7503  2.8063  0.2919
 8502SOL    HW237143   2.228   3.547   3.106  1.6613 -1.7031 -0.9191
 8503SOL     OW37144   1.605   4.349  15.008  0.1977 -0.1674 -0.6530
 8503SOL    HW137145   1.662   4.421  14.983  0.6394 -0.2184  0.1969
 8503SOL    HW237146   1.649   4.313  15.086 -0.1656  1.1464  0.1630
 8504SOL     OW37147   2.299   4.305   2.711 -0.0561  0.1300  0.3807
 8504SOL    HW137148   2.265   4.252   2.783 -1.4082 -1.4303 -1.4263
 8504SOL    HW237149   2.346   4.374   2.757  0.7265 -0.1927  0.0702
 8505SOL     OW37150   0.326   2.311   3.080  0.6979  0.1052  0.1909
 8505SOL    HW137151   0.264   2.248   3.118  0.1714  0.6494  0.2285
 8505SOL    HW237152   0.406   2.261   3.064 -0.2822 -1.3312 -0.2655
 8506SOL     OW37153   3.629   1.888  11.685 -0.4542 -0.4967  0.4071
 8506SOL    HW137154   3.622   1.984  11.690  1.2023 -0.2910 -1.3524
 8506SOL    HW237155   3.676   1.881  11.769  1.5449 -0.4142 -0.7160
 8507SOL     OW37156   4.696   1.865  11.637 -0.0791  0.2821  0.1770
 8507SOL    HW137157   4.652   1.808  11.573  0.9615  1.0149 -1.1949
 8507SOL    HW237158   0.019   1.797  11.670 -0.0918  0.1497 -0.0693
 8508SOL     OW37159   3.934   2.194   7.753  0.1680 -0.0376 -0.0026
 8508SOL    HW137160   3.917   2.129   7.822  1.8791 -1.1562 -0.6359
 8508SOL    HW237161   3.963   2.136   7.683  2.1701  1.0757 -0.0970
 8509SOL     OW37162   3.758   2.497   8.675 -0.8569 -0.0851 -0.4933
 8509SOL    HW137163   3.722   2.539   8.596 -0.3220 -0.6921 -1.0550
 8509SOL    HW237164   3.724   2.554   8.745 -1.2043  2.0142 -2.3499
 8510SOL     OW37165   2.005   0.307   4.191 -0.3015  0.5615 -0.3458
 8510SOL    HW137166   2.096   0.277   4.200 -0.1191  1.0003 -0.6748
 8510SOL    HW237167   2.002   0.382   4.251  0.2337  0.2658  0.0535
 8511SOL     OW37168   2.435   0.130   6.351 -0.1030 -0.4043  0.1872
 8511SOL    HW137169   2.480   0.071   6.291 -3.2906 -1.1755 -1.4737
 8511SOL    HW237170   2.354   0.144   6.301 -0.9746 -1.3173  1.3485
 8512SOL     OW37171   2.432   1.279   5.897 -1.0761  0.2111 -0.3633
 8512SOL    HW137172   2.488   1.327   5.835 -0.8615  0.9368  0.3934
 8512SOL    HW237173   2.354   1.307   5.849 -2.1867 -0.1995  1.2278
 8513SOL     OW37174   3.028   3.291   9.193 -0.4285 -0.1606  0.0035
 8513SOL    HW137175   2.987   3.222   9.140 -1.8090  1.3171 -0.8670
 8513SOL    HW237176   2.967   3.358   9.163  0.0593 -0.2119 -1.1052
 8514SOL     OW37177   1.265   3.161   6.455  0.4473  0.1463  0.2259
 8514SOL    HW137178   1.281   3.210   6.374  4.2958 -0.5342  0.5619
 8514SOL    HW237179   1.249   3.075   6.415  0.1989 -0.0433  0.7351
 8515SOL     OW37180   3.634   2.825  11.562  0.3119  0.2345  0.2634
 8515SOL    HW137181   3.697   2.876  11.512  0.9598  0.0568  0.8928
 8515SOL    HW237182   3.551   2.858  11.527  1.1646 -1.2284 -3.0206
 8516SOL     OW37183   2.327   2.675   8.381  0.1218  0.3704  0.0863
 8516SOL    HW137184   2.359   2.711   8.299  1.0793  1.8289  1.1073
 8516SOL    HW237185   2.259   2.737   8.409  0.4281  1.1813 -0.9809
 8517SOL     OW37186   4.183   0.612  11.565  0.9020 -0.4386  0.2337
 8517SOL    HW137187   4.181   0.538  11.503 -0.3714  1.0452 -1.5033
 8517SOL    HW237188   4.278   0.623  11.570  0.7175  1.1393  0.1255
 8518SOL     OW37189   0.725   3.259  11.435  0.1790 -0.2333  0.0862
 8518SOL    HW137190   0.682   3.337  11.470  0.7091 -0.4924  1.3026
 8518SOL    HW237191   0.695   3.198  11.503 -0.9371 -0.2009 -0.3816
 8519SOL     OW37192   1.448   1.449   8.878 -0.6574 -0.4393  0.5746
 8519SOL    HW137193   1.497   1.522   8.915  1.9596 -0.8755 -1.9725
 8519SOL    HW237194   1.384   1.421   8.942 -0.5798  1.3634  1.4479
 8520SOL     OW37195   2.941   4.585  13.770  0.3914 -0.6070 -0.0469
 8520SOL    HW137196   2.888   4.602  13.693  1.5019  1.9007 -0.2751
 8520SOL    HW237197   2.872   4.586  13.836 -0.3667  3.2079 -0.9004
 8521SOL     OW37198   3.957   4.605  17.093 -0.1597  0.3299  0.3635
 8521SOL    HW137199   4.030   4.647  17.047 -0.7712  0.0792 -0.8181
 8521SOL    HW237200   4.011   4.551  17.151  0.3978  0.5477  0.0476
 8522SOL     OW37201   1.770   3.623   8.974  0.0370  0.3476  0.3869
 8522SOL    HW137202   1.711   3.548   8.984 -0.5733  0.9510  1.3597
 8522SOL    HW237203   1.845   3.586   9.020  0.7505  0.5542 -0.6215
 8523SOL     OW37204   4.116   2.351  14.688  0.1837 -0.0923 -0.1825
 8523SOL    HW137205   4.195   2.360  14.633  0.2908 -1.5230 -0.2805
 8523SOL    HW237206   4.107   2.255  14.685 -3.3680  0.2568 -0.2960
 8524SOL     OW37207   2.641   3.920   3.367 -0.1078 -0.1962  0.0897
 8524SOL    HW137208   2.692   4.000   3.377  0.4696 -0.5564  0.0445
 8524SOL    HW237209   2.689   3.866   3.431  1.8027  0.8948 -0.4336
 8525SOL     OW37210   2.698   1.267   5.172  0.3537 -0.6147 -0.3622
 8525SOL    HW137211   2.782   1.285   5.215 -0.8300  1.4824  1.0753
 8525SOL    HW237212   2.639   1.296   5.241  0.3091  3.6729 -2.1752
 8526SOL     OW37213   0.547   0.424   7.890  0.3776  0.0470 -0.1909
 8526SOL    HW137214   0.607   0.349   7.888  1.0130  0.5313  0.6707
 8526SOL    HW237215   0.536   0.435   7.985  1.7088  2.3926 -0.3300
 8527SOL     OW37216   0.473   3.511   3.815 -0.1276  0.4146  0.0575
 8527SOL    HW137217   0.420   3.535   3.891 -1.0914 -0.3317 -0.3671
 8527SOL    HW237218   0.559   3.498   3.854  0.1024 -0.2834 -0.6915
 8528SOL     OW37219   1.569   0.798   9.862 -0.2238 -0.2500 -0.1299
 8528SOL    HW137220   1.649   0.810   9.811  1.0693 -1.8763  1.5089
 8528SOL    HW237221   1.603   0.795   9.951 -1.1331  2.4112  0.2953
 8529SOL     OW37222   1.123   0.561   9.065  0.1270 -0.4108 -0.0049
 8529SOL    HW137223   1.061   0.542   8.995 -1.8171  3.6510  0.6255
 8529SOL    HW237224   1.208   0.568   9.022 -0.0541 -1.5865 -0.5638
 8530SOL     OW37225   0.745   1.313   0.698 -0.1898 -0.2554  0.0710
 8530SOL    HW137226   0.758   1.255   0.773 -1.6804 -0.6888 -0.0209
 8530SOL    HW237227   0.728   1.245   0.633 -0.9145 -0.6402  0.6608
 8531SOL     OW37228   4.571   2.702  15.405  0.0318  0.1188 -0.3804
 8531SOL    HW137229   4.498   2.761  15.387  1.1820  1.7394  0.2774
 8531SOL    HW237230   4.581   2.650  15.325  0.8624 -1.0938  0.5149
 8532SOL     OW37231   0.602   1.381   4.878 -0.5405  0.3826  0.8097
 8532SOL    HW137232   0.666   1.312   4.894  0.1083  0.6461 -0.6997
 8532SOL    HW237233   0.624   1.446   4.944  4.0403 -1.0165  0.6360
 8533SOL     OW37234   4.138   1.292  15.816 -0.0856  0.0506 -0.5903
 8533SOL    HW137235   4.165   1.382  15.835 -0.7192 -0.4738  2.8190
 8533SOL    HW237236   4.189   1.239  15.878  0.1607  1.2301  0.2235
 8534SOL     OW37237   3.730   0.309  17.298 -0.4146 -0.3118 -0.0070
 8534SOL    HW137238   3.790   0.241  17.266 -1.2019 -0.1658 -1.7902
 8534SOL    HW237239   3.646   0.263  17.299 -0.3925 -0.3527 -0.0072
 8535SOL     OW37240   4.306   3.338  17.318 -0.0497  0.3730  0.0723
 8535SOL    HW137241   4.328   3.249  17.344  1.1717  0.7004  0.1669
 8535SOL    HW237242   4.228   3.321  17.266  0.4840 -0.0559 -0.5868
 8536SOL     OW37243   1.254   4.382  14.102  0.1572 -0.1724  0.5453
 8536SOL    HW137244   1.176   4.369  14.047 -0.6630  1.3899  1.3317
 8536SOL    HW237245   1.284   4.465  14.066  0.8885 -0.2130  1.0611
 8537SOL     OW37246   4.263   1.863   2.172 -0.0275  0.2410 -0.3128
 8537SOL    HW137247   4.304   1.934   2.122 -1.1572  0.5910 -0.7235
 8537SOL    HW237248   4.282   1.899   2.259  2.0926  0.4207 -0.8379
 8538SOL     OW37249   4.178   2.608   5.982 -0.2579  0.0166  0.1141
 8538SOL    HW137250   4.268   2.610   5.948  0.4194 -0.0631  1.9049
 8538SOL    HW237251   4.130   2.610   5.899  2.4000 -2.1292 -1.4926
 8539SOL     OW37252   1.501   3.835  12.371 -0.9815 -0.1929  0.3116
 8539SOL    HW137253   1.458   3.792  12.298  0.7919 -1.8632  0.2580
 8539SOL    HW237254   1.506   3.925  12.337  0.8952 -0.8500 -1.1296
 8540SOL     OW37255   3.279   3.046   4.643  1.0713  0.0340 -0.0875
 8540SOL    HW137256   3.364   3.042   4.686  2.8256 -0.6172 -3.6252
 8540SOL    HW237257   3.227   2.983   4.692  0.0516  0.4973 -0.5711
 8541SOL     OW37258   4.291   1.878   0.504  0.6025  0.2726 -0.7915
 8541SOL    HW137259   4.262   1.834   0.584 -0.3308  1.4458 -0.4925
 8541SOL    HW237260   4.368   1.823   0.485  1.4916  2.0970 -2.4898
 8542SOL     OW37261   4.403   0.201  16.295  0.0424  0.6324 -0.5136
 8542SOL    HW137262   4.330   0.230  16.241 -1.4864 -0.6043  0.8858
 8542SOL    HW237263   4.355   0.176  16.374  2.0502  0.9864  0.8423
 8543SOL     OW37264   1.803   4.270   1.944 -0.7006  0.2560 -0.2285
 8543SOL    HW137265   1.791   4.288   2.038 -2.0517  0.0674 -0.3641
 8543SOL    HW237266   1.872   4.332   1.922 -0.6483  0.7186  1.1913
 8544SOL     OW37267   3.290   3.879   6.599  0.4779 -0.4432 -0.5218
 8544SOL    HW137268   3.237   3.819   6.652  0.6775 -0.7136 -0.6299
 8544SOL    HW237269   3.216   3.937   6.579 -1.2642 -3.7726 -3.8159
 8545SOL     OW37270   2.553   2.316   9.827 -0.1346  0.3510 -0.3153
 8545SOL    HW137271   2.604   2.283   9.901 -1.5949  1.4251  1.1638
 8545SOL    HW237272   2.459   2.301   9.839 -0.0721 -0.6858 -1.1574
 8546SOL     OW37273   2.801   2.548   4.881  0.7029  0.4508 -0.0556
 8546SOL    HW137274   2.719   2.548   4.831  0.7504  1.6488 -0.1313
 8546SOL    HW237275   2.766   2.525   4.967 -0.6748  1.6416 -0.2900
 8547SOL     OW37276   0.335   2.382   6.492 -0.2590  0.2736  0.3605
 8547SOL    HW137277   0.281   2.311   6.525  1.8493 -1.1760  0.6624
 8547SOL    HW237278   0.270   2.420   6.433 -0.1463 -2.5646 -1.6050
 8548SOL     OW37279   1.901   3.000   0.142  0.2294  0.4899 -0.1909
 8548SOL    HW137280   1.964   2.982   0.211  1.5492  1.7202 -1.0509
 8548SOL    HW237281   1.941   2.988   0.055  0.7507 -0.9316  0.2542
 8549SOL     OW37282   0.119   2.814   3.028  0.0749  0.2520 -0.4493
 8549SOL    HW137283   0.164   2.781   2.950  0.9122 -1.4966  0.7664
 8549SOL    HW237284   0.041   2.857   2.993  0.1194 -0.4113 -1.3553
 8550SOL     OW37285   2.401   0.878  15.007 -0.6210  0.2221 -0.2232
 8550SOL    HW137286   2.378   0.931  14.932 -0.0277 -0.8338 -1.1629
 8550SOL    HW237287   2.430   0.794  14.970 -2.0592  0.0913 -1.0309
 8551SOL     OW37288   3.856   3.038   5.170 -0.0498 -0.0958 -0.0361
 8551SOL    HW137289   3.875   2.963   5.114  0.0734 -0.2229  0.1749
 8551SOL    HW237290   3.939   3.050   5.217 -0.4479 -2.1077  1.1764
 8552SOL     OW37291   0.823   1.082   1.110  0.7162 -0.5179  0.2115
 8552SOL    HW137292   0.755   1.073   1.177  0.8784  0.7796  0.5491
 8552SOL    HW237293   0.769   1.088   1.032 -0.3463  0.5318  1.0344
 8553SOL     OW37294   2.439   3.134   3.869 -0.6562  0.0047 -0.3200
 8553SOL    HW137295   2.403   3.087   3.943  0.6493 -1.1915 -0.4405
 8553SOL    HW237296   2.490   3.065   3.826 -1.1729 -0.5133 -0.0951
 8554SOL     OW37297   2.097   3.737   2.379  0.2917  0.3657  0.3237
 8554SOL    HW137298   2.182   3.711   2.415  0.8027  0.5599 -0.7579
 8554SOL    HW237299   2.124   3.823   2.350 -0.8973  1.1768  1.5774
 8555SOL     OW37300   0.097   1.588   8.485  0.2289  0.1772 -0.0311
 8555SOL    HW137301   0.172   1.557   8.435  1.9150 -0.0637  2.6087
 8555SOL    HW237302   0.071   1.664   8.434 -0.9440 -0.2414 -0.0662
 8556SOL     OW37303   1.552   2.761  10.684 -0.4164 -0.4659  0.2227
 8556SOL    HW137304   1.603   2.839  10.706  1.4467 -0.5461 -3.7435
 8556SOL    HW237305   1.528   2.723  10.768 -1.3548  0.1160  0.2192
 8557SOL     OW37306   2.073   2.226   8.664  0.0834  0.0124  0.1397
 8557SOL    HW137307   2.082   2.314   8.700  3.2050 -1.1818  2.3215
 8557SOL    HW237308   1.987   2.221   8.622 -0.3164 -0.8003  1.0731
 8558SOL     OW37309   2.982   3.515   5.904  0.5250 -0.1809  0.4471
 8558SOL    HW137310   2.965   3.595   5.855  1.1481 -0.7469 -0.6745
 8558SOL    HW237311   3.066   3.490   5.866 -0.3178 -3.3362  0.6417
 8559SOL     OW37312   3.349   1.230   4.371  0.6406 -0.3649 -0.3866
 8559SOL    HW137313   3.333   1.324   4.381  1.7307 -0.5110  2.9946
 8559SOL    HW237314   3.354   1.218   4.277 -0.6207  3.1687 -0.8882
 8560SOL     OW37315   0.955   4.392   7.827  0.4696 -0.1513  0.4281
 8560SOL    HW137316   0.960   4.400   7.732  1.0563  0.4812  0.5120
 8560SOL    HW237317   0.977   4.478   7.861 -0.9370 -1.3304  4.3662
 8561SOL     OW37318   3.200   3.128   5.652  0.7463  0.7221  0.3555
 8561SOL    HW137319   3.181   3.037   5.627  1.9075  0.7391 -0.5725
 8561SOL    HW237320   3.120   3.161   5.693  1.1719  2.7744 -0.4910
 8562SOL     OW37321   2.039   1.469   5.341 -0.4230 -0.3943 -0.8076
 8562SOL    HW137322   2.131   1.489   5.359 -1.2299  2.9815 -0.4627
 8562SOL    HW237323   1.994   1.545   5.378 -0.8434 -1.4550  0.8318
 8563SOL     OW37324   3.845   4.047  17.566  0.2514 -0.1714 -0.2092
 8563SOL    HW137325   3.938   4.060  17.585 -0.2092  3.1559 -0.2206
 8563SOL    HW237326   3.805   4.134  17.569  1.4652  0.4494 -2.3914
 8564SOL     OW37327   4.625   4.723   7.400  0.2930  0.1894 -0.1462
 8564SOL    HW137328   4.549   4.695   7.349 -1.3116 -1.1435  2.9938
 8564SOL    HW237329   4.584   0.009   7.483  0.2959  0.9221 -0.3398
 8565SOL     OW37330   0.861   0.903   4.243 -0.1285  0.2569  0.2979
 8565SOL    HW137331   0.804   0.958   4.297 -0.1233 -0.1545  0.7259
 8565SOL    HW237332   0.829   0.816   4.264  0.7903  0.3580  2.1196
 8566SOL     OW37333   4.636   0.266  16.192 -0.4228  0.8340 -0.0112
 8566SOL    HW137334   4.609   0.309  16.111 -1.9615  1.2372  0.7093
 8566SOL    HW237335   4.552   0.238  16.228 -0.3233 -0.0447 -0.4689
 8567SOL     OW37336   2.992   4.341   4.156  0.3504 -0.2349  0.1086
 8567SOL    HW137337   3.029   4.400   4.090 -0.6653  1.3469  0.9564
 8567SOL    HW237338   3.068   4.291   4.187  1.5528  1.7255  0.3105
 8568SOL     OW37339   2.976   0.338   5.253 -0.0532 -0.2805  0.6777
 8568SOL    HW137340   2.888   0.336   5.216  0.4787  2.0777 -0.6688
 8568SOL    HW237341   2.994   0.430   5.235 -1.8616 -0.1719 -0.5570
 8569SOL     OW37342   3.038   3.002   1.578  0.7088  0.0612  0.3448
 8569SOL    HW137343   3.006   3.017   1.489 -1.3612  0.9205  1.2353
 8569SOL    HW237344   2.957   2.962   1.609 -0.4470 -0.8893 -3.8324
 8570SOL     OW37345   4.541   1.762   3.447 -0.1367  0.0887  0.4612
 8570SOL    HW137346   4.486   1.697   3.492  0.2068  0.0965  0.8908
 8570SOL    HW237347   4.555   1.826   3.517  2.5130 -1.5643  1.4469
 8571SOL     OW37348   0.950   1.747   3.639  0.2720 -0.2039  0.4725
 8571SOL    HW137349   0.930   1.711   3.725  1.5136  0.1561  0.8943
 8571SOL    HW237350   0.997   1.676   3.597 -0.8110  1.1320 -3.0651
 8572SOL     OW37351   1.712   3.530   5.609 -0.2799 -0.1207  0.2523
 8572SOL    HW137352   1.795   3.509   5.652 -0.9559  0.6028  1.8620
 8572SOL    HW237353   1.732   3.520   5.515 -1.7269  2.8185 -0.3695
 8573SOL     OW37354   4.653   1.106   4.330  0.4241  0.6981  0.4824
 8573SOL    HW137355   4.713   1.074   4.398  0.2459  0.8440  0.7102
 8573SOL    HW237356   4.654   1.040   4.261 -0.2249  0.7062  0.4658
 8574SOL     OW37357   1.990   4.102   3.754 -0.0526 -0.3117 -0.1395
 8574SOL    HW137358   1.982   4.182   3.807  0.8895 -1.7511  2.1667
 8574SOL    HW237359   2.050   4.131   3.685 -0.5448  0.0090 -0.4380
 8575SOL     OW37360   2.141   4.558  12.808 -0.4851  0.0306 -0.0507
 8575SOL    HW137361   2.147   4.532  12.899  1.5673  2.3866  0.4901
 8575SOL    HW237362   2.232   4.587  12.795 -0.1616 -0.0703  2.1201
 8576SOL     OW37363   1.281   3.142   1.668 -0.2006 -0.2201  0.0590
 8576SOL    HW137364   1.238   3.191   1.598 -1.7282 -1.1404  0.3460
 8576SOL    HW237365   1.370   3.175   1.678 -0.6074  0.4739  1.4063
 8577SOL     OW37366   4.678   4.496   9.131  0.0199  0.4177 -0.1078
 8577SOL    HW137367   0.015   4.526   9.077  0.3976 -0.8230 -0.2782
 8577SOL    HW237368   4.606   4.472   9.073  0.3586  2.2392 -1.2954
 8578SOL     OW37369   3.225   0.921   4.219 -0.3029 -0.2050 -0.3536
 8578SOL    HW137370   3.281   0.994   4.192  0.8302 -0.1964  2.0624
 8578SOL    HW237371   3.248   0.855   4.154 -0.7527 -0.9976  0.2860
 8579SOL     OW37372   0.064   3.056  16.689  0.4743 -0.1604  0.1910
 8579SOL    HW137373   0.004   2.995  16.732 -0.3261  0.2933 -0.2829
 8579SOL    HW237374   0.029   3.141  16.715  2.9255  1.1647 -0.7964
 8580SOL     OW37375   2.922   4.546   8.983 -0.2231  0.4291  0.0532
 8580SOL    HW137376   2.903   4.638   8.964  2.6435  0.7373 -1.2530
 8580SOL    HW237377   2.914   4.549   9.078  0.2305  4.5194 -0.0522
 8581SOL     OW37378   3.822   3.556   6.677  0.0348  0.0174 -0.4135
 8581SOL    HW137379   3.823   3.527   6.768 -2.7353 -1.4087 -0.8425
 8581SOL    HW237380   3.729   3.549   6.656 -0.4169  0.1927  1.5822
 8582SOL     OW37381   3.655   3.434   7.290 -0.3944  0.3552 -0.0757
 8582SOL    HW137382   3.596   3.455   7.362  0.2970 -3.0488  1.5088
 8582SOL    HW237383   3.591   3.394   7.231  0.5534 -2.0348  0.4994
 8583SOL     OW37384   3.630   0.561   4.471 -0.0494  0.3137 -0.1682
 8583SOL    HW137385   3.611   0.526   4.558  1.4090 -1.3073 -0.5037
 8583SOL    HW237386   3.551   0.615   4.460 -0.9634 -0.9389  0.2642
 8584SOL     OW37387   0.212   1.651   9.034  0.1577  0.3659 -0.0269
 8584SOL    HW137388   0.273   1.724   9.016  2.0142 -1.2840 -0.4698
 8584SOL    HW237389   0.168   1.688   9.110  1.0082  2.5069 -0.5687
 8585SOL     OW37390   4.636   0.874  13.376  0.4469 -0.1728  0.5261
 8585SOL    HW137391   4.557   0.845  13.422  1.1164  1.0674  2.4257
 8585SOL    HW237392   4.597   0.884  13.289 -0.2073 -1.7229  0.6405
 8586SOL     OW37393   1.683   1.252  12.689  0.5032  0.0733  0.4822
 8586SOL    HW137394   1.591   1.227  12.703  1.1849 -2.3738  0.5151
 8586SOL    HW237395   1.676   1.319  12.621  2.0063 -0.7419 -0.4635
 8587SOL     OW37396   2.862   4.344   1.307 -0.1660  0.5164 -0.1879
 8587SOL    HW137397   2.837   4.431   1.275 -4.7001 -0.6141  0.2056
 8587SOL    HW237398   2.956   4.340   1.291 -0.3083  0.9958 -1.1865
 8588SOL     OW37399   1.530   1.601   1.897 -0.3811 -0.1584 -0.2752
 8588SOL    HW137400   1.620   1.615   1.870  0.5314 -3.3133  1.0475
 8588SOL    HW237401   1.538   1.597   1.993  0.7999  1.0153 -0.3427
 8589SOL     OW37402   0.714   1.114   7.975  0.0127 -0.1336 -0.1565
 8589SOL    HW137403   0.744   1.042   7.921  0.2723 -0.3331  0.2534
 8589SOL    HW237404   0.747   1.075   8.056  1.1477  0.4461 -0.3432
 8590SOL     OW37405   1.135   4.445   2.208 -0.3646 -0.1678 -0.1933
 8590SOL    HW137406   1.183   4.484   2.135 -0.7372  1.0104  0.1792
 8590SOL    HW237407   1.200   4.453   2.277 -1.3313 -2.4871  0.9756
 8591SOL     OW37408   3.862   0.603   0.887 -0.1028  0.0904 -0.4411
 8591SOL    HW137409   3.882   0.690   0.921  1.1462  0.1684 -1.3583
 8591SOL    HW237410   3.944   0.555   0.899  0.5143  1.3904  0.5666
 8592SOL     OW37411   3.000   3.207  12.292  0.0590  0.2434 -0.1852
 8592SOL    HW137412   3.012   3.275  12.226 -0.2898  1.0630  0.6026
 8592SOL    HW237413   3.086   3.204  12.333 -0.3878  1.1214  0.8477
 8593SOL     OW37414   1.456   3.399   5.062 -0.2516 -0.1161 -0.2427
 8593SOL    HW137415   1.457   3.366   5.152 -0.2515  0.8179  0.0993
 8593SOL    HW237416   1.488   3.324   5.013  1.4251 -0.5013  1.4704
 8594SOL     OW37417   0.689   3.125   7.807 -0.0511 -0.5514  0.0249
 8594SOL    HW137418   0.647   3.122   7.721 -0.7919  2.0986  0.2819
 8594SOL    HW237419   0.607   3.125   7.856 -0.2284 -3.1323 -0.3073
 8595SOL     OW37420   2.061   1.407   2.334  0.0230  0.6466 -0.1163
 8595SOL    HW137421   1.974   1.437   2.305 -0.6315 -0.7220  0.4563
 8595SOL    HW237422   2.066   1.315   2.308 -3.1145  0.8186 -1.3595
 8596SOL     OW37423   2.044   2.487   8.829  0.3555 -0.6245  0.0932
 8596SOL    HW137424   2.126   2.519   8.792  0.2100 -1.3794 -0.8828
 8596SOL    HW237425   2.072   2.497   8.920 -3.7609 -0.7359  1.3802
 8597SOL     OW37426   3.056   4.636   8.472  0.0768  0.2928 -0.4777
 8597SOL    HW137427   3.066   4.548   8.510 -1.7575  0.3833  0.2226
 8597SOL    HW237428   3.050   4.676   8.559 -3.0874  0.3720 -0.7252
 8598SOL     OW37429   4.555   2.366   8.539  0.1875 -0.0685  0.1223
 8598SOL    HW137430   4.584   2.457   8.545 -2.6517  0.6216  3.3672
 8598SOL    HW237431   4.485   2.367   8.473  1.1284  0.9883 -0.8534
 8599SOL     OW37432   2.166   4.730   8.665 -0.2180 -0.6563  0.1121
 8599SOL    HW137433   2.198   4.680   8.740  0.3360 -1.0885 -0.4119
 8599SOL    HW237434   2.217   0.073   8.679  1.1878 -1.8867  1.9944
 8600SOL     OW37435   1.917   0.721   9.904 -0.0446  0.2232 -0.2979
 8600SOL    HW137436   1.922   0.640   9.852  0.8330  0.0261  0.0761
 8600SOL    HW237437   1.848   0.762   9.853 -1.2062 -1.4239 -0.0491
 8601SOL     OW37438   2.676   4.366  10.304 -0.3668  0.1897 -0.2356
 8601SOL    HW137439   2.646   4.308  10.374 -1.5017  1.8031  0.6173
 8601SOL    HW237440   2.688   4.451  10.347  0.9825 -0.9804  1.6876
 8602SOL     OW37441   0.293   4.125   0.719  0.1400  0.1683 -0.2956
 8602SOL    HW137442   0.379   4.145   0.756 -0.7451  1.3997  1.0865
 8602SOL    HW237443   0.237   4.199   0.744  2.2955  1.7627 -0.2518
 8603SOL     OW37444   0.736   4.160   1.602 -0.2507 -0.1737 -0.1813
 8603SOL    HW137445   0.759   4.173   1.510  2.0129 -0.7704  0.3020
 8603SOL    HW237446   0.823   4.148   1.640  0.8082  0.6094 -2.3626
 8604SOL     OW37447   1.524   1.988   2.233 -0.2963  0.1565  0.1133
 8604SOL    HW137448   1.449   1.985   2.174 -0.7069 -0.0092  0.6351
 8604SOL    HW237449   1.489   1.958   2.317 -0.0046 -2.0070 -0.5470
 8605SOL     OW37450   4.367   1.879  11.579  0.0587 -0.2021  0.3488
 8605SOL    HW137451   4.338   1.808  11.636 -0.8085  0.4445  0.7333
 8605SOL    HW237452   4.338   1.958  11.625  1.6968  0.6865 -0.1555
 8606SOL     OW37453   0.330   3.244   1.235 -0.0576 -0.2149 -0.4067
 8606SOL    HW137454   0.341   3.153   1.264  3.4612  0.0233 -0.9562
 8606SOL    HW237455   0.417   3.281   1.253 -0.5439  1.4685 -1.5316
 8607SOL     OW37456   2.018   4.379   0.357  0.6339  0.1155 -0.2583
 8607SOL    HW137457   1.922   4.384   0.355  0.5370 -1.6128  0.2798
 8607SOL    HW237458   2.050   4.468   0.346  0.3573  0.2525  0.0512
 8608SOL     OW37459   2.927   3.862   6.700  0.8113  0.4733  0.5328
 8608SOL    HW137460   2.962   3.933   6.645 -0.3073 -0.8983 -1.9459
 8608SOL    HW237461   2.881   3.816   6.629  0.9313 -0.1136  0.8365
 8609SOL     OW37462   2.901   1.907   6.353 -0.5287 -0.2725 -0.4747
 8609SOL    HW137463   2.886   1.868   6.439 -2.6036 -1.6393 -1.4577
 8609SOL    HW237464   2.889   2.002   6.356 -0.6746 -0.3503  1.3381
 8610SOL     OW37465   2.803   1.035   1.889  0.4325 -0.2569  0.1013
 8610SOL    HW137466   2.808   1.129   1.906  0.5874  0.0098 -1.4189
 8610SOL    HW237467   2.789   1.006   1.979 -0.8475 -0.1674 -0.0687
 8611SOL     OW37468   2.674   1.391   7.210 -0.4076  0.6368  0.1071
 8611SOL    HW137469   2.656   1.482   7.186 -0.1439  0.9924  1.2537
 8611SOL    HW237470   2.591   1.347   7.188  0.3456 -0.0999 -1.2375
 8612SOL     OW37471   0.452   2.607   6.197 -0.2957 -0.7576  0.0408
 8612SOL    HW137472   0.457   2.621   6.292 -0.5452 -1.6335  0.1815
 8612SOL    HW237473   0.478   2.696   6.174 -0.0935 -1.0509 -0.8331
 8613SOL     OW37474   4.516   4.287   5.373  0.3046  0.3074 -0.2127
 8613SOL    HW137475   4.506   4.345   5.297 -0.0134  1.6144  0.8342
 8613SOL    HW237476   4.433   4.240   5.370 -0.6034  1.7277  3.2989
 8614SOL     OW37477   0.310   4.072   5.349 -0.0865  0.4186 -0.7619
 8614SOL    HW137478   0.228   4.026   5.332 -0.0542  0.3051 -0.6006
 8614SOL    HW237479   0.279   4.163   5.352  3.5968  1.6619  0.3783
 8615SOL     OW37480   4.167   0.698   6.846 -0.4926  0.4004  0.2797
 8615SOL    HW137481   4.130   0.786   6.837 -1.5306  0.0381  1.0084
 8615SOL    HW237482   4.107   0.665   6.913 -0.9611  2.4748  0.8885
 8616SOL     OW37483   1.253   1.248   6.543  0.1714 -0.7174 -0.1940
 8616SOL    HW137484   1.184   1.241   6.477 -1.4814  0.7030  1.3478
 8616SOL    HW237485   1.203   1.289   6.614  1.7689  0.7217  0.1075
 8617SOL     OW37486   2.707   4.707   3.322 -0.2606 -0.2948 -0.2718
 8617SOL    HW137487   2.659   4.675   3.246  1.1930 -0.8099 -0.9575
 8617SOL    HW237488   2.743   0.050   3.284 -0.5617  0.0468  0.1539
 8618SOL     OW37489   4.627   2.611   3.573  0.0472  0.3514 -0.0206
 8618SOL    HW137490   4.623   2.551   3.647 -0.9071  0.6497  0.1594
 8618SOL    HW237491   4.721   2.630   3.576  0.0244  0.5247 -0.4043
 8619SOL     OW37492   3.556   2.692   6.718  0.0264 -0.6436  0.2479
 8619SOL    HW137493   3.467   2.717   6.743  0.3013  1.4117 -0.8121
 8619SOL    HW237494   3.531   2.612   6.671 -1.0514 -0.7014  0.9229
 8620SOL     OW37495   4.127   4.656   4.882 -0.0526 -0.1628 -0.4588
 8620SOL    HW137496   4.118   4.584   4.945  1.0717  1.0561  1.0767
 8620SOL    HW237497   4.068   4.621   4.815 -2.4699  0.7644  1.2344
 8621SOL     OW37498   0.098   4.217   7.246 -0.4826 -0.3138 -0.0452
 8621SOL    HW137499   0.032   4.230   7.178 -1.6517  0.7623  1.2831
 8621SOL    HW237500   0.108   4.123   7.257  0.6597 -0.2406 -0.4345
 8622SOL     OW37501   0.530   2.746   4.930 -0.3508  0.6821  0.3980
 8622SOL    HW137502   0.567   2.659   4.911 -0.1160  1.0336 -0.7211
 8622SOL    HW237503   0.595   2.775   4.995  0.5211  0.6837 -0.4725
 8623SOL     OW37504   4.102   0.772   6.280  0.3085  0.5338  0.4776
 8623SOL    HW137505   4.062   0.853   6.247 -0.9307 -0.6499 -0.9447
 8623SOL    HW237506   4.087   0.721   6.200 -0.2580  0.9740  0.3029
 8624SOL     OW37507   1.223   0.674   9.935 -0.2130  0.2133  0.2256
 8624SOL    HW137508   1.288   0.628   9.881  0.1278 -0.7160  1.4131
 8624SOL    HW237509   1.233   0.764   9.904 -0.0329  0.3032  0.5483
 8625SOL     OW37510   3.663   2.070   8.599  0.4608  0.8081  0.0057
 8625SOL    HW137511   3.661   1.975   8.607  1.5280  0.8417  0.6615
 8625SOL    HW237512   3.655   2.075   8.504  0.0487 -1.0033 -0.0433
 8626SOL     OW37513   2.076   3.864   5.327  0.0468  0.0132  0.2442
 8626SOL    HW137514   2.094   3.939   5.271 -0.1246  0.9674  1.4487
 8626SOL    HW237515   2.006   3.903   5.380  1.1639  0.0961  1.6534
 8627SOL     OW37516   2.757   0.456   8.618 -0.2549  0.5764  0.2478
 8627SOL    HW137517   2.721   0.381   8.570 -0.2699  1.6731 -1.4356
 8627SOL    HW237518   2.836   0.416   8.656  0.1554  0.5435 -0.6337
 8628SOL     OW37519   0.485   3.142   2.986  0.4063 -0.3559 -0.1064
 8628SOL    HW137520   0.462   3.171   3.074  2.5332 -0.4007  0.4575
 8628SOL    HW237521   0.575   3.173   2.976  0.8151 -0.9952  1.5073
 8629SOL     OW37522   1.937   2.780   5.859 -0.5412  0.1188 -0.3560
 8629SOL    HW137523   2.015   2.762   5.806  0.7585  2.8298  0.6173
 8629SOL    HW237524   1.967   2.843   5.924 -3.0332 -0.0992  1.0013
 8630SOL     OW37525   3.052   0.405   6.873 -0.0785  0.0712  0.1351
 8630SOL    HW137526   3.102   0.483   6.847 -1.2342  1.0352  0.8660
 8630SOL    HW237527   2.970   0.436   6.835  0.5851 -1.0702 -2.2794
 8631SOL     OW37528   4.693   0.498   7.432  0.3817 -0.0657  0.1841
 8631SOL    HW137529   4.647   0.492   7.515  0.2905 -2.2392 -0.0317
 8631SOL    HW237530   0.045   0.483   7.466  0.7225 -1.1285 -1.1789
 8632SOL     OW37531   1.130   0.022   2.525 -0.4533  0.5559  0.5944
 8632SOL    HW137532   1.160   0.081   2.456 -0.5305  0.0095  0.0959
 8632SOL    HW237533   1.041   0.056   2.532 -0.3853  1.0458 -1.0223
 8633SOL     OW37534   1.726   2.226  13.865 -0.0063  0.1219 -0.2147
 8633SOL    HW137535   1.660   2.269  13.920 -2.0933 -1.1146 -1.7333
 8633SOL    HW237536   1.805   2.267  13.900 -0.4183  0.0075  0.8248
 8634SOL     OW37537   3.340   1.541   7.771 -0.1828 -0.1133 -0.4775
 8634SOL    HW137538   3.322   1.509   7.683 -0.7673  0.1581 -0.4519
 8634SOL    HW237539   3.332   1.636   7.765  2.5055  0.1911  0.7796
 8635SOL     OW37540   2.657   2.435   6.093  1.1716 -0.1694 -0.1578
 8635SOL    HW137541   2.752   2.422   6.099  0.7585 -3.5973 -0.9420
 8635SOL    HW237542   2.633   2.365   6.032  0.9534  0.3610 -0.6832
 8636SOL     OW37543   3.963   3.961   1.626  0.0432 -0.1341 -0.1635
 8636SOL    HW137544   3.893   3.922   1.574  0.0649  1.8647 -1.6796
 8636SOL    HW237545   4.027   3.890   1.640  1.2508  0.9717 -0.1076
 8637SOL     OW37546   1.048   2.967   7.137  0.1300  0.1038  0.2414
 8637SOL    HW137547   1.103   2.971   7.215  2.9950 -0.7817 -1.7128
 8637SOL    HW237548   1.120   2.966   7.074  0.0606 -0.2985  0.1707
 8638SOL     OW37549   2.919   2.975   3.328  0.1403 -1.2828 -0.2422
 8638SOL    HW137550   2.869   3.044   3.373 -0.2092 -1.4341 -0.3980
 8638SOL    HW237551   3.010   3.000   3.346 -0.5172  1.5058 -0.6860
 8639SOL     OW37552   2.214   2.078   7.065 -0.1016 -0.1237 -0.0336
 8639SOL    HW137553   2.146   2.140   7.041 -2.3297 -1.7993  2.0138
 8639SOL    HW237554   2.237   2.099   7.156  0.3236 -1.4606  0.1714
 8640SOL     OW37555   0.636   4.680  14.175  0.5857  0.1494 -0.5290
 8640SOL    HW137556   0.691   4.670  14.253 -0.7578  0.5804  0.4759
 8640SOL    HW237557   0.685   4.628  14.111  2.3177  1.4275 -0.2435
 8641SOL     OW37558   2.633   2.364   7.672 -0.2612 -0.1602 -0.0384
 8641SOL    HW137559   2.566   2.379   7.606 -1.4264 -0.0128  1.1849
 8641SOL    HW237560   2.626   2.450   7.714 -0.2834  0.0692 -0.5212
 8642SOL     OW37561   1.484   1.163   5.290 -0.1491 -0.0660  0.0487
 8642SOL    HW137562   1.540   1.216   5.346 -1.0796  1.1469 -0.1638
 8642SOL    HW237563   1.520   1.077   5.309 -1.4829 -0.4764  0.7452
 8643SOL     OW37564   2.255   1.408   1.007 -0.0790  0.2882 -0.4123
 8643SOL    HW137565   2.166   1.442   0.991 -0.5821 -0.5363  0.6733
 8643SOL    HW237566   2.302   1.470   0.951 -2.4889  0.2532 -2.5342
 8644SOL     OW37567   0.121   3.975   4.220  0.2963  0.2562 -0.4805
 8644SOL    HW137568   0.179   3.975   4.144 -3.2116 -0.2611 -3.1392
 8644SOL    HW237569   0.187   3.962   4.288  0.6458  2.5575 -0.3668
 8645SOL     OW37570   1.561   3.842   4.450 -0.2727 -0.4422  0.0561
 8645SOL    HW137571   1.620   3.882   4.386  0.7338  1.0147  1.8910
 8645SOL    HW237572   1.620   3.850   4.525 -0.9135 -1.3463  0.6547
 8646SOL     OW37573   2.368   1.147  12.349  0.1517  0.1685  0.3808
 8646SOL    HW137574   2.275   1.163  12.362  0.1855  1.6659 -1.3246
 8646SOL    HW237575   2.396   1.200  12.423  0.2365  1.9170 -0.9004
 8647SOL     OW37576   1.585   2.338  14.509  0.2563 -0.0728 -0.3307
 8647SOL    HW137577   1.609   2.415  14.560 -0.0768  0.0543 -0.3664
 8647SOL    HW237578   1.625   2.374  14.430 -0.4016  3.0098  0.7392
 8648SOL     OW37579   3.183   4.238   3.027  0.0097 -0.3844  0.3088
 8648SOL    HW137580   3.205   4.269   2.939  2.0082 -0.6857  0.7222
 8648SOL    HW237581   3.243   4.297   3.071 -1.3637 -0.1482  1.8777
 8649SOL     OW37582   0.749   0.724   2.536 -0.0020 -0.1838  0.0150
 8649SOL    HW137583   0.826   0.738   2.590  0.5843  1.2445 -1.1802
 8649SOL    HW237584   0.676   0.754   2.590 -0.1242  1.6360 -1.1732
 8650SOL     OW37585   0.844   4.736   2.634  0.2909  0.0514 -0.1564
 8650SOL    HW137586   0.751   4.718   2.632  0.2005  0.3958  1.4576
 8650SOL    HW237587   0.846   0.076   2.576  2.6812  1.4155  1.7111
 8651SOL     OW37588   1.941   2.223   9.789 -0.0528 -0.0353 -0.0987
 8651SOL    HW137589   1.864   2.173   9.817 -1.0243  0.5021 -1.8276
 8651SOL    HW237590   1.909   2.308   9.820 -1.6501 -0.3826 -0.7526
 8652SOL     OW37591   3.999   3.426   8.402  0.3955 -0.1923 -0.4451
 8652SOL    HW137592   4.081   3.455   8.363  0.6541 -1.7018 -1.0245
 8652SOL    HW237593   3.975   3.356   8.341  1.0639  2.7873 -4.1137
 8653SOL     OW37594   2.366   3.922  16.633 -0.0053 -0.2046  0.1009
 8653SOL    HW137595   2.379   4.009  16.595 -0.9712 -0.7173 -1.4093
 8653SOL    HW237596   2.286   3.893  16.589 -0.0376 -1.0846  0.7344
 8654SOL     OW37597   4.221   1.719   8.905 -0.0087  0.1810  0.3463
 8654SOL    HW137598   4.261   1.679   8.828 -1.0999 -1.1870  0.4848
 8654SOL    HW237599   4.230   1.813   8.890  0.9496  0.0671  0.1775
 8655SOL     OW37600   1.886   0.557  11.796 -0.5543  0.5051 -0.0097
 8655SOL    HW137601   1.951   0.626  11.782 -0.7496  0.8066  0.5493
 8655SOL    HW237602   1.832   0.592  11.867  1.6939  2.0147  0.9598
 8656SOL     OW37603   3.067   4.427   6.895  0.1470 -0.1301  0.6019
 8656SOL    HW137604   3.102   4.515   6.906  1.4900 -0.2103 -2.7034
 8656SOL    HW237605   3.061   4.412   6.800 -1.0559 -0.6524  0.7730
 8657SOL     OW37606   2.012   0.257   4.744 -0.3321  0.1949 -0.7689
 8657SOL    HW137607   2.045   0.167   4.752  0.4538  0.4390 -1.2540
 8657SOL    HW237608   2.051   0.297   4.822 -0.9644 -0.8632  0.0848
 8658SOL     OW37609   0.264   0.050   2.264 -0.2388  0.2555  0.7050
 8658SOL    HW137610   0.278   0.142   2.288  0.1173  0.6212 -0.9318
 8658SOL    HW237611   0.308   0.045   2.179  0.0539 -1.6251  0.9700
 8659SOL     OW37612   1.292   1.124  14.283  0.0482  0.2671 -0.0654
 8659SOL    HW137613   1.290   1.035  14.320 -3.9372 -0.3872 -1.8550
 8659SOL    HW237614   1.257   1.111  14.195  0.6836 -0.3059 -0.2380
 8660SOL     OW37615   0.018   0.569  14.455  0.2209 -0.2120  0.4046
 8660SOL    HW137616   0.047   0.644  14.506  0.2041 -0.9608  1.5060
 8660SOL    HW237617   0.056   0.601  14.373 -0.9491  2.2929  0.8360
 8661SOL     OW37618   0.427   3.079   7.902  0.6883 -0.9035  0.2270
 8661SOL    HW137619   0.402   3.151   7.960  1.3029 -2.3599  2.2844
 8661SOL    HW237620   0.351   3.021   7.903  0.6165 -0.7999  1.0452
 8662SOL     OW37621   0.920   2.702   4.077  0.2677  0.3859  0.2053
 8662SOL    HW137622   0.845   2.726   4.023  1.7411  1.7415 -1.2186
 8662SOL    HW237623   0.901   2.740   4.163 -0.0477 -0.4548  0.5055
 8663SOL     OW37624   0.257   1.913   5.498 -0.5093 -0.2059 -0.2078
 8663SOL    HW137625   0.307   1.894   5.418  0.1558 -1.0720  0.4118
 8663SOL    HW237626   0.179   1.962   5.472  0.3504  0.8244 -0.8807
 8664SOL     OW37627   0.231   2.775   4.142 -0.2014 -0.2365  0.0133
 8664SOL    HW137628   0.311   2.724   4.138 -0.7336 -0.9466 -1.3245
 8664SOL    HW237629   0.236   2.834   4.068 -0.4810  0.9119  0.9058
 8665SOL     OW37630   1.183   1.558  12.542  0.5082 -0.5119 -0.5857
 8665SOL    HW137631   1.120   1.559  12.470  0.0229 -2.0517 -0.1850
 8665SOL    HW237632   1.205   1.465  12.539 -0.6772 -0.7358 -1.9933
 8666SOL     OW37633   0.354   0.448   4.403 -0.0242 -0.0452  0.1646
 8666SOL    HW137634   0.393   0.444   4.490  2.7445 -0.9857 -1.1261
 8666SOL    HW237635   0.350   0.544   4.397  2.4171 -0.0335 -1.2900
 8667SOL     OW37636   0.693   1.999  10.252 -0.2909 -0.4156 -0.2691
 8667SOL    HW137637   0.629   2.010  10.322  0.0350  0.6775 -0.1514
 8667SOL    HW237638   0.751   2.068  10.282 -0.7581 -0.3021  0.3837
 8668SOL     OW37639   2.467   3.350   2.214  0.1182 -0.2613 -0.4064
 8668SOL    HW137640   2.486   3.327   2.123  2.0122  0.1729 -0.1253
 8668SOL    HW237641   2.548   3.399   2.228 -0.5776  0.8757 -0.4050
 8669SOL     OW37642   2.355   0.314   6.991 -0.0499 -0.0645  0.2085
 8669SOL    HW137643   2.391   0.231   6.960  1.9949  0.9836 -0.2184
 8669SOL    HW237644   2.436   0.362   6.973 -0.7716  0.4643 -1.6072
 8670SOL     OW37645   0.044   1.398  12.541  0.0788 -0.3517  0.0410
 8670SOL    HW137646   0.136   1.375  12.554 -0.1400 -0.1071  1.9671
 8670SOL    HW237647   0.059   1.492  12.553 -2.4941  0.2375 -1.4042
 8671SOL     OW37648   2.525   1.690   1.433 -0.5857  0.3887 -0.1575
 8671SOL    HW137649   2.517   1.785   1.445 -1.7355  0.2307  0.3578
 8671SOL    HW237650   2.445   1.669   1.384  1.0338  0.8601 -2.9662
 8672SOL     OW37651   2.356   2.185   9.116  0.3059 -0.4501  0.0330
 8672SOL    HW137652   2.290   2.121   9.092  1.4439 -2.0090  1.0486
 8672SOL    HW237653   2.307   2.259   9.152  1.5423  1.2546 -1.7995
 8673SOL     OW37654   2.875   0.521   3.684  0.3541  0.4128 -0.2381
 8673SOL    HW137655   2.954   0.529   3.737 -0.4873  1.1524  0.8896
 8673SOL    HW237656   2.859   0.610   3.650  1.9383  0.1277 -1.7727
 8674SOL     OW37657   2.582   2.231   8.577  0.0628  0.1090  0.3092
 8674SOL    HW137658   2.543   2.316   8.553 -0.0338  0.3278  1.2415
 8674SOL    HW237659   2.505   2.175   8.584 -0.5684  1.0692  1.1902
 8675SOL     OW37660   0.082   2.017   9.122  0.0234 -0.2526  0.1336
 8675SOL    HW137661   0.168   2.001   9.081  0.2509 -0.3646  0.6507
 8675SOL    HW237662   0.038   2.070   9.055  0.6381 -2.9978 -2.4776
 8676SOL     OW37663   1.380   0.965   1.261 -0.1014 -0.0277  0.5705
 8676SOL    HW137664   1.395   0.882   1.216  0.0649 -0.6167  1.7111
 8676SOL    HW237665   1.385   1.032   1.193 -1.3199 -1.3154 -0.7789
 8677SOL     OW37666   1.704   3.263  12.503 -0.1557  0.1734 -0.0453
 8677SOL    HW137667   1.687   3.356  12.491  1.9731  0.4789 -0.6555
 8677SOL    HW237668   1.649   3.245  12.579  0.4222  2.5648  0.9291
 8678SOL     OW37669   2.305   1.381   5.460 -0.5213 -0.3768  0.1704
 8678SOL    HW137670   2.303   1.384   5.556 -0.8998  1.7109  0.0947
 8678SOL    HW237671   2.344   1.467   5.449 -1.7099  0.0335 -0.8679
 8679SOL     OW37672   1.290   1.225   8.744  0.0259  0.2389 -0.3733
 8679SOL    HW137673   1.261   1.302   8.696 -2.3379  1.2864  2.7346
 8679SOL    HW237674   1.333   1.271   8.817  0.8049  1.1540 -1.4225
 8680SOL     OW37675   2.224   0.852   5.452  0.2169 -0.7139  0.0152
 8680SOL    HW137676   2.261   0.823   5.368 -0.3882  0.8511 -0.8023
 8680SOL    HW237677   2.288   0.922   5.469 -2.0258  1.4682 -0.4983
 8681SOL     OW37678   2.389   3.643   2.065 -0.3130 -0.4401  0.2143
 8681SOL    HW137679   2.354   3.718   2.016  0.0180 -1.5811 -1.7664
 8681SOL    HW237680   2.475   3.641   2.022  0.1341 -2.6057  1.2282
 8682SOL     OW37681   3.842   4.381   1.216 -0.3040 -0.4121 -0.1172
 8682SOL    HW137682   3.762   4.410   1.261  0.0992  0.1783  0.2172
 8682SOL    HW237683   3.837   4.290   1.245  1.4165 -0.3753  0.2948
 8683SOL     OW37684   3.644   0.754  12.635 -0.6096  0.4058  0.7032
 8683SOL    HW137685   3.674   0.835  12.676 -0.2377 -0.6974  2.6036
 8683SOL    HW237686   3.592   0.715  12.705 -2.3738 -1.2515 -1.5299
 8684SOL     OW37687   1.281   2.712   9.078  0.0388 -0.7307 -0.6777
 8684SOL    HW137688   1.239   2.798   9.086  0.3119 -0.8116  1.7736
 8684SOL    HW237689   1.363   2.726   9.126 -0.0867  0.7041 -0.8754
 8685SOL     OW37690   1.237   1.338   0.891 -1.1831 -0.0872 -0.0681
 8685SOL    HW137691   1.145   1.313   0.887 -0.2871 -3.4346  0.5942
 8685SOL    HW237692   1.238   1.428   0.924 -0.5457  0.2070 -0.8897
 8686SOL     OW37693   3.503   1.074  15.402  0.3931 -0.7888 -0.1976
 8686SOL    HW137694   3.553   1.155  15.398 -2.8705  1.3251  2.5664
 8686SOL    HW237695   3.567   1.027  15.456  0.3666 -2.0505 -1.2619
 8687SOL     OW37696   2.925   1.036   5.009  0.4397 -0.3763  0.8208
 8687SOL    HW137697   2.857   1.013   5.073 -0.2266  3.3964  1.4885
 8687SOL    HW237698   2.950   1.124   5.036  0.3673 -0.4772  1.2264
 8688SOL     OW37699   3.128   2.742   4.519 -0.0360  0.3190 -0.1293
 8688SOL    HW137700   3.087   2.799   4.454 -0.9356 -0.2097 -0.0329
 8688SOL    HW237701   3.065   2.739   4.592  0.4825  1.1342  0.3498
 8689SOL     OW37702   2.128   2.675   4.731  0.2473 -0.4118  0.4491
 8689SOL    HW137703   2.163   2.701   4.816  1.6220  0.6914 -0.4617
 8689SOL    HW237704   2.180   2.598   4.706  0.2201 -0.5594  0.8416
 8690SOL     OW37705   1.754   1.623   5.901 -0.0823  0.2216 -0.1018
 8690SOL    HW137706   1.775   1.716   5.912 -0.2954  0.1732  0.7175
 8690SOL    HW237707   1.841   1.583   5.899 -0.1475  0.0733  0.0188
 8691SOL     OW37708   0.497   3.770   1.122  0.0559  0.4547 -0.5778
 8691SOL    HW137709   0.442   3.728   1.189  0.9422 -2.0559 -1.4252
 8691SOL    HW237710   0.488   3.695   1.063  2.7495  0.1721 -0.6442
 8692SOL     OW37711   0.199   3.672   5.176 -0.3568 -0.2130 -0.0486
 8692SOL    HW137712   0.256   3.601   5.206  0.2804  0.1223 -0.4681
 8692SOL    HW237713   0.263   3.739   5.152  2.3343 -2.2752  1.4741
 8693SOL     OW37714   1.741   3.320   6.957  0.0735 -0.4121  0.4147
 8693SOL    HW137715   1.672   3.301   7.019 -1.4085  0.6536 -0.8976
 8693SOL    HW237716   1.732   3.413   6.933  1.2251 -0.5303 -0.5164
 8694SOL     OW37717   0.021   1.071   8.005 -0.7774 -0.2578 -0.4510
 8694SOL    HW137718   0.078   1.118   7.944 -2.1226  2.5296  0.4075
 8694SOL    HW237719   4.702   1.141   8.040 -0.2594 -0.1849  0.2292
 8695SOL     OW37720   4.307   0.171   2.062  0.3067 -0.4156 -0.2406
 8695SOL    HW137721   4.248   0.233   2.019  0.3532  0.5185  1.0554
 8695SOL    HW237722   4.243   0.116   2.108  0.8170  0.7012  1.7837
 8696SOL     OW37723   1.686   1.277   4.945  0.1961  0.3235  0.2345
 8696SOL    HW137724   1.618   1.285   5.012 -0.0301  0.3669 -0.0014
 8696SOL    HW237725   1.754   1.338   4.973  0.2642  0.0606  0.6630
 8697SOL     OW37726   0.968   3.641   9.530  0.2704 -0.5851 -0.3868
 8697SOL    HW137727   1.052   3.659   9.488  1.1288  0.0238  1.5718
 8697SOL    HW237728   0.998   3.635   9.621  1.3759 -4.7768 -1.0304
 8698SOL     OW37729   0.128   3.385   5.994  0.2320 -0.3442 -0.0007
 8698SOL    HW137730   0.123   3.447   6.066  0.4684  1.6474 -1.7234
 8698SOL    HW237731   0.221   3.363   5.981 -0.3245 -1.6140 -1.8866
 8699SOL     OW37732   1.464   3.519  14.965 -0.2856 -0.2743 -0.4000
 8699SOL    HW137733   1.513   3.516  14.883  0.6567  1.6768  0.0992
 8699SOL    HW237734   1.533   3.554  15.021  0.1752  1.1797 -1.9119
 8700SOL     OW37735   1.033   0.752   2.660  0.2068  0.1339  0.1532
 8700SOL    HW137736   1.084   0.671   2.662  2.1387  1.3608  1.2750
 8700SOL    HW237737   1.062   0.783   2.746  0.8007  0.3570 -0.1325
 8701SOL     OW37738   0.063   4.602   3.036  0.8107 -0.4772  0.5031
 8701SOL    HW137739   0.003   4.544   2.989  2.7380 -3.0910  1.2755
 8701SOL    HW237740   0.027   4.687   3.012  1.5594  0.6313  3.2952
 8702SOL     OW37741   4.604   2.910   2.474  0.8429 -0.3010 -0.6516
 8702SOL    HW137742   4.530   2.950   2.427 -1.0405 -3.1780 -0.0983
 8702SOL    HW237743   4.649   2.994   2.487  1.0891 -0.7095  1.1195
 8703SOL     OW37744   3.396   0.714  10.151 -0.0031 -0.0154  0.0763
 8703SOL    HW137745   3.335   0.733  10.080  0.9643  0.5638 -0.5964
 8703SOL    HW237746   3.419   0.623  10.133 -0.8764 -0.3379  0.5774
 8704SOL     OW37747   0.678   1.204   7.162  0.2805  0.2491 -0.2623
 8704SOL    HW137748   0.590   1.205   7.126  0.5819  0.2382 -1.0028
 8704SOL    HW237749   0.696   1.114   7.134  1.1730  0.2531  0.2737
 8705SOL     OW37750   3.714   4.313  10.680  0.3018 -0.6779 -0.2138
 8705SOL    HW137751   3.800   4.314  10.722 -0.4245  0.0533  1.2470
 8705SOL    HW237752   3.672   4.243  10.729 -2.7650 -0.5112 -2.6055
 8706SOL     OW37753   4.445   1.719   3.078 -0.4321 -0.0012  0.1544
 8706SOL    HW137754   4.371   1.775   3.055 -1.1226 -0.9356  0.0788
 8706SOL    HW237755   4.421   1.698   3.168  1.2142  1.9949  1.0291
 8707SOL     OW37756   0.184   3.931  17.470 -0.4596  0.4619 -0.0713
 8707SOL    HW137757   0.132   3.919  17.390 -2.2402  0.2886  1.0972
 8707SOL    HW237758   0.190   4.027  17.473 -0.4410  0.4204  1.3804
 8708SOL     OW37759   0.495   4.057   2.328 -0.1340  0.6673 -1.0895
 8708SOL    HW137760   0.483   4.062   2.423  0.9715 -1.4071 -0.8536
 8708SOL    HW237761   0.421   4.109   2.296 -0.4694 -0.0900 -1.5392
 8709SOL     OW37762   2.539   0.455   1.747  0.5362  0.3483  0.4554
 8709SOL    HW137763   2.514   0.391   1.814 -0.4198  0.8229  0.5455
 8709SOL    HW237764   2.627   0.485   1.773  0.0563  2.7750 -0.7176
 8710SOL     OW37765   1.451   4.098   3.912  0.1773 -0.1550  0.5384
 8710SOL    HW137766   1.479   4.168   3.853  3.2452 -2.2794 -0.5577
 8710SOL    HW237767   1.368   4.132   3.943  0.8738  1.8390  0.2105
 8711SOL     OW37768   4.214   2.119   0.577 -0.2260  0.7768 -0.2399
 8711SOL    HW137769   4.256   2.141   0.494  1.0460 -2.1791 -0.3942
 8711SOL    HW237770   4.236   2.028   0.555 -3.3002  0.0976 -0.4746
 8712SOL     OW37771   1.917   4.200   7.256  0.2221  0.4833 -0.0938
 8712SOL    HW137772   2.003   4.237   7.278  0.5946  0.0473 -0.8240
 8712SOL    HW237773   1.888   4.268   7.195 -0.1952  0.5925  0.2209
 8713SOL     OW37774   1.811   0.511   7.531 -0.0891  0.1169 -0.0161
 8713SOL    HW137775   1.878   0.579   7.524  1.0886 -1.1468 -0.9502
 8713SOL    HW237776   1.873   0.441   7.549  1.2107  1.5342  1.0585
 8714SOL     OW37777   2.600   1.885   8.606  0.4406 -0.4196 -0.2017
 8714SOL    HW137778   2.565   1.837   8.682 -0.0977 -0.6110 -0.5681
 8714SOL    HW237779   2.682   1.919   8.641  1.2719 -0.8617 -1.7481
 8715SOL     OW37780   4.410   2.866   8.720  0.1309 -0.2893 -0.0950
 8715SOL    HW137781   4.439   2.883   8.810 -1.7565  0.6178  0.3435
 8715SOL    HW237782   4.316   2.872   8.735 -0.0650 -0.4662 -1.2583
 8716SOL     OW37783   0.999   4.652   8.581  0.3390  0.2748  0.1329
 8716SOL    HW137784   1.031   4.565   8.604  1.3480  0.0986 -2.0259
 8716SOL    HW237785   1.020   4.708   8.656  3.8182  2.1045 -2.2090
 8717SOL     OW37786   0.209   1.572   8.105  1.0395 -0.2187  0.0223
 8717SOL    HW137787   0.174   1.510   8.041  1.3978 -0.4412  0.0447
 8717SOL    HW237788   0.265   1.628   8.052  1.0354  1.9492  2.2801
 8718SOL     OW37789   1.840   2.913   5.017 -0.6620 -0.1535  0.2668
 8718SOL    HW137790   1.774   2.893   4.951 -0.5130  0.7064 -0.1501
 8718SOL    HW237791   1.853   2.841   5.078 -0.4372  0.5079  1.0049
 8719SOL     OW37792   3.874   1.089   6.498  0.3657  0.5877 -0.3994
 8719SOL    HW137793   3.786   1.123   6.515  0.0966  0.2961 -1.2033
 8719SOL    HW237794   3.880   1.037   6.578 -0.1989  0.3008 -0.5420
 8720SOL     OW37795   1.425   1.608   6.663 -0.2487  0.0475  0.0270
 8720SOL    HW137796   1.348   1.626   6.717 -1.2578 -0.9198 -1.0964
 8720SOL    HW237797   1.494   1.615   6.729 -0.2085 -1.2975  0.1350
 8721SOL     OW37798   2.482   2.486   2.285 -0.3551  0.6659 -0.1623
 8721SOL    HW137799   2.484   2.434   2.365  1.2299  1.1501  0.1130
 8721SOL    HW237800   2.397   2.528   2.299  0.2073  2.6259 -2.5195
 8722SOL     OW37801   1.072   3.052   2.823 -0.0902  0.2755  0.7325
 8722SOL    HW137802   1.047   3.056   2.916 -2.0065  2.6926  0.1430
 8722SOL    HW237803   1.022   3.127   2.791  0.3786  0.2482 -0.0480
 8723SOL     OW37804   0.448   1.491   7.792  0.1227  0.0020 -0.2197
 8723SOL    HW137805   0.534   1.531   7.788  0.0124  0.1753 -0.9610
 8723SOL    HW237806   0.463   1.407   7.835  1.2301  0.5668  0.4945
 8724SOL     OW37807   4.556   1.401   1.845  0.0016 -0.3436  0.1956
 8724SOL    HW137808   4.576   1.458   1.919 -2.8329  0.3723  0.4090
 8724SOL    HW237809   4.470   1.369   1.872  0.6016 -1.0949  1.2315
 8725SOL     OW37810   1.123   4.173   7.512  0.6591  0.1728 -0.2190
 8725SOL    HW137811   1.121   4.098   7.453  1.9892 -1.3594  1.6830
 8725SOL    HW237812   1.031   4.170   7.538  1.5767  1.6751  3.1823
 8726SOL     OW37813   0.108   3.597   4.595  0.1153 -0.3301 -0.0426
 8726SOL    HW137814   0.114   3.692   4.585  0.0707 -0.3658 -0.4104
 8726SOL    HW237815   0.191   3.568   4.557 -0.0262 -1.7235  0.7186
 8727SOL     OW37816   0.598   2.759   9.702 -0.2939 -0.3929  0.2867
 8727SOL    HW137817   0.668   2.694   9.708  0.1808  0.1937  1.2512
 8727SOL    HW237818   0.624   2.809   9.625 -0.0211 -0.0268  0.6182
 8728SOL     OW37819   3.627   3.111  10.622 -0.2426 -0.5131  0.2247
 8728SOL    HW137820   3.575   3.035  10.647 -2.3699  1.3070  1.3311
 8728SOL    HW237821   3.569   3.151  10.558  1.8089 -0.3276 -1.5043
 8729SOL     OW37822   4.612   2.025  11.317  0.0297 -0.2553 -0.4496
 8729SOL    HW137823   4.628   2.108  11.273 -0.6979 -0.5999 -1.3687
 8729SOL    HW237824   4.686   2.035  11.376  1.8972 -0.2257 -2.7831
 8730SOL     OW37825   3.354   3.807  11.051  0.3165 -0.3239 -0.0392
 8730SOL    HW137826   3.339   3.752  11.127  1.2528  1.6371  1.5817
 8730SOL    HW237827   3.300   3.884  11.067 -0.8580 -0.7434 -2.0090
 8731SOL     OW37828   2.200   0.887   3.253 -0.2619 -0.5160  0.0223
 8731SOL    HW137829   2.186   0.982   3.246  0.3613 -0.4973 -0.8735
 8731SOL    HW237830   2.124   0.870   3.309 -0.8088 -1.7085 -1.0992
 8732SOL     OW37831   1.604   3.898   2.929  0.4223  0.0548  0.7501
 8732SOL    HW137832   1.599   3.982   2.975 -0.0764  1.6661 -2.2343
 8732SOL    HW237833   1.689   3.915   2.889  1.7192 -3.0918  2.2400
 8733SOL     OW37834   2.605   0.790   4.419 -0.5687 -0.2947  0.2155
 8733SOL    HW137835   2.557   0.707   4.417 -2.6523  0.9305  0.1835
 8733SOL    HW237836   2.555   0.837   4.485  0.3671 -2.3756  2.4008
 8734SOL     OW37837   2.253   2.124   0.023  0.5348 -0.3145  0.1949
 8734SOL    HW137838   2.314   2.105  17.696 -0.5210  2.0573 -1.3151
 8734SOL    HW237839   2.248   2.219   0.032  0.1534 -0.4578  1.4454
 8735SOL     OW37840   3.589   2.731   2.991  0.0219  0.4734  0.2235
 8735SOL    HW137841   3.516   2.787   3.018 -1.3193 -0.1865 -1.9463
 8735SOL    HW237842   3.664   2.790   2.985  1.2604 -1.3360 -2.3490
 8736SOL     OW37843   3.099   4.587   5.469 -0.2250  0.1360 -0.0586
 8736SOL    HW137844   3.075   4.665   5.419  1.0063 -0.6103 -1.8226
 8736SOL    HW237845   3.078   4.612   5.558 -0.9145 -0.8320  0.0474
 8737SOL     OW37846   3.596   4.024  13.209 -0.4278  0.3635  0.2714
 8737SOL    HW137847   3.554   4.030  13.123  0.0452 -1.8851 -0.1266
 8737SOL    HW237848   3.671   3.966  13.194  0.5277  1.6138  0.2149
 8738SOL     OW37849   3.035   3.928   8.785  0.1929 -0.2392 -0.1641
 8738SOL    HW137850   3.105   3.880   8.829 -0.1550  1.2801  2.0115
 8738SOL    HW237851   3.074   3.987   8.721 -1.0377  2.0393  1.1829
 8739SOL     OW37852   4.301   3.611   7.670  0.3745 -0.3541  0.0490
 8739SOL    HW137853   4.230   3.588   7.611 -1.0433  2.6461  0.5554
 8739SOL    HW237854   4.282   3.554   7.744  0.7073  0.9131  1.1079
 8740SOL     OW37855   2.853   1.959   7.851 -0.7550 -0.0665 -0.2700
 8740SOL    HW137856   2.938   1.999   7.871 -0.5283  0.2855 -1.9250
 8740SOL    HW237857   2.849   1.951   7.756 -0.4950  1.9684 -0.4423
 8741SOL     OW37858   0.404   0.313   7.695 -0.0941 -0.6331  0.1820
 8741SOL    HW137859   0.466   0.362   7.749 -0.8520  1.3748 -0.7533
 8741SOL    HW237860   0.446   0.304   7.609 -0.1962 -0.3216  0.0975
 8742SOL     OW37861   0.624   2.301  15.128 -0.1918 -0.5069 -0.2109
 8742SOL    HW137862   0.602   2.210  15.145  0.0303 -0.5937 -0.3906
 8742SOL    HW237863   0.541   2.341  15.152 -0.2834  1.0058 -2.9449
 8743SOL     OW37864   4.035   4.561  14.474 -1.2986 -0.3971  0.9880
 8743SOL    HW137865   4.035   4.631  14.540 -1.9007  0.1186  0.4427
 8743SOL    HW237866   4.084   4.495  14.523 -1.5335  0.7316  2.7788
 8744SOL     OW37867   0.378   4.374   7.633 -0.8714  0.8590  0.4202
 8744SOL    HW137868   0.459   4.423   7.642  0.8519 -1.2557 -3.4543
 8744SOL    HW237869   0.376   4.351   7.540 -1.3748  0.7883  0.4479
 8745SOL     OW37870   1.840   1.510  14.396 -0.3829  0.3273 -0.3085
 8745SOL    HW137871   1.830   1.429  14.445 -2.0244  0.1995 -0.8473
 8745SOL    HW237872   1.929   1.506  14.362 -0.4872  3.0670 -0.9433
 8746SOL     OW37873   2.817   1.982   7.560 -0.7301 -1.2840  0.5059
 8746SOL    HW137874   2.728   1.967   7.591 -0.8621 -0.1968  0.6329
 8746SOL    HW237875   2.820   1.910   7.496 -3.5166 -0.5570 -0.4238
 8747SOL     OW37876   4.159   1.139   6.553 -1.0475  0.1766  0.5646
 8747SOL    HW137877   4.208   1.221   6.557 -1.5274  0.5044 -0.2052
 8747SOL    HW237878   4.106   1.160   6.476 -1.5680  1.2064  1.2175
 8748SOL     OW37879   0.836   1.278   5.420 -0.1519 -0.1525  0.2793
 8748SOL    HW137880   0.824   1.306   5.329 -2.3950 -1.5420  0.1669
 8748SOL    HW237881   0.889   1.346   5.463 -0.7563 -0.6740  1.8339
 8749SOL     OW37882   4.462   2.260   5.202 -0.2415  0.5448 -0.2151
 8749SOL    HW137883   4.550   2.231   5.225  0.0574  0.7830 -1.0539
 8749SOL    HW237884   4.432   2.174   5.171  0.5346  0.0933  0.3055
 8750SOL     OW37885   4.605   1.576  11.902  0.1537 -0.7213 -0.3148
 8750SOL    HW137886   4.551   1.592  11.979  2.2666 -0.1945  1.0752
 8750SOL    HW237887   4.693   1.592  11.939 -0.1879 -0.2958  0.3183
 8751SOL     OW37888   4.123   0.582   8.187 -0.4473  0.4484 -0.0615
 8751SOL    HW137889   4.036   0.578   8.227  0.0188  1.7057  1.0669
 8751SOL    HW237890   4.170   0.543   8.261  0.6320  0.9531 -0.4822
 8752SOL     OW37891   0.430   4.146   8.955  0.4676 -0.0988  0.1453
 8752SOL    HW137892   0.396   4.192   8.878  0.0543 -0.4125  0.1391
 8752SOL    HW237893   0.523   4.132   8.939  0.4177 -1.3793  1.0359
 8753SOL     OW37894   0.347   3.495   4.566 -0.3033 -0.2322  0.0398
 8753SOL    HW137895   0.316   3.430   4.629  0.6310 -0.3082  0.4318
 8753SOL    HW237896   0.428   3.501   4.617 -0.6743 -0.3272  0.6395
 8754SOL     OW37897   1.012   2.717  11.496 -0.2002 -0.2603 -0.4804
 8754SOL    HW137898   0.935   2.758  11.534  0.0837 -0.9555  0.8553
 8754SOL    HW237899   1.058   2.790  11.455  1.9622 -2.6244 -2.3110
 8755SOL     OW37900   0.833   2.749   2.252  0.6960  0.1473 -0.8581
 8755SOL    HW137901   0.878   2.810   2.194  1.6129 -0.7281 -1.0709
 8755SOL    HW237902   0.826   2.664   2.209  0.4537  0.2792 -1.0745
 8756SOL     OW37903   0.678   4.245   3.274 -0.3698  0.0699  0.1027
 8756SOL    HW137904   0.624   4.171   3.300 -1.9167  1.5736  1.1423
 8756SOL    HW237905   0.714   4.211   3.192 -1.5173 -1.2161  0.1426
 8757SOL     OW37906   2.016   1.361  14.726  0.0537 -0.1833 -0.0105
 8757SOL    HW137907   1.925   1.363  14.694  0.8775  0.3636 -2.3434
 8757SOL    HW237908   2.042   1.453  14.718 -1.8843  0.5498  2.0438
 8758SOL     OW37909   2.771   0.887  16.292 -0.2639  0.3640 -0.6120
 8758SOL    HW137910   2.800   0.852  16.376 -0.1540  2.5216  0.2507
 8758SOL    HW237911   2.819   0.829  16.233  1.3681 -0.2274  1.2848
 8759SOL     OW37912   0.216   0.382   2.417 -0.1914 -0.8201 -0.6143
 8759SOL    HW137913   0.256   0.368   2.331  0.2697 -0.0245 -0.5222
 8759SOL    HW237914   0.276   0.445   2.455 -0.9068  0.5752 -1.7757
 8760SOL     OW37915   2.941   0.415   6.059  0.3963 -0.5903 -0.2615
 8760SOL    HW137916   2.890   0.465   5.996  0.2831 -0.0088  0.3004
 8760SOL    HW237917   2.876   0.422   6.128 -0.2670  0.7856 -1.0276
 8761SOL     OW37918   2.642   2.597   2.763  0.5122  0.2331  0.3545
 8761SOL    HW137919   2.567   2.592   2.822 -0.3665 -3.7245 -1.1187
 8761SOL    HW237920   2.622   2.526   2.702  0.6121  0.0695  0.5123
 8762SOL     OW37921   1.334   2.263   5.233  0.4140 -0.5080 -0.1388
 8762SOL    HW137922   1.376   2.348   5.243  0.0549 -0.5965  1.9576
 8762SOL    HW237923   1.331   2.258   5.137 -0.7615 -1.9134 -0.0338
 8763SOL     OW37924   1.368   1.002   6.946 -0.4729 -0.0218  0.0666
 8763SOL    HW137925   1.434   1.039   7.005 -1.1424  2.1968 -0.5694
 8763SOL    HW237926   1.400   0.912   6.938 -0.6864 -0.0816 -0.1041
 8764SOL     OW37927   3.538   3.213   2.619 -0.2720 -0.3439 -0.0413
 8764SOL    HW137928   3.627   3.226   2.652 -0.2377  2.8208 -1.2617
 8764SOL    HW237929   3.559   3.177   2.533  0.1363 -0.2972  0.0388
 8765SOL     OW37930   0.213   1.988   8.300 -0.0697  0.8515  0.0261
 8765SOL    HW137931   0.232   2.081   8.294 -0.7275  1.0036  0.2891
 8765SOL    HW237932   0.233   1.961   8.210 -0.9946  2.2875 -0.6083
 8766SOL     OW37933   3.426   2.532   3.321  0.4062 -0.4703  0.6810
 8766SOL    HW137934   3.342   2.504   3.358  0.5733 -0.7496  0.8482
 8766SOL    HW237935   3.423   2.486   3.236 -1.8101  2.9159 -1.0501
 8767SOL     OW37936   1.087   4.660   6.986  0.0226 -0.0814 -0.2901
 8767SOL    HW137937   1.117   4.641   6.897 -2.4636 -1.7255 -0.7787
 8767SOL    HW237938   0.997   4.692   6.976 -1.1769 -3.4103 -0.0620
 8768SOL     OW37939   1.963   2.312   2.524  0.3914 -0.7832  0.0639
 8768SOL    HW137940   2.025   2.258   2.573  0.7983  0.2029  0.6411
 8768SOL    HW237941   1.873   2.300   2.555 -0.0263  0.2257 -0.7676
 8769SOL     OW37942   4.381   4.579  10.160 -0.3225  0.5153 -0.3150
 8769SOL    HW137943   4.373   4.672  10.178  1.4157  0.4956  0.5158
 8769SOL    HW237944   4.334   4.551  10.238 -1.2983  1.1005 -0.6939
 8770SOL     OW37945   3.753   2.654   8.911  0.1088  0.0538  0.2307
 8770SOL    HW137946   3.835   2.683   8.951  0.2930 -0.9424  0.5798
 8770SOL    HW237947   3.743   2.569   8.954  0.4473 -0.1383 -0.0646
 8771SOL     OW37948   1.295   0.636   7.185 -0.1636  0.0120 -0.1217
 8771SOL    HW137949   1.254   0.700   7.128 -0.6784 -0.1649  0.0555
 8771SOL    HW237950   1.231   0.566   7.175 -0.0977  0.0360 -0.6972
 8772SOL     OW37951   3.846   3.278  11.292  0.2318  1.1542  0.4175
 8772SOL    HW137952   3.912   3.347  11.280  0.6885  0.5632 -0.4891
 8772SOL    HW237953   3.848   3.249  11.201 -0.4522  1.2159  0.3876
 8773SOL     OW37954   4.666   2.930  16.439 -0.1490  0.4585  0.2195
 8773SOL    HW137955   0.014   2.892  16.417  0.5969  1.9218  0.5797
 8773SOL    HW237956   4.660   2.900  16.530  2.0908 -2.1638 -0.5099
 8774SOL     OW37957   4.022   1.436  16.239  0.3315  0.3855 -0.3353
 8774SOL    HW137958   3.996   1.478  16.157 -0.9670 -0.2154 -0.2238
 8774SOL    HW237959   3.992   1.507  16.296 -1.1386  1.1730 -2.0582
 8775SOL     OW37960   0.247   0.206   7.891 -0.1464  0.6830  0.6376
 8775SOL    HW137961   0.161   0.241   7.866 -0.1074  0.7664  0.6214
 8775SOL    HW237962   0.297   0.258   7.828  0.1563  0.3340  0.5950
 8776SOL     OW37963   0.841   0.028   6.926 -0.7334  0.2517  0.1026
 8776SOL    HW137964   0.793   0.030   7.009 -0.9068 -0.4422  0.0196
 8776SOL    HW237965   0.794   0.097   6.879  2.1219  0.8765 -1.8618
 8777SOL     OW37966   3.535   2.841   8.666  0.7595 -0.1506 -0.3876
 8777SOL    HW137967   3.468   2.865   8.602 -1.3779  0.3536  2.0476
 8777SOL    HW237968   3.566   2.764   8.619 -4.3866 -2.5999  0.2688
 8778SOL     OW37969   2.755   1.269  17.148 -0.8708 -0.2271  0.1623
 8778SOL    HW137970   2.799   1.344  17.106 -0.8169 -1.1001 -1.3278
 8778SOL    HW237971   2.815   1.246  17.220 -0.6684 -2.6319 -0.7959
 8779SOL     OW37972   2.810   4.116   3.455 -0.2759 -0.4738  0.8472
 8779SOL    HW137973   2.875   4.148   3.392 -0.6420  1.6822  1.5633
 8779SOL    HW237974   2.867   4.056   3.504 -0.8601 -1.0557  0.8259
 8780SOL     OW37975   4.113   3.384  13.181 -0.4051 -0.3296  0.3456
 8780SOL    HW137976   4.203   3.352  13.185  0.6320  2.6331  0.5093
 8780SOL    HW237977   4.072   3.330  13.114 -2.5810  1.2935  0.3679
 8781SOL     OW37978   2.411   0.791   2.503 -0.2751 -0.2745 -0.1833
 8781SOL    HW137979   2.396   0.884   2.517 -0.3855 -0.7771  2.9994
 8781SOL    HW237980   2.499   0.784   2.540  0.5314  2.7391 -1.5574
 8782SOL     OW37981   2.944   4.235   4.998  0.7468  0.1441 -0.4135
 8782SOL    HW137982   2.958   4.182   5.077 -1.8607 -1.3817 -1.0007
 8782SOL    HW237983   2.993   4.195   4.925 -0.8407  0.8762 -1.8646
 8783SOL     OW37984   1.003   2.149   8.388  0.1183 -0.2929 -0.2753
 8783SOL    HW137985   0.985   2.078   8.449  1.7998 -0.7691 -0.3401
 8783SOL    HW237986   1.084   2.116   8.350  0.8236  2.1878 -0.8944
 8784SOL     OW37987   4.158   2.639  16.224 -0.3689 -0.3523 -0.1038
 8784SOL    HW137988   4.146   2.560  16.172  0.1228 -0.2096 -0.4373
 8784SOL    HW237989   4.211   2.610  16.297  0.4021  3.1314  0.7252
 8785SOL     OW37990   1.302   0.912   8.029 -0.6205  0.0886  0.1312
 8785SOL    HW137991   1.241   0.900   7.956 -0.9777 -0.3310  0.4986
 8785SOL    HW237992   1.245   0.876   8.097 -0.3861 -2.0974 -0.8022
 8786SOL     OW37993   2.378   2.285   6.157 -0.3722 -0.2502  0.1170
 8786SOL    HW137994   2.412   2.328   6.236 -0.0654  0.0160 -0.1646
 8786SOL    HW237995   2.285   2.296   6.174 -0.4728 -0.6968 -0.1461
 8787SOL     OW37996   2.748   2.112   5.162  0.3431  0.4364 -0.2670
 8787SOL    HW137997   2.719   2.112   5.253 -0.7442  0.3305 -0.6205
 8787SOL    HW237998   2.663   2.142   5.130 -0.1965 -1.1391 -0.3177
 8788SOL     OW37999   4.600   2.659   0.721  0.0059 -0.2537 -0.2663
 8788SOL    HW138000   4.558   2.745   0.726  0.1684 -0.1451 -0.7660
 8788SOL    HW238001   4.582   2.658   0.627  1.5072 -2.9341 -0.5205
 8789SOL     OW38002   1.724   2.296   2.598 -0.0702 -0.1084 -0.4677
 8789SOL    HW138003   1.660   2.365   2.580 -0.2344 -0.4093 -1.0281
 8789SOL    HW238004   1.658   2.228   2.613 -0.9003  0.8873  0.4397
 8790SOL     OW38005   4.172   1.280   7.142 -0.2317 -0.3706 -0.0799
 8790SOL    HW138006   4.195   1.348   7.078  2.2055 -0.3183  0.8373
 8790SOL    HW238007   4.196   1.197   7.100 -0.0432 -0.3130 -0.0864
 8791SOL     OW38008   3.088   4.474   9.672  0.0638  0.0394  0.4571
 8791SOL    HW138009   3.059   4.431   9.752 -1.7077  0.2356 -0.0895
 8791SOL    HW238010   3.037   4.417   9.615  0.3298 -1.2179  1.4664
 8792SOL     OW38011   4.524   3.179   4.736  0.1835 -0.6458  0.4562
 8792SOL    HW138012   4.505   3.133   4.818 -2.6414 -1.3909 -0.6201
 8792SOL    HW238013   4.541   3.268   4.769 -0.6059 -0.2914 -0.0866
 8793SOL     OW38014   2.141   2.677   3.737 -0.0019 -0.4439  0.1754
 8793SOL    HW138015   2.150   2.765   3.699 -0.5552 -0.3849  0.1844
 8793SOL    HW238016   2.091   2.697   3.816 -1.3335  0.0092 -0.7865
 8794SOL     OW38017   1.660   4.116   4.499  0.5011 -0.2063 -0.0415
 8794SOL    HW138018   1.708   4.061   4.437 -0.3213  0.4823 -1.2835
 8794SOL    HW238019   1.658   4.056   4.573  1.2995 -0.4937 -0.2461
 8795SOL     OW38020   0.571   1.613  13.773 -0.2741 -0.4756 -0.0901
 8795SOL    HW138021   0.540   1.658  13.694  0.9043  0.8528  0.2101
 8795SOL    HW238022   0.609   1.534  13.734 -1.9622 -3.0434  3.5193
 8796SOL     OW38023   3.914   4.240  16.441  0.1117  0.4078  0.1338
 8796SOL    HW138024   3.853   4.170  16.467  1.0155 -0.0122  1.1405
 8796SOL    HW238025   3.885   4.300  16.510  0.1693 -1.0817  1.4759
 8797SOL     OW38026   1.922   4.565   7.418  0.0617 -0.2647  0.2476
 8797SOL    HW138027   1.953   4.506   7.487  1.5964 -0.2905 -0.4434
 8797SOL    HW238028   1.830   4.543   7.404 -0.3785  2.1657 -0.5724
 8798SOL     OW38029   2.777   2.017  10.819 -0.0805  0.3738  0.5895
 8798SOL    HW138030   2.820   2.081  10.761  0.0958  0.4222  0.7753
 8798SOL    HW238031   2.853   1.976  10.861 -0.7194 -0.6075  0.7830
 8799SOL     OW38032   4.717   0.777   8.429 -0.0367 -0.7953 -0.0532
 8799SOL    HW138033   4.653   0.849   8.431  1.6017  0.6156  1.9851
 8799SOL    HW238034   4.653   0.708   8.446 -1.1516 -0.0429 -1.1762
 8800SOL     OW38035   0.460   1.659  10.591 -0.4463 -0.1337 -0.0752
 8800SOL    HW138036   0.433   1.617  10.509 -1.3878  0.6439 -0.1634
 8800SOL    HW238037   0.388   1.715  10.619 -0.5044 -0.3706  0.2432
 8801SOL     OW38038   3.628   2.083   4.672  0.6449  0.3192  0.0854
 8801SOL    HW138039   3.573   2.039   4.607 -1.3268  0.7627  1.4571
 8801SOL    HW238040   3.578   2.081   4.754 -1.5548 -0.3250 -1.2850
 8802SOL     OW38041   1.543   3.181   1.665 -0.8747  0.3925 -0.5152
 8802SOL    HW138042   1.560   3.108   1.725 -1.6734 -0.4773 -1.3487
 8802SOL    HW238043   1.561   3.135   1.583  0.7871  2.1753 -1.1510
 8803SOL     OW38044   2.406   2.113   6.832  0.1749  0.4902  0.2328
 8803SOL    HW138045   2.346   2.083   6.900 -0.0320  0.6156  0.1052
 8803SOL    HW238046   2.494   2.114   6.869  0.5045  0.0233 -0.5397
 8804SOL     OW38047   0.417   0.510   6.901 -0.0287 -0.1983  0.0000
 8804SOL    HW138048   0.376   0.446   6.843 -1.2269  0.1918  0.4058
 8804SOL    HW238049   0.505   0.473   6.896  0.4649  0.9836 -0.1416
 8805SOL     OW38050   0.452   2.190  14.797  0.2115 -0.2767 -0.3450
 8805SOL    HW138051   0.383   2.256  14.792  1.0039  0.4202 -2.0534
 8805SOL    HW238052   0.531   2.244  14.806  0.4163 -0.6577  0.1431
 8806SOL     OW38053   3.027   3.233   5.204 -0.1074  0.3674 -0.3799
 8806SOL    HW138054   2.990   3.148   5.226 -1.7293  1.1350 -0.1981
 8806SOL    HW238055   3.115   3.218   5.239 -0.8775 -0.8277  1.0110
 8807SOL     OW38056   0.925   2.560   3.575  0.1137 -0.6231  0.0140
 8807SOL    HW138057   0.930   2.560   3.479  0.0630 -3.0563  0.0120
 8807SOL    HW238058   0.939   2.654   3.588 -1.0333 -0.4047 -0.3468
 8808SOL     OW38059   3.957   3.637   1.163  0.6163  0.0145  0.4216
 8808SOL    HW138060   3.963   3.684   1.080  0.4609  1.5713  1.2897
 8808SOL    HW238061   3.955   3.553   1.118  0.3995  0.1697  0.1344
 8809SOL     OW38062   1.136   2.665   7.614 -0.0509  0.4071  0.4435
 8809SOL    HW138063   1.230   2.670   7.629 -0.2302  1.6188  1.1779
 8809SOL    HW238064   1.108   2.755   7.633  1.3780  1.3701 -2.0488
 8810SOL     OW38065   3.394   2.480   2.403 -0.3165  0.3949  0.3522
 8810SOL    HW138066   3.352   2.507   2.321 -1.7374  0.6440  1.1791
 8810SOL    HW238067   3.376   2.387   2.412 -0.9164  0.3607 -1.1000
 8811SOL     OW38068   0.494   4.068   2.616 -0.4205  0.4854  0.2993
 8811SOL    HW138069   0.580   4.087   2.652 -0.4438 -0.3756  0.8233
 8811SOL    HW238070   0.439   4.138   2.652 -2.5140  0.3106 -2.5771
 8812SOL     OW38071   4.336   3.205   4.536  0.1004  0.3362  0.2077
 8812SOL    HW138072   4.408   3.172   4.589  0.0398 -1.3241 -0.7493
 8812SOL    HW238073   4.298   3.261   4.604 -0.1472  1.1869 -0.6241
 8813SOL     OW38074   1.387   1.171   2.145 -0.5126 -0.3666  0.6593
 8813SOL    HW138075   1.318   1.237   2.151 -0.7112 -0.5581  0.5093
 8813SOL    HW238076   1.418   1.163   2.235 -1.1495  0.6783  0.9744
 8814SOL     OW38077   1.765   2.327   4.089 -0.4005  0.1326 -0.0994
 8814SOL    HW138078   1.808   2.359   4.010 -0.2797 -1.4641 -0.6823
 8814SOL    HW238079   1.841   2.314   4.145 -0.7785  0.1769  0.4160
 8815SOL     OW38080   1.410   3.864   4.078  0.0305 -0.5690  0.2158
 8815SOL    HW138081   1.417   3.926   4.005  1.8970 -3.3483 -2.0188
 8815SOL    HW238082   1.489   3.812   4.060 -0.4635 -1.3655  0.3806
 8816SOL     OW38083   0.404   0.703   6.388  0.2599 -0.0187 -0.4900
 8816SOL    HW138084   0.310   0.716   6.402 -0.1437 -0.3302 -2.8659
 8816SOL    HW238085   0.439   0.701   6.477  3.3423 -0.8054 -1.7121
 8817SOL     OW38086   4.653   0.284   8.774  0.0348  0.5175  0.0509
 8817SOL    HW138087   4.657   0.377   8.795 -1.0311  0.7312 -0.7033
 8817SOL    HW238088   4.573   0.283   8.722 -0.4508  0.0907  0.8117
 8818SOL     OW38089   4.265   4.477   9.698 -0.2789  0.5029  0.3311
 8818SOL    HW138090   4.290   4.398   9.746  1.3325 -0.2576 -1.7201
 8818SOL    HW238091   4.265   4.545   9.765  0.9902 -0.7752  1.6093
 8819SOL     OW38092   2.731   0.136  15.948 -0.0282  0.1724  0.6191
 8819SOL    HW138093   2.701   0.150  15.858  2.5123  1.2710 -0.0588
 8819SOL    HW238094   2.825   0.152  15.954 -0.0576 -0.6389  3.1022
 8820SOL     OW38095   1.983   1.261   3.154  0.1637 -0.6816 -0.6938
 8820SOL    HW138096   1.903   1.208   3.154 -1.0389  1.1735  1.5597
 8820SOL    HW238097   1.958   1.349   3.125 -0.5263 -0.5540  0.2770
 8821SOL     OW38098   0.087   4.300  13.339  0.6444  0.1617  0.6549
 8821SOL    HW138099   0.050   4.306  13.251 -1.2528 -0.9712  1.3744
 8821SOL    HW238100   0.068   4.387  13.374 -0.8124  0.4263 -0.7907
 8822SOL     OW38101   3.475   0.865   3.470  0.4101 -0.0711 -0.0421
 8822SOL    HW138102   3.469   0.852   3.375  0.2552 -2.1255  0.2508
 8822SOL    HW238103   3.567   0.851   3.492 -0.0544 -1.8462  0.8071
 8823SOL     OW38104   2.054   4.690  14.381 -0.4908  0.5749 -0.8109
 8823SOL    HW138105   2.121   0.002  14.334  0.6435  0.3368  0.5223
 8823SOL    HW238106   2.085   4.601  14.364 -1.2574  0.0891  0.3050
 8824SOL     OW38107   1.558   0.631   1.719 -0.0975  0.1581  0.1299
 8824SOL    HW138108   1.640   0.608   1.675  0.4922 -1.9027  2.2885
 8824SOL    HW238109   1.580   0.613   1.811  1.9607 -0.1210 -0.4105
 8825SOL     OW38110   0.296   3.205   7.707 -0.2312  0.2532 -0.0080
 8825SOL    HW138111   0.216   3.192   7.758 -1.1971 -0.0298 -1.5743
 8825SOL    HW238112   0.359   3.152   7.756  0.9833  0.1136 -1.6927
 8826SOL     OW38113   2.184   2.485   5.400 -0.4665 -0.4372 -0.1736
 8826SOL    HW138114   2.135   2.428   5.341  0.0791 -2.5722  1.4375
 8826SOL    HW238115   2.227   2.412   5.445 -1.9020 -1.5422 -0.5969
 8827SOL     OW38116   1.474   2.809   4.022  0.0972 -0.1820  0.1415
 8827SOL    HW138117   1.403   2.839   3.964  0.3159  0.1004  0.0219
 8827SOL    HW238118   1.431   2.825   4.106 -0.0350 -1.2803  0.2787
 8828SOL     OW38119   4.290   4.182  10.073 -0.3152  0.5933 -0.2083
 8828SOL    HW138120   4.262   4.205  10.161 -0.2743  0.0383 -0.0512
 8828SOL    HW238121   4.323   4.093  10.086 -0.5357  0.4953 -0.3096
 8829SOL     OW38122   1.613   4.717  10.399  0.1729 -0.8340 -0.5216
 8829SOL    HW138123   1.567   0.028  10.468 -0.3404 -1.4879 -0.4079
 8829SOL    HW238124   1.614   4.626  10.428 -1.5349  0.5904  3.9141
 8830SOL     OW38125   3.306   0.170   7.604 -0.5170 -0.2026  0.4738
 8830SOL    HW138126   3.379   0.175   7.543 -0.4822  2.0995  0.7340
 8830SOL    HW238127   3.296   0.075   7.595 -2.1681  0.1100 -1.1531
 8831SOL     OW38128   0.830   2.277  10.285  0.0166  0.1493 -0.0254
 8831SOL    HW138129   0.921   2.288  10.258 -0.5496 -0.2082 -2.0539
 8831SOL    HW238130   0.827   2.346  10.352  1.0529 -1.4475  1.6888
 8832SOL     OW38131   2.631   4.310   3.545  0.2373 -0.2938 -0.0452
 8832SOL    HW138132   2.563   4.309   3.478  0.3711  1.5174 -0.2178
 8832SOL    HW238133   2.675   4.228   3.522 -0.1672 -0.1272 -1.4116
 8833SOL     OW38134   1.994   1.171   5.718 -0.5221  0.3317  0.2850
 8833SOL    HW138135   1.988   1.151   5.624  1.2294  0.2775  0.1962
 8833SOL    HW238136   1.910   1.211   5.741 -0.7690  0.5782 -1.0280
 8834SOL     OW38137   1.465   3.296   5.850  0.0576  0.2768  0.0003
 8834SOL    HW138138   1.372   3.278   5.864 -0.2668  0.4723 -1.8296
 8834SOL    HW238139   1.498   3.348   5.923 -1.8439 -0.1985  1.2048
 8835SOL     OW38140   1.123   0.979   8.653 -0.0213 -0.3742 -0.0904
 8835SOL    HW138141   1.158   1.057   8.695 -0.3051  0.8745 -2.1974
 8835SOL    HW238142   1.176   0.912   8.697 -0.9968  0.4059  2.3028
 8836SOL     OW38143   0.558   0.750   6.993  0.1149  0.0615 -0.2549
 8836SOL    HW138144   0.519   0.670   6.957 -0.5681  1.4109 -2.4692
 8836SOL    HW238145   0.595   0.727   7.079  1.9008  0.6506 -0.8606
 8837SOL     OW38146   3.043   1.299   2.715 -0.2785  0.8304 -0.0895
 8837SOL    HW138147   2.956   1.259   2.714 -0.1311  0.5027  0.6557
 8837SOL    HW238148   3.019   1.374   2.660  0.3717 -0.4536 -2.1381
 8838SOL     OW38149   1.647   3.614   7.092 -0.5278  0.7392 -0.3542
 8838SOL    HW138150   1.640   3.632   6.998  1.4850  1.0382 -0.4510
 8838SOL    HW238151   1.591   3.685   7.124 -0.0469  0.7474  0.4646
 8839SOL     OW38152   2.166   2.410   4.901  0.4337 -0.0729 -0.0002
 8839SOL    HW138153   2.077   2.436   4.876  1.1007  1.3024 -0.9254
 8839SOL    HW238154   2.204   2.369   4.823 -0.1629 -0.9300  0.1560
 8840SOL     OW38155   0.053   2.279   7.603 -0.4057  0.2466  0.0363
 8840SOL    HW138156   0.146   2.301   7.606  0.0266 -1.7008  0.9692
 8840SOL    HW238157   0.020   2.332   7.531  1.5570 -0.5529 -1.4482
 8841SOL     OW38158   1.241   3.146   7.301 -0.7459 -0.0189  0.0519
 8841SOL    HW138159   1.246   3.059   7.341  2.3841 -0.2389 -0.8472
 8841SOL    HW238160   1.302   3.206   7.344 -1.3017  1.1864 -0.8234
 8842SOL     OW38161   4.369   1.615   3.602  0.1176  1.0935 -0.5976
 8842SOL    HW138162   4.356   1.617   3.697  1.1069 -1.9209 -0.3701
 8842SOL    HW238163   4.282   1.639   3.571 -1.1079  0.0712  2.0218
 8843SOL     OW38164   4.719   2.282   1.915  0.2125 -0.4050 -0.0156
 8843SOL    HW138165   0.027   2.202   1.890  0.1982 -0.4413  0.0773
 8843SOL    HW238166   0.052   2.347   1.901  0.3962 -0.0688  2.5763
 8844SOL     OW38167   3.045   1.916   6.822  0.5562  0.4444  0.2025
 8844SOL    HW138168   3.045   1.821   6.836  1.2795  0.4737  0.3848
 8844SOL    HW238169   2.973   1.922   6.760 -0.1095 -0.4428  0.8799
 8845SOL     OW38170   1.860   2.773   1.365 -1.1179 -0.7021  0.1610
 8845SOL    HW138171   1.955   2.758   1.361 -0.9376  0.6214 -0.3921
 8845SOL    HW238172   1.860   2.838   1.436 -1.6744 -1.2206  0.6360
 8846SOL     OW38173   1.573   3.612   3.741  0.3796  0.0127 -0.2141
 8846SOL    HW138174   1.496   3.556   3.749  2.3726 -2.5167  1.1696
 8846SOL    HW238175   1.587   3.614   3.646  0.4267  0.8733 -0.1936
 8847SOL     OW38176   0.008   0.505   3.072  0.0011  0.4281  0.2688
 8847SOL    HW138177   4.712   0.440   3.134  1.7764  1.3553  2.1599
 8847SOL    HW238178   0.007   0.464   2.985 -1.0004 -1.9332  1.4076
 8848SOL     OW38179   3.665   4.106  15.831 -0.7269 -0.3431  0.4932
 8848SOL    HW138180   3.577   4.079  15.859 -0.5079 -2.3545 -0.7787
 8848SOL    HW238181   3.651   4.198  15.854 -0.4693 -0.7118  2.1614
 8849SOL     OW38182   4.308   3.866   7.069 -0.4127 -0.4211 -0.0273
 8849SOL    HW138183   4.322   3.815   7.149 -0.6749  1.5933  1.3202
 8849SOL    HW238184   4.221   3.839   7.041 -0.7638  0.8732 -0.1871
 8850SOL     OW38185   1.547   0.423   1.144 -0.3731  0.4145  0.3080
 8850SOL    HW138186   1.558   0.362   1.217 -2.2612  1.5163  1.5129
 8850SOL    HW238187   1.549   0.360   1.072 -0.1675 -0.8161  1.3843
 8851SOL     OW38188   3.193   0.731  14.808 -0.7073  0.1989  0.3119
 8851SOL    HW138189   3.130   0.717  14.879  2.5344 -0.9563  2.9927
 8851SOL    HW238190   3.255   0.667  14.843 -0.1820  1.0056  0.8790
 8852SOL     OW38191   4.664   0.425   3.939  0.4017 -0.8148  0.2266
 8852SOL    HW138192   4.609   0.503   3.936 -0.4377 -1.4052  0.4936
 8852SOL    HW238193   4.619   0.378   3.869  0.1953  0.8572 -0.7752
 8853SOL     OW38194   0.203   1.945  17.037  0.1435 -0.4659 -0.0274
 8853SOL    HW138195   0.176   1.860  17.000 -1.4724  0.1671 -0.3349
 8853SOL    HW238196   0.119   1.991  17.032  0.5327  0.0456 -1.8565
 8854SOL     OW38197   4.027   0.078   8.719  0.4284 -0.7749 -0.4548
 8854SOL    HW138198   4.080   4.735   8.718  0.2656 -0.8760 -0.7589
 8854SOL    HW238199   3.976   0.062   8.799 -1.3500  0.0176 -1.4437
 8855SOL     OW38200   2.182   0.377   1.795  0.5920 -0.1160  0.0475
 8855SOL    HW138201   2.105   0.369   1.852  0.7276 -1.6675  0.0102
 8855SOL    HW238202   2.245   0.314   1.829  0.9155 -0.9966 -2.2066
 8856SOL     OW38203   0.357   3.102   5.545  0.1041 -0.1298  0.0797
 8856SOL    HW138204   0.411   3.145   5.478  1.3363  0.9413  1.7615
 8856SOL    HW238205   0.268   3.114   5.512 -0.4476 -0.3574  1.4823
 8857SOL     OW38206   2.637   0.835   5.413  0.2721  0.1873  0.2625
 8857SOL    HW138207   2.687   0.905   5.455 -0.0998 -0.9853  2.6813
 8857SOL    HW238208   2.555   0.883   5.400  0.1414 -0.4039 -1.0906
 8858SOL     OW38209   3.413   4.585   7.992 -0.1581  0.2569  0.5417
 8858SOL    HW138210   3.338   4.602   8.049  0.5540  1.0906  1.2364
 8858SOL    HW238211   3.434   4.672   7.960  0.9377  0.6751  2.4294
 8859SOL     OW38212   0.764   3.637   9.349 -0.6594  0.4630  0.0829
 8859SOL    HW138213   0.720   3.711   9.391  0.8280  1.7003 -0.5396
 8859SOL    HW238214   0.848   3.638   9.393 -0.9247  0.5208  0.5851
 8860SOL     OW38215   1.803   3.457  15.312 -0.5641 -0.0688 -0.7140
 8860SOL    HW138216   1.810   3.394  15.240  0.5865  0.1013 -0.7478
 8860SOL    HW238217   1.731   3.426  15.366  2.6418 -0.0476  3.5302
 8861SOL     OW38218   2.209   3.291   3.861 -0.6291  0.5302  0.1360
 8861SOL    HW138219   2.291   3.244   3.845 -0.0609  1.4084  0.4917
 8861SOL    HW238220   2.182   3.244   3.940  2.5886 -0.5449  0.5852
 8862SOL     OW38221   4.736   2.159   3.431 -0.3850  0.7162 -0.3904
 8862SOL    HW138222   4.661   2.213   3.457  0.6810  1.9731  0.0636
 8862SOL    HW238223   4.706   2.129   3.345  1.0186  0.7754 -0.9025
 8863SOL     OW38224   2.241   2.954  11.102 -0.2170  0.1929  0.3135
 8863SOL    HW138225   2.215   2.977  11.191 -0.0810  0.2823  0.3308
 8863SOL    HW238226   2.217   2.862  11.114 -0.5381  0.0870 -1.1439
 8864SOL     OW38227   1.497   4.184  10.340  0.4887  0.9288 -0.1433
 8864SOL    HW138228   1.546   4.137  10.272  0.3748  0.8590 -0.1764
 8864SOL    HW238229   1.551   4.179  10.419  0.3718 -0.3052 -0.1485
 8865SOL     OW38230   4.606   4.535   0.263 -0.0624 -0.8290 -0.5125
 8865SOL    HW138231   4.574   4.563   0.177  0.6137  4.1283  0.8802
 8865SOL    HW238232   4.525   4.515   0.310 -0.0268 -0.7999 -0.4394
 8866SOL     OW38233   0.209   0.887   8.128  0.6761  0.3543  0.3665
 8866SOL    HW138234   0.177   0.919   8.212 -1.6502  0.4798 -0.5463
 8866SOL    HW238235   0.163   0.951   8.074 -0.3626 -1.4177 -0.8635
 8867SOL     OW38236   4.624   4.310   9.398  0.0016  0.2332  0.0150
 8867SOL    HW138237   4.529   4.308   9.403  0.0816 -0.1172  1.3031
 8867SOL    HW238238   4.634   4.366   9.320  0.2033  1.4811  0.9357
 8868SOL     OW38239   4.474   3.097  16.371  0.2891 -0.4183 -0.3197
 8868SOL    HW138240   4.529   3.033  16.417 -0.2188 -1.1556 -0.7480
 8868SOL    HW238241   4.404   3.118  16.432 -0.3684 -1.3521 -0.7503
 8869SOL     OW38242   0.380   1.563  15.662  0.1985 -0.1703  0.0003
 8869SOL    HW138243   0.438   1.539  15.589 -0.8959 -0.0817 -0.8925
 8869SOL    HW238244   0.329   1.633  15.622 -0.4322 -0.4209  0.3714
 8870SOL     OW38245   3.537   3.359   2.011 -0.2034 -0.1053 -0.8660
 8870SOL    HW138246   3.598   3.401   2.071 -1.9046 -0.7226  1.3053
 8870SOL    HW238247   3.563   3.268   2.001 -0.3947 -0.0614 -1.8004
 8871SOL     OW38248   0.773   0.265   7.838 -0.3479  0.5318  0.2007
 8871SOL    HW138249   0.836   0.313   7.785 -0.3580 -0.2027 -0.4748
 8871SOL    HW238250   0.833   0.249   7.911 -0.6637  1.6580  0.7230
 8872SOL     OW38251   3.380   0.301   9.929 -0.1416 -0.3720 -0.4381
 8872SOL    HW138252   3.310   0.360   9.956  1.5139  1.3967  0.0011
 8872SOL    HW238253   3.437   0.363   9.882  0.6784 -0.1872  0.7923
 8873SOL     OW38254   2.221   2.901   6.647 -0.0334 -0.5700 -0.3010
 8873SOL    HW138255   2.246   2.836   6.713  0.6978 -0.3445 -0.3546
 8873SOL    HW238256   2.129   2.879   6.632  0.1900 -0.1543 -2.3054
 8874SOL     OW38257   0.932   0.943   5.213  0.1456  0.1171 -0.0282
 8874SOL    HW138258   0.977   1.014   5.259  0.7173 -2.1735  2.9741
 8874SOL    HW238259   0.847   0.936   5.256 -0.4832  1.0178 -1.1238
 8875SOL     OW38260   2.207   0.695  14.020  0.2226  0.4718  0.6871
 8875SOL    HW138261   2.246   0.780  13.999 -0.4848  0.4689 -0.6522
 8875SOL    HW238262   2.183   0.712  14.111 -0.8862 -1.8040  0.8140
 8876SOL     OW38263   0.486   3.502  16.444 -0.1375 -0.0879 -0.1805
 8876SOL    HW138264   0.486   3.449  16.364 -1.2616  0.6400 -0.6708
 8876SOL    HW238265   0.576   3.493  16.475  0.1434  1.3416 -0.5662
 8877SOL     OW38266   2.010   4.525   4.189 -0.5149 -0.0582  0.1630
 8877SOL    HW138267   2.001   4.553   4.280 -0.2772 -0.0681  0.1895
 8877SOL    HW238268   2.090   4.474   4.175 -1.0575 -0.7719 -0.3856
 8878SOL     OW38269   2.892   3.334  15.506 -0.4280  0.2157 -0.1935
 8878SOL    HW138270   2.952   3.378  15.446  0.6127 -1.9461 -0.7556
 8878SOL    HW238271   2.818   3.310  15.450 -1.3176  3.4968 -0.4156
 8879SOL     OW38272   3.039   2.857   6.133  0.3400  0.4257 -0.1705
 8879SOL    HW138273   3.058   2.936   6.082 -0.6418  0.7408 -0.0574
 8879SOL    HW238274   3.128   2.826   6.147 -0.2447 -1.2007  0.0176
 8880SOL     OW38275   2.754   1.508   1.491  0.0122 -0.0043 -0.1391
 8880SOL    HW138276   2.675   1.562   1.487  0.0539  0.1294  1.0457
 8880SOL    HW238277   2.732   1.439   1.428  0.1240  1.1765 -1.4951
 8881SOL     OW38278   1.621   3.020  10.955 -0.1998 -0.2279 -0.1418
 8881SOL    HW138279   1.580   3.053  11.035  1.2790 -1.2732  1.0475
 8881SOL    HW238280   1.621   2.925  10.971 -1.2526 -0.0487  0.9825
 8882SOL     OW38281   4.623   3.516   4.454 -0.6374  0.4425  0.0077
 8882SOL    HW138282   4.706   3.545   4.493  0.3492 -0.7692 -1.1913
 8882SOL    HW238283   4.561   3.585   4.478 -2.9238 -1.8514  0.5987
 8883SOL     OW38284   2.349   1.978   8.048  0.6538 -0.2333  0.3639
 8883SOL    HW138285   2.436   1.942   8.033 -0.5956 -3.1426  0.0554
 8883SOL    HW238286   2.324   1.995   7.957  1.4606 -1.1145 -0.0256
 8884SOL     OW38287   0.027   1.634   3.617 -0.1372 -0.6891  0.0848
 8884SOL    HW138288   0.117   1.658   3.594 -0.7135  1.3355 -0.0359
 8884SOL    HW238289   4.724   1.701   3.561  0.0717 -0.0205  0.7341
 8885SOL     OW38290   3.146   0.149   3.726 -0.6919  0.0221  0.1180
 8885SOL    HW138291   3.088   0.104   3.664  0.7199  0.4287 -1.5044
 8885SOL    HW238292   3.079   0.192   3.779 -1.7541 -1.3129 -0.1215
 8886SOL     OW38293   4.594   2.495   6.166 -0.6431 -0.1309  0.0922
 8886SOL    HW138294   4.605   2.456   6.079  3.8647 -1.8197  1.3920
 8886SOL    HW238295   4.545   2.426   6.212 -1.4902  0.9674  0.8413
 8887SOL     OW38296   1.320   2.289  12.646  0.0825 -0.1004 -0.0913
 8887SOL    HW138297   1.353   2.227  12.712  1.6461 -0.1512 -0.9342
 8887SOL    HW238298   1.299   2.362  12.705 -1.8102 -0.6144 -0.1142
 8888SOL     OW38299   3.994   0.111   6.949  0.0510 -0.3729 -0.6453
 8888SOL    HW138300   3.992   0.195   6.904 -0.5986 -0.4421 -0.7420
 8888SOL    HW238301   3.921   0.074   6.900 -0.0428  1.0078 -1.5346
 8889SOL     OW38302   0.955   0.557   8.854  0.0351 -0.9387 -0.1338
 8889SOL    HW138303   0.907   0.474   8.863 -0.3044 -0.7367 -0.0656
 8889SOL    HW238304   0.944   0.581   8.762  1.1092  0.1477  0.0278
 8890SOL     OW38305   3.564   1.608  16.380  0.2331  0.5833  0.2554
 8890SOL    HW138306   3.592   1.596  16.290  0.6051 -1.3724  0.6246
 8890SOL    HW238307   3.613   1.687  16.403  0.9297  0.6353 -1.4476
 8891SOL     OW38308   1.729   1.653   6.282  0.2964 -0.0438  0.2659
 8891SOL    HW138309   1.693   1.732   6.321  0.1383 -0.0125  0.0567
 8891SOL    HW238310   1.817   1.658   6.319 -0.2487  0.0542  1.5339
 8892SOL     OW38311   3.252   2.414  13.797  0.7104  0.3410  0.2091
 8892SOL    HW138312   3.203   2.488  13.832  1.2973  0.5661  0.5533
 8892SOL    HW238313   3.189   2.389  13.729 -2.4787  0.7399  3.0653
 8893SOL     OW38314   0.901   0.223   2.448  0.3219  0.4710 -0.0032
 8893SOL    HW138315   0.976   0.243   2.393 -0.0082  2.9792  0.4428
 8893SOL    HW238316   0.835   0.286   2.417 -0.1231  0.2801  0.5444
 8894SOL     OW38317   4.171   0.241  16.122  0.3915 -0.2280  1.5129
 8894SOL    HW138318   4.182   0.166  16.064  2.2179  1.5516 -0.4754
 8894SOL    HW238319   4.141   0.317  16.072  0.6098 -0.3907  1.1363
 8895SOL     OW38320   2.417   0.227  14.170  0.2527  0.1082  0.1519
 8895SOL    HW138321   2.417   0.319  14.143 -2.4860  0.5298  1.5414
 8895SOL    HW238322   2.328   0.211  14.201  0.8431 -2.9721  0.2062
 8896SOL     OW38323   2.724   1.308   8.221  0.5271 -0.4804  0.0785
 8896SOL    HW138324   2.720   1.244   8.291 -0.1785 -2.5671 -1.8831
 8896SOL    HW238325   2.677   1.263   8.151  1.1103  0.2328 -0.7760
 8897SOL     OW38326   1.191   2.172   2.142  0.1931  0.2314  0.1233
 8897SOL    HW138327   1.140   2.095   2.164 -0.9756  0.7948 -0.6157
 8897SOL    HW238328   1.271   2.129   2.111  0.5436  0.9384  0.0300
 8898SOL     OW38329   1.794   3.927  14.566  0.1773 -0.2250  0.3599
 8898SOL    HW138330   1.871   3.889  14.525  1.6934  1.1765  1.8838
 8898SOL    HW238331   1.738   3.955  14.494 -0.0137  4.3370  2.2076
 8899SOL     OW38332   2.984   4.702   9.243  0.1858  0.2725 -0.1409
 8899SOL    HW138333   3.018   4.697   9.333  0.1991  2.3987 -0.0390
 8899SOL    HW238334   3.053   4.732   9.184 -1.8102  0.2265 -2.4877
 8900SOL     OW38335   1.614   3.231   6.478  0.5105  0.1681 -0.1364
 8900SOL    HW138336   1.570   3.267   6.401  1.0434 -0.8929 -0.9369
 8900SOL    HW238337   1.688   3.292   6.475 -0.3510  1.2403  0.2514
 8901SOL     OW38338   0.028   3.243   5.672  0.4638  0.3047 -0.5580
 8901SOL    HW138339   0.081   3.201   5.604  0.1272 -0.9762 -0.0386
 8901SOL    HW238340   0.046   3.176   5.738  1.6206  1.2382  0.0711
 8902SOL     OW38341   1.771   3.756   3.199 -0.2410  0.5059 -0.1450
 8902SOL    HW138342   1.801   3.790   3.284 -1.1540 -1.2033  0.8535
 8902SOL    HW238343   1.814   3.819   3.141  0.1741  0.3010 -0.0589
 8903SOL     OW38344   3.820   1.435   1.675 -0.1822  0.4640 -0.1544
 8903SOL    HW138345   3.758   1.409   1.743 -0.8021  0.2801 -0.7845
 8903SOL    HW238346   3.854   1.517   1.709 -1.5958  0.5106  1.1663
 8904SOL     OW38347   3.015   3.591   2.089  0.8329  0.5364  0.1852
 8904SOL    HW138348   2.999   3.628   2.176  1.5556 -1.0724  1.0051
 8904SOL    HW238349   3.089   3.531   2.099  1.7291  1.0611 -3.3339
 8905SOL     OW38350   0.601   3.087  15.491  0.4539 -0.4349  0.1293
 8905SOL    HW138351   0.525   3.120  15.443  0.4318 -0.3542  0.2193
 8905SOL    HW238352   0.675   3.142  15.467 -0.7578  0.2768 -1.9287
 8906SOL     OW38353   3.975   1.572   7.513  0.5957  0.9907 -0.6113
 8906SOL    HW138354   4.041   1.636   7.486  0.1683  1.0567 -1.4919
 8906SOL    HW238355   4.010   1.499   7.462 -1.5497  0.1891 -0.9631
 8907SOL     OW38356   3.835   1.422  15.857  0.4375  0.0085  0.0577
 8907SOL    HW138357   3.747   1.387  15.846 -0.6716  3.1017 -1.1068
 8907SOL    HW238358   3.893   1.355  15.821 -1.6805 -1.3861 -0.6908
 8908SOL     OW38359   2.999   2.183  17.639  0.2059 -0.5029  0.8474
 8908SOL    HW138360   2.994   2.088  17.654 -0.5019 -0.3217  1.7163
 8908SOL    HW238361   3.082   2.186  17.590  0.1690 -2.6980  0.6574
 8909SOL     OW38362   3.935   3.453   2.636  0.2821  0.2603  0.6756
 8909SOL    HW138363   3.984   3.535   2.642 -0.2470  0.6059  0.2560
 8909SOL    HW238364   3.861   3.483   2.583 -1.1093 -1.5814  1.5812
 8910SOL     OW38365   1.327   0.302   6.954 -0.7985  0.4879  0.3165
 8910SOL    HW138366   1.275   0.223   6.942 -0.1296 -0.1236  1.4390
 8910SOL    HW238367   1.258   0.363   6.982  0.1428  2.6388 -1.9710
 8911SOL     OW38368   2.381   0.803   3.746 -0.2972 -1.1371 -0.0253
 8911SOL    HW138369   2.354   0.836   3.661 -0.0320 -0.3846  0.1832
 8911SOL    HW238370   2.415   0.718   3.718  0.1838 -0.4435 -1.5566
 8912SOL     OW38371   0.203   1.093   3.372 -0.1871 -0.5361 -0.0262
 8912SOL    HW138372   0.119   1.139   3.363  0.7375  0.9184 -1.1415
 8912SOL    HW238373   0.251   1.148   3.434 -1.5878 -0.3699  0.9331
 8913SOL     OW38374   4.034   4.027   0.607 -0.3352 -0.3412 -0.4100
 8913SOL    HW138375   4.077   4.112   0.609 -1.9289  0.4398  0.1218
 8913SOL    HW238376   4.005   4.014   0.517 -0.7135 -2.3247  0.0023
 8914SOL     OW38377   0.732   2.158   5.444  0.3879 -0.1706  0.0335
 8914SOL    HW138378   0.823   2.150   5.417  0.3603  0.5153 -0.2732
 8914SOL    HW238379   0.696   2.070   5.439 -0.5583  0.0922  2.0128
 8915SOL     OW38380   2.227   0.011  17.275 -0.3972 -0.1860  0.0041
 8915SOL    HW138381   2.188   4.728  17.190  1.4354  2.0413 -1.3539
 8915SOL    HW238382   2.250   4.659  17.304 -1.4979 -0.9745 -1.5272
 8916SOL     OW38383   3.438   2.093   2.770  0.3756 -0.1168  0.1529
 8916SOL    HW138384   3.392   2.177   2.777  0.7260  0.1561 -0.9222
 8916SOL    HW238385   3.531   2.106   2.791  0.0690  1.0946  0.7625
 8917SOL     OW38386   3.723   0.686   8.123 -0.0343 -0.5910  0.6949
 8917SOL    HW138387   3.645   0.699   8.176 -0.7049 -0.8048 -0.2278
 8917SOL    HW238388   3.743   0.593   8.139  2.0242 -0.6311 -2.0764
 8918SOL     OW38389   0.358   4.093   7.502 -0.4598 -0.4359 -0.4163
 8918SOL    HW138390   0.338   4.160   7.436 -2.0937  0.3026  0.8253
 8918SOL    HW238391   0.445   4.116   7.534 -1.4727  1.1440  1.2119
 8919SOL     OW38392   4.127   3.013   4.548  0.2954  0.4456 -0.2132
 8919SOL    HW138393   4.135   2.966   4.465 -3.0737  1.1518 -0.9001
 8919SOL    HW238394   4.216   3.048   4.556  0.2983  0.1314  1.1454
 8920SOL     OW38395   4.125   2.020   9.729 -0.1633  0.3548 -0.1338
 8920SOL    HW138396   4.078   1.937   9.723 -0.4158  0.6730 -2.5830
 8920SOL    HW238397   4.146   2.035   9.821 -2.8607 -1.8152  0.8647
 8921SOL     OW38398   1.613   0.917   4.584  1.1982  0.6209 -0.3498
 8921SOL    HW138399   1.543   0.936   4.646  1.0191  0.8368 -0.6171
 8921SOL    HW238400   1.603   0.824   4.564 -2.9961  1.4373 -1.9289
 8922SOL     OW38401   3.386   1.114   4.097  0.0097  0.0662 -0.2050
 8922SOL    HW138402   3.461   1.077   4.051  0.0233  0.1012 -0.2107
 8922SOL    HW238403   3.357   1.165   4.021 -0.9153 -0.5817 -0.2927
 8923SOL     OW38404   3.342   1.519  15.344 -0.2781 -0.2867  0.2580
 8923SOL    HW138405   3.336   1.572  15.423 -2.0651  1.6739 -1.1965
 8923SOL    HW238406   3.265   1.550  15.297 -2.0639 -2.9504  1.4151
 8924SOL     OW38407   4.504   3.523  11.431  0.2022 -0.2560 -0.0889
 8924SOL    HW138408   4.493   3.561  11.344 -0.7316  3.2805  1.5726
 8924SOL    HW238409   4.576   3.559  11.481 -0.3015  0.5374  0.0622
 8925SOL     OW38410   3.105   0.969   5.884 -0.3462 -0.0321 -0.6361
 8925SOL    HW138411   3.030   0.916   5.909 -0.6813  0.1042 -1.3373
 8925SOL    HW238412   3.146   0.982   5.969 -1.4321  2.7826 -0.5494
 8926SOL     OW38413   2.201   0.400   2.529  0.1464 -0.6634 -0.0605
 8926SOL    HW138414   2.172   0.327   2.584 -0.4626 -0.2233  0.1970
 8926SOL    HW238415   2.264   0.438   2.589  0.8894 -0.1350 -1.1789
 8927SOL     OW38416   4.166   4.019   6.223 -0.1865  0.3512 -0.3962
 8927SOL    HW138417   4.163   4.040   6.316 -1.2650  1.3323 -0.6533
 8927SOL    HW238418   4.189   3.927   6.214  1.5568  0.5626  2.0269
 8928SOL     OW38419   2.477   2.108  14.514  0.0556 -0.4823 -0.1908
 8928SOL    HW138420   2.391   2.073  14.538  0.5737 -1.0574  0.7942
 8928SOL    HW238421   2.488   2.187  14.567 -2.6853  0.8826 -1.6255
 8929SOL     OW38422   1.080   4.551   1.872  0.0030 -0.2537 -0.6066
 8929SOL    HW138423   1.152   4.583   1.925 -0.2468  0.9392 -0.9811
 8929SOL    HW238424   1.056   4.618   1.808 -1.5304  1.8264  2.1660
 8930SOL     OW38425   4.454   2.587   8.757  0.1277  0.6253  0.1933
 8930SOL    HW138426   4.496   2.550   8.835 -0.1073 -1.0261 -0.4623
 8930SOL    HW238427   4.471   2.681   8.765  1.1407  0.2965  1.9332
 8931SOL     OW38428   2.041   1.527   5.891  0.4020 -0.0876  0.1040
 8931SOL    HW138429   2.105   1.594   5.867  0.9544 -0.7451 -0.2586
 8931SOL    HW238430   2.063   1.503   5.981 -1.4349  0.8526  0.8020
 8932SOL     OW38431   0.922   1.142   9.257  0.4640  0.0084 -0.2708
 8932SOL    HW138432   0.908   1.206   9.328 -1.2953  0.0235 -0.6260
 8932SOL    HW238433   0.896   1.189   9.178  0.9914 -1.5287 -1.3356
 8933SOL     OW38434   0.965   0.387   6.601 -0.6114  0.0134 -0.5693
 8933SOL    HW138435   0.979   0.430   6.685 -0.7463  2.0903 -1.6213
 8933SOL    HW238436   1.050   0.360   6.564  0.0503 -1.7849  2.2954
 8934SOL     OW38437   0.488   0.594   5.932  0.1319  0.0325  0.3550
 8934SOL    HW138438   0.483   0.577   6.026  0.2786 -0.7803  0.2221
 8934SOL    HW238439   0.396   0.611   5.913  0.1139 -2.2744 -1.6600
 8935SOL     OW38440   4.005   1.893   7.644 -0.0519  0.1612 -0.4066
 8935SOL    HW138441   4.036   1.866   7.558 -1.5554 -0.6685 -0.6863
 8935SOL    HW238442   4.089   1.881   7.689  0.5803  0.8247 -1.4192
 8936SOL     OW38443   3.393   4.285   7.224 -0.3064  0.5526 -0.2969
 8936SOL    HW138444   3.326   4.289   7.292 -0.8485 -0.6185 -0.7575
 8936SOL    HW238445   3.340   4.268   7.147  2.3377 -1.0012 -1.7675
 8937SOL     OW38446   3.917   3.150   7.476 -0.4067 -0.0982  0.1959
 8937SOL    HW138447   3.988   3.149   7.412 -1.3493  1.1687 -0.8682
 8937SOL    HW238448   3.950   3.096   7.548  0.3400  2.1954  1.5468
 8938SOL     OW38449   0.449   2.868   6.479  0.2006  0.4281  0.3559
 8938SOL    HW138450   0.356   2.846   6.485  0.2261 -0.1030 -1.2281
 8938SOL    HW238451   0.489   2.783   6.501  0.8680  0.4246 -0.8815
 8939SOL     OW38452   4.721   4.321   5.569 -0.8997  1.3306  0.1153
 8939SOL    HW138453   4.720   4.322   5.473  1.0044 -2.7867  0.0369
 8939SOL    HW238454   4.627   4.309   5.582 -0.2375 -1.3349  2.3206
 8940SOL     OW38455   2.413   1.868   1.703 -0.4156  0.0915 -0.3796
 8940SOL    HW138456   2.364   1.785   1.705  0.1961 -0.1901  1.8874
 8940SOL    HW238457   2.506   1.847   1.711  0.0680  2.3260 -0.2763
 8941SOL     OW38458   4.612   3.722   5.935 -0.2238 -0.1366  0.5961
 8941SOL    HW138459   4.630   3.768   5.853  1.0081 -3.8882 -1.2622
 8941SOL    HW238460   4.520   3.709   5.913 -0.0438 -0.7371  0.2021
 8942SOL     OW38461   2.394   2.102  13.184  0.3090 -0.2369 -0.0300
 8942SOL    HW138462   2.401   2.007  13.169  3.3429 -0.1551  0.7429
 8942SOL    HW238463   2.315   2.123  13.135 -1.1116  2.4552  3.4513
 8943SOL     OW38464   3.387   4.106   4.755 -0.0322 -0.0515  0.5966
 8943SOL    HW138465   3.432   4.136   4.677  0.3630 -2.0154  0.0721
 8943SOL    HW238466   3.454   4.109   4.823 -0.6190  1.3022  1.1223
 8944SOL     OW38467   4.353   4.086   9.302 -0.5105  0.5387 -0.6773
 8944SOL    HW138468   4.285   4.020   9.312 -0.9622  0.8804 -1.5054
 8944SOL    HW238469   4.422   4.058   9.362 -0.5281  3.1549  0.6110
 8945SOL     OW38470   0.464   3.226  14.853  0.6848  0.0775  0.1595
 8945SOL    HW138471   0.376   3.248  14.881  0.7846  3.3150 -1.9980
 8945SOL    HW238472   0.454   3.170  14.776 -0.7328  0.5377  0.0183
 8946SOL     OW38473   2.416   3.011   7.670  0.0588  0.1789 -0.7622
 8946SOL    HW138474   2.502   3.006   7.713 -2.0384  2.4778  3.6803
 8946SOL    HW238475   2.436   2.960   7.591 -1.0573  0.5031 -1.2520
 8947SOL     OW38476   3.611   1.376   8.630 -0.5598  0.0869  0.1620
 8947SOL    HW138477   3.580   1.382   8.720 -0.0368  1.4150  0.2605
 8947SOL    HW238478   3.584   1.462   8.596 -1.3958  0.3612  1.5391
 8948SOL     OW38479   0.922   3.366  10.235  0.4149 -0.1274 -0.6570
 8948SOL    HW138480   0.894   3.326  10.153 -0.2014  0.0634 -0.5383
 8948SOL    HW238481   0.941   3.292  10.292  0.2864  2.0291  2.2187
 8949SOL     OW38482   1.801   0.153   5.736  0.2038  0.6302 -0.6267
 8949SOL    HW138483   1.796   0.077   5.794 -0.9862  1.0070 -0.2272
 8949SOL    HW238484   1.710   0.155   5.707  0.0571  1.3186 -0.1052
 8950SOL     OW38485   3.685   4.602   3.102  0.1707  0.5987 -0.6485
 8950SOL    HW138486   3.751   4.670   3.093 -0.4555  1.1467 -1.1498
 8950SOL    HW238487   3.610   4.654   3.132 -0.5389 -0.7740 -0.0823
 8951SOL     OW38488   0.304   2.706   7.186  0.2167  0.4319 -0.6405
 8951SOL    HW138489   0.277   2.677   7.098  0.1389  0.5910 -0.6692
 8951SOL    HW238490   0.326   2.799   7.176 -1.9664  0.5958 -4.1407
 8952SOL     OW38491   1.159   1.868  10.833  0.3760 -0.3186  0.2075
 8952SOL    HW138492   1.183   1.807  10.763 -3.8592 -0.9285 -0.6982
 8952SOL    HW238493   1.154   1.803  10.904 -0.8602  0.8820  1.2189
 8953SOL     OW38494   3.741   1.088   1.583 -0.2297 -0.6203 -0.2814
 8953SOL    HW138495   3.758   1.053   1.495  2.8046 -0.8205  0.3777
 8953SOL    HW238496   3.661   1.041   1.605 -0.4091 -0.5403 -0.7499
 8954SOL     OW38497   0.378   2.920  16.043 -0.0749  0.1676 -0.0763
 8954SOL    HW138498   0.407   2.912  15.953 -0.1546 -1.3041  0.0340
 8954SOL    HW238499   0.406   3.007  16.073  2.3286  0.2999 -2.7295
 8955SOL     OW38500   4.408   1.374   2.676  0.0091 -0.1127  0.0625
 8955SOL    HW138501   4.373   1.351   2.762  1.6924 -0.3628  0.6810
 8955SOL    HW238502   4.327   1.403   2.635  0.3499  1.2541  0.3425
 8956SOL     OW38503   0.739   1.603   5.001  0.1732 -0.4564  0.2131
 8956SOL    HW138504   0.794   1.628   4.926  1.4805  1.8688  1.9682
 8956SOL    HW238505   0.698   1.689   5.013  0.1586 -0.5074  0.5210
 8957SOL     OW38506   2.962   3.682   9.705 -0.1717  0.7739 -0.6315
 8957SOL    HW138507   2.944   3.747   9.772  1.4336 -1.2655  1.8087
 8957SOL    HW238508   3.056   3.692   9.690  0.1390 -3.8178 -1.7585
 8958SOL     OW38509   0.943   1.603   9.610  0.1113  0.2014  0.2456
 8958SOL    HW138510   1.028   1.567   9.635  0.4312  0.6032 -0.2611
 8958SOL    HW238511   0.894   1.526   9.638  0.0369 -0.4256 -1.5730
 8959SOL     OW38512   0.577   2.858   2.690 -0.1357 -0.1614  0.3862
 8959SOL    HW138513   0.552   2.907   2.769  1.2958  2.1170 -0.5759
 8959SOL    HW238514   0.663   2.819   2.705 -1.0128 -1.4319  2.0463
 8960SOL     OW38515   4.221   3.562   9.471 -0.4743 -0.0799 -0.3552
 8960SOL    HW138516   4.256   3.557   9.382 -2.2087  0.8308 -1.0884
 8960SOL    HW238517   4.260   3.639   9.512 -0.9127 -0.5309  0.8889
 8961SOL     OW38518   0.161   1.734   1.894  0.1777 -0.1540  0.6160
 8961SOL    HW138519   0.076   1.760   1.928 -0.3499 -3.1989  1.6235
 8961SOL    HW238520   0.205   1.816   1.873 -0.5071  0.0344 -0.0721
 8962SOL     OW38521   2.527   3.087  12.371  0.1231  0.0201  0.2586
 8962SOL    HW138522   2.575   3.170  12.382  1.6729 -0.8631  0.1945
 8962SOL    HW238523   2.527   3.097  12.275 -0.9081  0.9140  0.3546
 8963SOL     OW38524   4.514   2.471   7.484 -0.2929  0.0123 -0.3709
 8963SOL    HW138525   4.605   2.444   7.476 -0.0708  0.9415 -0.9361
 8963SOL    HW238526   4.476   2.444   7.401  0.4423 -1.7307 -0.1319
 8964SOL     OW38527   2.207   1.153   3.246  0.1813  0.5750 -0.0128
 8964SOL    HW138528   2.199   1.164   3.341 -3.0029  2.6783 -0.5754
 8964SOL    HW238529   2.128   1.195   3.215 -0.5979 -1.6393 -0.9874
 8965SOL     OW38530   2.851   0.793   1.741  0.3256 -0.2701 -0.4832
 8965SOL    HW138531   2.846   0.878   1.785  2.2763 -0.1102 -0.5442
 8965SOL    HW238532   2.770   0.751   1.768  0.4823 -0.1178  0.2349
 8966SOL     OW38533   2.103   2.788   8.955 -0.1719 -0.3635  0.7056
 8966SOL    HW138534   2.164   2.752   8.891  0.8461  0.1611  1.3641
 8966SOL    HW238535   2.143   2.754   9.035  1.2322 -0.3071  0.0344
 8967SOL     OW38536   0.709   2.317  10.053 -0.0337  0.1848 -0.5635
 8967SOL    HW138537   0.757   2.292  10.132 -0.0954 -1.7036 -1.1309
 8967SOL    HW238538   0.659   2.395  10.078 -0.7550 -0.2676 -0.6221
 8968SOL     OW38539   2.530   4.023   4.779  0.1053 -0.3375 -0.3307
 8968SOL    HW138540   2.529   3.982   4.693  0.8092  0.8707 -0.9250
 8968SOL    HW238541   2.569   3.953   4.831 -3.6669 -1.8720  0.3708
 8969SOL     OW38542   2.188   1.691   5.714  0.3831  0.4847 -0.3121
 8969SOL    HW138543   2.149   1.779   5.721  1.7828  0.9176  1.7489
 8969SOL    HW238544   2.215   1.688   5.622 -0.1918  0.1453 -0.4729
 8970SOL     OW38545   0.959   2.105   5.283  0.4108 -0.5689  0.1574
 8970SOL    HW138546   1.053   2.112   5.295  0.6015 -1.9045 -0.5884
 8970SOL    HW238547   0.943   2.140   5.195  1.8599  0.4248  0.2886
 8971SOL     OW38548   2.046   0.482   7.810 -0.1720  0.1539  0.5411
 8971SOL    HW138549   2.018   0.431   7.734  0.6979  0.9960 -0.3414
 8971SOL    HW238550   2.120   0.528   7.771 -1.5390  0.7861 -1.3691
 8972SOL     OW38551   2.713   1.792  14.900  0.1086 -0.0825  0.3784
 8972SOL    HW138552   2.658   1.718  14.924 -0.1219  0.2117  0.7482
 8972SOL    HW238553   2.663   1.862  14.858 -0.2781 -1.0730 -0.8434
 8973SOL     OW38554   1.057   3.404  13.865  0.2982  0.4265  0.0868
 8973SOL    HW138555   1.052   3.497  13.889 -1.4073 -0.0979  1.7882
 8973SOL    HW238556   0.967   3.382  13.889  0.4396  0.3429  0.5449
 8974SOL     OW38557   4.024   3.770   6.995  0.0945 -0.3151  0.0180
 8974SOL    HW138558   3.971   3.740   7.069 -0.8961  0.2684 -0.4573
 8974SOL    HW238559   3.974   3.846   6.966  0.6444  0.2793  0.6285
 8975SOL     OW38560   4.216   4.390   5.430  0.0906  0.4425  0.4865
 8975SOL    HW138561   4.134   4.425   5.395  0.3488 -0.0922 -0.6503
 8975SOL    HW238562   4.222   4.313   5.374  0.8738  1.0689 -0.2873
 8976SOL     OW38563   0.446   1.738   8.185 -0.0051 -0.2594 -0.1889
 8976SOL    HW138564   0.533   1.747   8.147 -0.5215  0.9564 -1.0739
 8976SOL    HW238565   0.420   1.656   8.144  2.0127 -0.1352 -1.6805
 8977SOL     OW38566   2.360   4.013   1.458 -0.1943 -0.3116  0.6219
 8977SOL    HW138567   2.370   4.107   1.474  0.2006 -0.1412 -0.6149
 8977SOL    HW238568   2.281   4.006   1.404 -0.7860 -0.9385  1.5742
 8978SOL     OW38569   2.117   1.405   6.744 -0.4558 -0.5907  0.8426
 8978SOL    HW138570   2.036   1.453   6.762 -0.0903  0.2261  0.3362
 8978SOL    HW238571   2.087   1.350   6.672  2.0229  0.5741 -1.0676
 8979SOL     OW38572   2.117   4.652  12.503  0.3913 -0.4257 -0.2035
 8979SOL    HW138573   2.184   4.625  12.566  0.2734 -1.1532 -0.3897
 8979SOL    HW238574   2.169   4.654  12.423  0.5459  2.9302 -0.0318
 8980SOL     OW38575   1.813   1.924   1.327  0.8078  0.4260 -0.0331
 8980SOL    HW138576   1.848   2.011   1.309  3.9355 -0.7287  0.5051
 8980SOL    HW238577   1.888   1.873   1.356  0.6762 -1.1197 -2.4208
 8981SOL     OW38578   3.183   3.419   7.352 -0.1609 -0.1276  0.1380
 8981SOL    HW138579   3.123   3.458   7.415  2.1805  1.8308  1.1776
 8981SOL    HW238580   3.127   3.360   7.303 -2.3184  1.0416  1.1986
 8982SOL     OW38581   2.634   2.633   7.133 -0.9070  0.6082  0.1256
 8982SOL    HW138582   2.616   2.670   7.047  0.3787  0.5594 -0.1708
 8982SOL    HW238583   2.559   2.575   7.139 -0.6080  0.1059 -0.9471
 8983SOL     OW38584   3.606   1.327  11.335 -0.5540  0.1300  0.4939
 8983SOL    HW138585   3.695   1.338  11.369 -0.9943  0.9594  1.3678
 8983SOL    HW238586   3.560   1.399  11.378 -2.0522 -0.0841 -0.7221
 8984SOL     OW38587   0.287   3.836   3.811  0.4019 -0.2615 -0.5595
 8984SOL    HW138588   0.244   3.750   3.812  0.7431 -0.4265  0.8952
 8984SOL    HW238589   0.344   3.839   3.734  0.1958 -0.2672 -0.7137
 8985SOL     OW38590   2.837   3.487   5.485  0.2826 -0.4993 -0.0981
 8985SOL    HW138591   2.806   3.574   5.507  1.2993  0.8239 -3.9177
 8985SOL    HW238592   2.923   3.498   5.526  0.5854 -4.0467  0.2560
 8986SOL     OW38593   0.673   3.940   8.993  0.3323 -0.3642 -0.4350
 8986SOL    HW138594   0.696   4.007   9.057 -0.5145 -0.0192 -0.4976
 8986SOL    HW238595   0.650   3.990   8.915  0.2292  0.7787  0.3421
 8987SOL     OW38596   3.567   3.737   3.951  0.1919  0.6498  0.4198
 8987SOL    HW138597   3.584   3.746   3.857  1.6090 -0.2681  0.5793
 8987SOL    HW238598   3.478   3.770   3.952  0.0803  0.4236 -4.2084
 8988SOL     OW38599   2.903   4.617   1.235 -0.0315 -0.0068 -0.0810
 8988SOL    HW138600   2.867   4.703   1.256  1.6535  0.5165  0.6562
 8988SOL    HW238601   2.927   4.637   1.144  0.5247 -0.2526  0.0147
 8989SOL     OW38602   3.424   3.308  16.179  0.6686  0.1685  0.4254
 8989SOL    HW138603   3.401   3.391  16.138 -0.8796  1.0870  3.1593
 8989SOL    HW238604   3.505   3.332  16.224  0.6274  0.6998  0.2140
 8990SOL     OW38605   0.552   2.136   8.481 -0.1731  0.1294 -0.1172
 8990SOL    HW138606   0.485   2.198   8.452  1.1120  1.1737 -0.8213
 8990SOL    HW238607   0.541   2.147   8.575  0.0346  0.5129 -0.1388
 8991SOL     OW38608   1.884   2.626   1.042 -0.0846 -0.1843 -0.3779
 8991SOL    HW138609   1.814   2.661   0.986 -0.0584  0.4809  0.0073
 8991SOL    HW238610   1.965   2.655   1.000  0.2408 -1.2448 -0.4871
 8992SOL     OW38611   3.920   3.020  17.068  0.0818 -0.1959 -0.2007
 8992SOL    HW138612   3.879   2.939  17.041  0.5598 -0.6687  0.4857
 8992SOL    HW238613   3.849   3.084  17.062 -0.0048 -0.1411  1.2525
 8993SOL     OW38614   2.542   1.888   5.588  0.1819 -0.2481 -0.3358
 8993SOL    HW138615   2.544   1.937   5.671 -0.2365 -0.3425 -0.2724
 8993SOL    HW238616   2.451   1.910   5.570  0.5309  2.3760  1.0979
 8994SOL     OW38617   0.473   2.687   4.066 -0.3640 -0.0211  0.3614
 8994SOL    HW138618   0.527   2.703   4.144  1.4900 -1.5838 -0.6123
 8994SOL    HW238619   0.461   2.592   4.063 -1.3585  0.1628 -1.3080
 8995SOL     OW38620   3.052   2.642   5.708  0.0647 -0.0621 -0.2541
 8995SOL    HW138621   3.064   2.553   5.674 -0.9329 -0.7923  1.2736
 8995SOL    HW238622   3.018   2.630   5.797  3.1411  0.9446  1.0616
 8996SOL     OW38623   4.347   0.134   8.935  0.0896  0.3384 -0.6151
 8996SOL    HW138624   4.393   0.179   8.864 -0.5481 -0.7644 -1.7350
 8996SOL    HW238625   4.377   0.046   8.913 -0.9434 -0.4633  1.1599
 8997SOL     OW38626   2.121   3.380   4.464 -0.7226 -0.1603 -0.1168
 8997SOL    HW138627   2.084   3.462   4.433  0.9047  1.3694  1.9795
 8997SOL    HW238628   2.045   3.324   4.478 -2.5060  1.9044 -1.6569
 8998SOL     OW38629   4.534   3.562   6.632 -0.2340  0.0860  0.8432
 8998SOL    HW138630   4.482   3.629   6.590 -1.2783 -0.9252  0.5226
 8998SOL    HW238631   4.477   3.555   6.709  1.9442 -1.5711  2.3277
 8999SOL     OW38632   0.748   0.769  12.600  0.0915 -0.1773 -0.2278
 8999SOL    HW138633   0.696   0.697  12.634  0.7101 -0.9882 -1.0115
 8999SOL    HW238634   0.822   0.711  12.581 -0.6960 -1.4389  0.5790
 9000SOL     OW38635   4.672   0.691   2.511 -0.4667  0.1637 -0.3046
 9000SOL    HW138636   4.587   0.652   2.530  0.0995 -1.7129 -1.6340
 9000SOL    HW238637   4.663   0.782   2.541  1.1589  0.5343 -0.9481
 9001SOL     OW38638   2.538   3.990   9.455 -0.3575 -0.4541  0.1323
 9001SOL    HW138639   2.461   4.038   9.485 -1.6489 -3.6636  1.9372
 9001SOL    HW238640   2.611   4.034   9.500 -0.4253  0.3996 -0.5966
 9002SOL     OW38641   1.249   0.888   7.617 -0.5925  0.3539 -0.2351
 9002SOL    HW138642   1.188   0.880   7.543 -1.2297  1.1669  0.2019
 9002SOL    HW238643   1.311   0.955   7.587 -0.1474 -0.2943 -0.7707
 9003SOL     OW38644   0.201   2.222  15.090 -0.3429  0.6924 -0.3059
 9003SOL    HW138645   0.215   2.183  15.176 -0.2670  0.9687 -0.1931
 9003SOL    HW238646   0.143   2.296  15.108 -2.2307 -0.3144 -2.1998
 9004SOL     OW38647   1.372   1.427   4.060  0.0621  0.3341  0.2115
 9004SOL    HW138648   1.440   1.383   4.008 -0.2896  0.7872 -0.6240
 9004SOL    HW238649   1.394   1.395   4.147  1.1155 -1.0713 -0.5613
 9005SOL     OW38650   0.100   3.858   9.313 -0.3991 -0.6898 -0.3133
 9005SOL    HW138651   0.047   3.937   9.304  1.1134 -0.0153 -3.5143
 9005SOL    HW238652   0.184   3.883   9.273 -0.3476 -1.5747 -0.7584
 9006SOL     OW38653   1.217   2.511   6.071 -0.1829  0.7081  0.6531
 9006SOL    HW138654   1.202   2.427   6.027  0.7199  1.1018 -0.3968
 9006SOL    HW238655   1.243   2.569   6.000 -0.6661  0.6282  0.4111
 9007SOL     OW38656   0.662   2.539  13.199  0.4765  0.4956  0.3538
 9007SOL    HW138657   0.726   2.566  13.133  1.2380 -1.3692  0.3282
 9007SOL    HW238658   0.607   2.617  13.208 -0.5930 -0.2121 -0.0870
 9008SOL     OW38659   0.998   2.061   3.184  0.3997 -0.1556 -0.5299
 9008SOL    HW138660   0.981   2.086   3.094  4.4963  3.2321 -0.3474
 9008SOL    HW238661   0.918   2.096   3.222 -0.1877 -1.0718 -0.9279
 9009SOL     OW38662   3.649   1.239   9.053 -0.0088  0.0436 -0.5680
 9009SOL    HW138663   3.664   1.152   9.016  0.4668  0.2980 -0.9659
 9009SOL    HW238664   3.628   1.216   9.144  0.8960  0.8235 -0.1673
 9010SOL     OW38665   2.988   2.600   6.895 -0.0921 -0.1999  0.0825
 9010SOL    HW138666   3.078   2.583   6.867  0.0388  1.2219 -0.3325
 9010SOL    HW238667   2.967   2.672   6.836 -0.5569 -0.5713 -0.2091
 9011SOL     OW38668   1.395   4.082   4.989 -0.0651  0.0656  0.4916
 9011SOL    HW138669   1.476   4.131   5.002 -0.2303  1.0967 -2.4836
 9011SOL    HW238670   1.405   4.052   4.899 -0.2190  1.1694  0.1172
 9012SOL     OW38671   3.358   0.735   5.298  0.4486  0.3336 -0.0963
 9012SOL    HW138672   3.296   0.750   5.227 -1.3849 -0.3203  1.3847
 9012SOL    HW238673   3.309   0.748   5.379 -1.1460 -1.9655 -0.6748
 9013SOL     OW38674   1.371   1.287  13.382 -0.2053  0.0722  0.3915
 9013SOL    HW138675   1.416   1.235  13.315  2.1625  1.8440  0.6081
 9013SOL    HW238676   1.392   1.373  13.347  1.2237 -0.1355  0.7283
 9014SOL     OW38677   0.284   1.234   2.248 -0.2859 -0.3021 -0.1209
 9014SOL    HW138678   0.262   1.327   2.234  1.4314 -0.1705 -1.9446
 9014SOL    HW238679   0.218   1.205   2.311  1.6541  0.4181  2.2512
 9015SOL     OW38680   2.279   3.961   2.449  0.2489 -0.1073  0.0823
 9015SOL    HW138681   2.271   4.034   2.388  1.6028  0.0986  0.1485
 9015SOL    HW238682   2.370   3.937   2.432  0.3649  0.5355 -0.1661
 9016SOL     OW38683   3.571   3.768   5.762  0.0142  0.7943  0.0401
 9016SOL    HW138684   3.528   3.849   5.736 -2.8546 -0.5395  0.6862
 9016SOL    HW238685   3.519   3.730   5.833  0.3483  0.8274  0.3062
 9017SOL     OW38686   2.856   1.751   8.460 -0.4114 -0.0311  0.2257
 9017SOL    HW138687   2.800   1.690   8.508 -0.9938 -0.4602 -1.0160
 9017SOL    HW238688   2.878   1.820   8.522 -3.5735  0.9462  0.2612
 9018SOL     OW38689   1.427   2.314   2.430  0.0954  0.2715  0.0140
 9018SOL    HW138690   1.341   2.275   2.445 -1.7525  3.4669 -2.3600
 9018SOL    HW238691   1.454   2.355   2.512  0.0532 -0.1655  0.2434
 9019SOL     OW38692   4.691   0.058   9.312  0.2298  0.4433 -0.5417
 9019SOL    HW138693   4.603   0.052   9.276 -0.1461 -0.4104  0.5051
 9019SOL    HW238694   4.683   4.732   9.384  2.3256 -0.0628 -0.7569
 9020SOL     OW38695   0.832   0.308   4.452  0.1069 -0.0152  0.3373
 9020SOL    HW138696   0.783   0.309   4.535  0.7720  0.5822  0.7264
 9020SOL    HW238697   0.760   0.338   4.397  0.7787  1.2461  0.1574
 9021SOL     OW38698   3.057   1.343   5.577 -0.5083  0.3676  0.3300
 9021SOL    HW138699   3.082   1.401   5.649 -0.6583 -0.3029  0.9281
 9021SOL    HW238700   3.120   1.273   5.593  0.1593  1.1611  1.1859
 9022SOL     OW38701   3.275   3.596  11.249 -0.3014 -0.8073 -0.4195
 9022SOL    HW138702   3.319   3.631  11.326  0.9215 -0.9396 -1.0420
 9022SOL    HW238703   3.301   3.505  11.264 -2.0311 -1.3558 -0.7951
 9023SOL     OW38704   2.606   3.264   5.166  0.6011  1.0500  1.0302
 9023SOL    HW138705   2.652   3.255   5.249  1.7939  3.5169  0.6398
 9023SOL    HW238706   2.553   3.342   5.181 -1.0183  0.1191  0.0709
 9024SOL     OW38707   2.005   1.976   2.969 -0.1514  0.2761  0.0921
 9024SOL    HW138708   1.976   1.957   2.880 -0.0186  0.1956  0.0657
 9024SOL    HW238709   2.068   2.046   2.957  1.9185 -1.7495 -0.8552
 9025SOL     OW38710   3.486   1.553  15.130 -0.0517  0.2755  0.4803
 9025SOL    HW138711   3.430   1.621  15.093  1.7426  1.7073  0.4057
 9025SOL    HW238712   3.460   1.550  15.222  0.8719  1.8145  0.8016
 9026SOL     OW38713   1.970   4.215   6.312  0.1046 -0.0820 -0.3110
 9026SOL    HW138714   2.013   4.176   6.235 -1.0607 -0.3896 -0.7955
 9026SOL    HW238715   2.012   4.301   6.306 -3.1888  1.4565 -1.2127
 9027SOL     OW38716   2.296   2.582   6.714  0.2660 -0.0484 -0.1504
 9027SOL    HW138717   2.275   2.595   6.621 -0.0448 -0.8937 -0.2017
 9027SOL    HW238718   2.280   2.488   6.725  1.2233 -0.0953  0.8521
 9028SOL     OW38719   3.896   4.003   0.839  0.4470 -0.5388 -0.6786
 9028SOL    HW138720   3.844   4.082   0.853  1.3737 -0.2068  0.8646
 9028SOL    HW238721   3.908   4.012   0.744 -0.1821 -2.0934 -0.8938
 9029SOL     OW38722   4.645   3.567   7.294 -0.5724 -0.1340  0.8874
 9029SOL    HW138723   4.633   3.518   7.375  2.2801 -1.0464  0.7606
 9029SOL    HW238724   4.626   3.495   7.233  0.4406  1.5359 -1.4033
 9030SOL     OW38725   3.393   1.267   1.535  0.2987  0.2220  0.2425
 9030SOL    HW138726   3.336   1.198   1.571  0.5176 -0.2112 -0.2418
 9030SOL    HW238727   3.338   1.285   1.459 -0.2483  0.8997  0.7937
 9031SOL     OW38728   0.783   1.201  15.839  0.7550 -0.0183  0.2699
 9031SOL    HW138729   0.860   1.202  15.782  0.5892 -3.2161 -0.0502
 9031SOL    HW238730   0.794   1.290  15.871  1.5720  0.0622 -0.2304
 9032SOL     OW38731   3.160   1.734   4.936  0.1761  0.5813  0.7720
 9032SOL    HW138732   3.193   1.742   4.846  0.0403 -0.0948  0.6576
 9032SOL    HW238733   3.190   1.647   4.963  3.8636  1.2215 -1.3297
 9033SOL     OW38734   3.751   4.633  16.267  0.6121 -0.0822  0.2230
 9033SOL    HW138735   3.801   4.600  16.341  0.0875  1.8634  1.4721
 9033SOL    HW238736   3.753   4.728  16.279  1.0355 -0.2976  1.8579
 9034SOL     OW38737   0.570   4.121   5.096 -0.0326 -0.1820  0.6344
 9034SOL    HW138738   0.532   4.207   5.111 -0.0026 -0.3207  1.5056
 9034SOL    HW238739   0.630   4.132   5.170 -0.3748 -1.3275  1.0878
 9035SOL     OW38740   4.504   2.666   4.246 -0.3017 -0.0570  0.2290
 9035SOL    HW138741   4.582   2.721   4.243  0.3180 -1.0563 -1.9491
 9035SOL    HW238742   4.528   2.574   4.234 -0.8241 -0.4012  1.8755
 9036SOL     OW38743   3.290   1.469   1.711 -0.2581 -0.2871  0.4238
 9036SOL    HW138744   3.334   1.404   1.656 -1.7544 -2.3200  1.6658
 9036SOL    HW238745   3.339   1.548   1.689  0.6033 -0.9376  0.0024
 9037SOL     OW38746   0.839   3.938   4.343  0.1673 -0.1892 -0.7170
 9037SOL    HW138747   0.797   3.937   4.257 -3.5905  0.9711  1.1026
 9037SOL    HW238748   0.920   3.984   4.326  0.9823 -1.2142  0.3361
 9038SOL     OW38749   2.379   3.337   8.529 -0.8651 -0.3581 -0.4499
 9038SOL    HW138750   2.376   3.257   8.477 -3.0286 -0.4235 -0.2519
 9038SOL    HW238751   2.449   3.387   8.487 -0.5001  0.4556  1.0943
 9039SOL     OW38752   2.178   3.760   8.641  0.0208 -0.0878  0.0184
 9039SOL    HW138753   2.237   3.727   8.708  1.3702 -0.2066 -1.2348
 9039SOL    HW238754   2.133   3.826   8.693  0.0325  0.1561 -0.2857
 9040SOL     OW38755   0.824   0.947   7.737  0.4846 -0.2127  0.0253
 9040SOL    HW138756   0.735   0.920   7.761  0.6900 -2.0933 -1.3296
 9040SOL    HW238757   0.829   0.903   7.653  0.1611 -0.1933 -0.0067
 9041SOL     OW38758   4.000   0.160   3.250 -0.4626 -0.0088  0.2676
 9041SOL    HW138759   3.945   0.149   3.172  0.0234 -1.5681  0.1532
 9041SOL    HW238760   3.941   0.151   3.325  0.7751  1.7971  1.4517
 9042SOL     OW38761   3.610   0.807   1.112 -0.3015 -0.3865  0.2830
 9042SOL    HW138762   3.680   0.837   1.170 -1.1363  0.4951  0.8352
 9042SOL    HW238763   3.575   0.890   1.078 -1.3285 -1.1124 -0.4625
 9043SOL     OW38764   0.537   0.890   5.872  0.2325 -0.1547 -0.0175
 9043SOL    HW138765   0.515   0.808   5.915 -0.5980  0.7613  1.3060
 9043SOL    HW238766   0.498   0.961   5.923  0.9912 -0.7489  1.3823
 9044SOL     OW38767   4.009   4.110   5.858 -0.3252 -0.1213  0.2836
 9044SOL    HW138768   3.996   4.085   5.949  1.3996 -0.5516  0.4099
 9044SOL    HW238769   4.073   4.180   5.871 -0.1554 -0.1539 -0.3677
 9045SOL     OW38770   2.085   3.608   1.118  0.0161 -0.1614 -0.2258
 9045SOL    HW138771   2.034   3.625   1.039  0.8187 -1.7077 -1.0555
 9045SOL    HW238772   2.089   3.694   1.162 -2.8720  0.2625 -0.7896
 9046SOL     OW38773   3.594   3.896   2.973  0.3088  0.3827  0.0413
 9046SOL    HW138774   3.539   3.836   2.922 -0.7524  1.8380 -0.5312
 9046SOL    HW238775   3.627   3.837   3.041 -0.5720  0.1118  0.2420
 9047SOL     OW38776   4.693   2.062   3.926 -0.3942  0.4072 -0.3723
 9047SOL    HW138777   4.645   1.989   3.887 -0.7426  0.8832 -0.8397
 9047SOL    HW238778   0.045   2.025   3.931  0.0679  1.3138 -1.8582
 9048SOL     OW38779   3.823   0.179  16.586 -0.3172 -0.2337  0.3242
 9048SOL    HW138780   3.746   0.160  16.533 -0.0514  0.6593 -0.3695
 9048SOL    HW238781   3.884   0.160  16.515 -1.3623  0.7069 -0.8316
 9049SOL     OW38782   1.768   2.679   2.787 -0.6202  0.6032 -0.8255
 9049SOL    HW138783   1.811   2.636   2.713 -0.1135 -0.4775  0.0815
 9049SOL    HW238784   1.720   2.746   2.738  2.1394  2.0649 -1.4892
 9050SOL     OW38785   4.414   2.005  13.067 -0.4099 -0.3055  0.1258
 9050SOL    HW138786   4.428   2.100  13.070 -0.3853 -0.2944 -0.2950
 9050SOL    HW238787   4.319   2.008  13.080 -0.4229 -3.5107  0.6431
 9051SOL     OW38788   2.509   1.558   8.304  0.4648 -0.6479  0.1374
 9051SOL    HW138789   2.527   1.476   8.352  0.3291 -0.7226  0.0589
 9051SOL    HW238790   2.499   1.609   8.384  1.0294  0.6340 -0.6208
 9052SOL     OW38791   1.273   2.473  13.922  0.2161  0.2986  0.0507
 9052SOL    HW138792   1.321   2.556  13.918 -0.6109  0.7776  0.0929
 9052SOL    HW238793   1.211   2.489  13.851 -0.8948 -0.6248  0.8121
 9053SOL     OW38794   4.013   3.072   7.723 -0.3456 -0.0216 -0.2704
 9053SOL    HW138795   4.026   2.983   7.754  1.4836  0.8358  1.4442
 9053SOL    HW238796   3.918   3.068   7.733 -0.2745 -0.0569  0.4192
 9054SOL     OW38797   4.415   4.294   2.362  0.7050 -0.1919 -0.3949
 9054SOL    HW138798   4.322   4.285   2.383  0.5657  0.3300 -0.7905
 9054SOL    HW238799   4.437   4.247   2.443 -0.7752 -0.0864  0.0738
 9055SOL     OW38800   3.409   4.245   6.829 -0.1466 -0.3525  0.2358
 9055SOL    HW138801   3.386   4.336   6.812 -0.6543 -0.1730  1.8570
 9055SOL    HW238802   3.323   4.210   6.853  1.1765 -1.5966  3.2391
 9056SOL     OW38803   4.258   2.420   8.680  0.0533  0.4841 -0.1935
 9056SOL    HW138804   4.304   2.377   8.608 -1.6230  0.3631 -1.1784
 9056SOL    HW238805   4.329   2.484   8.688  0.1840  0.0518  2.1202
 9057SOL     OW38806   1.376   2.873   3.187  0.5131 -0.3029 -0.6651
 9057SOL    HW138807   1.330   2.827   3.256  0.1441  0.7902 -0.1872
 9057SOL    HW238808   1.460   2.826   3.187  0.0915 -1.0460 -0.9235
 9058SOL     OW38809   3.317   0.214   4.203  0.1986 -0.5096  0.3980
 9058SOL    HW138810   3.361   0.176   4.127 -1.4568 -2.0744  0.2319
 9058SOL    HW238811   3.323   0.146   4.270  1.1902 -1.1974 -0.3819
 9059SOL     OW38812   3.028   2.352   0.605 -0.1711 -0.5676 -0.4689
 9059SOL    HW138813   3.081   2.285   0.562 -0.1790  0.5898 -2.2901
 9059SOL    HW238814   3.055   2.341   0.696  0.9777 -1.1437 -0.8853
 9060SOL     OW38815   3.603   0.872  10.150 -0.2081 -0.1868 -0.3048
 9060SOL    HW138816   3.513   0.844  10.132 -1.6070  4.0890 -0.1956
 9060SOL    HW238817   3.619   0.816  10.226  1.4210 -1.5731 -1.6883
 9061SOL     OW38818   0.185   2.197   6.157  0.4000  0.1332  0.1993
 9061SOL    HW138819   0.233   2.114   6.157 -0.3902 -0.3199  0.1482
 9061SOL    HW238820   0.201   2.229   6.068  3.2753  1.3044  1.1241
 9062SOL     OW38821   2.940   3.355  15.232  0.0435  0.0737 -0.0287
 9062SOL    HW138822   2.845   3.347  15.243  0.2892 -0.6632  1.5788
 9062SOL    HW238823   2.936   3.414  15.157  2.0034 -0.3056 -0.4239
 9063SOL     OW38824   2.432   0.346   7.496 -0.3965  0.2500 -0.0179
 9063SOL    HW138825   2.525   0.328   7.484 -0.2178  0.9833  0.2331
 9063SOL    HW238826   2.394   0.288   7.562  0.4745 -1.0068 -0.6203
 9064SOL     OW38827   4.056   0.311  14.946 -0.1617 -1.0993  0.4050
 9064SOL    HW138828   4.011   0.241  14.898 -1.0159 -0.8700  0.8616
 9064SOL    HW238829   4.149   0.309  14.925 -0.3564  0.3746 -0.6006
 9065SOL     OW38830   3.304   0.286  13.138  0.2335 -0.2502  0.0504
 9065SOL    HW138831   3.284   0.299  13.231 -1.9784 -0.4845 -0.3905
 9065SOL    HW238832   3.279   0.194  13.139  2.0688 -0.7301  0.4728
 9066SOL     OW38833   2.561   0.090  13.996  0.1609 -0.9949 -0.2170
 9066SOL    HW138834   2.505   0.126  13.927 -1.7699 -0.4338  1.6380
 9066SOL    HW238835   2.522   0.131  14.074  0.4709  0.3199 -0.7619
 9067SOL     OW38836   1.445   2.136   7.465 -0.2866 -0.2361  0.0550
 9067SOL    HW138837   1.368   2.079   7.462 -1.0578  0.9377 -2.4508
 9067SOL    HW238838   1.488   2.107   7.545 -2.9652 -3.4395  0.3582
 9068SOL     OW38839   2.817   1.647   9.027  0.3576 -0.4799  0.6935
 9068SOL    HW138840   2.892   1.588   9.039  0.1888 -1.4158 -2.7807
 9068SOL    HW238841   2.824   1.686   9.114  1.3641 -0.4136  0.5844
 9069SOL     OW38842   3.170   3.020   2.359 -0.0887 -0.1996  0.1262
 9069SOL    HW138843   3.243   3.071   2.393  2.2127 -2.8851 -0.7046
 9069SOL    HW238844   3.212   2.934   2.373  2.0709  0.8408  0.0809
 9070SOL     OW38845   0.658   2.454  14.172  0.6894  0.0319  0.1869
 9070SOL    HW138846   0.690   2.544  14.181  0.4115  0.0198  1.3478
 9070SOL    HW238847   0.682   2.410  14.254 -0.2808 -0.4412  0.2197
 9071SOL     OW38848   3.244   2.589   1.525 -0.0170 -0.5115 -0.0959
 9071SOL    HW138849   3.224   2.650   1.597 -0.5591 -0.5502 -0.2137
 9071SOL    HW238850   3.282   2.649   1.461 -0.3506 -1.4810 -1.1895
 9072SOL     OW38851   0.988   2.225  16.868  0.0132 -0.1062  0.3178
 9072SOL    HW138852   0.934   2.286  16.918 -2.2831 -2.3292  0.5603
 9072SOL    HW238853   1.036   2.284  16.809 -1.2821 -0.0839 -0.7033
 9073SOL     OW38854   0.867   1.437  15.916  0.3685  0.3516 -0.1765
 9073SOL    HW138855   0.959   1.464  15.913  0.4136  0.3145  0.7649
 9073SOL    HW238856   0.852   1.425  16.010  0.5706 -1.7703 -0.4056
 9074SOL     OW38857   3.598   2.584   7.204  0.2068  0.0489  0.4122
 9074SOL    HW138858   3.522   2.618   7.251  1.2492  1.2606  1.2288
 9074SOL    HW238859   3.635   2.523   7.268 -0.8553 -0.4740  0.5203
 9075SOL     OW38860   0.001   3.050   3.807 -0.5555  0.3719  0.0885
 9075SOL    HW138861   0.002   2.957   3.782  0.4792  0.2080  0.7497
 9075SOL    HW238862   4.672   3.039   3.875 -1.3178  1.9844 -0.3984
 9076SOL     OW38863   3.464   3.051   2.200  0.1728  0.4209 -0.9256
 9076SOL    HW138864   3.436   3.140   2.222 -0.5980 -0.0553  0.0182
 9076SOL    HW238865   3.394   3.031   2.138 -1.7434 -0.4464  1.5587
 9077SOL     OW38866   3.183   0.037   1.765 -0.2842  0.2130 -0.1932
 9077SOL    HW138867   3.268   0.034   1.809 -0.4521 -0.7461  0.0587
 9077SOL    HW238868   3.136   0.093   1.827 -1.1491 -0.0369 -0.6332
 9078SOL     OW38869   2.393   1.856   4.677  0.1543 -0.2440 -0.6816
 9078SOL    HW138870   2.354   1.939   4.652  0.9419  0.3489  0.0696
 9078SOL    HW238871   2.484   1.868   4.650  0.6708 -1.8208  0.3158
 9079SOL     OW38872   4.105   3.803  14.116 -0.1453 -0.2003 -0.1486
 9079SOL    HW138873   4.079   3.781  14.206 -0.7154  1.1090  0.0207
 9079SOL    HW238874   4.037   3.759  14.065 -0.7818  1.4677 -0.7484
 9080SOL     OW38875   2.239   3.625   5.795  0.0052 -0.1187  0.4315
 9080SOL    HW138876   2.227   3.546   5.849  1.7930  0.3465  1.5343
 9080SOL    HW238877   2.226   3.592   5.706 -1.5853 -0.9184  0.9598
 9081SOL     OW38878   2.545   1.145   8.064  0.4473  0.7197  0.5630
 9081SOL    HW138879   2.531   1.050   8.067 -1.0861  0.9909  2.1237
 9081SOL    HW238880   2.468   1.174   8.112  0.0578 -1.2105  1.1329
 9082SOL     OW38881   2.898   4.269   1.579 -0.0313 -0.0621  0.1056
 9082SOL    HW138882   2.906   4.353   1.624  0.3270  0.2594 -0.5461
 9082SOL    HW238883   2.893   4.308   1.491  1.0547 -0.5488 -0.1682
 9083SOL     OW38884   2.441   1.706   6.369 -0.1701  0.2092 -0.5291
 9083SOL    HW138885   2.377   1.672   6.306 -1.9547  1.8530  0.3946
 9083SOL    HW238886   2.519   1.690   6.316 -0.2043  0.8064 -0.7649
 9084SOL     OW38887   3.003   2.559   3.195  0.3769 -0.0697 -0.4499
 9084SOL    HW138888   2.910   2.540   3.181  0.7393 -1.5293 -0.8379
 9084SOL    HW238889   3.040   2.497   3.133  1.8514  0.5849 -0.2252
 9085SOL     OW38890   3.722   0.760  13.612  0.5580  0.4122  0.0823
 9085SOL    HW138891   3.761   0.844  13.589  0.6666  0.5824  0.8901
 9085SOL    HW238892   3.641   0.796  13.650  0.1353  0.5790 -0.9903
 9086SOL     OW38893   4.690   4.168  11.700 -0.0007 -0.4755  0.6204
 9086SOL    HW138894   4.643   4.191  11.781  1.3823 -3.3141  2.2427
 9086SOL    HW238895   0.037   4.210  11.719  1.4380 -2.9609 -0.3033
 9087SOL     OW38896   2.367   4.590  12.650  0.1426 -0.3574  0.0152
 9087SOL    HW138897   2.412   4.528  12.592 -1.0182  0.7305 -2.0460
 9087SOL    HW238898   2.441   4.634  12.691 -0.3868  0.1977  0.3597
 9088SOL     OW38899   0.245   1.464   9.328 -0.0666  0.2556 -0.1094
 9088SOL    HW138900   0.273   1.377   9.299  1.0017  1.2280 -2.0244
 9088SOL    HW238901   0.301   1.516   9.271 -0.6782  0.6355 -0.3618
 9089SOL     OW38902   1.668   3.844  11.398 -0.5299 -0.1796 -0.0553
 9089SOL    HW138903   1.578   3.836  11.366 -0.5559  3.3370 -0.8695
 9089SOL    HW238904   1.665   3.917  11.459  1.2689  0.3655 -0.6202
 9090SOL     OW38905   3.304   0.323   3.277 -0.1774 -0.6990 -1.0580
 9090SOL    HW138906   3.210   0.342   3.284 -0.0869 -0.8796  0.6474
 9090SOL    HW238907   3.315   0.303   3.184 -0.9955  1.6251 -1.6473
 9091SOL     OW38908   2.142   1.777  16.509 -0.3143 -0.0235  0.1731
 9091SOL    HW138909   2.192   1.799  16.587  0.4887 -0.1554 -0.3065
 9091SOL    HW238910   2.093   1.699  16.537  0.4114 -0.9691 -1.1525
 9092SOL     OW38911   3.134   3.657   3.989  0.1036  0.0700  0.2108
 9092SOL    HW138912   3.053   3.669   3.938  0.4151 -0.7397 -0.4706
 9092SOL    HW238913   3.189   3.617   3.922 -0.7466 -1.1257  0.2219
 9093SOL     OW38914   2.339   3.805   3.684 -0.1922 -0.1636  0.7412
 9093SOL    HW138915   2.399   3.822   3.757 -1.3529 -0.0419  1.6802
 9093SOL    HW238916   2.300   3.719   3.699 -1.5390  0.6854  2.2414
 9094SOL     OW38917   2.688   1.532   6.278  0.5020 -0.0975 -0.0149
 9094SOL    HW138918   2.778   1.504   6.295  1.1349  2.3659  0.6656
 9094SOL    HW238919   2.699   1.626   6.289  1.4913 -0.2297  0.1515
 9095SOL     OW38920   1.240   1.199   2.702 -0.0701  0.2042  0.3773
 9095SOL    HW138921   1.293   1.126   2.671 -1.3808 -0.1943 -0.9329
 9095SOL    HW238922   1.217   1.171   2.791 -0.9735 -0.9523 -0.2120
 9096SOL     OW38923   0.437   1.293   5.761 -0.6939  0.6216 -0.0545
 9096SOL    HW138924   0.464   1.219   5.814 -1.5216 -0.2177 -0.7993
 9096SOL    HW238925   0.442   1.258   5.673 -0.4259  2.6658 -0.8565
 9097SOL     OW38926   0.905   2.477   1.102 -0.3900  0.1897  0.3762
 9097SOL    HW138927   0.972   2.483   1.033  0.1493  0.2560  0.9066
 9097SOL    HW238928   0.896   2.572   1.113 -1.8993 -0.1310  1.7559
 9098SOL     OW38929   1.757   2.374   5.018 -0.7548 -0.0264  0.5686
 9098SOL    HW138930   1.786   2.284   5.031 -2.4502 -0.2139  3.0753
 9098SOL    HW238931   1.830   2.407   4.966  0.2280 -4.3592 -0.8711
 9099SOL     OW38932   2.144   4.710   6.530 -0.7843 -0.0087 -0.0599
 9099SOL    HW138933   2.201   4.724   6.606 -0.9811 -0.3288  0.1459
 9099SOL    HW238934   2.076   0.040   6.538  1.3656  1.8925  2.2549
 9100SOL     OW38935   0.823   3.041   5.983 -0.2882  0.4257 -0.1705
 9100SOL    HW138936   0.740   2.993   5.978  1.9583 -3.6021  0.9901
 9100SOL    HW238937   0.849   3.046   5.891 -1.6137  1.5583 -0.4732
 9101SOL     OW38938   3.329   3.836   3.897  0.2044  0.0228 -0.4853
 9101SOL    HW138939   3.297   3.866   3.813  1.2452 -0.3678 -1.0224
 9101SOL    HW238940   3.257   3.795   3.945  0.9480 -1.0648 -0.2796
 9102SOL     OW38941   4.000   3.633   7.716  0.5139 -0.3887 -0.4144
 9102SOL    HW138942   3.905   3.626   7.707  0.3030  0.5712  1.1693
 9102SOL    HW238943   4.022   3.542   7.736 -0.0262 -0.2079  0.9907
 9103SOL     OW38944   2.304   3.782   4.123  0.2093  0.1130 -0.1445
 9103SOL    HW138945   2.244   3.853   4.100  1.0462  0.4887 -1.1934
 9103SOL    HW238946   2.255   3.707   4.087  1.7222 -0.3607 -1.2277
 9104SOL     OW38947   2.654   0.028   3.965  0.2603  0.8899  0.1225
 9104SOL    HW138948   2.563   0.048   3.941  0.0140 -1.7385 -1.1361
 9104SOL    HW238949   2.642   0.025   4.060  0.1297 -0.2040  0.0704
 9105SOL     OW38950   2.305   2.671  14.536  0.0673  0.1236 -0.0134
 9105SOL    HW138951   2.313   2.709  14.623  1.3953 -0.3178  0.0679
 9105SOL    HW238952   2.343   2.724  14.466  0.9520 -0.8070 -0.2478
 9106SOL     OW38953   4.042   2.836   7.880  0.1243 -0.0624  0.0422
 9106SOL    HW138954   4.079   2.883   7.955 -3.7323  0.3772  1.6581
 9106SOL    HW238955   3.972   2.786   7.921 -0.7015  0.7011 -0.4275
 9107SOL     OW38956   4.641   3.408   0.574 -0.1888 -0.5219 -0.1547
 9107SOL    HW138957   4.653   3.343   0.504 -0.2958 -0.8249  0.1093
 9107SOL    HW238958   4.551   3.438   0.564 -0.4823 -1.0061  1.1064
 9108SOL     OW38959   3.057   4.365   2.238  0.1299 -0.7627 -0.1555
 9108SOL    HW138960   3.003   4.367   2.158  0.5128 -1.7816 -0.4412
 9108SOL    HW238961   3.075   4.272   2.248  1.8546 -0.5943 -1.7077
 9109SOL     OW38962   2.753   4.695   2.346  0.7500  0.2332  0.1230
 9109SOL    HW138963   2.663   4.727   2.337  1.4220  1.4304 -2.4424
 9109SOL    HW238964   2.739   4.625   2.409  1.2428  0.4762  0.5066
 9110SOL     OW38965   4.229   1.837   3.019  0.4010 -0.5474 -0.0523
 9110SOL    HW138966   4.226   1.896   2.945  0.1802 -2.3515 -1.4834
 9110SOL    HW238967   4.191   1.892   3.087 -0.4278 -2.4746  1.0558
 9111SOL     OW38968   3.123   1.640  15.196  0.1210 -0.5420  0.6759
 9111SOL    HW138969   3.161   1.652  15.109 -1.0263 -0.2293  0.2246
 9111SOL    HW238970   3.035   1.645  15.159  0.9388 -2.4618 -1.4699
 9112SOL     OW38971   1.354   2.477   8.684 -0.0911  0.3280 -0.0644
 9112SOL    HW138972   1.371   2.415   8.613 -1.0496 -0.2364  0.1908
 9112SOL    HW238973   1.306   2.412   8.736  0.2658  0.4549  0.4134
 9113SOL     OW38974   0.676   0.780   5.103 -0.8217 -0.5701 -0.5900
 9113SOL    HW138975   0.628   0.704   5.135 -0.4132 -0.4516  0.3271
 9113SOL    HW238976   0.733   0.796   5.179 -1.2758 -0.1652 -0.3376
 9114SOL     OW38977   1.716   3.980   1.300  0.3005 -0.0197  0.0502
 9114SOL    HW138978   1.793   3.933   1.331  1.6943  1.5081 -1.0795
 9114SOL    HW238979   1.701   4.036   1.377 -0.7167  2.2319 -1.7894
 9115SOL     OW38980   2.373   0.217   1.876  0.4137  0.8747  0.1625
 9115SOL    HW138981   2.419   0.266   1.943  1.5224 -0.7014  0.5502
 9115SOL    HW238982   2.430   0.140   1.876 -1.3057 -0.4098  1.3680
 9116SOL     OW38983   2.303   1.466   7.963 -1.4705  0.0079 -0.3567
 9116SOL    HW138984   2.263   1.411   7.896 -1.9985  1.1309 -0.9783
 9116SOL    HW238985   2.236   1.520   8.005 -1.0885  2.0091 -2.2501
 9117SOL     OW38986   1.981   2.392   5.646  0.3382  0.2343  0.1986
 9117SOL    HW138987   1.915   2.440   5.697 -0.3941  1.3367 -1.7704
 9117SOL    HW238988   2.062   2.427   5.682 -1.1652 -0.5830  4.4341
 9118SOL     OW38989   1.426   2.070   6.301  0.0460 -0.2783  0.2200
 9118SOL    HW138990   1.400   2.006   6.367  1.7588  0.2796  1.4477
 9118SOL    HW238991   1.457   2.141   6.358  1.5217 -2.2405  1.8869
 9119SOL     OW38992   0.387   1.561  10.306  0.1798  0.5276 -0.3764
 9119SOL    HW138993   0.459   1.521  10.257  0.9607 -0.7841  1.8190
 9119SOL    HW238994   0.318   1.514  10.259  1.1350 -1.4197  0.1560
 9120SOL     OW38995   0.580   3.403  15.557 -0.3824  0.3114  0.2131
 9120SOL    HW138996   0.524   3.349  15.501  0.9958 -0.0517 -0.8095
 9120SOL    HW238997   0.658   3.417  15.504  0.4491  0.8160  1.5812
 9121SOL     OW38998   3.934   3.358   6.529  0.2646 -0.1102 -0.1414
 9121SOL    HW138999   3.903   3.424   6.591 -1.7738 -1.5938  0.4291
 9121SOL    HW239000   3.892   3.381   6.447  2.1428 -0.2266 -1.1405
 9122SOL     OW39001   4.549   3.697   7.586  0.0593 -0.0134 -0.1922
 9122SOL    HW139002   4.513   3.770   7.536 -0.9949  0.1916  0.8682
 9122SOL    HW239003   4.473   3.646   7.613  1.4950 -3.0311 -1.8562
 9123SOL     OW39004   3.093   4.082   9.642  0.1755 -0.0343 -0.6382
 9123SOL    HW139005   3.057   4.146   9.704 -1.5855  0.1810 -1.8983
 9123SOL    HW239006   3.056   3.999   9.672  0.7169 -0.2369 -0.5308
 9124SOL     OW39007   4.441   3.113   7.029  0.2000  0.0763 -0.1835
 9124SOL    HW139008   4.517   3.079   6.982 -0.7880 -0.9105 -1.0685
 9124SOL    HW239009   4.385   3.035   7.033  2.0663 -1.2862 -0.1658
 9125SOL     OW39010   4.507   1.248   9.305  0.6180 -0.6508 -0.4939
 9125SOL    HW139011   4.480   1.310   9.238 -0.1786  0.4768  0.8653
 9125SOL    HW239012   4.531   1.310   9.375  0.3575 -0.8724 -0.2091
 9126SOL     OW39013   2.183   1.995   9.042 -0.1298 -0.5453 -0.0618
 9126SOL    HW139014   2.188   1.963   8.951  0.4686  0.2236 -0.3013
 9126SOL    HW239015   2.098   2.038   9.050  0.4531  0.8131 -1.1177
 9127SOL     OW39016   1.759   1.968   0.869 -0.0410 -0.2385 -0.5096
 9127SOL    HW139017   1.713   2.052   0.880 -2.1062 -0.9474 -3.6237
 9127SOL    HW239018   1.701   1.914   0.815  0.2176 -2.0992  1.1002
 9128SOL     OW39019   3.311   3.353   6.742 -0.9620 -0.4757 -0.0596
 9128SOL    HW139020   3.397   3.395   6.733 -0.6329 -1.4894 -1.6123
 9128SOL    HW239021   3.261   3.400   6.676  1.1153  0.4492 -0.9735
 9129SOL     OW39022   2.625   1.781   9.586 -0.1897 -0.4821 -0.5652
 9129SOL    HW139023   2.556   1.746   9.529 -0.4543 -2.6932  1.1265
 9129SOL    HW239024   2.638   1.710   9.649 -1.4365 -0.8823 -0.7528
 9130SOL     OW39025   2.039   0.954   4.595  0.3856 -0.5962  0.5260
 9130SOL    HW139026   2.076   0.993   4.674 -2.3227  1.5939  0.6970
 9130SOL    HW239027   2.104   0.889   4.568  0.5171  0.6517 -2.1626
 9131SOL     OW39028   1.385   3.926   9.847 -0.6390  0.0458 -0.2170
 9131SOL    HW139029   1.426   3.917   9.933 -3.1911  1.8709  1.2047
 9131SOL    HW239030   1.388   4.020   9.826  0.4064 -0.1298 -0.8460
 9132SOL     OW39031   4.481   0.945   7.101  0.0661  0.1547  0.0196
 9132SOL    HW139032   4.563   0.961   7.148 -0.3074  1.7201  0.1685
 9132SOL    HW239033   4.427   0.907   7.170 -1.0782 -0.5504 -1.2956
 9133SOL     OW39034   1.295   4.069   1.701  0.3327 -0.8987 -0.6836
 9133SOL    HW139035   1.290   4.052   1.607  1.3394 -3.7306 -0.2402
 9133SOL    HW239036   1.224   4.015   1.736  0.3843  1.3291  2.8109
 9134SOL     OW39037   4.247   3.274   9.568  0.3902 -0.1743  0.3445
 9134SOL    HW139038   4.278   3.241   9.484 -2.3967 -0.8110 -0.4468
 9134SOL    HW239039   4.239   3.368   9.553 -0.1354 -0.6548 -2.3313
 9135SOL     OW39040   4.065   4.020  14.356  0.3154  0.2790 -0.1774
 9135SOL    HW139041   4.060   3.972  14.439 -0.6904 -0.2073 -0.5123
 9135SOL    HW239042   4.114   3.956  14.304  0.6753 -0.0334  0.5474
 9136SOL     OW39043   0.161   2.972   9.240  0.3929  0.1118  0.3741
 9136SOL    HW139044   0.095   2.981   9.308 -0.2976 -1.1095 -0.1164
 9136SOL    HW239045   0.237   2.940   9.288 -1.0197 -4.4057 -0.3869
 9137SOL     OW39046   1.313   1.296   7.647  0.4507  0.8126  0.1690
 9137SOL    HW139047   1.228   1.261   7.620 -0.2936  1.5082  1.5441
 9137SOL    HW239048   1.340   1.214   7.688 -3.8830 -0.2336  1.0022
 9138SOL     OW39049   4.558   3.614   0.742  0.0981  0.2591  0.4259
 9138SOL    HW139050   4.602   3.635   0.659 -0.0320  0.0187  0.2954
 9138SOL    HW239051   4.523   3.701   0.761  0.4469 -0.0653  2.5677
 9139SOL     OW39052   1.673   3.947   3.779  0.3806 -0.3604  0.6135
 9139SOL    HW139053   1.754   3.941   3.830  0.9289  1.4429 -0.0372
 9139SOL    HW239054   1.609   3.931   3.848 -0.4055  1.5574  0.3314
 9140SOL     OW39055   0.720   4.124   9.192 -0.3337 -0.1898 -0.4792
 9140SOL    HW139056   0.785   4.147   9.259 -0.6896  0.1023 -0.2312
 9140SOL    HW239057   0.638   4.110   9.240  0.2088  0.6278  0.6971
 9141SOL     OW39058   3.997   2.598   9.916 -0.0711  0.1233 -0.0570
 9141SOL    HW139059   3.946   2.517   9.915 -2.4006  1.6173 -1.9724
 9141SOL    HW239060   4.035   2.584   9.829 -2.9365 -2.7954 -0.8328
 9142SOL     OW39061   0.333   3.960  11.685 -0.5417  0.4208 -0.1078
 9142SOL    HW139062   0.329   4.001  11.598 -0.7102  0.6519  0.0101
 9142SOL    HW239063   0.315   4.034  11.743  0.6326 -0.5713  1.5232
 9143SOL     OW39064   0.336   4.033   6.634  0.0217 -0.2226  0.1134
 9143SOL    HW139065   0.301   3.996   6.554 -2.2598  2.2972 -0.0560
 9143SOL    HW239066   0.310   3.965   6.697  0.6589 -0.6259 -0.0575
 9144SOL     OW39067   1.813   0.869   5.645  0.2991  0.1798 -0.7778
 9144SOL    HW139068   1.772   0.797   5.597 -0.5761  0.2356 -0.1298
 9144SOL    HW239069   1.874   0.908   5.583 -0.3912 -1.4443 -2.4684
 9145SOL     OW39070   2.813   4.312  16.738  0.1538 -0.3703 -0.3137
 9145SOL    HW139071   2.886   4.320  16.677 -0.4846  2.3593 -0.6939
 9145SOL    HW239072   2.803   4.217  16.750 -1.8031 -0.0039  1.1124
 9146SOL     OW39073   3.348   0.035   4.433  0.0572  0.0289  0.0517
 9146SOL    HW139074   3.284   0.096   4.469 -1.3433 -1.2662 -0.2633
 9146SOL    HW239075   3.309   4.687   4.455  1.1591 -0.5175 -0.1053
 9147SOL     OW39076   0.346   3.048   6.861  0.0059 -0.0872 -0.0884
 9147SOL    HW139077   0.400   3.095   6.798 -0.1186  2.9268  2.0533
 9147SOL    HW239078   0.261   3.092   6.854 -0.1364 -0.3975 -0.2888
 9148SOL     OW39079   0.953   3.304  11.092 -0.2952  0.2491  0.3918
 9148SOL    HW139080   0.862   3.331  11.082 -0.1402  0.6152 -0.0661
 9148SOL    HW239081   0.990   3.390  11.111 -1.5247  0.4576  1.7824
 9149SOL     OW39082   0.890   0.574   1.280  0.4539  0.0770  0.6823
 9149SOL    HW139083   0.849   0.517   1.345 -2.3213 -1.4265 -2.3826
 9149SOL    HW239084   0.824   0.561   1.211  1.4898 -2.3114  0.1349
 9150SOL     OW39085   3.277   1.164   4.968 -0.2496 -0.0391  0.0388
 9150SOL    HW139086   3.261   1.245   4.918  3.6971  1.5462  1.3491
 9150SOL    HW239087   3.277   1.094   4.903  0.3777 -0.1507  0.1557
 9151SOL     OW39088   0.442   2.926   9.877  0.4024  0.3306 -0.0333
 9151SOL    HW139089   0.516   2.877   9.840 -0.6383 -1.9496  0.9148
 9151SOL    HW239090   0.413   2.858   9.937 -2.8028  1.4997 -0.2904
 9152SOL     OW39091   3.218   3.081   3.635  0.4537 -0.4648 -0.4810
 9152SOL    HW139092   3.144   3.033   3.671  0.1081 -0.3948 -1.1145
 9152SOL    HW239093   3.196   3.074   3.542 -1.3373 -2.0568  0.0585
 9153SOL     OW39094   4.483   4.194   1.176  0.5577 -0.1833 -0.1479
 9153SOL    HW139095   4.567   4.149   1.170  0.8004  0.4801 -1.6862
 9153SOL    HW239096   4.450   4.202   1.087  1.6075  0.7785 -0.4538
 9154SOL     OW39097   4.274   3.123   3.752  0.0095 -0.3355  0.0895
 9154SOL    HW139098   4.315   3.196   3.799 -0.5278  0.9564 -1.4595
 9154SOL    HW239099   4.248   3.076   3.831  1.3532  0.9395  1.2920
 9155SOL     OW39100   1.578   3.222  15.040 -0.2941 -0.7689  0.7638
 9155SOL    HW139101   1.517   3.289  15.009 -1.9780 -1.7115  2.0025
 9155SOL    HW239102   1.658   3.271  15.056 -1.4466  0.9037  1.3812
 9156SOL     OW39103   2.852   3.049  17.102  0.2496 -0.0921  0.2041
 9156SOL    HW139104   2.882   3.075  17.190  1.0231 -0.9383  0.1927
 9156SOL    HW239105   2.832   2.959  17.126  0.3463 -0.0746  0.3576
 9157SOL     OW39106   1.580   2.940   2.500 -0.3407  0.2792  0.2316
 9157SOL    HW139107   1.508   2.886   2.532  1.5362 -1.7973  0.9251
 9157SOL    HW239108   1.624   2.884   2.436 -1.1398  2.3409 -2.1207
 9158SOL     OW39109   0.909   4.027   3.266  0.0649  0.2053 -0.2104
 9158SOL    HW139110   0.960   3.990   3.194  1.7768 -0.3633  1.3004
 9158SOL    HW239111   0.830   3.975   3.261  0.4505 -0.3450 -0.5979
 9159SOL     OW39112   1.491   3.266   6.803 -0.9037 -0.7148  0.7061
 9159SOL    HW139113   1.576   3.245   6.843  0.0739 -0.8972 -1.5013
 9159SOL    HW239114   1.443   3.273   6.886 -1.8377  0.4485  0.0636
 9160SOL     OW39115   0.695   0.054   7.182 -0.5115  0.2255  0.1969
 9160SOL    HW139116   0.673   4.699   7.168  0.5231 -0.2286  1.4990
 9160SOL    HW239117   0.738   0.042   7.266 -0.3092 -0.2120  0.0273
 9161SOL     OW39118   2.801   4.005  13.558  0.2039 -0.4364 -0.2031
 9161SOL    HW139119   2.739   4.028  13.626 -0.9205  1.6648 -1.9254
 9161SOL    HW239120   2.815   3.912  13.571  0.8539 -0.2845  0.1982
 9162SOL     OW39121   2.250   1.639   1.721  0.0066 -0.0556  0.1001
 9162SOL    HW139122   2.228   1.696   1.795 -2.4445 -3.6567  2.1934
 9162SOL    HW239123   2.258   1.554   1.765 -1.0889  0.1310  0.6649
 9163SOL     OW39124   1.705   0.227   0.739 -0.0607  0.7027 -0.8220
 9163SOL    HW139125   1.727   0.140   0.705  1.2977  0.0428  1.7218
 9163SOL    HW239126   1.648   0.206   0.813 -1.9693  1.3666 -2.1149
 9164SOL     OW39127   1.958   0.935   1.356 -0.4135  0.1557 -0.7266
 9164SOL    HW139128   1.897   0.942   1.283  0.8733  0.0554 -1.8027
 9164SOL    HW239129   2.019   0.878   1.310  0.8994  0.9903 -0.0170
 9165SOL     OW39130   2.346   2.241   5.848  0.2140  0.0851  0.6163
 9165SOL    HW139131   2.360   2.271   5.938 -5.2720  1.9357  0.8205
 9165SOL    HW239132   2.302   2.157   5.857  2.5107 -1.0198  1.7283
 9166SOL     OW39133   2.314   3.124   3.595 -0.3647  0.3269 -0.0223
 9166SOL    HW139134   2.387   3.074   3.559  1.5155  1.2559  2.4887
 9166SOL    HW239135   2.366   3.203   3.604  0.7883 -0.4296 -0.0364
 9167SOL     OW39136   0.824   2.939  11.573  0.1734 -0.0865  0.7245
 9167SOL    HW139137   0.751   2.879  11.590 -0.5323  0.8708  1.1346
 9167SOL    HW239138   0.767   3.016  11.581  1.7456  1.2852 -1.3055
 9168SOL     OW39139   1.325   3.993   4.318  0.6231 -0.0436  0.4739
 9168SOL    HW139140   1.341   3.951   4.233  1.1950  2.3675 -0.5869
 9168SOL    HW239141   1.412   4.013   4.352 -0.0066  1.1035  1.3733
 9169SOL     OW39142   4.292   0.364   6.251 -0.1342  0.5599 -0.7680
 9169SOL    HW139143   4.288   0.441   6.308 -0.7441 -0.1880  0.1978
 9169SOL    HW239144   4.340   0.308   6.312  0.6310  1.7388 -0.2778
 9170SOL     OW39145   0.919   4.490   7.153 -0.2189  0.3027  0.2777
 9170SOL    HW139146   0.963   4.510   7.235 -0.3833 -0.2469  0.4999
 9170SOL    HW239147   0.989   4.535   7.105  2.2947 -1.1781  2.5780
 9171SOL     OW39148   4.312   0.180   5.979 -0.2355 -0.0375 -0.0506
 9171SOL    HW139149   4.283   0.195   6.069  1.2509  0.6365  0.3101
 9171SOL    HW239150   4.280   0.091   5.967 -0.8490  0.3159 -1.0741
 9172SOL     OW39151   3.955   4.624   2.474  0.0699 -0.1613 -0.1557
 9172SOL    HW139152   3.975   4.701   2.421  2.3924  0.3146  1.4156
 9172SOL    HW239153   4.000   4.639   2.557  1.1279 -1.0337 -0.5708
 9173SOL     OW39154   0.216   0.042   5.170 -0.0972 -0.3927  0.0891
 9173SOL    HW139155   0.217   0.138   5.164  0.3844 -0.4763 -1.2339
 9173SOL    HW239156   0.265   0.013   5.093  1.6868 -0.1019  1.1074
 9174SOL     OW39157   3.127   2.532   6.258 -0.1717  0.0304  0.0104
 9174SOL    HW139158   3.131   2.576   6.343 -5.7815  2.4890 -0.9530
 9174SOL    HW239159   3.213   2.547   6.219  0.2428 -1.7018  0.2478
 9175SOL     OW39160   2.432   4.569   3.843 -0.6632  0.5354  0.5201
 9175SOL    HW139161   2.456   4.482   3.874 -0.2445 -0.6140 -3.0484
 9175SOL    HW239162   2.497   4.599   3.779 -0.2529 -1.2323  0.1069
 9176SOL     OW39163   3.928   1.303   2.650 -0.1781  0.4020 -0.0852
 9176SOL    HW139164   3.943   1.331   2.560  0.8739  0.4240  0.1071
 9176SOL    HW239165   3.842   1.343   2.668  0.1775  1.2238 -0.2291
 9177SOL     OW39166   4.625   3.060   5.256  0.5737  0.6015 -0.1316
 9177SOL    HW139167   4.548   3.078   5.310 -0.0397 -0.8726 -0.5034
 9177SOL    HW239168   4.622   3.143   5.208 -2.2093  0.2005 -0.6066
 9178SOL     OW39169   0.293   1.564   6.764  0.1869 -0.1844  0.2498
 9178SOL    HW139170   0.255   1.477   6.774 -2.1751  0.8185 -0.0142
 9178SOL    HW239171   0.250   1.583   6.681  1.5078  0.2043 -0.3421
 9179SOL     OW39172   0.372   2.501  13.819 -0.2367 -0.0068 -0.2048
 9179SOL    HW139173   0.463   2.487  13.844  0.5569  0.2029 -3.0181
 9179SOL    HW239174   0.375   2.502  13.723 -0.2124  1.5572 -0.1738
 9180SOL     OW39175   4.176   2.872   2.790  0.0582  0.3476  0.5153
 9180SOL    HW139176   4.235   2.945   2.803  0.1393  0.4203 -0.2544
 9180SOL    HW239177   4.225   2.797   2.825  0.8095  0.3862 -0.4663
 9181SOL     OW39178   0.313   2.579  15.124  0.2952 -0.3758  0.6927
 9181SOL    HW139179   0.234   2.531  15.145 -0.4131  0.2074 -0.5990
 9181SOL    HW239180   0.372   2.529  15.180  0.2979 -0.3135  0.7444
 9182SOL     OW39181   2.271   2.091   0.997  0.1100 -0.0484  0.1587
 9182SOL    HW139182   2.345   2.033   0.981  0.6150  0.4382  0.6979
 9182SOL    HW239183   2.209   2.062   0.931  0.6146  2.9899 -1.6511
 9183SOL     OW39184   0.534   4.007   3.378 -0.4303 -0.0492  0.2765
 9183SOL    HW139185   0.605   3.944   3.365 -0.1395  0.3830 -0.2487
 9183SOL    HW239186   0.487   3.972   3.454  0.4150 -1.7737  0.0089
 9184SOL     OW39187   3.401   2.268   0.455  0.5753 -0.7411  0.2850
 9184SOL    HW139188   3.365   2.280   0.368 -0.1258 -0.7245  0.5801
 9184SOL    HW239189   3.386   2.355   0.492 -1.7758 -1.1994  0.3956
 9185SOL     OW39190   3.345   3.650   1.677 -0.3563  0.2352  0.4479
 9185SOL    HW139191   3.412   3.608   1.731  0.6695  2.0918  0.6020
 9185SOL    HW239192   3.344   3.584   1.607  1.7664  1.1295 -0.4227
 9186SOL     OW39193   1.424   1.745   8.243 -0.5764  0.4542 -0.4114
 9186SOL    HW139194   1.451   1.656   8.268  0.6825  0.9179 -0.1553
 9186SOL    HW239195   1.363   1.762   8.315 -0.2407 -4.3204  1.0190
 9187SOL     OW39196   2.743   3.609   6.259 -0.3845  0.6176 -0.4290
 9187SOL    HW139197   2.654   3.575   6.267 -0.0517 -0.4644 -1.2754
 9187SOL    HW239198   2.769   3.555   6.185 -0.1573 -0.3793  0.3703
 9188SOL     OW39199   2.654   2.343   6.724  0.1959  0.3980  0.0430
 9188SOL    HW139200   2.684   2.433   6.706  1.6864  0.1589  1.3175
 9188SOL    HW239201   2.611   2.352   6.809  4.1712 -0.3764  2.1416
 9189SOL     OW39202   3.786   2.478   8.337 -1.0380 -0.4935  0.6273
 9189SOL    HW139203   3.876   2.461   8.366 -1.9285 -1.4557  2.8908
 9189SOL    HW239204   3.784   2.434   8.252  2.9511  0.6293 -0.0757
 9190SOL     OW39205   1.802   3.097   1.298  0.5983 -0.1771 -0.0449
 9190SOL    HW139206   1.857   3.175   1.301 -0.8936  0.8796 -0.5999
 9190SOL    HW239207   1.825   3.058   1.383 -0.2097 -1.0631 -0.2274
 9191SOL     OW39208   0.913   0.473   8.352 -0.1033 -0.3207 -0.2974
 9191SOL    HW139209   0.992   0.508   8.394 -2.1936  2.2233  1.5523
 9191SOL    HW239210   0.944   0.458   8.263  0.8953  0.4840 -0.0827
 9192SOL     OW39211   0.583   1.286   6.175 -0.2437  0.2993  0.1395
 9192SOL    HW139212   0.593   1.296   6.080 -2.4255 -0.0455 -0.1190
 9192SOL    HW239213   0.558   1.194   6.178  0.2520  0.0988 -2.0274
 9193SOL     OW39214   3.299   4.299   8.483  0.2385 -0.0400 -0.0487
 9193SOL    HW139215   3.360   4.268   8.550 -0.7177 -1.5802  0.0891
 9193SOL    HW239216   3.310   4.230   8.419  0.2187 -0.7729  0.7334
 9194SOL     OW39217   1.635   0.525   0.822  0.6571  0.0805 -0.4094
 9194SOL    HW139218   1.647   0.433   0.846  1.2709 -0.5177 -2.9578
 9194SOL    HW239219   1.582   0.524   0.743  1.1030 -1.1952 -0.6952
 9195SOL     OW39220   0.239   3.384   2.487  0.5861 -0.2893  0.2612
 9195SOL    HW139221   0.191   3.359   2.408 -0.4590 -0.4714  0.9670
 9195SOL    HW239222   0.242   3.304   2.538 -0.2139 -0.5156 -0.0532
 9196SOL     OW39223   4.698   3.145   0.401 -0.5562  0.2742  0.0123
 9196SOL    HW139224   4.732   3.056   0.409 -1.8280 -0.0777  1.4456
 9196SOL    HW239225   0.030   3.173   0.341 -1.5126 -0.4692 -1.4164
 9197SOL     OW39226   2.495   3.442   4.097 -0.0144  0.0196  0.2919
 9197SOL    HW139227   2.414   3.493   4.093  0.5910  1.1820  2.9287
 9197SOL    HW239228   2.482   3.389   4.176  3.4797 -0.5819  0.4269
 9198SOL     OW39229   2.059   4.427   5.252  0.2446 -0.2384  0.0991
 9198SOL    HW139230   2.108   4.360   5.299  0.4701 -0.2715 -0.1767
 9198SOL    HW239231   2.130   4.439   5.189 -1.1043  0.0398 -1.3771
 9199SOL     OW39232   2.354   2.722   4.937  0.0811 -0.0577 -0.1546
 9199SOL    HW139233   2.435   2.760   4.904 -0.7842  0.0583 -2.1319
 9199SOL    HW239234   2.292   2.794   4.954 -0.7388 -0.8940  0.4480
 9200SOL     OW39235   1.111   1.115   6.125 -0.3417  0.7382  0.0742
 9200SOL    HW139236   1.027   1.101   6.082 -1.0507  0.7360  1.4418
 9200SOL    HW239237   1.151   1.028   6.116 -0.4958  0.6844 -0.0983
 9201SOL     OW39238   3.463   4.598  17.154 -0.0279 -0.0170 -0.5260
 9201SOL    HW139239   3.556   4.594  17.132 -0.3059  0.6306 -1.7776
 9201SOL    HW239240   3.458   4.561  17.242 -0.2907  1.5207  0.1065
 9202SOL     OW39241   4.651   2.970   6.937 -0.5158  0.3873 -0.4729
 9202SOL    HW139242   4.675   2.936   6.850 -1.7951 -0.9406 -0.3176
 9202SOL    HW239243   4.685   2.898   6.990  1.4603  2.9779  1.7526
 9203SOL     OW39244   0.187   3.232   8.583 -0.2576  0.0345 -0.1885
 9203SOL    HW139245   0.178   3.324   8.606 -2.4728 -0.2454  0.0430
 9203SOL    HW239246   0.232   3.199   8.661 -3.8395 -0.9644  1.4706
 9204SOL     OW39247   1.195   0.168   6.263 -0.3473  0.3291  0.6323
 9204SOL    HW139248   1.120   0.138   6.211 -0.4804  1.6623  0.0803
 9204SOL    HW239249   1.257   0.184   6.193 -2.4544  1.2899 -1.0255
 9205SOL     OW39250   2.260   2.278   3.217 -0.1038  0.6841 -0.3510
 9205SOL    HW139251   2.208   2.266   3.296 -1.9357 -0.1024 -1.7027
 9205SOL    HW239252   2.279   2.372   3.211 -1.4601  0.9092 -1.0730
 9206SOL     OW39253   0.604   0.449   2.551  0.3780  0.3280 -0.1657
 9206SOL    HW139254   0.681   0.506   2.563  0.8996 -0.6804  1.2751
 9206SOL    HW239255   0.534   0.513   2.560  0.0633 -0.2551  1.5563
 9207SOL     OW39256   4.642   2.161   7.811 -0.4574 -0.2758  0.1276
 9207SOL    HW139257   4.690   2.078   7.810 -0.5000 -0.2960 -0.2566
 9207SOL    HW239258   4.693   2.210   7.747 -0.5928  0.8648  0.9043
 9208SOL     OW39259   2.555   2.327   3.114  0.5193  0.5352 -0.2557
 9208SOL    HW139260   2.565   2.364   3.202  1.6057  2.1694 -1.0626
 9208SOL    HW239261   2.488   2.382   3.073 -1.5486 -0.5726  1.6265
 9209SOL     OW39262   2.585   4.395   6.883 -0.3152  0.2653  0.5298
 9209SOL    HW139263   2.659   4.334   6.890  0.2114  0.9327  0.8270
 9209SOL    HW239264   2.506   4.342   6.880  0.3961 -0.7518 -0.3369
 9210SOL     OW39265   4.191   2.632   4.153 -0.2775  0.7491  0.5001
 9210SOL    HW139266   4.236   2.647   4.070 -1.9934  0.0536 -0.5716
 9210SOL    HW239267   4.257   2.579   4.197 -0.0775  0.1181 -0.5538
 9211SOL     OW39268   3.546   2.223   1.059  0.1711 -0.2135 -0.5879
 9211SOL    HW139269   3.603   2.260   1.127 -0.4355 -1.3808  0.5557
 9211SOL    HW239270   3.587   2.139   1.037  1.2500  0.1695 -0.0342
 9212SOL     OW39271   2.666   2.936   9.528 -1.1013  0.2224 -1.2345
 9212SOL    HW139272   2.663   2.983   9.611  2.2520 -1.8537  0.0885
 9212SOL    HW239273   2.689   3.012   9.474 -2.4255  1.4135 -0.1302
 9213SOL     OW39274   4.167   3.640   0.251 -0.8463 -0.3917 -0.0520
 9213SOL    HW139275   4.148   3.575   0.183 -1.0305  1.2581 -1.5845
 9213SOL    HW239276   4.219   3.699   0.196 -1.3194  0.1646  0.1058
 9214SOL     OW39277   1.280   3.211   2.675  0.0033 -0.6318  0.0459
 9214SOL    HW139278   1.250   3.296   2.706  1.1211  0.6571 -2.4373
 9214SOL    HW239279   1.344   3.179   2.738 -1.3835  1.6131  2.6132
 9215SOL     OW39280   1.504   1.051   1.929 -0.0962  0.2435  0.1286
 9215SOL    HW139281   1.434   0.990   1.906  1.3724 -1.5423  0.3449
 9215SOL    HW239282   1.460   1.095   2.002 -0.1236  1.6471 -0.7498
 9216SOL     OW39283   0.256   0.635   5.811 -0.5066  0.6943 -0.0154
 9216SOL    HW139284   0.194   0.561   5.810 -0.0301  0.2783  1.3140
 9216SOL    HW239285   0.223   0.694   5.744 -2.0144 -0.1723 -0.0576
 9217SOL     OW39286   0.601   1.811   5.131  0.0953 -0.0364  0.0056
 9217SOL    HW139287   0.538   1.774   5.069  1.3335 -1.8827 -0.1451
 9217SOL    HW239288   0.597   1.905   5.111 -1.8181  0.3450  2.1914
 9218SOL     OW39289   4.159   1.619   8.451  0.4101 -0.3066  0.4616
 9218SOL    HW139290   4.097   1.553   8.420 -0.4799  0.9862 -0.4949
 9218SOL    HW239291   4.091   1.684   8.467  0.4694  0.0232 -0.5925
 9219SOL     OW39292   3.356   1.730   4.084 -0.0882  0.8564 -0.1927
 9219SOL    HW139293   3.320   1.644   4.061 -1.4481  2.0233 -2.3504
 9219SOL    HW239294   3.384   1.751   3.995 -1.1838  1.5868 -0.3577
 9220SOL     OW39295   4.181   0.838   3.478 -0.1640  0.6179 -0.1364
 9220SOL    HW139296   4.186   0.818   3.384  2.9427  3.2903 -0.5594
 9220SOL    HW239297   4.110   0.902   3.486 -1.0064 -0.6587  2.5390
 9221SOL     OW39298   1.986   0.704  13.076  0.4428  0.0626  0.0334
 9221SOL    HW139299   2.050   0.771  13.051 -0.4685 -0.2458 -3.0933
 9221SOL    HW239300   1.916   0.730  13.016  1.0730 -1.8594 -1.5211
 9222SOL     OW39301   1.155   2.284   2.507  0.3600  0.4189 -0.3470
 9222SOL    HW139302   1.102   2.363   2.510 -1.3729 -0.7047 -1.4505
 9222SOL    HW239303   1.095   2.210   2.497  1.3860 -0.2778 -1.3345
 9223SOL     OW39304   3.971   1.789   8.531  0.3111  0.0340  0.1429
 9223SOL    HW139305   3.924   1.817   8.453  2.3229 -3.1056 -2.2281
 9223SOL    HW239306   3.898   1.793   8.593 -0.3880  0.9734 -0.7573
 9224SOL     OW39307   4.161   1.156   0.865  0.3884 -0.8100 -0.1375
 9224SOL    HW139308   4.101   1.221   0.830  0.8340 -1.5196 -2.2167
 9224SOL    HW239309   4.238   1.165   0.808  0.6623 -1.1029  0.1829
 9225SOL     OW39310   1.497   1.248   3.889 -0.2617 -0.1271  0.5968
 9225SOL    HW139311   1.587   1.250   3.855 -0.0938 -0.6880  1.0035
 9225SOL    HW239312   1.504   1.183   3.959 -0.0789 -2.4748 -1.5606
 9226SOL     OW39313   1.251   4.405   5.198  0.2806 -0.4081 -0.1131
 9226SOL    HW139314   1.321   4.454   5.154  1.9455 -1.1736  1.7245
 9226SOL    HW239315   1.248   4.462   5.274 -0.9428 -1.9553  1.0078
 9227SOL     OW39316   2.105   3.097   5.874  0.1006 -0.2003 -0.3006
 9227SOL    HW139317   2.177   3.054   5.826  1.0875  2.0377 -0.8011
 9227SOL    HW239318   2.096   3.051   5.958  1.0466  1.0469  0.4769
 9228SOL     OW39319   1.040   3.646   7.956 -0.7499  0.3112 -0.1551
 9228SOL    HW139320   1.107   3.711   7.934  0.4748 -1.0247 -0.3763
 9228SOL    HW239321   1.010   3.679   8.041  0.5686  0.6746  0.1706
 9229SOL     OW39322   1.936   4.536   3.624  0.0174 -0.4841  0.6959
 9229SOL    HW139323   2.014   4.496   3.662  1.6405  1.9610 -0.0630
 9229SOL    HW239324   1.882   4.556   3.700 -2.6197  0.2178 -1.3394
 9230SOL     OW39325   3.348   2.536   0.552 -0.6502  0.3803  0.3053
 9230SOL    HW139326   3.291   2.578   0.617  0.6602  2.8449 -0.1766
 9230SOL    HW239327   3.357   2.605   0.487 -0.1721  0.7562  0.7751
 9231SOL     OW39328   1.221   4.227   7.147  0.1875  0.1485  0.0633
 9231SOL    HW139329   1.305   4.184   7.162 -1.2240 -1.8214  2.3367
 9231SOL    HW239330   1.168   4.151   7.124 -1.8832  1.1852  1.4189
 9232SOL     OW39331   3.126   3.951   7.138 -0.1011  0.2013 -0.0483
 9232SOL    HW139332   3.086   4.025   7.092 -0.6262  0.8539  1.4637
 9232SOL    HW239333   3.067   3.939   7.212 -2.6237  1.4582 -1.8496
 9233SOL     OW39334   4.232   1.377   6.649  0.1934 -0.4156  1.1182
 9233SOL    HW139335   4.146   1.375   6.692 -1.3129  0.4384 -1.8957
 9233SOL    HW239336   4.213   1.443   6.583  0.6256 -0.8960  0.5096
 9234SOL     OW39337   2.892   2.954   6.919 -0.2689 -0.1819 -0.1768
 9234SOL    HW139338   2.893   3.049   6.928  0.3483  0.0134 -2.2494
 9234SOL    HW239339   2.798   2.941   6.909 -0.1594  0.5603 -2.1952
 9235SOL     OW39340   0.680   4.038   0.584  0.4892 -0.0399  0.1632
 9235SOL    HW139341   0.668   4.091   0.506 -2.8017 -1.7189 -0.4821
 9235SOL    HW239342   0.724   3.961   0.549 -0.7581 -0.5810 -0.2301
 9236SOL     OW39343   3.302   3.359   3.106 -0.0577 -0.5601 -0.0645
 9236SOL    HW139344   3.305   3.407   3.189 -1.8251  0.8604 -0.8294
 9236SOL    HW239345   3.219   3.382   3.065 -1.6494 -1.3963  2.7181
 9237SOL     OW39346   0.444   2.480   2.735 -0.1935  0.0036 -0.6477
 9237SOL    HW139347   0.356   2.443   2.747 -0.1880 -0.3904 -1.8031
 9237SOL    HW239348   0.485   2.450   2.815  1.9939 -0.0915 -1.8187
 9238SOL     OW39349   1.046   0.194   3.429 -0.4747 -0.0607  0.1687
 9238SOL    HW139350   1.068   0.148   3.510  0.2783  0.3668  0.2038
 9238SOL    HW239351   0.951   0.181   3.432 -0.6161  1.1084  0.8367
 9239SOL     OW39352   4.269   4.568   4.602  0.2384 -0.2128 -0.2243
 9239SOL    HW139353   4.291   4.482   4.566  0.0705 -0.4679  0.2742
 9239SOL    HW239354   4.322   4.560   4.682  0.1681  0.0420 -0.1526
 9240SOL     OW39355   4.570   0.525   1.771 -0.1625 -0.5312  0.0778
 9240SOL    HW139356   4.497   0.503   1.829  1.8447 -2.3400  1.8812
 9240SOL    HW239357   4.572   0.621   1.761 -0.7018 -0.3924  1.2842
 9241SOL     OW39358   1.962   0.308   5.536  0.2673  0.1290  0.5600
 9241SOL    HW139359   1.909   0.243   5.583 -3.4523  1.2351 -2.0931
 9241SOL    HW239360   2.033   0.312   5.600 -1.7903 -3.4472  3.0360
 9242SOL     OW39361   0.096   3.053   5.452  0.4023 -0.2141  0.7016
 9242SOL    HW139362   0.117   2.961   5.434  1.2061 -0.0040  0.5758
 9242SOL    HW239363   0.051   3.073   5.370 -0.7562 -0.0709  1.3764
 9243SOL     OW39364   0.425   4.330   3.897 -0.2624  0.2889 -0.1550
 9243SOL    HW139365   0.342   4.356   3.937  1.4796  3.3387  1.4287
 9243SOL    HW239366   0.401   4.335   3.804  0.2091  0.0918 -0.2855
 9244SOL     OW39367   1.180   3.321   8.825 -0.1299 -0.4906 -0.6317
 9244SOL    HW139368   1.198   3.234   8.860  0.1717 -0.6856 -1.2776
 9244SOL    HW239369   1.202   3.375   8.901  0.7366  0.6432 -1.6797
 9245SOL     OW39370   4.243   0.827   7.246  0.3793 -0.1701  0.1945
 9245SOL    HW139371   4.190   0.853   7.321 -0.2128 -4.8599  1.4235
 9245SOL    HW239372   4.179   0.830   7.174 -0.1335 -0.6990  0.6267
 9246SOL     OW39373   4.122   1.243  16.450 -0.4498  0.3546 -0.3716
 9246SOL    HW139374   4.073   1.306  16.397  0.2101  0.2243 -1.1415
 9246SOL    HW239375   4.147   1.295  16.527 -1.5130  0.4119 -0.0666
 9247SOL     OW39376   3.397   0.017   4.831  0.3208  0.4210 -0.2043
 9247SOL    HW139377   3.360   0.102   4.850 -2.6655 -0.2588 -3.1316
 9247SOL    HW239378   3.318   4.703   4.848  0.4644  0.9431  2.0381
 9248SOL     OW39379   4.439   1.528  12.135 -0.9077  0.2338  0.0104
 9248SOL    HW139380   4.390   1.448  12.155 -2.2705  0.4391 -2.5858
 9248SOL    HW239381   4.481   1.536  12.221 -0.7426 -1.7472  0.1100
 9249SOL     OW39382   0.215   2.691  16.678 -0.4012 -0.2472 -0.5455
 9249SOL    HW139383   0.168   2.641  16.744  1.3351  1.0302  1.6553
 9249SOL    HW239384   0.245   2.769  16.726 -0.1792 -1.2035  0.8532
 9250SOL     OW39385   2.716   2.785   3.385 -0.2772 -0.1244 -0.0048
 9250SOL    HW139386   2.796   2.743   3.415 -1.4317 -1.5596  1.0536
 9250SOL    HW239387   2.759   2.867   3.360  0.9519 -1.2004 -1.4047
 9251SOL     OW39388   1.442   1.063  17.490  0.5005 -0.5907  0.1164
 9251SOL    HW139389   1.525   1.019  17.475  0.8556 -0.0507  0.4898
 9251SOL    HW239390   1.401   1.015  17.563 -2.6371  1.1545 -0.5135
 9252SOL     OW39391   3.224   3.728   1.907 -0.2833 -0.1900 -0.0819
 9252SOL    HW139392   3.146   3.675   1.890 -0.2262  0.0004 -0.9706
 9252SOL    HW239393   3.267   3.739   1.822  0.2378  1.9894  0.4535
 9253SOL     OW39394   3.778   3.684   9.088 -0.2854 -0.5529  1.0475
 9253SOL    HW139395   3.842   3.670   9.018 -0.8835  1.0786  0.1622
 9253SOL    HW239396   3.777   3.594   9.118 -1.5670  0.1119  3.0417
 9254SOL     OW39397   0.423   2.760  10.357 -0.0597 -0.3074 -0.4769
 9254SOL    HW139398   0.378   2.676  10.359 -2.0632  0.7849  0.0047
 9254SOL    HW239399   0.451   2.768  10.448 -2.0281  1.5213 -0.0157
 9255SOL     OW39400   3.780   0.967  12.972 -0.1130  0.8525 -0.3082
 9255SOL    HW139401   3.836   0.890  12.969  0.0592  0.9875 -0.6464
 9255SOL    HW239402   3.773   0.983  12.877 -1.7955 -1.3054 -0.5426
 9256SOL     OW39403   2.573   0.045   4.218 -0.1367  0.2658  0.1149
 9256SOL    HW139404   2.482   0.037   4.246  0.1199 -3.2245 -0.0306
 9256SOL    HW239405   2.621   0.016   4.296  1.7400 -0.6517 -1.3841
 9257SOL     OW39406   1.326   3.942   7.390  0.0412  0.4755  0.2310
 9257SOL    HW139407   1.341   3.906   7.477  2.4112 -1.9163 -1.1751
 9257SOL    HW239408   1.238   3.913   7.366 -0.3207 -0.1994  2.4334
 9258SOL     OW39409   1.599   1.434   3.590  0.1494 -0.5832  0.1153
 9258SOL    HW139410   1.674   1.375   3.600  0.4327 -0.3318 -0.5627
 9258SOL    HW239411   1.610   1.455   3.497 -0.7854  0.2013  0.1866
 9259SOL     OW39412   0.661   1.068   0.896  0.0484 -0.2603 -0.1285
 9259SOL    HW139413   0.591   1.094   0.836  0.0698 -1.3890 -0.6496
 9259SOL    HW239414   0.616   0.997   0.941 -0.8149  0.8551  0.7532
 9260SOL     OW39415   3.552   2.955   3.989 -0.0742 -0.0568 -0.3032
 9260SOL    HW139416   3.555   2.883   3.926  1.0719  1.1301 -1.5860
 9260SOL    HW239417   3.478   3.011   3.968  1.2949  2.1308  0.7683
 9261SOL     OW39418   2.916   2.825  12.350 -0.0815  0.8786 -0.3775
 9261SOL    HW139419   2.943   2.803  12.439 -1.9773  0.5851  0.1352
 9261SOL    HW239420   2.839   2.874  12.379 -0.4427 -0.7239  1.3734
 9262SOL     OW39421   1.595   3.065   7.412  0.1448  0.0757 -0.1644
 9262SOL    HW139422   1.613   3.023   7.496  2.0577  1.2730  0.0171
 9262SOL    HW239423   1.636   3.149   7.433  1.3583 -0.2883 -1.0256
 9263SOL     OW39424   2.536   3.484   2.808 -0.9128 -0.4006 -0.1446
 9263SOL    HW139425   2.513   3.575   2.790 -2.0925 -0.6779 -0.0045
 9263SOL    HW239426   2.626   3.471   2.778 -2.1315 -2.2673 -3.0087
 9264SOL     OW39427   3.715   3.259   6.049 -0.0197  0.3541 -0.1892
 9264SOL    HW139428   3.767   3.192   6.004  0.3006  0.4737  0.0016
 9264SOL    HW239429   3.768   3.339   6.053  1.9430 -0.9188 -0.4731
 9265SOL     OW39430   0.088   2.633   4.794 -0.0545 -0.4437 -0.0439
 9265SOL    HW139431   0.036   2.663   4.720  0.5443  1.6413  0.3736
 9265SOL    HW239432   0.172   2.648   4.750 -0.2387  0.9796  0.0878
 9266SOL     OW39433   1.239   4.155   8.424  0.6287  0.0413  0.2162
 9266SOL    HW139434   1.210   4.112   8.344  0.3294 -0.4511  0.5873
 9266SOL    HW239435   1.201   4.091   8.485 -1.2702 -0.4642 -1.4892
 9267SOL     OW39436   1.297   1.901  12.131 -0.2004 -0.0664  0.2794
 9267SOL    HW139437   1.308   1.888  12.225 -0.1165  0.4911  0.3506
 9267SOL    HW239438   1.366   1.966  12.113 -0.6827  0.2149 -0.5438
 9268SOL     OW39439   2.981   2.498   9.902  0.2208 -0.1212 -0.1971
 9268SOL    HW139440   2.907   2.452   9.861 -0.2868 -1.5721  2.3388
 9268SOL    HW239441   2.995   2.567   9.837  0.1988  0.6656  0.6304
 9269SOL     OW39442   1.161   4.685  12.389  0.0923 -0.3468  0.2847
 9269SOL    HW139443   1.132   0.008  12.458  1.9507  0.9241 -0.0398
 9269SOL    HW239444   1.253   4.704  12.373 -0.2216 -0.4094 -1.6266
 9270SOL     OW39445   2.871   4.204  11.604  0.0784 -0.2124  0.1724
 9270SOL    HW139446   2.941   4.139  11.603  0.8199  0.5626  0.5737
 9270SOL    HW239447   2.864   4.222  11.698  1.5599 -1.2715  0.4890
 9271SOL     OW39448   3.507   4.344   6.474 -0.0381  0.0275  0.1086
 9271SOL    HW139449   3.491   4.336   6.568 -3.9833 -0.1723 -0.5604
 9271SOL    HW239450   3.435   4.401   6.450 -0.7428 -1.0837 -0.4199
 9272SOL     OW39451   3.066   2.777   8.462  0.5433 -0.7626 -0.2247
 9272SOL    HW139452   3.058   2.682   8.462 -1.3452 -0.6025 -1.0363
 9272SOL    HW239453   3.053   2.789   8.557 -1.0694  4.6126 -1.1214
 9273SOL     OW39454   2.841   3.190   2.879 -0.3561  0.1709 -0.0053
 9273SOL    HW139455   2.877   3.104   2.899 -0.2872  0.5708  1.5873
 9273SOL    HW239456   2.753   3.178   2.843 -0.7673  3.4440 -0.0997
 9274SOL     OW39457   0.335   3.321  13.115 -0.0545  0.3570  0.6311
 9274SOL    HW139458   0.427   3.297  13.126 -0.2171 -1.0023 -1.0004
 9274SOL    HW239459   0.312   3.385  13.182  1.2608  0.7967  0.6730
 9275SOL     OW39460   0.204   4.500   2.289  0.0340 -0.2143  0.1496
 9275SOL    HW139461   0.223   4.581   2.243  2.1671 -0.9089 -0.1863
 9275SOL    HW239462   0.149   4.529   2.362 -1.2874 -0.0659 -0.9074
 9276SOL     OW39463   0.968   1.583   7.647 -0.7203 -0.0617  0.2174
 9276SOL    HW139464   1.063   1.585   7.656 -0.5967  0.1574 -1.0383
 9276SOL    HW239465   0.943   1.675   7.648 -1.3817 -0.2270 -0.6046
 9277SOL     OW39466   4.394   3.782  12.811 -0.1389 -0.5796  0.1412
 9277SOL    HW139467   4.306   3.820  12.817  0.5833  1.2311 -0.7185
 9277SOL    HW239468   4.390   3.720  12.883  1.1475 -1.4202 -0.5135
 9278SOL     OW39469   0.934   1.522   0.966  0.1580  0.1174  0.0202
 9278SOL    HW139470   0.866   1.523   1.033 -1.0064  1.6510 -1.1964
 9278SOL    HW239471   0.989   1.598   0.985  0.5356  0.0538 -0.7871
 9279SOL     OW39472   1.616   0.822   2.635  0.0412  0.0751  0.1759
 9279SOL    HW139473   1.642   0.838   2.544  1.1069  0.0296  0.4781
 9279SOL    HW239474   1.587   0.730   2.632 -1.1745  0.4721 -0.3216
 9280SOL     OW39475   0.867   2.156   7.807 -0.3567  0.1817  0.3751
 9280SOL    HW139476   0.888   2.216   7.736 -0.4165  1.9631  1.8711
 9280SOL    HW239477   0.772   2.147   7.812 -0.2268 -1.0247  0.8149
 9281SOL     OW39478   1.930   1.741  12.011 -0.3323  0.2743 -0.1458
 9281SOL    HW139479   1.842   1.710  12.031 -0.0593 -0.3242  0.1016
 9281SOL    HW239480   1.939   1.711  11.921 -2.2283  1.6028 -0.7954
 9282SOL     OW39481   3.830   1.435   4.098 -0.3039 -0.3143 -0.0073
 9282SOL    HW139482   3.768   1.391   4.156  0.0280  0.9413  1.3038
 9282SOL    HW239483   3.769   1.481   4.041 -0.5807  0.1358  0.6492
 9283SOL     OW39484   1.534   3.721   3.346  0.0922  0.2016 -0.0758
 9283SOL    HW139485   1.560   3.647   3.401 -0.5887 -0.3717 -0.5307
 9283SOL    HW239486   1.612   3.744   3.295  0.5231 -0.6314  0.2136
 9284SOL     OW39487   0.605   1.130   0.318  0.3219  0.1110  0.4249
 9284SOL    HW139488   0.673   1.135   0.386  1.4765  0.0279 -0.7359
 9284SOL    HW239489   0.629   1.062   0.256 -1.3248  0.7796 -0.9444
 9285SOL     OW39490   4.539   0.540   8.234 -0.3967  0.2268  0.4309
 9285SOL    HW139491   4.484   0.569   8.161  0.3732  1.4814  0.3415
 9285SOL    HW239492   4.611   0.602   8.220  0.9173 -1.3706  0.1021
 9286SOL     OW39493   0.471   4.144  17.190  0.5710  0.0473  0.5186
 9286SOL    HW139494   0.441   4.056  17.168  1.0842 -0.0137  0.0553
 9286SOL    HW239495   0.515   4.175  17.111  0.9863 -0.9267  0.3781
 9287SOL     OW39496   3.298   4.472   5.982 -0.2546 -0.6653  0.0129
 9287SOL    HW139497   3.309   4.475   5.887  1.9582  2.3181  0.3761
 9287SOL    HW239498   3.235   4.544   5.992 -1.2369 -1.4124 -0.7999
 9288SOL     OW39499   0.295   1.956  12.424  0.2949 -0.2431  0.4174
 9288SOL    HW139500   0.349   1.966  12.346 -0.4953  0.6190 -0.0133
 9288SOL    HW239501   0.203   1.962  12.397  0.7755  0.6016 -0.9819
 9289SOL     OW39502   2.344   2.208  15.472  0.7352  0.0889 -0.0288
 9289SOL    HW139503   2.317   2.199  15.380  0.2644  1.7567 -0.0566
 9289SOL    HW239504   2.354   2.303  15.485  0.0254  0.2020 -0.2644
 9290SOL     OW39505   0.991   1.316  11.573 -0.1099  0.2420  0.1388
 9290SOL    HW139506   1.051   1.389  11.588 -2.1792  1.3891  2.7536
 9290SOL    HW239507   0.960   1.303  11.663  0.7962 -1.8376  0.1591
 9291SOL     OW39508   2.022   1.901   2.120 -0.1073 -0.1084  0.3442
 9291SOL    HW139509   2.007   1.876   2.211 -1.7377  1.7427  0.5777
 9291SOL    HW239510   1.944   1.946   2.088  0.4298  0.4630 -0.1573
 9292SOL     OW39511   1.822   0.891  11.739  0.4946 -0.0025  0.1701
 9292SOL    HW139512   1.817   0.853  11.827  0.4934  1.7968  0.9417
 9292SOL    HW239513   1.890   0.956  11.757  1.9439 -1.1048 -1.2270
 9293SOL     OW39514   0.488   1.108   9.472 -0.1150  0.3850 -0.6017
 9293SOL    HW139515   0.427   1.087   9.401 -1.8272 -0.4718  1.1271
 9293SOL    HW239516   0.493   1.018   9.504 -0.4986  1.2776  1.9880
 9294SOL     OW39517   1.079   3.824  16.534  0.4241  0.0271  0.5699
 9294SOL    HW139518   1.127   3.903  16.510 -0.6226 -0.2869 -2.5176
 9294SOL    HW239519   1.064   3.834  16.628  3.0818  0.0644  0.9955
 9295SOL     OW39520   3.964   4.449   8.735  0.7932 -0.5738 -0.3953
 9295SOL    HW139521   4.038   4.403   8.775  0.8657  0.2717  0.4326
 9295SOL    HW239522   3.900   4.435   8.804  1.0545  0.4220  0.0444
 9296SOL     OW39523   3.665   0.975   8.958  0.3792 -0.1988 -0.3731
 9296SOL    HW139524   3.738   0.952   9.015  0.5417  1.7844  0.1802
 9296SOL    HW239525   3.608   0.898   8.968 -0.0036  0.4087  1.9584
 9297SOL     OW39526   0.209   1.098   7.341 -0.4223  0.0486 -0.1122
 9297SOL    HW139527   0.282   1.148   7.303 -0.9692  1.6353  0.9291
 9297SOL    HW239528   0.185   1.177   7.390  0.7838  0.8243 -0.7676
 9298SOL     OW39529   3.508   1.980  12.492 -0.6524 -0.1398  0.2950
 9298SOL    HW139530   3.472   1.895  12.517 -0.7665 -0.4156 -0.7889
 9298SOL    HW239531   3.547   1.956  12.408 -0.7410 -1.5548  0.6615
 9299SOL     OW39532   0.040   3.370   2.254  0.0024  0.0365  0.5575
 9299SOL    HW139533   4.721   3.320   2.193  0.3097 -0.7330  0.9112
 9299SOL    HW239534   0.012   3.461   2.250  1.4209  0.4132 -0.8213
 9300SOL     OW39535   2.668   2.340   8.184  0.4159 -0.1233 -0.2671
 9300SOL    HW139536   2.617   2.270   8.226  0.7617  0.9896  1.9847
 9300SOL    HW239537   2.745   2.288   8.159  0.2754 -1.4725  2.0856
 9301SOL     OW39538   1.562   0.708   0.999  0.4750 -0.0749  0.4689
 9301SOL    HW139539   1.589   0.636   0.942  3.2195  2.7830 -1.8543
 9301SOL    HW239540   1.649   0.738   1.024  0.1554  1.9725 -0.8552
 9302SOL     OW39541   3.349   1.453  10.342 -0.4318  0.1118 -0.3899
 9302SOL    HW139542   3.317   1.404  10.417  1.7813 -0.9338 -0.1105
 9302SOL    HW239543   3.278   1.513  10.319  1.4444  0.5304 -5.2756
 9303SOL     OW39544   2.099   1.551   0.460 -0.2924 -0.9153 -0.2918
 9303SOL    HW139545   2.071   1.591   0.378 -1.6548  0.3669  0.7863
 9303SOL    HW239546   2.182   1.598   0.468 -0.9714  0.2590 -0.2185
 9304SOL     OW39547   4.570   1.999   2.917  0.9311  0.4058 -0.4350
 9304SOL    HW139548   4.586   1.989   3.010  0.7427  0.1024 -0.4357
 9304SOL    HW239549   4.515   2.078   2.913 -0.4784 -0.3840  3.5527
 9305SOL     OW39550   3.224   4.039   4.039  0.3662  0.2406  0.0361
 9305SOL    HW139551   3.275   3.963   4.014 -1.6463 -1.0385 -0.1441
 9305SOL    HW239552   3.298   4.086   4.078 -0.6749  1.4595  0.5484
 9306SOL     OW39553   0.529   2.143  13.640  0.2512  0.4085 -0.0936
 9306SOL    HW139554   0.478   2.148  13.558  1.0462 -0.0219 -0.6126
 9306SOL    HW239555   0.464   2.176  13.702 -0.0412  0.8278 -0.6177
 9307SOL     OW39556   4.443   1.208   6.758 -0.3756  0.2184 -0.1934
 9307SOL    HW139557   4.367   1.263   6.736 -0.8445 -0.8636 -1.2749
 9307SOL    HW239558   4.397   1.128   6.781 -0.3716  0.4671  0.6577
 9308SOL     OW39559   0.614   3.112  11.658 -0.3999 -0.4225  0.1546
 9308SOL    HW139560   0.530   3.103  11.614  0.5654  0.4696 -1.8655
 9308SOL    HW239561   0.591   3.128  11.749  1.7737  0.3380  0.5790
 9309SOL     OW39562   0.744   2.601  10.285  0.5877 -0.6006 -0.0310
 9309SOL    HW139563   0.710   2.550  10.211 -3.4383 -0.4316  1.7000
 9309SOL    HW239564   0.661   2.591  10.332  0.1354 -0.8509 -0.8806
 9310SOL     OW39565   4.043   3.276   4.486  0.3400  0.2279  0.3102
 9310SOL    HW139566   4.080   3.342   4.543  1.7081  2.1343 -2.8127
 9310SOL    HW239567   4.064   3.188   4.518 -1.7590 -0.1052  0.7827
 9311SOL     OW39568   3.741   0.334   9.312 -0.8783  0.2736 -0.5066
 9311SOL    HW139569   3.767   0.425   9.326  0.3132 -0.1352 -0.0425
 9311SOL    HW239570   3.815   0.309   9.255 -0.6506  1.2094 -0.6180
 9312SOL     OW39571   1.893   0.427  12.436 -0.3130  0.1571  0.6232
 9312SOL    HW139572   1.942   0.462  12.510  3.4072 -0.6942 -1.4169
 9312SOL    HW239573   1.884   0.510  12.389  0.9058 -1.0983 -1.8338
 9313SOL     OW39574   0.903   0.561   5.819 -0.8686  0.6568 -0.3244
 9313SOL    HW139575   0.918   0.611   5.738 -0.0071  0.1159 -0.5029
 9313SOL    HW239576   0.913   0.474   5.780  1.0102  0.6132  0.2241
 9314SOL     OW39577   0.931   0.194   1.315  0.2676 -0.1006 -0.0379
 9314SOL    HW139578   1.001   0.259   1.326  1.3694 -1.1122 -1.1190
 9314SOL    HW239579   0.972   0.139   1.248 -1.9376 -0.6726 -0.9148
 9315SOL     OW39580   4.407   2.099   7.081  0.0828  0.2914  0.3002
 9315SOL    HW139581   4.351   2.171   7.108 -0.8130 -0.6045  0.8100
 9315SOL    HW239582   4.361   2.028   7.126  0.5095 -0.1932 -0.0106
 9316SOL     OW39583   4.347   2.052   1.970 -0.5360 -0.0941  0.2519
 9316SOL    HW139584   4.374   2.036   1.880  1.9080 -3.0008  1.4914
 9316SOL    HW239585   4.366   2.144   1.985 -0.1999  0.0370 -1.0437
 9317SOL     OW39586   3.084   3.560   4.839  0.4055  0.1625  0.0570
 9317SOL    HW139587   3.137   3.564   4.919  0.6659 -1.9191 -0.0208
 9317SOL    HW239588   3.071   3.465   4.841 -0.5238  0.2621 -1.2569
 9318SOL     OW39589   0.472   1.989  17.433  0.2429 -0.2739  0.4679
 9318SOL    HW139590   0.392   1.940  17.454 -0.9558  1.4496 -0.0417
 9318SOL    HW239591   0.439   2.049  17.365  0.6231  0.7876  1.2382
 9319SOL     OW39592   1.274   1.453   2.712  0.0187  0.2922  0.2884
 9319SOL    HW139593   1.259   1.359   2.723 -1.1154  0.3262 -0.9060
 9319SOL    HW239594   1.363   1.462   2.745  0.2177 -2.4132  0.5193
 9320SOL     OW39595   1.506   2.417   6.278  0.5105  0.4658  0.4645
 9320SOL    HW139596   1.422   2.426   6.322 -0.6206 -1.8419 -1.1888
 9320SOL    HW239597   1.529   2.510   6.280  0.9900  0.3397  0.7916
 9321SOL     OW39598   2.186   1.810   1.916  0.1430  0.0020  0.3839
 9321SOL    HW139599   2.128   1.830   1.990  2.1725  1.9105  1.4590
 9321SOL    HW239600   2.267   1.857   1.934 -0.8863  2.4818 -1.4821
 9322SOL     OW39601   4.248   0.499  17.015  0.7832 -0.7727 -0.1727
 9322SOL    HW139602   4.292   0.569  16.967  0.9126  0.6341  1.9568
 9322SOL    HW239603   4.324   0.444  17.035 -0.0128 -1.1836  1.7607
 9323SOL     OW39604   1.799   0.396   5.902  0.8104 -0.0223  0.3421
 9323SOL    HW139605   1.810   0.312   5.857  1.6449  0.6946 -0.8026
 9323SOL    HW239606   1.706   0.395   5.924  0.1517  0.6222 -2.3006
 9324SOL     OW39607   0.078   0.183   7.450 -0.3096 -0.0043  0.2540
 9324SOL    HW139608   0.008   0.125   7.420 -0.2151  0.1513 -0.2735
 9324SOL    HW239609   0.148   0.118   7.460 -1.3804 -1.5530 -2.3241
 9325SOL     OW39610   1.737   4.268  16.106  0.1821 -0.1836 -0.2952
 9325SOL    HW139611   1.651   4.252  16.068 -0.7508  1.7343  1.0258
 9325SOL    HW239612   1.778   4.182  16.102  0.6403 -0.0805  2.4155
 9326SOL     OW39613   1.958   0.751   8.612  0.4614 -0.0504  0.0173
 9326SOL    HW139614   1.872   0.711   8.599 -0.1360  1.0360  0.6307
 9326SOL    HW239615   1.979   0.692   8.685  1.8658 -1.0530 -1.2167
 9327SOL     OW39616   4.575   1.395   6.297 -0.4201  0.0304  0.2114
 9327SOL    HW139617   4.630   1.377   6.373  1.2701 -1.4977 -1.3463
 9327SOL    HW239618   4.496   1.350   6.326  0.0635 -1.0786 -0.1892
 9328SOL     OW39619   0.620   1.179   4.175  0.3530  0.0261  0.1548
 9328SOL    HW139620   0.638   1.124   4.252 -3.0797  0.5945  1.3612
 9328SOL    HW239621   0.572   1.115   4.122  1.5494 -0.6708 -0.1045
 9329SOL     OW39622   0.436   0.481   5.639  0.0492 -0.7001  0.1426
 9329SOL    HW139623   0.399   0.525   5.715 -0.5235 -1.1548  0.1276
 9329SOL    HW239624   0.367   0.461   5.576 -0.7870  4.8899 -0.7702
 9330SOL     OW39625   4.025   4.499   1.819  0.1223 -0.0500  0.0885
 9330SOL    HW139626   4.095   4.434   1.826 -0.3845 -0.5882  0.1754
 9330SOL    HW239627   4.033   4.541   1.904 -0.9259  1.1200 -0.3812
 9331SOL     OW39628   1.746   1.447   4.038 -0.1537 -0.1532 -0.1587
 9331SOL    HW139629   1.780   1.382   4.099  0.5241 -3.1857 -3.8067
 9331SOL    HW239630   1.751   1.394   3.958  0.8790 -0.0299 -0.1845
 9332SOL     OW39631   1.432   2.506   4.897  0.6469 -1.0175 -0.3127
 9332SOL    HW139632   1.469   2.517   4.810 -2.1647 -0.0327 -1.3889
 9332SOL    HW239633   1.500   2.544   4.952 -1.7848  0.6428  1.5288
 9333SOL     OW39634   1.374   3.409   8.046  0.0775  0.2546  0.2951
 9333SOL    HW139635   1.343   3.394   8.135  1.4332 -0.8267  0.5686
 9333SOL    HW239636   1.337   3.332   8.003  2.1560 -1.4830  1.6545
 9334SOL     OW39637   0.249   0.618   1.156  0.1120 -0.6879 -0.2604
 9334SOL    HW139638   0.295   0.578   1.082  4.1517  3.2978  0.0705
 9334SOL    HW239639   0.206   0.688   1.108  2.8496  1.2691  0.1462
 9335SOL     OW39640   3.290   3.546   8.201  0.3977  0.1141  0.1347
 9335SOL    HW139641   3.356   3.515   8.263 -0.1137  0.8763  1.0604
 9335SOL    HW239642   3.250   3.464   8.171  1.7102 -1.1198  1.7188
 9336SOL     OW39643   1.944   4.304  12.181 -0.1694 -0.1308 -0.1847
 9336SOL    HW139644   2.008   4.289  12.112 -0.3142  0.3890 -0.4332
 9336SOL    HW239645   1.961   4.226  12.234  1.2970 -0.6322 -1.3944
 9337SOL     OW39646   1.025   2.445   6.662 -0.2161 -0.2264 -0.2146
 9337SOL    HW139647   0.967   2.458   6.586  0.0230  1.2309 -0.1609
 9337SOL    HW239648   1.045   2.352   6.668 -2.1419 -0.4125  3.4718
 9338SOL     OW39649   1.633   2.970  15.128 -0.6809 -0.3365 -0.4682
 9338SOL    HW139650   1.631   3.064  15.112 -2.2001 -0.1037  1.0599
 9338SOL    HW239651   1.611   2.941  15.039  2.0789 -2.7058 -0.3689
 9339SOL     OW39652   0.695   2.497   3.935 -0.2549  0.3567 -0.0661
 9339SOL    HW139653   0.750   2.419   3.942  0.7048  0.9701 -0.7192
 9339SOL    HW239654   0.616   2.478   3.986  0.2993 -0.7780  0.3721
 9340SOL     OW39655   0.885   3.534   7.424  0.9335  0.4618  0.1451
 9340SOL    HW139656   0.806   3.525   7.371  1.2678  0.6579 -0.3800
 9340SOL    HW239657   0.854   3.503   7.509  0.0905 -1.1522 -0.7508
 9341SOL     OW39658   4.195   0.445  11.355 -0.3693  0.1512 -0.0545
 9341SOL    HW139659   4.101   0.434  11.370  0.1459 -1.2479  2.1854
 9341SOL    HW239660   4.215   0.352  11.352 -2.7163 -0.4413  2.1293
 9342SOL     OW39661   0.585   2.486   7.153  0.1552  0.1681  0.8799
 9342SOL    HW139662   0.635   2.566   7.173  2.2580 -1.0554  0.5387
 9342SOL    HW239663   0.574   2.506   7.060 -0.6558 -0.5605  0.8278
 9343SOL     OW39664   2.517   2.718   6.155 -0.3576 -0.0918  0.1812
 9343SOL    HW139665   2.494   2.811   6.158 -1.3135 -0.3565  0.8994
 9343SOL    HW239666   2.608   2.717   6.185 -0.0555 -1.5784 -0.7920
 9344SOL     OW39667   3.836   1.644  16.294 -0.4256  0.3405  0.5240
 9344SOL    HW139668   3.797   1.658  16.207 -0.8096  0.3526  0.6964
 9344SOL    HW239669   3.805   1.715  16.349 -3.6095 -0.3464 -0.3703
 9345SOL     OW39670   3.286   2.226   3.488  0.2495 -0.1233 -0.0354
 9345SOL    HW139671   3.378   2.210   3.467 -0.3545 -0.9588 -2.0441
 9345SOL    HW239672   3.248   2.177   3.415  0.0467  0.3208 -0.2332
 9346SOL     OW39673   4.675   2.973   6.628  0.0513  0.5625  0.6317
 9346SOL    HW139674   4.711   2.982   6.540 -0.5537 -1.4257  0.1780
 9346SOL    HW239675   4.667   2.877   6.632  1.1434  0.4620  0.5031
 9347SOL     OW39676   4.074   4.149   2.031 -0.0298  0.1724 -0.0700
 9347SOL    HW139677   4.143   4.202   1.991  0.1770  1.2778  1.7700
 9347SOL    HW239678   4.013   4.150   1.957  0.7590 -0.6816 -0.7317
 9348SOL     OW39679   0.079   4.551   6.069  0.2222 -0.7870 -0.4184
 9348SOL    HW139680   0.102   4.520   5.981 -0.8093 -1.1482 -0.5642
 9348SOL    HW239681   0.120   4.637   6.071 -1.2929 -0.1408  1.8212
 9349SOL     OW39682   2.976   4.216  12.584  0.0659  0.2817  0.5247
 9349SOL    HW139683   2.902   4.261  12.545 -0.4203 -1.1485 -0.1927
 9349SOL    HW239684   2.990   4.145  12.522  0.7655 -1.0972  2.2579
 9350SOL     OW39685   0.175   2.756   1.725  0.1629  0.2404 -0.2546
 9350SOL    HW139686   0.166   2.841   1.769 -2.0117 -0.0329 -0.1691
 9350SOL    HW239687   0.116   2.776   1.653 -2.5761 -1.2972  1.5338
 9351SOL     OW39688   1.452   1.383   7.004  0.5212  0.2349  0.1088
 9351SOL    HW139689   1.507   1.401   6.928 -0.6266  0.6140 -0.6370
 9351SOL    HW239690   1.469   1.289   7.011  2.8071  0.6777  0.6806
 9352SOL     OW39691   3.195   0.463   4.718 -0.2516  0.1393  0.7900
 9352SOL    HW139692   3.157   0.550   4.724 -1.6263 -0.1618 -3.0176
 9352SOL    HW239693   3.148   0.435   4.639 -1.1779  0.0594  1.3810
 9353SOL     OW39694   2.066   1.999   0.841  0.1729  0.0734  0.1354
 9353SOL    HW139695   1.970   1.999   0.835  0.2644 -1.0811 -1.2542
 9353SOL    HW239696   2.086   1.972   0.752 -1.7959 -2.0162  0.3292
 9354SOL     OW39697   1.292   3.432   7.735 -0.3421  0.2652 -0.2310
 9354SOL    HW139698   1.207   3.476   7.724 -0.1474  0.9480  0.9352
 9354SOL    HW239699   1.337   3.483   7.803  0.1395  0.0797 -0.4137
 9355SOL     OW39700   1.063   0.597  13.989  0.2572 -0.2352  0.4581
 9355SOL    HW139701   1.060   0.692  13.989 -0.1434 -0.2438  0.3085
 9355SOL    HW239702   1.079   0.590  14.083 -1.4715  1.2397  0.8597
 9356SOL     OW39703   3.167   2.606   1.193 -0.3353  0.0939 -0.0520
 9356SOL    HW139704   3.174   2.549   1.270 -0.2429  0.6650  0.3663
 9356SOL    HW239705   3.260   2.628   1.185 -0.1949 -0.3225  0.4836
 9357SOL     OW39706   1.655   2.276  12.594  0.1853  0.2063  0.4111
 9357SOL    HW139707   1.741   2.291  12.555 -0.4048 -0.4833 -1.1767
 9357SOL    HW239708   1.615   2.217  12.531  0.1784  1.1231 -0.4509
 9358SOL     OW39709   4.555   3.834  14.365  0.2563  1.5441  0.3624
 9358SOL    HW139710   4.508   3.835  14.282  2.3207  1.3835 -0.8151
 9358SOL    HW239711   4.490   3.885  14.413  1.6690  1.5776  2.2290
 9359SOL     OW39712   0.066   3.947  12.026  0.3233  0.1447 -0.3002
 9359SOL    HW139713   0.081   3.932  11.933  1.9764 -0.6019  0.0785
 9359SOL    HW239714   0.051   3.856  12.053  0.0699  0.1458 -0.4347
 9360SOL     OW39715   4.284   0.548  15.604 -0.6582 -0.8685  0.5849
 9360SOL    HW139716   4.256   0.460  15.631 -1.2225 -0.0843  2.5306
 9360SOL    HW239717   4.209   0.601  15.626 -0.1837  1.1618 -2.6312
 9361SOL     OW39718   4.006   4.628  16.148 -0.0735 -0.1566 -0.4315
 9361SOL    HW139719   4.049   4.548  16.178  0.3787  1.6757  3.8363
 9361SOL    HW239720   3.917   4.610  16.178  0.3264  1.6160  1.8902
 9362SOL     OW39721   2.280   2.690   4.371  0.0404 -0.9250 -0.1169
 9362SOL    HW139722   2.222   2.738   4.430 -0.0485  2.3399 -2.8428
 9362SOL    HW239723   2.353   2.749   4.356 -0.4855 -0.7840 -2.1568
 9363SOL     OW39724   1.784   1.067   8.928  0.0039 -0.2596  0.1708
 9363SOL    HW139725   1.697   1.029   8.916  1.6301 -3.2488 -2.0990
 9363SOL    HW239726   1.844   0.995   8.911 -2.0580 -1.7106 -0.8792
 9364SOL     OW39727   4.197   3.623  17.006 -0.4939 -0.7446  0.4773
 9364SOL    HW139728   4.148   3.688  16.956  1.3408  0.6647  0.5359
 9364SOL    HW239729   4.285   3.639  16.972 -0.6681 -1.4454 -0.3226
 9365SOL     OW39730   0.386   1.031  16.570  0.6562 -0.0311  0.3847
 9365SOL    HW139731   0.406   0.996  16.657  3.0417 -3.2220 -1.4661
 9365SOL    HW239732   0.393   1.126  16.579  1.6555 -0.1929  1.3210
 9366SOL     OW39733   0.734   4.183   5.636 -0.1097 -0.4924  0.4327
 9366SOL    HW139734   0.653   4.158   5.591 -0.3931  1.0594  0.0968
 9366SOL    HW239735   0.738   4.110   5.698 -1.8352 -1.0402 -0.0846
 9367SOL     OW39736   4.666   3.194  13.885 -0.4843 -0.1077  0.1336
 9367SOL    HW139737   4.677   3.179  13.791  1.1014  1.8860  0.0237
 9367SOL    HW239738   4.687   3.105  13.913 -0.0092 -0.7152 -2.1618
 9368SOL     OW39739   0.382   2.511   5.560 -0.2015 -0.0516 -0.5745
 9368SOL    HW139740   0.334   2.456   5.622  1.1538 -0.5444  0.0182
 9368SOL    HW239741   0.459   2.455   5.548  0.3907  0.5204  0.6372
 9369SOL     OW39742   0.686   1.459   9.861  0.7712  0.3630 -0.0513
 9369SOL    HW139743   0.755   1.526   9.861  1.1332 -0.0271 -2.0377
 9369SOL    HW239744   0.715   1.394   9.926  0.3866 -1.5802 -1.8493
 9370SOL     OW39745   2.545   1.981   7.353  0.0848 -0.0888 -0.0677
 9370SOL    HW139746   2.596   1.922   7.298 -0.3446 -0.5002 -0.0215
 9370SOL    HW239747   2.536   1.937   7.438  0.4099  0.9696  0.5210
 9371SOL     OW39748   3.609   4.366   8.365  0.7142  0.6865 -0.2464
 9371SOL    HW139749   3.703   4.364   8.383  0.2307 -0.9217  2.1484
 9371SOL    HW239750   3.591   4.458   8.382  2.6748  1.6618 -3.3811
 9372SOL     OW39751   4.467   3.910   7.404 -0.4513 -0.2295 -0.3834
 9372SOL    HW139752   4.549   3.920   7.355 -1.0388  0.9643 -1.1181
 9372SOL    HW239753   4.429   3.843   7.347 -2.1090  2.0214 -1.9479
 9373SOL     OW39754   2.924   2.340   5.235  0.1078 -0.5631 -0.3796
 9373SOL    HW139755   2.971   2.258   5.252  1.6266  0.4550  0.2595
 9373SOL    HW239756   2.861   2.298   5.176 -0.2045  1.6340 -1.6254
 9374SOL     OW39757   4.432   0.513  15.385  0.1694  0.3774  0.3679
 9374SOL    HW139758   4.356   0.521  15.443  1.5348  0.9153  2.0761
 9374SOL    HW239759   4.473   0.435  15.421  1.0102  0.9358  0.6191
 9375SOL     OW39760   0.561   0.876   7.516  0.2584  0.6998  0.8816
 9375SOL    HW139761   0.554   0.964   7.479 -1.8938  1.0622  2.1673
 9375SOL    HW239762   0.469   0.849   7.525  0.3457  0.8097  2.0911
 9376SOL     OW39763   0.586   1.185  14.900  0.3609  0.3867 -0.4966
 9376SOL    HW139764   0.615   1.268  14.937  2.2435 -1.0547  1.3105
 9376SOL    HW239765   0.663   1.137  14.932  0.0432  0.6809  0.7408
 9377SOL     OW39766   1.194   0.517   2.663  0.1403  0.0914 -0.1247
 9377SOL    HW139767   1.260   0.497   2.597  1.2391  1.4195  0.5704
 9377SOL    HW239768   1.140   0.438   2.665 -0.8957  0.7660 -1.6357
 9378SOL     OW39769   0.494   1.262   9.693  0.5716 -0.1278 -0.0826
 9378SOL    HW139770   0.489   1.190   9.757 -0.9669 -1.0063 -1.1938
 9378SOL    HW239771   0.514   1.215   9.612  2.2438  0.8801 -0.2628
 9379SOL     OW39772   2.840   4.501   3.485 -0.2015  0.5232  0.1254
 9379SOL    HW139773   2.781   4.560   3.438 -0.2089 -0.9649 -1.7272
 9379SOL    HW239774   2.773   4.448   3.528 -1.7591  1.2876 -1.3872
 9380SOL     OW39775   1.574   3.769   6.283 -0.2378 -0.2535 -0.6469
 9380SOL    HW139776   1.569   3.844   6.342 -1.4426 -1.5636  0.9097
 9380SOL    HW239777   1.506   3.784   6.217  1.4796  0.5008 -2.2175
 9381SOL     OW39778   1.840   3.307   7.930  0.2475  0.5504  0.6220
 9381SOL    HW139779   1.767   3.342   7.878  2.4176  2.0372 -1.4540
 9381SOL    HW239780   1.791   3.243   7.981 -0.9297 -0.1576 -1.3820
 9382SOL     OW39781   0.234   0.368   6.396 -0.7616 -0.5369 -0.0099
 9382SOL    HW139782   0.186   0.450   6.393  0.5825  0.1984 -2.0499
 9382SOL    HW239783   0.180   0.324   6.331 -0.5903 -0.8656  0.0696
 9383SOL     OW39784   0.905   0.126   5.888 -0.5630 -0.3620  0.2515
 9383SOL    HW139785   0.901   0.030   5.891  1.0543 -0.3978  1.1136
 9383SOL    HW239786   0.981   0.131   5.946 -1.5671  1.2464  1.4415
 9384SOL     OW39787   3.354   3.382   3.544  0.4494 -0.0203  0.6050
 9384SOL    HW139788   3.447   3.391   3.567  1.0087 -0.2789 -1.5877
 9384SOL    HW239789   3.371   3.298   3.503 -1.2318 -0.1976  0.2791
 9385SOL     OW39790   1.812   0.501   5.070 -0.1153 -0.1880  0.2529
 9385SOL    HW139791   1.777   0.549   5.145 -0.0572 -0.9468  0.7748
 9385SOL    HW239792   1.736   0.471   5.020  1.2856  0.5151 -2.2976
 9386SOL     OW39793   0.100   4.438   8.359 -1.1122  0.0447 -0.5228
 9386SOL    HW139794   0.184   4.392   8.351 -0.8490  0.0909  2.1114
 9386SOL    HW239795   0.117   4.514   8.302  0.2096  0.9909  1.1199
 9387SOL     OW39796   1.184   3.923   6.356  0.2746 -0.0828 -0.2412
 9387SOL    HW139797   1.172   3.847   6.299  0.5402 -0.2752 -0.0377
 9387SOL    HW239798   1.188   3.998   6.297 -1.8432  0.4434  0.2811
 9388SOL     OW39799   4.132   0.917  12.624  0.1147  0.4825 -0.1970
 9388SOL    HW139800   4.214   0.872  12.645  0.5458  0.2287 -2.3944
 9388SOL    HW239801   4.083   0.835  12.621  0.2248  0.4272 -0.4704
 9389SOL     OW39802   4.257   1.688   9.151  0.0646  0.7205 -0.1659
 9389SOL    HW139803   4.253   1.720   9.060 -1.3289 -1.9667 -1.0523
 9389SOL    HW239804   4.169   1.652   9.162 -0.1784  1.1696 -0.5916
 9390SOL     OW39805   3.009   0.556   2.148 -0.2006 -0.4465  0.0858
 9390SOL    HW139806   2.930   0.587   2.195  2.1331  1.4206  2.8005
 9390SOL    HW239807   2.977   0.551   2.058  0.6444  1.4425 -0.3234
 9391SOL     OW39808   1.569   2.012   8.419 -0.3245  0.1047  0.0517
 9391SOL    HW139809   1.522   2.085   8.379  1.6695  1.7981  0.8092
 9391SOL    HW239810   1.646   2.020   8.362 -0.0408  1.0058  0.5588
 9392SOL     OW39811   0.811   0.342   4.900 -0.1343 -0.1819 -0.2705
 9392SOL    HW139812   0.790   0.285   4.826  0.8871  0.6715 -1.2056
 9392SOL    HW239813   0.725   0.358   4.939 -0.2690 -2.9769  0.5989
 9393SOL     OW39814   3.290   3.636   0.075  0.3270 -0.4375 -0.3739
 9393SOL    HW139815   3.228   3.704   0.103  0.7622 -1.3577  2.8866
 9393SOL    HW239816   3.310   3.594   0.159  3.1091  0.7470 -0.4582
 9394SOL     OW39817   0.744   0.495  12.384  0.0888  0.0506  0.1111
 9394SOL    HW139818   0.650   0.483  12.400  0.5203 -2.5993  0.6664
 9394SOL    HW239819   0.772   0.492  12.475  1.8093  0.8620 -0.3883
 9395SOL     OW39820   1.682   4.251   2.620  0.4318  0.0512 -0.6712
 9395SOL    HW139821   1.630   4.296   2.686 -0.9859  2.8020 -3.6796
 9395SOL    HW239822   1.650   4.161   2.614  0.4759  0.2092 -3.4627
 9396SOL     OW39823   0.440   1.304  16.555 -0.1233 -0.0826  0.1186
 9396SOL    HW139824   0.360   1.356  16.558  0.6613  1.1091  0.4884
 9396SOL    HW239825   0.468   1.323  16.466 -1.3716  1.5531  0.0726
 9397SOL     OW39826   0.983   3.407   8.256  0.1670  0.6800  0.0674
 9397SOL    HW139827   0.996   3.361   8.338  0.9010 -0.3110 -0.6099
 9397SOL    HW239828   1.072   3.426   8.225  0.2620  0.7764  0.4034
 9398SOL     OW39829   1.437   2.721   4.300  0.2725 -0.1563 -0.1159
 9398SOL    HW139830   1.406   2.646   4.250  0.5085  0.0111 -0.5072
 9398SOL    HW239831   1.499   2.678   4.359  1.1619 -2.2144 -2.5837
 9399SOL     OW39832   4.504   2.035  10.997 -0.1166  0.0643  0.4906
 9399SOL    HW139833   4.482   2.115  11.044 -0.8608 -0.7347  1.5087
 9399SOL    HW239834   4.508   1.973  11.070 -1.0226 -0.9015 -0.2723
 9400SOL     OW39835   4.213   2.276   2.364  0.1308  0.0737 -0.3420
 9400SOL    HW139836   4.246   2.305   2.279  3.4156 -1.9887  0.2308
 9400SOL    HW239837   4.121   2.273   2.336 -0.1454 -0.9024  0.6403
 9401SOL     OW39838   2.633   0.228  16.940  0.7229 -0.7462  0.6339
 9401SOL    HW139839   2.575   0.268  16.875  0.3792  1.1573  2.0950
 9401SOL    HW239840   2.585   0.146  16.956 -0.3818 -0.6164 -2.0538
 9402SOL     OW39841   3.996   1.817   2.688 -0.1520  0.6318 -0.0094
 9402SOL    HW139842   4.080   1.855   2.663  0.1456  0.3977  0.6191
 9402SOL    HW239843   4.027   1.730   2.714  0.1527  0.7046 -0.1319
 9403SOL     OW39844   3.817   1.668   2.903 -0.9643  1.0198  0.3500
 9403SOL    HW139845   3.768   1.718   2.838 -1.3651 -1.1027 -0.9828
 9403SOL    HW239846   3.861   1.733   2.959 -1.0634  2.0633 -0.7919
 9404SOL     OW39847   4.438   2.792  14.162  0.0966 -0.0381  0.6125
 9404SOL    HW139848   4.457   2.758  14.250  1.0254  3.5447  1.8017
 9404SOL    HW239849   4.455   2.721  14.100 -0.8646 -1.4222  1.9233
 9405SOL     OW39850   3.062   1.256  12.311  0.1077  0.0109  0.0352
 9405SOL    HW139851   2.986   1.202  12.288 -0.4177  1.5732 -1.9233
 9405SOL    HW239852   3.119   1.235  12.238 -0.7962 -0.7154 -0.4629
 9406SOL     OW39853   4.330   2.997  11.369 -0.3242 -0.2848  0.4792
 9406SOL    HW139854   4.381   3.077  11.376 -0.6781  0.1564 -1.7309
 9406SOL    HW239855   4.329   2.989  11.273 -2.2047  0.7579  0.4008
 9407SOL     OW39856   0.748   3.641   4.736 -0.1748  0.2676  0.6440
 9407SOL    HW139857   0.734   3.673   4.647 -1.0431  1.1827  1.1096
 9407SOL    HW239858   0.811   3.703   4.773  0.1512  0.3697 -0.0854
 9408SOL     OW39859   3.974   1.609  15.989 -0.6388  0.0764  0.0568
 9408SOL    HW139860   3.910   1.556  15.941  0.2882 -1.9050  0.9650
 9408SOL    HW239861   4.058   1.597  15.944  0.8918  3.2434  2.0374
 9409SOL     OW39862   3.159   4.711   6.013  0.7337  1.1013  0.0850
 9409SOL    HW139863   3.198   0.037   5.952  0.1740 -0.6355 -2.0795
 9409SOL    HW239864   3.158   0.032   6.090  1.3519  1.3262 -0.0752
 9410SOL     OW39865   0.436   0.871   2.139  0.2263  0.0647 -0.5129
 9410SOL    HW139866   0.344   0.887   2.117 -0.0761 -1.7041 -0.5396
 9410SOL    HW239867   0.424   0.784   2.178 -0.1114 -0.0567 -0.8843
 9411SOL     OW39868   0.907   1.300   2.845  0.4577  0.1341  0.5161
 9411SOL    HW139869   0.882   1.211   2.819 -2.8995  0.4284  2.6701
 9411SOL    HW239870   0.931   1.341   2.762  0.8835  0.1240  0.6348
 9412SOL     OW39871   1.573   2.290   2.207  0.2731  0.2082 -0.3115
 9412SOL    HW139872   1.526   2.292   2.290  0.8758  3.6889 -0.0915
 9412SOL    HW239873   1.563   2.195   2.193  0.4125  0.3970 -1.6371
 9413SOL     OW39874   1.331   4.255   5.498 -0.6566  0.2638  0.1400
 9413SOL    HW139875   1.387   4.188   5.460  0.2952  1.5969 -0.7732
 9413SOL    HW239876   1.264   4.251   5.429 -0.4722 -1.8748  0.0800
 9414SOL     OW39877   0.413   3.410  15.817 -0.4505  0.2491 -0.0732
 9414SOL    HW139878   0.341   3.357  15.781 -1.4495  1.7932 -0.3431
 9414SOL    HW239879   0.459   3.337  15.858  0.9264  0.8700 -0.5319
 9415SOL     OW39880   0.657   3.851  13.336  0.5094 -0.0624 -0.5051
 9415SOL    HW139881   0.693   3.868  13.250  0.5115  2.8344  0.0475
 9415SOL    HW239882   0.604   3.930  13.344 -0.3976 -0.7378  0.2442
 9416SOL     OW39883   4.064   3.067   2.268  0.8727  0.6380  0.6662
 9416SOL    HW139884   4.061   3.153   2.227 -0.8657 -0.9399 -2.5466
 9416SOL    HW239885   4.067   3.013   2.188  0.1483  2.1170 -0.3495
 9417SOL     OW39886   2.345   3.909  11.702  0.1742 -0.1559  0.0634
 9417SOL    HW139887   2.404   3.858  11.647 -1.2014 -2.2772  0.5847
 9417SOL    HW239888   2.396   3.990  11.704 -0.2376  0.1351 -1.6144
 9418SOL     OW39889   1.089   3.623  16.763 -0.5718  0.5245 -0.0111
 9418SOL    HW139890   1.015   3.603  16.706  0.8135  1.6674 -2.2555
 9418SOL    HW239891   1.160   3.581  16.715 -0.7834  0.0315  0.1142
 9419SOL     OW39892   2.933   3.019   5.352 -0.3953  0.3089  0.1446
 9419SOL    HW139893   2.900   2.986   5.435 -0.3531 -0.8472 -0.3057
 9419SOL    HW239894   2.965   2.934   5.323 -0.8857  0.2868 -0.3471
 9420SOL     OW39895   4.110   0.360   1.981  0.4070  0.3199 -0.3380
 9420SOL    HW139896   4.067   0.372   2.065  0.1617 -1.7565 -0.1593
 9420SOL    HW239897   4.055   0.302   1.928 -0.2879 -0.5004  1.2962
 9421SOL     OW39898   3.674   2.526   7.732  0.0624  0.3915  0.5621
 9421SOL    HW139899   3.656   2.606   7.684 -2.2306 -0.7123 -0.4413
 9421SOL    HW239900   3.764   2.511   7.704  0.4290  1.3745  1.2124
 9422SOL     OW39901   3.424   3.936  16.267  0.4043  0.1826 -0.0663
 9422SOL    HW139902   3.458   3.896  16.186  1.4716  2.5826 -0.7988
 9422SOL    HW239903   3.346   3.882  16.280  0.2308 -0.0969 -2.1283
 9423SOL     OW39904   0.772   3.808   3.369 -0.6488 -0.8660  0.6177
 9423SOL    HW139905   0.837   3.764   3.426 -0.2794  0.4953  1.2463
 9423SOL    HW239906   0.754   3.752   3.294 -2.4699  0.0666  0.3711
 9424SOL     OW39907   1.602   0.296   2.625  0.1872 -0.1041  0.1484
 9424SOL    HW139908   1.602   0.203   2.645 -1.9246 -0.3032 -0.7622
 9424SOL    HW239909   1.693   0.316   2.645  0.1954  0.4879 -0.4705
 9425SOL     OW39910   0.708   2.245   7.423 -0.2413 -0.3329  0.0836
 9425SOL    HW139911   0.733   2.323   7.474 -4.5273  1.6992 -0.9332
 9425SOL    HW239912   0.773   2.248   7.353 -0.7581  0.3901 -0.3612
 9426SOL     OW39913   1.914   2.556  12.519 -0.6187  0.2623  0.2350
 9426SOL    HW139914   1.827   2.588  12.545  0.4417  1.0153  2.8684
 9426SOL    HW239915   1.955   2.543  12.604  0.2996 -0.9719 -0.4029
 9427SOL     OW39916   0.091   2.057  13.449 -0.5115  0.1693 -0.6056
 9427SOL    HW139917   0.013   2.012  13.418  0.1329 -0.9272 -0.6284
 9427SOL    HW239918   0.070   2.141  13.407 -1.0188 -1.0182 -2.6741
 9428SOL     OW39919   3.446   4.445  10.772  0.1799 -0.1956 -0.1211
 9428SOL    HW139920   3.527   4.413  10.733  1.5961  3.6116 -0.2688
 9428SOL    HW239921   3.466   4.448  10.866 -0.3744  0.5698 -0.0287
 9429SOL     OW39922   2.853   0.151   0.644 -0.2860  0.3030 -0.0410
 9429SOL    HW139923   2.923   0.098   0.605 -0.8991 -1.1159  0.7953
 9429SOL    HW239924   2.850   0.225   0.583  1.8259 -0.1082 -0.6746
 9430SOL     OW39925   2.663   3.639  15.388 -0.2429 -0.3755  0.7606
 9430SOL    HW139926   2.672   3.626  15.482 -0.6328 -1.1265  0.6926
 9430SOL    HW239927   2.732   3.704  15.375 -0.1155 -0.7276 -0.3954
 9431SOL     OW39928   0.820   1.782  12.576 -0.3867  0.0286 -0.1043
 9431SOL    HW139929   0.786   1.708  12.526 -1.1016 -0.1056  0.5756
 9431SOL    HW239930   0.741   1.796  12.628 -2.6156 -0.1485 -3.4339
 9432SOL     OW39931   4.107   3.291   2.933  0.0326 -0.1284 -0.5696
 9432SOL    HW139932   4.158   3.281   2.853 -3.0570  0.6433 -2.6238
 9432SOL    HW239933   4.061   3.371   2.909 -0.7438 -0.4725 -0.2591
 9433SOL     OW39934   2.350   1.331   4.834  0.0704  0.0461 -0.2230
 9433SOL    HW139935   2.419   1.366   4.778  0.8556 -1.0794  0.0523
 9433SOL    HW239936   2.278   1.324   4.771 -1.1653  0.5978  1.1204
 9434SOL     OW39937   0.755   2.189  12.601  0.3291 -0.0977  0.0901
 9434SOL    HW139938   0.691   2.240  12.551  0.4704  0.6886  0.7161
 9434SOL    HW239939   0.833   2.203  12.546 -0.5432 -2.2389 -1.6964
 9435SOL     OW39940   4.226   1.461   4.255 -0.0420  0.1738  0.1550
 9435SOL    HW139941   4.271   1.526   4.309 -0.0522  0.4693 -0.1905
 9435SOL    HW239942   4.286   1.389   4.276 -0.6303 -0.0437  1.1004
 9436SOL     OW39943   4.736   2.116   7.009 -0.0719 -0.1777  0.8248
 9436SOL    HW139944   0.051   2.040   6.985  0.7453  0.6644 -0.0690
 9436SOL    HW239945   4.654   2.087   7.050 -1.4168  1.2550 -0.8203
 9437SOL     OW39946   0.262   4.136   9.321  0.0190 -0.0012  0.3531
 9437SOL    HW139947   0.237   4.192   9.247  3.7187  0.2982 -0.6471
 9437SOL    HW239948   0.226   4.188   9.393  0.4637  1.5629 -0.5574
 9438SOL     OW39949   1.776   1.295   9.108 -0.8165  0.0012 -0.3878
 9438SOL    HW139950   1.808   1.366   9.053  3.1914 -3.1396 -2.1201
 9438SOL    HW239951   1.790   1.218   9.053 -1.9422 -0.0323 -0.6280
 9439SOL     OW39952   3.133   3.408  14.754 -0.1615  0.3455  0.4713
 9439SOL    HW139953   3.059   3.444  14.706 -1.5406 -1.5691  1.1391
 9439SOL    HW239954   3.175   3.375  14.675 -2.5314 -0.1443 -0.5993
 9440SOL     OW39955   2.263   0.213   4.174  0.5697 -0.3696 -0.0766
 9440SOL    HW139956   2.299   0.157   4.242 -0.3742 -1.8892 -0.8261
 9440SOL    HW239957   2.250   0.147   4.106  0.7472  0.2404 -0.7081
 9441SOL     OW39958   4.397   0.182  15.831 -0.2079  0.8445 -0.4485
 9441SOL    HW139959   4.389   0.142  15.918  0.5453  2.0359  0.1692
 9441SOL    HW239960   4.413   0.114  15.766 -2.1599 -0.2878  0.2459
 9442SOL     OW39961   3.011   4.661  14.175 -0.2986  0.1626 -0.1359
 9442SOL    HW139962   2.965   4.645  14.092 -0.9355 -1.0616  0.4480
 9442SOL    HW239963   2.994   4.580  14.223  0.6927  0.6047  0.9384
 9443SOL     OW39964   2.709   3.962   2.002 -0.5952  0.3484 -0.2036
 9443SOL    HW139965   2.756   3.880   1.988  0.7140  0.8588  1.1631
 9443SOL    HW239966   2.623   3.939   1.965 -1.0843 -1.5916  2.1072
 9444SOL     OW39967   1.839   2.460   7.058  0.3505  0.1766  0.4908
 9444SOL    HW139968   1.809   2.550   7.071  3.3379  1.4743 -1.6748
 9444SOL    HW239969   1.757   2.409   7.059 -0.0413  0.7868 -0.3911
 9445SOL     OW39970   4.569   2.420   3.770 -0.1251 -0.5416 -0.0049
 9445SOL    HW139971   4.620   2.377   3.839  0.6064  1.5621  0.7653
 9445SOL    HW239972   4.482   2.405   3.805 -1.0311  0.8059 -1.6570
 9446SOL     OW39973   1.770   0.441   2.887  0.5209  0.0621 -0.2717
 9446SOL    HW139974   1.675   0.436   2.879  0.5166  1.3794 -0.9302
 9446SOL    HW239975   1.789   0.502   2.816  1.4892  0.3428  0.2254
 9447SOL     OW39976   0.044   4.428   5.265  0.1817 -0.4653 -0.3400
 9447SOL    HW139977   0.108   4.384   5.209  0.4404 -1.9973  1.1581
 9447SOL    HW239978   0.023   4.491   5.196 -1.5078 -1.1940 -0.4979
 9448SOL     OW39979   2.416   1.496   2.717  0.1960 -0.7133 -0.1518
 9448SOL    HW139980   2.440   1.492   2.810 -1.1689 -1.0170  0.1863
 9448SOL    HW239981   2.482   1.549   2.673 -0.4302 -1.2426 -1.7089
 9449SOL     OW39982   4.186   2.020   3.752 -0.3906 -0.0298 -0.2999
 9449SOL    HW139983   4.120   2.089   3.748 -0.8214 -0.5315 -1.9739
 9449SOL    HW239984   4.169   1.982   3.838 -0.1286  1.2644  0.3154
 9450SOL     OW39985   2.218   3.854   2.724 -0.2836 -0.1155  0.1148
 9450SOL    HW139986   2.124   3.870   2.710 -0.1044 -0.0022 -0.9984
 9450SOL    HW239987   2.239   3.882   2.635 -0.0382 -0.4439  0.0687
 9451SOL     OW39988   3.310   2.306   8.134 -0.4816 -0.1098 -0.1211
 9451SOL    HW139989   3.225   2.318   8.091 -1.0209  0.5851  1.1499
 9451SOL    HW239990   3.371   2.331   8.064 -1.8858 -0.5576 -1.5073
 9452SOL     OW39991   2.360   2.190  14.145 -0.1254  0.4892  0.0432
 9452SOL    HW139992   2.268   2.163  14.149  0.1210 -0.4243 -0.4550
 9452SOL    HW239993   2.403   2.113  14.183 -1.2989 -1.0660 -1.7757
 9453SOL     OW39994   1.826   0.459  17.723  0.5441  0.2226  0.3696
 9453SOL    HW139995   1.735   0.435  17.741  0.6819 -0.6407 -0.0763
 9453SOL    HW239996   1.830   0.542   0.026 -1.1712 -1.3163  3.1249
 9454SOL     OW39997   2.434   3.619   1.586  0.0763  0.0923  0.4071
 9454SOL    HW139998   2.377   3.694   1.596 -0.1449  0.0214 -0.3090
 9454SOL    HW239999   2.507   3.659   1.538 -1.5673  1.3853 -0.9760
 9455SOL     OW40000   1.434   4.609  15.983 -0.2933  0.4104 -0.2559
 9455SOL    HW140001   1.479   4.651  16.057  1.1577 -0.9365 -0.3705
 9455SOL    HW240002   1.373   4.674  15.949 -2.0160 -0.2471  1.5482
 9456SOL     OW40003   4.693   1.896   4.980 -0.0874  0.0853 -0.6489
 9456SOL    HW140004   4.732   1.975   5.016  2.5005 -1.4853 -0.0511
 9456SOL    HW240005   4.652   1.922   4.898  0.5365 -2.8251 -1.8926
 9457SOL     OW40006   4.699   1.532  14.598  0.1072 -0.9449 -0.2773
 9457SOL    HW140007   0.057   1.524  14.590  0.3376  0.5287  0.8787
 9457SOL    HW240008   4.672   1.460  14.541 -0.1501 -0.9791 -0.1138
 9458SOL     OW40009   1.375   3.129  15.360  0.3038 -0.2914  0.3766
 9458SOL    HW140010   1.371   3.097  15.270 -0.3553 -0.8419  0.6064
 9458SOL    HW240011   1.389   3.053  15.417  2.0948 -0.2673 -0.0278
 9459SOL     OW40012   3.434   0.499   5.550 -0.6642 -0.1694  0.0513
 9459SOL    HW140013   3.438   0.589   5.520 -1.8754  0.1031  0.7152
 9459SOL    HW240014   3.352   0.457   5.524 -1.7670  3.2487 -1.9419
 9460SOL     OW40015   3.194   0.470  10.026 -0.0614 -0.5997  0.3455
 9460SOL    HW140016   3.199   0.541  10.089 -2.2470  1.1632 -1.4651
 9460SOL    HW240017   3.142   0.506   9.955  1.0195  1.1408  0.4291
 9461SOL     OW40018   4.292   4.066  17.474 -0.1761 -0.1668  0.0964
 9461SOL    HW140019   4.294   4.037  17.383 -2.2081 -0.6789  0.2177
 9461SOL    HW240020   4.384   4.081  17.494 -0.0317 -0.9635  0.0513
 9462SOL     OW40021   2.497   0.793  12.078 -0.3518 -0.3237 -0.4788
 9462SOL    HW140022   2.463   0.717  12.032  0.7168  1.0386 -3.4851
 9462SOL    HW240023   2.568   0.818  12.020  2.0181 -2.8783  1.3092
 9463SOL     OW40024   0.795   0.569   6.475 -0.2799  0.1380 -0.4406
 9463SOL    HW140025   0.850   0.517   6.534 -0.2636 -1.3532 -1.7716
 9463SOL    HW240026   0.867   0.615   6.432  1.4353 -3.9071 -1.9107
 9464SOL     OW40027   1.332   2.571   2.356  0.3611 -1.1077 -1.1656
 9464SOL    HW140028   1.275   2.570   2.433 -1.9896 -0.5102 -2.9052
 9464SOL    HW240029   1.348   2.478   2.341  0.9782 -0.9325 -1.6036
 9465SOL     OW40030   0.999   1.071  17.309 -0.4447 -0.7143  0.7421
 9465SOL    HW140031   0.969   1.039  17.224  2.2725 -1.8411  0.2221
 9465SOL    HW240032   0.933   1.136  17.333 -1.7923 -1.5804 -0.6094
 9466SOL     OW40033   2.859   4.393   9.547  0.0981  0.4496  0.4087
 9466SOL    HW140034   2.848   4.436   9.463  0.9945 -0.1832 -0.0290
 9466SOL    HW240035   2.829   4.463   9.605 -0.1412  2.1724 -1.8105
 9467SOL     OW40036   2.291   3.222   1.259  0.0753  0.2396 -0.3908
 9467SOL    HW140037   2.278   3.316   1.271  0.3238  0.2565 -0.2552
 9467SOL    HW240038   2.201   3.209   1.231  0.0015  1.0340 -0.5246
 9468SOL     OW40039   2.370   2.543   7.188  0.3830  0.3987  0.4065
 9468SOL    HW140040   2.344   2.624   7.232  1.0301  0.1523  1.2375
 9468SOL    HW240041   2.288   2.496   7.198  1.0822 -1.2796 -1.7471
 9469SOL     OW40042   3.024   1.629   7.991  0.2038  0.4274  0.1125
 9469SOL    HW140043   3.007   1.568   8.063  0.0330 -0.3614 -0.6104
 9469SOL    HW240044   2.974   1.705   8.021 -2.2424 -1.3479  0.5284
 9470SOL     OW40045   4.267   0.297   5.717 -0.5776  0.0238 -0.2385
 9470SOL    HW140046   4.187   0.277   5.669 -0.4934  0.1060 -0.4124
 9470SOL    HW240047   4.253   0.278   5.810  1.3067  0.7221  0.1915
 9471SOL     OW40048   4.327   4.242   4.229  0.0084  0.2452 -0.0460
 9471SOL    HW140049   4.315   4.171   4.166 -0.7156  0.8971 -0.6431
 9471SOL    HW240050   4.386   4.293   4.173  0.4437  0.4235  0.5637
 9472SOL     OW40051   1.843   3.348  15.021  0.3868  0.4051  0.2364
 9472SOL    HW140052   1.936   3.326  15.028  0.5469  0.5801 -1.2574
 9472SOL    HW240053   1.845   3.360  14.926  2.9338 -1.3749  0.0689
 9473SOL     OW40054   3.231   3.164   5.383  0.0121 -0.3163  0.1523
 9473SOL    HW140055   3.222   3.144   5.476 -0.9445  0.4984  0.2292
 9473SOL    HW240056   3.325   3.184   5.376 -0.0944  0.3013  0.4951
 9474SOL     OW40057   2.444   1.700   2.095  0.8522  0.2535  0.3411
 9474SOL    HW140058   2.476   1.664   2.013 -0.4523  0.2838 -0.1770
 9474SOL    HW240059   2.504   1.772   2.112 -0.4795  2.1256 -3.1562
 9475SOL     OW40060   4.703   1.489  15.045  0.4800 -0.3205  0.7481
 9475SOL    HW140061   4.686   1.409  15.094  2.4954 -0.8971  0.5305
 9475SOL    HW240062   0.036   1.467  14.982 -0.3795 -0.8334 -0.0256
 9476SOL     OW40063   2.121   1.638   1.312 -0.8287 -0.0583  0.1113
 9476SOL    HW140064   2.131   1.711   1.374 -2.7130 -0.9905  1.5063
 9476SOL    HW240065   2.036   1.655   1.271  0.2671  1.7537 -1.3806
 9477SOL     OW40066   1.292   2.860   2.345  0.1332 -0.2434 -0.0541
 9477SOL    HW140067   1.261   2.775   2.375  0.5623  0.0795  1.3279
 9477SOL    HW240068   1.234   2.920   2.392 -1.3458 -2.0428  0.4107
 9478SOL     OW40069   0.847   1.039   3.974  0.0621 -0.3368  0.4684
 9478SOL    HW140070   0.899   0.997   4.042 -0.5464  0.5368  1.4712
 9478SOL    HW240071   0.787   1.083   4.035  0.9587  0.4913  0.7599
 9479SOL     OW40072   1.782   1.361   0.948 -0.3415 -0.1450 -0.4842
 9479SOL    HW140073   1.762   1.267   0.950  1.1672 -0.4175  2.3238
 9479SOL    HW240074   1.696   1.398   0.927 -0.4231 -0.8683 -1.4555
 9480SOL     OW40075   0.295   4.006   3.572 -0.5077 -0.1935  0.0134
 9480SOL    HW140076   0.228   3.991   3.639  0.3408 -2.2561  0.4061
 9480SOL    HW240077   0.285   3.933   3.511  2.9482 -1.2119  0.6967
 9481SOL     OW40078   3.703   2.990   7.439  0.0019 -0.2183 -0.4530
 9481SOL    HW140079   3.708   2.976   7.345 -2.6240  2.7675 -1.0178
 9481SOL    HW240080   3.771   3.055   7.453  0.2285 -0.6227  0.3239
 9482SOL     OW40081   2.210   0.945   6.801  0.3685 -0.1254 -0.4474
 9482SOL    HW140082   2.281   0.965   6.862  0.6050  0.4999 -0.9287
 9482SOL    HW240083   2.203   0.850   6.812  0.7675 -0.2313 -1.1241
 9483SOL     OW40084   4.652   1.482  12.861  0.4669 -0.0245  0.0873
 9483SOL    HW140085   0.005   1.503  12.835  0.2192  0.7745 -0.1226
 9483SOL    HW240086   4.641   1.532  12.942  0.0110  0.7285 -0.4324
 9484SOL     OW40087   3.736   2.414   4.392  0.0611 -0.4206 -0.2193
 9484SOL    HW140088   3.683   2.470   4.336  0.5537  1.1223  0.8364
 9484SOL    HW240089   3.789   2.477   4.442 -1.9772  1.6671 -0.6751
 9485SOL     OW40090   4.186   4.256  17.011  0.1165  0.0224  0.1646
 9485SOL    HW140091   4.157   4.287  17.097  1.5813  1.6302  0.0836
 9485SOL    HW240092   4.131   4.312  16.958  0.0453 -1.7163 -1.6011
 9486SOL     OW40093   2.947   2.671  15.955 -0.2301 -0.5728 -0.2108
 9486SOL    HW140094   3.041   2.654  15.954 -0.2460 -0.6811  0.0628
 9486SOL    HW240095   2.942   2.763  15.930 -0.5705 -0.5444 -0.0450
 9487SOL     OW40096   2.728   0.352   3.873 -0.4879 -0.1748 -0.5578
 9487SOL    HW140097   2.763   0.399   3.798  0.3857  0.8232  0.4868
 9487SOL    HW240098   2.785   0.275   3.884  2.3514  2.2333  1.5558
 9488SOL     OW40099   4.457   2.665   5.984  0.0755 -0.2073  0.5420
 9488SOL    HW140100   4.520   2.640   6.051  0.2972  0.8359  0.7169
 9488SOL    HW240101   4.470   2.759   5.976 -1.6671  0.0228  0.5791
 9489SOL     OW40102   2.602   2.444   5.365  0.2165 -0.3077  0.2060
 9489SOL    HW140103   2.679   2.403   5.403  1.4927  1.8283 -0.0869
 9489SOL    HW240104   2.610   2.521   5.422 -2.5103 -0.2500  0.5170
 9490SOL     OW40105   0.224   3.783   0.833  0.0418  0.0968 -0.1362
 9490SOL    HW140106   0.304   3.782   0.781 -0.2371  0.7117 -0.5819
 9490SOL    HW240107   0.211   3.688   0.833  0.0494  0.0850  1.1638
 9491SOL     OW40108   2.308   1.381   5.088  0.0123 -0.3525  0.0506
 9491SOL    HW140109   2.336   1.362   4.999 -1.6490 -1.2719 -0.2664
 9491SOL    HW240110   2.382   1.435   5.118 -1.0944 -0.1816  2.5111
 9492SOL     OW40111   1.880   0.997   0.445 -0.7723 -0.2647 -0.1993
 9492SOL    HW140112   1.838   1.080   0.419  0.1523  0.1276 -0.4494
 9492SOL    HW240113   1.930   0.977   0.365  0.5290  0.6835  0.3696
 9493SOL     OW40114   2.850   4.301   5.575 -0.1724  0.2025  0.0596
 9493SOL    HW140115   2.943   4.280   5.572 -0.1276  0.2810  0.9475
 9493SOL    HW240116   2.857   4.394   5.599  3.5661  0.9516 -3.7685
 9494SOL     OW40117   4.158   1.516   3.124 -0.4061  0.4845 -0.3615
 9494SOL    HW140118   4.086   1.498   3.185 -1.4277  1.5725 -1.2505
 9494SOL    HW240119   4.218   1.564   3.181  2.3821 -0.4963 -2.4928
 9495SOL     OW40120   1.561   0.929   8.904 -0.3538  0.1074  0.6117
 9495SOL    HW140121   1.618   0.854   8.890 -1.7798 -0.9789  0.6454
 9495SOL    HW240122   1.498   0.898   8.969 -0.8595 -0.4139 -0.1334
 9496SOL     OW40123   3.179   0.951   2.649  0.5258  0.4153  0.1674
 9496SOL    HW140124   3.146   0.979   2.734 -0.3261  0.0568 -0.0464
 9496SOL    HW240125   3.267   0.918   2.666  1.2544  1.4016 -1.6874
 9497SOL     OW40126   0.440   3.402   8.446  0.5703  0.3068  0.4709
 9497SOL    HW140127   0.517   3.457   8.430 -0.4221  1.3226 -0.8128
 9497SOL    HW240128   0.379   3.470   8.420 -1.0721 -0.8493  1.3136
 9498SOL     OW40129   3.133   3.062   6.569 -0.1985 -0.1428 -0.1146
 9498SOL    HW140130   3.044   3.058   6.535 -0.5696  0.8230  0.7626
 9498SOL    HW240131   3.174   3.061   6.483  1.8210 -0.9650  0.8646
 9499SOL     OW40132   4.290   3.922   8.832 -0.3971  0.1387  0.5127
 9499SOL    HW140133   4.336   3.838   8.832 -0.5393  0.0624 -0.3524
 9499SOL    HW240134   4.200   3.892   8.849 -0.1559 -0.3273  0.9792
 9500SOL     OW40135   2.295   0.991  14.499 -0.3156 -0.3369 -0.3645
 9500SOL    HW140136   2.372   1.026  14.454  1.2979 -1.5260  1.4504
 9500SOL    HW240137   2.308   1.007  14.593 -1.3489  0.7484 -0.4046
 9501SOL     OW40138   0.867   2.273  15.003 -0.0695 -0.4233 -0.0607
 9501SOL    HW140139   0.802   2.289  15.071  1.0407  3.5335  0.1267
 9501SOL    HW240140   0.929   2.221  15.054 -0.6931 -0.3667  0.7472
 9502SOL     OW40141   0.116   0.419   8.500 -0.1214 -0.3204 -0.3830
 9502SOL    HW140142   0.197   0.409   8.551 -0.7290  0.9728  0.8154
 9502SOL    HW240143   0.078   0.332   8.511 -1.2848 -0.0181 -2.0427
 9503SOL     OW40144   4.561   2.571   9.024 -0.3924 -0.4155  0.1296
 9503SOL    HW140145   4.544   2.657   9.063  1.3386 -0.0453  0.0419
 9503SOL    HW240146   4.640   2.540   9.067 -0.8636 -0.6594  0.8229
 9504SOL     OW40147   4.545   3.731   2.446 -0.3921  0.3309  0.5055
 9504SOL    HW140148   4.610   3.738   2.516 -0.4401  1.9216  0.3868
 9504SOL    HW240149   4.509   3.819   2.449 -0.7702  0.2182 -0.6671
 9505SOL     OW40150   4.636   4.283   7.024  0.2217 -0.0028  0.3881
 9505SOL    HW140151   4.576   4.336   6.972 -1.8636 -2.3180  0.4476
 9505SOL    HW240152   4.609   4.194   7.004  0.2381  0.2300 -0.6727
 9506SOL     OW40153   3.254   2.847   4.208  0.3091  0.1161  0.3288
 9506SOL    HW140154   3.201   2.890   4.140 -2.6318 -4.4485 -0.2998
 9506SOL    HW240155   3.346   2.857   4.186  0.6499  1.6822  2.5680
 9507SOL     OW40156   2.013   2.094   6.554  0.0747  0.1558  0.0331
 9507SOL    HW140157   1.966   2.093   6.471 -1.8075 -2.1090  1.1005
 9507SOL    HW240158   2.092   2.136   6.522 -0.6329  2.1088  0.8682
 9508SOL     OW40159   3.929   4.708   4.472  0.7313  0.2523 -0.2003
 9508SOL    HW140160   3.941   0.016   4.388  0.4361  2.0761  0.7273
 9508SOL    HW240161   3.837   4.734   4.485  1.0573  0.8735  0.8368
 9509SOL     OW40162   3.228   2.023   4.540 -0.2260  0.7405 -0.1150
 9509SOL    HW140163   3.273   2.090   4.591 -1.5854 -0.1889  2.3375
 9509SOL    HW240164   3.233   2.051   4.449 -0.0432  0.4313 -0.1992
 9510SOL     OW40165   1.208   3.124   8.309  0.4772  0.0311  1.1825
 9510SOL    HW140166   1.176   3.178   8.382 -0.4584 -1.5864  1.9800
 9510SOL    HW240167   1.199   3.038   8.351  3.2015 -0.3307  1.0165
 9511SOL     OW40168   3.827   4.308   7.993  0.3761 -0.4735 -0.7288
 9511SOL    HW140169   3.777   4.381   8.029  0.6310  0.7721 -2.8766
 9511SOL    HW240170   3.882   4.293   8.070  0.2686  1.1159 -0.3454
 9512SOL     OW40171   3.301   0.241  13.419  0.2803 -0.6530 -0.7536
 9512SOL    HW140172   3.297   0.333  13.448  2.4183 -0.9387  0.5105
 9512SOL    HW240173   3.279   0.198  13.501  0.9393 -0.5435 -0.5163
 9513SOL     OW40174   0.322   1.104  13.244 -0.3061  0.0496  0.6624
 9513SOL    HW140175   0.226   1.098  13.252 -0.4218  1.7397  0.5119
 9513SOL    HW240176   0.341   1.064  13.329  2.2647  0.7161  0.3846
 9514SOL     OW40177   1.095   0.511  11.565  0.2485  0.1046 -0.4759
 9514SOL    HW140178   1.181   0.509  11.523 -0.0851 -0.4045 -1.1349
 9514SOL    HW240179   1.103   0.432  11.619 -1.3485  0.9039  0.9616
 9515SOL     OW40180   4.379   0.037   6.764 -0.0668  0.1373  0.2235
 9515SOL    HW140181   4.302   0.023   6.820 -0.5285 -2.0815 -0.9536
 9515SOL    HW240182   4.442   0.028   6.836 -0.0121  1.8638  0.3833
 9516SOL     OW40183   2.504   2.755   3.212  0.2141 -0.4148  0.1588
 9516SOL    HW140184   2.573   2.760   3.278  2.5796 -1.0645 -2.2726
 9516SOL    HW240185   2.527   2.815   3.141 -0.9621  1.8604  1.7163
 9517SOL     OW40186   4.279   3.847  14.795  0.7004  0.1362  0.0722
 9517SOL    HW140187   4.360   3.865  14.842  1.0850  0.9645 -0.9033
 9517SOL    HW240188   4.214   3.842  14.865  0.6441 -0.8271 -0.0484
 9518SOL     OW40189   0.627   1.513   9.499 -0.1525 -0.0308 -0.3589
 9518SOL    HW140190   0.680   1.438   9.471 -1.3469 -0.2731 -1.9658
 9518SOL    HW240191   0.597   1.533   9.410  2.5681 -0.5277 -1.3852
 9519SOL     OW40192   2.373   4.565  16.835 -0.5909  0.9263  0.2516
 9519SOL    HW140193   2.458   4.530  16.809 -1.7593 -1.2067 -0.7372
 9519SOL    HW240194   2.308   4.495  16.824  0.3617 -0.0190  0.5924
 9520SOL     OW40195   3.784   2.990   9.063  0.4554  0.3798 -0.0955
 9520SOL    HW140196   3.701   3.038   9.060  0.4616  0.3590 -0.6247
 9520SOL    HW240197   3.748   2.920   9.118  0.7056  1.3392  1.2953
 9521SOL     OW40198   2.960   3.064   3.750 -0.2856 -0.0278  0.2615
 9521SOL    HW140199   2.933   3.156   3.748  0.3939  0.1747  0.4480
 9521SOL    HW240200   2.979   3.063   3.844  0.3846  1.4364  0.1425
 9522SOL     OW40201   2.767   0.123   1.418 -0.6022 -0.1415  0.2892
 9522SOL    HW140202   2.843   0.165   1.458 -0.5143  0.4439 -0.5138
 9522SOL    HW240203   2.702   0.148   1.484 -1.0833  0.4285 -0.4008
 9523SOL     OW40204   3.143   1.088   2.420 -0.0034 -0.3114  0.2898
 9523SOL    HW140205   3.138   1.025   2.492 -1.7689 -0.8759 -0.3210
 9523SOL    HW240206   3.229   1.124   2.436 -0.7747  1.3135  0.7538
 9524SOL     OW40207   1.720   1.107   7.526  0.1088 -0.5434  0.5152
 9524SOL    HW140208   1.812   1.101   7.503  0.7737  2.5652  2.2529
 9524SOL    HW240209   1.687   1.176   7.469 -1.0530 -0.0544  1.7611
 9525SOL     OW40210   2.370   1.048   2.595  0.0459 -0.0701  0.7321
 9525SOL    HW140211   2.283   1.042   2.634 -0.8869  0.5555 -1.2351
 9525SOL    HW240212   2.362   1.126   2.539 -0.3989 -0.8242 -0.2535
 9526SOL     OW40213   1.928   0.256   7.929 -0.0043 -0.2765 -0.2225
 9526SOL    HW140214   1.956   0.333   7.879 -0.4029 -0.8014 -1.2596
 9526SOL    HW240215   1.967   0.272   8.015  0.3037  3.1937 -0.9952
 9527SOL     OW40216   1.200   4.503  12.632  0.2268  0.1078 -0.0359
 9527SOL    HW140217   1.217   4.545  12.548  2.0279  1.0148  0.7608
 9527SOL    HW240218   1.289   4.516  12.666  0.1729 -0.4783  0.3337
 9528SOL     OW40219   3.327   2.836   8.468 -0.9197 -0.2098  0.0408
 9528SOL    HW140220   3.235   2.815   8.485 -0.9633 -0.3534 -0.3547
 9528SOL    HW240221   3.338   2.823   8.373 -0.7689 -2.1862  0.3113
 9529SOL     OW40222   4.215   0.648   8.887  0.0034  0.5611 -0.2946
 9529SOL    HW140223   4.262   0.577   8.844 -0.0531  1.0966 -1.2487
 9529SOL    HW240224   4.130   0.649   8.844  0.3279 -0.7740 -0.9507
 9530SOL     OW40225   4.332   2.378   2.123  0.1489  0.1584 -0.1706
 9530SOL    HW140226   4.427   2.387   2.126  0.2748 -1.3614  0.2896
 9530SOL    HW240227   4.324   2.353   2.031 -2.0047 -0.9672  0.3232
 9531SOL     OW40228   0.113   2.393   4.445  0.7159 -0.0758 -0.3541
 9531SOL    HW140229   0.177   2.323   4.455 -0.1875 -0.7512  0.8352
 9531SOL    HW240230   0.171   2.469   4.451 -0.2442  0.7823 -2.0562
 9532SOL     OW40231   0.956   2.899   4.670  0.2916  0.4026 -0.1223
 9532SOL    HW140232   0.982   2.846   4.746 -0.3117 -0.5761 -0.5880
 9532SOL    HW240233   0.862   2.883   4.675  0.0421  1.9220 -0.1675
 9533SOL     OW40234   2.409   2.905   5.412 -0.2908  0.7313 -0.4214
 9533SOL    HW140235   2.395   2.814   5.387 -2.0325  0.3388  1.9184
 9533SOL    HW240236   2.378   2.945   5.331 -1.9530 -1.2694 -0.7805
 9534SOL     OW40237   1.984   2.865   2.225  0.2127  0.2008 -0.2595
 9534SOL    HW140238   2.056   2.839   2.167  0.1803  1.4243 -0.8458
 9534SOL    HW240239   2.027   2.887   2.307 -1.1673  0.3388  0.4327
 9535SOL     OW40240   0.047   0.593   4.653  0.2832 -0.3157  0.0038
 9535SOL    HW140241   0.009   0.673   4.689 -0.5442 -1.5757  1.9389
 9535SOL    HW240242   0.139   0.618   4.663 -0.0343  1.2285 -1.0838
 9536SOL     OW40243   2.066   1.581  10.560 -0.0777 -0.4184 -0.5411
 9536SOL    HW140244   2.052   1.612  10.650 -0.6051  1.2056 -1.1831
 9536SOL    HW240245   2.112   1.659  10.529 -0.1859 -0.2416 -0.2556
 9537SOL     OW40246   4.318   1.802   6.612 -0.4593  0.4476 -0.1946
 9537SOL    HW140247   4.321   1.896   6.628 -2.1244  0.2974  1.0124
 9537SOL    HW240248   4.275   1.802   6.527 -0.5747 -0.0806 -0.1410
 9538SOL     OW40249   0.973   1.782   3.217 -0.5126  0.0898 -0.4966
 9538SOL    HW140250   0.910   1.741   3.276 -0.3561  1.7934  0.8681
 9538SOL    HW240251   0.968   1.876   3.235  1.5723  0.1300 -0.0737
 9539SOL     OW40252   3.489   1.424   7.542 -0.1873  0.7291 -0.7040
 9539SOL    HW140253   3.583   1.436   7.528 -0.0859  1.4644  0.6523
 9539SOL    HW240254   3.448   1.504   7.508  0.0083  0.8761 -0.5929
 9540SOL     OW40255   1.207   4.502   7.997  0.4034  0.7257  0.1390
 9540SOL    HW140256   1.235   4.505   7.906  1.3521  0.1390  0.4130
 9540SOL    HW240257   1.221   4.593   8.023  2.3038  0.3589  0.3819
 9541SOL     OW40258   2.683   2.527  16.990 -0.3377 -0.0725 -0.3058
 9541SOL    HW140259   2.717   2.589  16.927 -0.5722  0.1148 -0.2497
 9541SOL    HW240260   2.588   2.543  16.987 -0.4074 -0.0685  1.6085
 9542SOL     OW40261   2.340   1.852   3.043 -0.0770 -0.6520 -0.1430
 9542SOL    HW140262   2.303   1.900   2.969  0.9111 -0.8092 -0.7455
 9542SOL    HW240263   2.273   1.892   3.098 -0.1591 -0.0379 -0.6892
 9543SOL     OW40264   0.342   2.993   2.604 -0.0517 -0.2046  0.3454
 9543SOL    HW140265   0.309   2.959   2.521  0.3722 -1.7007  0.7933
 9543SOL    HW240266   0.430   2.954   2.608  1.0672  1.9470 -3.6156
 9544SOL     OW40267   3.104   4.315   1.208 -0.6261  0.0261 -0.3739
 9544SOL    HW140268   3.140   4.246   1.152  1.2914  1.2326 -0.6121
 9544SOL    HW240269   3.145   4.285   1.289 -0.1513  1.1149 -0.2120
 9545SOL     OW40270   2.157   0.275  14.470 -0.1065  0.1151  0.0440
 9545SOL    HW140271   2.133   0.253  14.380 -1.5901  2.7361 -0.1831
 9545SOL    HW240272   2.213   0.350  14.452 -0.6414  0.7163  0.9127
 9546SOL     OW40273   4.664   4.402   3.825  0.3869 -0.2486 -0.3745
 9546SOL    HW140274   4.714   4.321   3.832  1.0634  0.3032  1.1871
 9546SOL    HW240275   4.730   4.461   3.788  0.0884  1.2215  1.4641
 9547SOL     OW40276   3.814   3.668  13.664 -0.7147 -0.5859  0.1796
 9547SOL    HW140277   3.869   3.635  13.593 -0.1145 -0.8003  0.7459
 9547SOL    HW240278   3.771   3.590  13.697 -0.0986 -0.5129  1.1560
 9548SOL     OW40279   1.750   4.596   4.886  0.2119  0.2352 -0.2081
 9548SOL    HW140280   1.691   4.524   4.862 -1.3755  1.0889  1.1207
 9548SOL    HW240281   1.837   4.561   4.867  1.1109  0.8891  2.7680
 9549SOL     OW40282   2.235   2.688  11.177  0.1671  0.0861  0.1040
 9549SOL    HW140283   2.205   2.663  11.264 -3.0926 -0.4539 -1.1635
 9549SOL    HW240284   2.280   2.607  11.156 -1.3651 -0.8320  0.3641
 9550SOL     OW40285   2.899   4.092   8.965 -0.2535 -0.5668  0.2243
 9550SOL    HW140286   2.961   4.033   8.923 -1.7244 -2.2977  0.5120
 9550SOL    HW240287   2.925   4.175   8.924  0.3660 -0.4054  0.9344
 9551SOL     OW40288   3.266   3.144   2.607  0.2268 -0.0417  0.0963
 9551SOL    HW140289   3.361   3.135   2.603  0.0931 -1.5173  0.2491
 9551SOL    HW240290   3.269   3.234   2.641 -0.6325  0.5377 -1.3604
 9552SOL     OW40291   4.069   2.939   9.255 -0.0143 -0.4091 -0.0465
 9552SOL    HW140292   4.021   2.915   9.176  2.5162 -1.3214 -1.3380
 9552SOL    HW240293   4.044   2.879   9.326 -2.1019 -1.5496 -1.7484
 9553SOL     OW40294   4.578   3.751   9.764 -0.1308 -0.2907 -0.6651
 9553SOL    HW140295   4.521   3.828   9.765  0.5501  0.2175 -0.8091
 9553SOL    HW240296   4.647   3.796   9.813 -0.2337  0.2020 -0.9780
 9554SOL     OW40297   0.531   3.822   8.681 -0.1308  0.0438  0.1449
 9554SOL    HW140298   0.498   3.886   8.618  2.0290  0.2401 -0.8059
 9554SOL    HW240299   0.625   3.836   8.666 -0.3726 -0.3289 -1.7110
 9555SOL     OW40300   4.287   3.666   9.153  0.0463  0.0860  0.3826
 9555SOL    HW140301   4.294   3.608   9.077 -1.8300  1.0963 -0.5868
 9555SOL    HW240302   4.366   3.717   9.135 -0.9802  1.0608 -1.4747
 9556SOL     OW40303   2.838   4.446   6.092 -0.0594 -0.1976  0.0645
 9556SOL    HW140304   2.830   4.513   6.160  1.4440 -0.9130  0.9227
 9556SOL    HW240305   2.814   4.363   6.132 -2.0127 -0.6984 -2.0855
 9557SOL     OW40306   2.183   2.079  14.756 -0.4617 -0.2160 -0.5339
 9557SOL    HW140307   2.124   2.046  14.688 -0.4141 -0.3611 -0.5045
 9557SOL    HW240308   2.259   2.024  14.741 -1.2253 -1.1399 -1.0417
 9558SOL     OW40309   2.703   2.205   6.279  0.5155 -0.2153 -0.4491
 9558SOL    HW140310   2.713   2.291   6.238 -0.0286  0.0392 -0.0492
 9558SOL    HW240311   2.789   2.192   6.319 -0.8738 -1.5490  2.0677
 9559SOL     OW40312   3.746   1.319   2.250  0.0571  0.1432  0.0772
 9559SOL    HW140313   3.767   1.365   2.331 -0.4419  0.0791  0.2422
 9559SOL    HW240314   3.673   1.367   2.212  0.6755 -0.1085 -1.4361
 9560SOL     OW40315   3.441   1.687  11.072 -0.4369  0.3235  0.2914
 9560SOL    HW140316   3.475   1.746  11.005 -0.9945 -0.3757 -0.6138
 9560SOL    HW240317   3.350   1.711  11.058  0.1377  1.2790 -1.8326
 9561SOL     OW40318   0.636   1.395  13.648 -0.5738  0.1864 -0.7838
 9561SOL    HW140319   0.603   1.334  13.582 -0.2023 -0.9114  0.0589
 9561SOL    HW240320   0.731   1.387  13.640 -0.3744  2.4145 -0.7504
 9562SOL     OW40321   4.123   4.269   0.085  0.9009  0.3312 -0.3668
 9562SOL    HW140322   4.195   4.275   0.148 -0.2636  1.6611  0.8310
 9562SOL    HW240323   4.042   4.252   0.132  0.3820  0.3192 -1.2524
 9563SOL     OW40324   4.092   0.666   6.542  0.1979  0.0602  0.1779
 9563SOL    HW140325   4.105   0.683   6.449  1.3944  1.3621  0.5842
 9563SOL    HW240326   4.181   0.674   6.576  0.4865 -3.9956  0.4148
 9564SOL     OW40327   0.308   0.728   4.779  0.7119  0.1297 -0.4065
 9564SOL    HW140328   0.390   0.685   4.805  1.0950 -0.4389 -2.5614
 9564SOL    HW240329   0.326   0.805   4.834 -1.4477  1.0521 -0.9925
 9565SOL     OW40330   0.984   0.354  12.341 -0.1555 -0.2355 -0.7504
 9565SOL    HW140331   0.903   0.402  12.321 -0.3799 -0.2609  0.0973
 9565SOL    HW240332   0.968   0.339  12.434  2.1881  0.3397 -0.2627
 9566SOL     OW40333   1.282   0.293   1.768  0.8964  0.2950  0.1785
 9566SOL    HW140334   1.273   0.381   1.733  0.9845 -0.0678 -0.7736
 9566SOL    HW240335   1.373   0.282   1.738  1.1389 -0.6519  1.2543
 9567SOL     OW40336   1.935   1.544   4.289 -0.1419  0.7758 -0.2530
 9567SOL    HW140337   1.889   1.544   4.373  0.1656  0.9935 -0.0847
 9567SOL    HW240338   1.888   1.471   4.250 -0.5155 -0.1296  1.8944
 9568SOL     OW40339   3.258   4.538   3.352  0.0180  0.3294 -0.2602
 9568SOL    HW140340   3.269   4.578   3.438  0.0662  1.8220 -0.9725
 9568SOL    HW240341   3.257   4.451   3.392  0.4676  0.8363  0.8388
 9569SOL     OW40342   1.245   1.892   0.643 -0.0557  0.3083  0.3677
 9569SOL    HW140343   1.257   1.896   0.738  0.1551  0.4427  0.3368
 9569SOL    HW240344   1.151   1.909   0.639 -0.4734 -2.3341 -0.6595
   4.73677   4.73677  17.74549
