Membrane in water
40344
    1TMC1    C1    1   2.576   1.411  11.508 -0.0326  0.2260  0.6709
    1TMC1    C2    2   2.667   1.505  11.550 -0.2249 -0.4749 -0.3518
    1TMC1    C3    3   2.657   1.625  11.498 -0.0467  0.0902 -0.4150
    1TMC1    C4    4   2.469   1.437  11.424  0.3512 -0.1161  0.6479
    1TMC1    C5    5   2.461   1.571  11.391  0.6211 -0.4074  0.0021
    1TMC1    C6    6   2.556   1.658  11.418 -0.5306 -0.3018 -0.0291
    1TMC1     C    7   2.588   1.284  11.587  0.3020  0.9088 -0.2606
    1TMC1     O    8   2.666   1.280  11.680 -0.2952 -1.1240 -0.4241
    1TMC1     H    9   2.751   1.471  11.611  1.2085  2.6253 -0.5992
    1TMC1    H1   10   2.410   1.354  11.388  0.9683 -0.6573  0.8936
    1TMC1    H2   11   2.543   1.754  11.371 -0.4257 -0.7077 -0.8879
    1TMC1    C7   12   2.354   1.615  11.308  0.0188  0.2070 -0.4304
    1TMC1    C8   13   2.773   1.714  11.510 -0.0887 -0.0032 -0.6511
    1TMC1    O1   14   2.349   1.701  11.228  0.1607 -0.4014  0.7154
    1TMC1    O2   15   2.850   1.705  11.605  0.1199  0.2421 -0.0769
    1TMC1    O3   16   2.239   1.572  11.362  0.5530  0.3710 -0.1270
    1TMC1    H3   17   2.261   1.522  11.443 -1.9432  0.0823  0.3789
    1TMC1    O5   18   2.823   1.711  11.385  0.2043  0.1275 -1.0762
    1TMC1    H5   19   2.752   1.681  11.324  0.4363 -0.8345 -0.8728
    2MPD2     C   20   2.499   0.790  11.675 -0.2456  0.3417  0.9957
    2MPD2    C1   21   2.552   0.885  11.760 -0.8937  0.8614 -0.3492
    2MPD2    C2   22   2.553   1.012  11.714  0.2232  0.4962 -0.0255
    2MPD2    C3   23   2.520   1.047  11.584 -0.0148  0.1089  0.0289
    2MPD2    C4   24   2.459   0.951  11.504 -0.1773 -0.1642 -0.4219
    2MPD2    C5   25   2.454   0.821  11.549 -0.1172  0.6710  0.6439
    2MPD2     H   26   2.577   1.084  11.791 -0.9548  1.3064 -0.4053
    2MPD2    H1   27   2.427   0.969  11.402  0.0133  0.3307 -0.3967
    2MPD2    H2   28   2.483   0.686  11.700  0.7689 -0.4229 -1.5565
    2MPD2    H3   29   2.407   0.756  11.476 -0.6521  2.7136 -0.8451
    2MPD2     N   30   2.522   1.178  11.529 -0.1521  0.0134  0.4209
    2MPD2    H5   31   2.464   1.185  11.446 -0.4791 -0.1613  0.6375
    2MPD2    N1   32   2.578   0.859  11.892  0.1294  0.6068 -0.2106
    2MPD2    H7   33   2.593   0.943  11.947 -0.4611  1.0737 -0.7682
    3TMC1    C1   34   1.305   1.886  11.512 -0.1421  0.4043  0.6230
    3TMC1    C2   35   1.370   1.833  11.408  0.0196 -0.0311 -0.2597
    3TMC1    C3   36   1.506   1.805  11.419 -0.1359 -0.7155 -0.3992
    3TMC1    C4   37   1.366   1.919  11.628 -0.0831 -0.2804  0.6519
    3TMC1    C5   38   1.500   1.898  11.630 -0.0266  0.4415  0.1110
    3TMC1    C6   39   1.578   1.844  11.527 -0.1270 -0.0262 -0.7985
    3TMC1     C   40   1.171   1.924  11.498 -1.3061 -1.0530  0.0602
    3TMC1     O   41   1.096   1.850  11.439  0.0886  0.1354 -0.1377
    3TMC1     H   42   1.313   1.807  11.319 -0.1361 -0.8712  0.0887
    3TMC1    H1   43   1.314   1.957  11.716 -0.9768  2.2453 -0.9645
    3TMC1    H2   44   1.683   1.826  11.546 -0.3554 -0.2279  0.2605
    3TMC1    C7   45   1.579   1.938  11.748  0.0944 -0.9677  0.5188
    3TMC1    C8   46   1.579   1.760  11.299 -0.2114  0.2123  0.4625
    3TMC1    O1   47   1.672   1.872  11.793  0.0962 -0.1462 -0.0083
    3TMC1    O2   48   1.696   1.790  11.288 -0.1636 -0.3135 -0.1615
    3TMC1    O3   49   1.575   2.070  11.759 -0.4345  0.6248 -0.4894
    3TMC1    H3   50   1.517   2.118  11.696 -1.3109  0.6431  0.3383
    3TMC1    O5   51   1.499   1.682  11.224  0.0127 -0.1673  0.7236
    3TMC1    H5   52   1.417   1.663  11.275 -1.8760  3.9823 -0.7422
    4MPD2     C   53   0.827   2.303  11.549  0.3712 -0.3094 -0.2052
    4MPD2    C1   54   0.945   2.340  11.610 -0.5449 -0.3891  0.4697
    4MPD2    C2   55   1.051   2.249  11.613 -0.2215  0.4102 -0.3010
    4MPD2    C3   56   1.038   2.126  11.555 -0.3450 -0.2975  0.1232
    4MPD2    C4   57   0.919   2.084  11.502 -0.7868  0.1262  0.1963
    4MPD2    C5   58   0.814   2.173  11.496  0.5306 -0.3990 -0.1937
    4MPD2     H   59   1.148   2.265  11.659 -0.1081 -1.2111  0.0066
    4MPD2    H1   60   0.912   1.982  11.469 -3.3337 -0.8176  3.5716
    4MPD2    H2   61   0.737   2.362  11.536  1.0489  1.0906  1.5118
    4MPD2    H3   62   0.715   2.146  11.461  0.5353 -0.1968 -0.3654
    4MPD2     N   63   1.157   2.048  11.550  0.0264 -0.2768 -0.2981
    4MPD2    H5   64   1.242   2.076  11.598  0.9137  1.9332 -3.1923
    4MPD2    N1   65   0.971   2.475  11.665 -0.2160 -0.3179 -0.3534
    4MPD2    H7   66   1.064   2.474  11.708 -0.4557 -0.3306  0.1691
    5TCq1    O1   67   2.684   4.665  11.830 -0.2652  0.3604 -0.3136
    5TCq1    C1   68   2.585   4.715  11.748 -0.4263  0.6014 -0.2875
    5TCq1    O2   69   2.602   0.032  11.639  0.0094  0.0353 -0.0572
    5TCq1    C2   70   2.470   4.629  11.777 -0.6445  0.2021 -0.8205
    5TCq1    C3   71   2.435   4.619  11.913 -0.5165 -0.8559  0.6023
    5TCq1    C4   72   2.312   4.571  11.934  0.3062  0.6068 -0.3237
    5TCq1    C5   73   2.236   4.515  11.838  0.3956 -0.6276 -0.0072
    5TCq1    C6   74   2.283   4.514  11.708  0.4768  0.0583  0.0103
    5TCq1    C7   75   2.399   4.579  11.669  0.9309 -0.2017  0.6359
    5TCq1    C8   76   2.189   4.480  11.607  0.0738 -0.3547  0.4121
    5TCq1    O4   77   2.231   4.460  11.494 -0.0086 -0.1751  0.1917
    5TCq1    C9   78   2.266   4.586  12.073  0.1582 -0.5657  0.0473
    5TCq1    O5   79   2.355   4.578  12.161  0.5160  0.0390  0.3710
    5TCq1    O6   80   2.141   4.590  12.093  0.1530 -0.2126 -0.4818
    5TCq1    H1   81   2.659   4.686  11.922 -1.0705  1.4449 -0.7771
    5TCq1    H2   82   2.489   4.659  11.999  0.1195  2.0784 -1.1738
    5TCq1    H3   83   2.145   4.467  11.871  0.6358 -1.1964 -0.1763
    5TCq1    H4   84   2.446   4.580  11.571 -2.7359  0.4903 -1.1181
    6MPD2     C   85   1.825   4.526  11.612  0.3239 -0.3595  0.9016
    6MPD2    C1   86   1.949   4.499  11.554 -0.3094 -0.5286  0.0556
    6MPD2    C2   87   1.958   4.454  11.424 -0.1078  0.6761 -0.0611
    6MPD2    C3   88   1.843   4.442  11.350 -0.2844  0.2883  0.0426
    6MPD2    C4   89   1.718   4.483  11.401 -0.1372 -0.1204 -0.4009
    6MPD2    C5   90   1.717   4.519  11.536  0.2438  0.4502 -0.3812
    6MPD2     H   91   2.049   4.422  11.374 -0.2879 -1.0492  0.7289
    6MPD2    H1   92   1.626   4.496  11.345  0.8915  0.0239 -2.0487
    6MPD2    H2   93   1.822   4.557  11.716 -1.8229  0.7161  0.5129
    6MPD2    H3   94   1.622   4.537  11.585  0.7322 -1.1287  1.1480
    6MPD2     N   95   1.843   4.372  11.223 -0.2680 -0.9027 -0.5832
    6MPD2    H5   96   1.930   4.324  11.204 -0.2500 -0.0659 -2.6401
    6MPD2    N1   97   2.058   4.503  11.644  0.0086  0.4820  0.3155
    6MPD2    H7   98   2.041   4.526  11.741 -0.4949  0.3769  0.2504
    7TCq1    O1   99   0.500   3.817  14.115 -0.2528 -0.6389  0.0594
    7TCq1    C1  100   0.488   3.707  14.037 -0.3434  0.0432 -0.1491
    7TCq1    O2  101   0.506   3.594  14.082  0.3736  0.1118  0.2335
    7TCq1    C2  102   0.422   3.723  13.904  0.0939 -0.2630 -0.0223
    7TCq1    C3  103   0.429   3.841  13.840  0.4268  0.3390  0.2589
    7TCq1    C4  104   0.348   3.848  13.733  0.1584  0.2898 -0.3652
    7TCq1    C5  105   0.268   3.742  13.687  0.3978  0.2280 -0.6342
    7TCq1    C6  106   0.261   3.624  13.760 -0.4484  0.2919  0.5089
    7TCq1    C7  107   0.345   3.616  13.868 -0.4628  0.1892  0.6165
    7TCq1    C8  108   0.205   3.498  13.718 -0.2412 -0.1538  0.1332
    7TCq1    O4  109   0.253   3.394  13.764 -0.1901  0.4571  0.4874
    7TCq1    C9  110   0.372   3.965  13.650 -0.2525 -0.0584  0.2426
    7TCq1    O5  111   0.308   3.967  13.541  0.2029  0.3357  0.2077
    7TCq1    O6  112   0.455   4.050  13.681 -0.2279  0.1114  0.8546
    7TCq1    H1  113   0.476   3.901  14.071 -2.4038 -1.0896  0.3604
    7TCq1    H2  114   0.494   3.927  13.851  1.8063 -0.5149 -1.3161
    7TCq1    H3  115   0.210   3.759  13.597  0.6046  1.6177 -0.5023
    7TCq1    H4  116   0.333   3.535  13.939 -1.9874  0.6904  0.9270
    8MPD2     C  117   4.701   3.203  13.395  0.0921  0.1201 -0.1774
    8MPD2    C1  118   0.015   3.172  13.520  0.6369  0.4537 -0.5722
    8MPD2    C2  119   0.063   3.283  13.587 -0.0481  0.0886 -0.6130
    8MPD2    C3  120   0.061   3.412  13.543 -1.0047  0.2292  0.4681
    8MPD2    C4  121   4.734   3.438  13.425  0.5508  0.5892  0.0788
    8MPD2    C5  122   4.697   3.330  13.351 -0.2967 -0.1807  0.3703
    8MPD2     H  123   0.101   3.255  13.684  0.1183  1.7368 -0.2097
    8MPD2    H1  124   4.718   3.535  13.379 -0.4022 -0.7267 -2.3947
    8MPD2    H2  125   4.651   3.131  13.332 -1.7108  1.2674 -0.0763
    8MPD2    H3  126   4.650   3.344  13.254 -0.5281  2.4596  0.8839
    8MPD2     N  127   0.126   3.516  13.609 -0.3950 -0.1300 -0.9269
    8MPD2    H5  128   0.116   3.607  13.564  2.2299  1.6386  2.0869
    8MPD2    N1  129   0.017   3.043  13.570 -0.3629 -0.7981  0.1998
    8MPD2    H7  130   4.700   2.970  13.523  0.6799 -0.9277 -0.7792
    9TMC1    C1  131   2.778   1.963  10.887 -0.0445  0.0456 -0.1962
    9TMC1    C2  132   2.665   1.889  10.901  0.2943  0.2196 -0.2836
    9TMC1    C3  133   2.616   1.836  10.782  0.5362  0.6375  0.5276
    9TMC1    C4  134   2.841   1.982  10.773  0.2271 -0.5848 -0.6999
    9TMC1    C5  135   2.787   1.930  10.654 -0.4157  0.4551 -0.5232
    9TMC1    C6  136   2.674   1.855  10.663 -0.8906  0.1469 -0.0115
    9TMC1     C  137   2.841   2.019  11.005 -0.0321  0.0774  0.1922
    9TMC1     O  138   2.954   2.046  10.981 -0.1472  0.9677  0.0277
    9TMC1     H  139   2.637   1.851  10.998 -0.3714  0.2286 -0.4695
    9TMC1    H1  140   2.922   2.053  10.758 -0.6130  0.2959 -1.0337
    9TMC1    H2  141   2.615   1.818  10.579 -0.0374 -0.9724 -0.1159
    9TMC1    C7  142   2.768   2.017  10.544  0.5188 -0.3117 -0.1010
    9TMC1    C8  143   2.522   1.731  10.788 -1.0750  0.1041  0.4657
    9TMC1    O1  144   2.726   2.129  10.573 -0.3554 -0.5482  0.6673
    9TMC1    O2  145   2.526   1.638  10.714  0.0846 -0.5845 -0.2060
    9TMC1    O3  146   2.740   1.950  10.434 -0.2319 -0.4736  0.3296
    9TMC1    H3  147   2.787   1.864  10.442 -0.3858 -0.4337  1.6679
    9TMC1    O5  148   2.442   1.742  10.898  0.0746 -0.1074 -0.3343
    9TMC1    H5  149   2.434   1.826  10.948 -2.0553 -0.4295 -0.1603
   10MPD2     C  150   2.891   2.136  11.288  0.2665  0.3434  0.7239
   10MPD2    C1  151   2.778   2.074  11.239  0.0254  0.0636  0.4637
   10MPD2    C2  152   2.679   2.052  11.336 -0.1028 -0.1340  0.4890
   10MPD2    C3  153   2.696   2.091  11.466 -0.4499  0.3520  0.1523
   10MPD2    C4  154   2.799   2.174  11.504 -0.3446  0.6349  0.0629
   10MPD2    C5  155   2.904   2.181  11.415 -0.2324  0.0150 -0.9792
   10MPD2     H  156   2.589   1.998  11.310  0.3433 -0.5853 -0.1053
   10MPD2    H1  157   2.812   2.212  11.604 -1.4975 -0.6029  0.6885
   10MPD2    H2  158   2.973   2.150  11.219  0.0598 -0.7304  0.2474
   10MPD2    H3  159   2.994   2.232  11.447  0.3070  0.4334 -3.1844
   10MPD2     N  160   2.609   2.047  11.575  0.7232  0.3285 -0.2311
   10MPD2    H5  161   2.640   2.064  11.670  0.3153 -2.9565  0.5055
   10MPD2    N1  162   2.750   2.039  11.104 -0.1681  0.5806 -0.8525
   10MPD2    H7  163   2.656   2.007  11.080  0.4268 -2.1483  0.4784
   11TCq1    O1  164   4.132   2.419  14.764  1.0217 -0.0858 -0.1367
   11TCq1    C1  165   4.223   2.382  14.679  0.5604  0.1067 -0.4718
   11TCq1    O2  166   4.340   2.416  14.686  0.6065 -0.8878  0.4017
   11TCq1    C2  167   4.166   2.297  14.577  1.5996 -0.6055  0.0343
   11TCq1    C3  168   4.254   2.239  14.492 -0.2167 -0.0669  0.0155
   11TCq1    C4  169   4.208   2.179  14.375  0.2088  0.2955  0.2964
   11TCq1    C5  170   4.075   2.174  14.342 -0.3369  0.2460  0.2938
   11TCq1    C6  171   3.992   2.249  14.424  0.5518  0.0337 -0.1597
   11TCq1    C7  172   4.034   2.311  14.537  0.5085 -0.4022  0.2953
   11TCq1    C8  173   3.855   2.288  14.376  0.9364  0.0454 -0.4595
   11TCq1    O4  174   3.813   2.400  14.404 -0.1985 -0.0683 -0.2712
   11TCq1    C9  175   4.305   2.112  14.294 -0.3457 -0.1365 -0.4566
   11TCq1    O5  176   4.424   2.141  14.318 -0.6558 -0.5006 -0.1552
   11TCq1    O6  177   4.273   2.023  14.208  0.0186 -0.1006 -0.5669
   11TCq1    H1  178   4.047   2.372  14.748  1.2444 -0.5700  0.1124
   11TCq1    H2  179   4.356   2.225  14.525 -0.6990 -1.1947  1.0235
   11TCq1    H3  180   4.043   2.132  14.248  1.7158 -1.7006  0.4757
   11TCq1    H4  181   3.965   2.372  14.595 -0.0132 -0.3039 -0.4280
   12MPD2     C  182   3.576   2.266  14.263 -0.1951 -0.4254 -0.1445
   12MPD2    C1  183   3.669   2.163  14.258 -0.9146 -0.6480 -0.1869
   12MPD2    C2  184   3.623   2.043  14.201  1.0776 -0.1036 -0.4955
   12MPD2    C3  185   3.490   2.026  14.160 -0.0328 -0.0727  0.2967
   12MPD2    C4  186   3.409   2.134  14.156 -0.4333 -0.2750  0.4723
   12MPD2    C5  187   3.449   2.254  14.204 -0.1933 -0.3308 -0.6009
   12MPD2     H  188   3.685   1.955  14.205 -0.1281 -0.8489  2.2324
   12MPD2    H1  189   3.307   2.134  14.117  0.0572 -1.3239 -0.8107
   12MPD2    H2  190   3.596   2.361  14.310 -2.1922 -0.8056  1.4721
   12MPD2    H3  191   3.383   2.340  14.197 -3.2299 -2.7349 -1.7171
   12MPD2     N  192   3.439   1.900  14.109 -0.7731 -0.2620  0.6129
   12MPD2    H5  193   3.343   1.902  14.076 -0.6760 -0.9081  0.2951
   12MPD2    N1  194   3.798   2.178  14.306 -0.1023 -0.1951 -0.1370
   12MPD2    H7  195   3.836   2.085  14.322  0.0035 -0.2536 -0.7211
   13TCq1    O1  196   2.163   2.431  10.586 -0.2376 -0.1303  0.5703
   13TCq1    C1  197   2.255   2.461  10.677 -0.2845  0.3125 -0.2363
   13TCq1    O2  198   2.373   2.488  10.664 -0.1465 -0.0690 -0.0226
   13TCq1    C2  199   2.178   2.525  10.778 -0.7746 -0.2040 -0.3405
   13TCq1    C3  200   2.069   2.604  10.752 -0.0102  0.0656 -0.1750
   13TCq1    C4  201   2.003   2.663  10.857  0.0287  0.2944  0.4868
   13TCq1    C5  202   2.048   2.655  10.987  0.4653 -0.1636  0.0244
   13TCq1    C6  203   2.170   2.591  11.004  0.2403 -0.2272 -0.0077
   13TCq1    C7  204   2.240   2.538  10.901  0.1722  0.5958 -0.4492
   13TCq1    C8  205   2.211   2.565  11.139  0.5692 -0.8899  0.8142
   13TCq1    O4  206   2.132   2.590  11.226 -0.0586  0.2492 -0.3171
   13TCq1    C9  207   1.886   2.740  10.837 -0.0013 -0.5227 -0.1642
   13TCq1    O5  208   1.812   2.788  10.926 -0.0949  0.3625 -0.0441
   13TCq1    O6  209   1.850   2.737  10.717  0.8324 -0.0299  0.3251
   13TCq1    H1  210   2.082   2.396  10.628  0.7106 -0.6456  1.9807
   13TCq1    H2  211   2.023   2.604  10.654 -0.8038  2.0847  0.1860
   13TCq1    H3  212   1.995   2.697  11.071 -0.4623 -1.2455 -0.0204
   13TCq1    H4  213   2.336   2.487  10.911  0.3674  1.1055  0.2420
   14MPD2     C  214   2.536   2.448  11.289 -0.2991  0.0811 -0.1274
   14MPD2    C1  215   2.402   2.477  11.281 -0.1598 -0.4854 -0.2813
   14MPD2    C2  216   2.324   2.463  11.393  0.0350 -0.7361  0.4529
   14MPD2    C3  217   2.384   2.425  11.517  0.4081 -0.4725 -0.3613
   14MPD2    C4  218   2.518   2.393  11.519 -0.1177  0.5351  0.6431
   14MPD2    C5  219   2.591   2.416  11.404 -0.0790 -0.3070 -0.3605
   14MPD2     H  220   2.217   2.476  11.395  0.3062  1.2473  1.3344
   14MPD2    H1  221   2.573   2.375  11.610  0.9736  1.1840  0.1117
   14MPD2    H2  222   2.595   2.443  11.198  0.2948 -0.0929  0.2645
   14MPD2    H3  223   2.697   2.393  11.410  0.2691  1.3789 -0.0126
   14MPD2     N  224   2.303   2.420  11.636  0.1885 -0.0739  0.4902
   14MPD2    H5  225   2.206   2.445  11.619  0.4084  0.3593 -0.1348
   14MPD2    N1  226   2.348   2.523  11.156 -0.0970  0.0675 -0.0385
   14MPD2    H7  227   2.416   2.512  11.082 -1.2806 -1.1292 -0.9570
   15TCq1    O1  228   4.247   1.754   1.441 -0.3504  0.2386 -0.0326
   15TCq1    C1  229   4.296   1.745   1.569 -0.1786 -0.5802 -0.3887
   15TCq1    O2  230   4.282   1.833   1.653  0.3650 -0.2141 -0.0056
   15TCq1    C2  231   4.413   1.658   1.560  0.3125  0.7276  0.6263
   15TCq1    C3  232   4.516   1.701   1.633 -0.0298 -1.1006 -1.0118
   15TCq1    C4  233   4.625   1.614   1.656 -0.3950 -0.3763  0.3014
   15TCq1    C5  234   4.627   1.493   1.589 -0.2978 -0.1360 -0.0660
   15TCq1    C6  235   4.520   1.459   1.516  0.3861 -0.7285 -0.5033
   15TCq1    C7  236   4.409   1.537   1.501  0.0076 -0.4634 -0.4961
   15TCq1    C8  237   4.551   1.348   1.425 -0.6328 -0.3908  0.0250
   15TCq1    O4  238   4.632   1.265   1.465 -0.4811  0.1289  0.0596
   15TCq1    C9  239   0.003   1.664   1.722  0.2429 -0.2780 -0.3751
   15TCq1    O5  240   0.095   1.583   1.761 -0.4324  0.2884 -0.5194
   15TCq1    O6  241   0.002   1.789   1.738 -0.5373  0.0116 -0.5863
   15TCq1    H1  242   4.261   1.674   1.386 -1.4421  0.2448 -0.3379
   15TCq1    H2  243   4.501   1.790   1.693  1.3637 -1.4757 -0.1065
   15TCq1    H3  244   4.721   1.440   1.590  0.4722  1.2521  0.4751
   15TCq1    H4  245   4.326   1.499   1.443 -1.4846  1.3136  0.4533
   16MPD2     C  246   4.515   1.343   1.061  0.3028  1.0287 -0.1750
   16MPD2    C1  247   4.545   1.298   1.188 -0.2677  0.0350 -0.2966
   16MPD2    C2  248   4.619   1.180   1.196  0.1149  0.1760  0.8263
   16MPD2    C3  249   4.645   1.095   1.085  0.5043  1.3418  0.6539
   16MPD2    C4  250   4.602   1.138   0.965  0.4564  0.1029 -0.2153
   16MPD2    C5  251   4.546   1.263   0.954  0.1532  0.0091 -0.4629
   16MPD2     H  252   4.641   1.136   1.292  1.4119  0.1464  0.5121
   16MPD2    H1  253   4.617   1.084   0.872 -0.8094  1.4588 -1.2053
   16MPD2    H2  254   4.471   1.442   1.052  0.6514  0.8584 -3.5421
   16MPD2    H3  255   4.517   1.304   0.858  0.7712  0.3462 -0.5024
   16MPD2     N  256   4.693   0.968   1.123 -0.0594 -0.6664  0.2567
   16MPD2    H5  257   4.702   0.946   1.221 -0.9781  1.4364  0.8067
   16MPD2    N1  258   4.519   1.382   1.296  0.1237 -0.4055 -0.2847
   16MPD2    H7  259   4.470   1.471   1.286  0.6407 -0.1966 -0.9334
   17TMC1    C1  260   1.589   0.650  10.416 -0.1570  0.4653  0.4384
   17TMC1    C2  261   1.623   0.628  10.549 -0.6851  1.0755  0.1804
   17TMC1    C3  262   1.590   0.509  10.602 -0.1522 -0.3798 -0.2609
   17TMC1    C4  263   1.510   0.564  10.341 -0.3625 -0.4871  0.3745
   17TMC1    C5  264   1.459   0.456  10.406  0.3732 -0.3739 -0.2046
   17TMC1    C6  265   1.510   0.420  10.533  0.2831 -0.3772 -0.3021
   17TMC1     C  266   1.638   0.764  10.350  0.3408  0.0418 -0.2517
   17TMC1     O  267   1.622   0.772  10.234 -0.4589 -0.7053 -1.1089
   17TMC1     H  268   1.695   0.683  10.609  0.4333 -0.2810  0.0884
   17TMC1    H1  269   1.460   0.596  10.250  0.1052 -2.3071 -0.5133
   17TMC1    H2  270   1.470   0.336  10.589  0.4214  0.8499  1.6372
   17TMC1    C7  271   1.424   0.337  10.324 -0.0596  0.3098 -0.4984
   17TMC1    C8  272   1.674   0.465  10.714 -0.7220 -0.8882 -0.8819
   17TMC1    O1  273   1.488   0.233  10.322  0.1923 -0.1725  0.8352
   17TMC1    O2  274   1.659   0.515  10.827 -0.1766  0.4407 -0.4950
   17TMC1    O3  275   1.361   0.396  10.223 -0.0451 -0.0918 -0.2685
   17TMC1    H3  276   1.309   0.477  10.245 -1.7853 -1.1501 -0.5349
   17TMC1    O5  277   1.697   0.336  10.677  0.0649  0.0633 -0.2482
   17TMC1    H5  278   1.702   0.333  10.579  1.9886  0.1648 -0.1424
   18MPD2     C  279   1.812   0.984  10.256  0.4372  0.9030 -0.1441
   18MPD2    C1  280   1.781   0.959  10.387 -0.7515  0.1052 -0.0037
   18MPD2    C2  281   1.823   1.035  10.490 -0.1653 -0.4734 -0.7036
   18MPD2    C3  282   1.900   1.150  10.463  0.2643  0.8303  0.0430
   18MPD2    C4  283   1.933   1.174  10.330  0.4657  0.1199  1.2618
   18MPD2    C5  284   1.897   1.094  10.231  0.2557  0.6664  0.1483
   18MPD2     H  285   1.779   1.019  10.589  1.8820  0.7819  0.4025
   18MPD2    H1  286   2.008   1.250  10.312 -1.5333  1.3083 -2.0749
   18MPD2    H2  287   1.766   0.927  10.176  2.6227  1.1108 -1.5345
   18MPD2    H3  288   1.924   1.120  10.130  0.2500 -1.8729 -0.5173
   18MPD2     N  289   1.957   1.224  10.567 -0.5409 -0.0445 -0.0675
   18MPD2    H5  290   2.030   1.286  10.533 -0.6269  0.2596  0.3045
   18MPD2    N1  291   1.694   0.856  10.431 -0.3303 -0.4083 -0.2941
   18MPD2    H7  292   1.683   0.832  10.529 -1.8480 -1.8633 -0.8285
   19TMC2    C1  293   4.509   1.640  14.102  0.1735 -0.0845 -0.5544
   19TMC2    C2  294   4.436   1.745  14.082 -0.0810 -0.0401 -0.0234
   19TMC2    C3  295   4.319   1.732  14.019  0.1947  0.8804 -0.2938
   19TMC2    C4  296   4.468   1.510  14.082  0.0362  0.1411 -0.5672
   19TMC2    C5  297   4.343   1.498  14.027 -0.0202 -0.1488 -0.0714
   19TMC2    C6  298   4.266   1.607  13.994 -0.3470 -0.0749 -0.3776
   19TMC2     C  299   4.652   1.669  14.116  0.5225 -0.1196 -0.2849
   19TMC2     O  300   4.684   1.780  14.081  0.1449  0.5736 -0.0233
   19TMC2     H  301   4.475   1.841  14.116 -0.2329 -0.0205  0.0936
   19TMC2    H1  302   4.535   1.425  14.080 -1.3223 -0.9993  2.0693
   19TMC2    H2  303   4.168   1.601  13.948 -0.0599  0.1105 -1.0125
   19TMC2    C7  304   4.291   1.363  14.016  0.2234 -0.1241  0.0355
   19TMC2    C8  305   4.261   1.843  13.940 -0.1727  0.7830  0.1258
   19TMC2    O1  306   4.316   1.279  14.101 -0.2634  1.0453 -0.4233
   19TMC2    O2  307   4.217   1.813  13.833  0.0632 -0.4479  0.2016
   19TMC2    O5  308   4.334   1.957  13.968 -0.4470 -0.2196  0.0458
   19TMC2    H5  309   4.335   1.980  14.063 -2.1840 -0.6328  0.1612
   20MPD2     C  310   0.178   1.725  14.248  0.0789 -0.2882 -0.2932
   20MPD2    C1  311   0.122   1.597  14.231 -0.6215  0.3892  0.6217
   20MPD2    C2  312   0.188   1.489  14.297  0.0773 -0.1067  0.1524
   20MPD2    C3  313   0.312   1.510  14.358  0.0638  0.3762  1.0974
   20MPD2    C4  314   0.360   1.634  14.369  0.9466  0.2648 -0.1407
   20MPD2    C5  315   0.292   1.744  14.317  0.2915  0.0215  0.3837
   20MPD2     H  316   0.134   1.396  14.308  0.9759 -0.5271  0.9586
   20MPD2    H1  317   0.455   1.653  14.417 -0.8927  1.2048  3.1545
   20MPD2    H2  318   0.134   1.815  14.206 -0.9595 -0.9246 -0.5708
   20MPD2    H3  319   0.339   1.836  14.350 -0.5350  0.1488  1.2264
   20MPD2     N  320   0.383   1.405  14.419 -0.5681  0.0913 -0.8325
   20MPD2    H5  321   0.473   1.426  14.462 -0.4732 -1.5441 -0.2444
   20MPD2    N1  322   4.729   1.574  14.181 -0.2976  0.1204  0.6340
   20MPD2    H7  323   4.684   1.484  14.194  1.3661 -0.3591  3.0666
   21TMC2    C1  324   1.933   2.098  14.427  0.1672 -0.1459  0.2047
   21TMC2    C2  325   1.860   2.002  14.490 -0.0994  0.3948 -0.0941
   21TMC2    C3  326   1.736   2.035  14.539 -0.3992 -0.4287  0.3853
   21TMC2    C4  327   1.895   2.229  14.417  0.3463 -0.2789 -0.6517
   21TMC2    C5  328   1.771   2.249  14.461  0.0053  0.5380  0.7728
   21TMC2    C6  329   1.685   2.163  14.523 -0.1259 -0.2267 -0.1263
   21TMC2     C  330   2.043   2.066  14.345  0.1581 -0.8366  0.2503
   21TMC2     O  331   2.148   2.124  14.365  0.8574 -0.6060 -0.0046
   21TMC2     H  332   1.903   1.903  14.500  0.3169  0.7952  2.0859
   21TMC2    H1  333   1.948   2.289  14.344  1.4695  1.3214  1.4743
   21TMC2    H2  334   1.590   2.201  14.559 -0.3745 -1.9952  1.0650
   21TMC2    C7  335   1.722   2.382  14.424  0.0315 -0.2628 -0.7649
   21TMC2    C8  336   1.705   1.964  14.660  0.9131  0.1002 -0.5292
   21TMC2    O1  337   1.604   2.397  14.392 -0.2203 -0.6228  0.1251
   21TMC2    O2  338   1.785   1.925  14.747 -0.0951 -0.4314  0.4813
   21TMC2    O5  339   1.575   1.995  14.690 -0.3709 -0.0804  0.4935
   21TMC2    H5  340   1.524   2.012  14.608 -0.8244  2.6389  1.3639
   22MPD2     C  341   2.298   1.763  14.009  0.8181 -0.4362 -0.7754
   22MPD2    C1  342   2.338   1.875  14.081 -0.0712  0.0738  1.0044
   22MPD2    C2  343   2.251   1.939  14.167  0.5399 -0.0096  0.4106
   22MPD2    C3  344   2.114   1.901  14.170  0.2394 -0.0014  0.7002
   22MPD2    C4  345   2.075   1.795  14.091 -0.4624  0.5457  0.5053
   22MPD2    C5  346   2.165   1.728  14.009 -0.0487  0.5608 -0.0250
   22MPD2     H  347   2.283   2.025  14.224 -0.8051 -0.5803  2.0376
   22MPD2    H1  348   1.974   1.757  14.098  0.1898 -1.3086  0.0490
   22MPD2    H2  349   2.364   1.711  13.940  0.6427 -2.0084  0.2396
   22MPD2    H3  350   2.131   1.640  13.955 -0.0666  0.3499  0.3298
   22MPD2     N  351   2.018   1.953  14.262  0.1489  0.3775  0.1993
   22MPD2    H5  352   1.929   1.904  14.271  0.2460  0.5747  2.2763
   22MPD2    N1  353   2.463   1.920  14.083 -0.5714  0.2534  0.0103
   22MPD2    H7  354   2.478   2.016  14.112 -1.6174  0.8107 -1.2583
   23TMC2    C1  355   3.041   3.107  14.608 -0.6548  0.3330 -0.2645
   23TMC2    C2  356   3.055   3.161  14.487 -0.8348 -0.4226  0.6067
   23TMC2    C3  357   2.944   3.217  14.429  0.9374 -0.4006  0.4485
   23TMC2    C4  358   2.926   3.120  14.674 -0.5076 -0.0800  0.0524
   23TMC2    C5  359   2.812   3.171  14.614  0.7834  0.1294 -0.2109
   23TMC2    C6  360   2.816   3.211  14.485 -0.4313 -0.2918  0.5072
   23TMC2     C  361   3.158   3.054  14.681  0.3330 -0.7975  0.1506
   23TMC2     O  362   3.132   3.004  14.792 -0.1773 -0.6268 -0.2989
   23TMC2     H  363   3.145   3.167  14.427  0.2256 -0.1985  2.2104
   23TMC2    H1  364   2.916   3.067  14.769 -0.1537 -0.5531 -0.1704
   23TMC2    H2  365   2.724   3.245  14.440 -1.6931 -3.9461  0.2580
   23TMC2    C7  366   2.687   3.127  14.666  0.9367 -0.3202 -0.3256
   23TMC2    C8  367   2.952   3.233  14.290  0.1197  0.5468  0.1704
   23TMC2    O1  368   2.699   3.024  14.732 -0.0568  0.1092  0.6165
   23TMC2    O2  369   3.060   3.254  14.243  0.0046 -0.4697 -0.1102
   23TMC2    O5  370   2.870   3.139  14.237 -0.1819 -0.3378 -0.0555
   23TMC2    H5  371   2.784   3.130  14.284  0.0352 -2.0077  0.0189
   24MPD2     C  372   3.632   2.866  14.744 -0.2068 -0.1089  0.6424
   24MPD2    C1  373   3.530   2.889  14.833 -0.2489 -0.1347 -0.6871
   24MPD2    C2  374   3.414   2.958  14.790 -0.3397  0.1077  0.3799
   24MPD2    C3  375   3.395   2.985  14.659  0.4448 -0.8756 -0.1941
   24MPD2    C4  376   3.496   2.948  14.570 -0.6142  0.3939  0.5548
   24MPD2    C5  377   3.611   2.887  14.608 -0.0259  0.2361  0.1062
   24MPD2     H  378   3.345   3.005  14.859  0.5287  0.8566  0.7404
   24MPD2    H1  379   3.482   2.974  14.466  2.7087 -0.1699 -0.0307
   24MPD2    H2  380   3.730   2.828  14.771 -0.0019  0.6864  1.0131
   24MPD2    H3  381   3.685   2.863  14.532 -0.0606 -2.4930  0.9160
   24MPD2     N  382   3.275   3.041  14.609 -0.4778 -0.3137  0.6142
   24MPD2    H5  383   3.268   3.069  14.512  0.1441  2.6417  1.4067
   24MPD2    N1  384   3.548   2.864  14.977 -0.0406  0.4240  0.1701
   24MPD2    H7  385   3.482   2.896  15.047  0.3221  0.9898  0.2483
   25TMC2    C1  386   2.156   0.496  11.582  0.4042  0.5869  0.3209
   25TMC2    C2  387   2.286   0.458  11.552  0.5485  0.0632 -0.2476
   25TMC2    C3  388   2.373   0.439  11.657  0.0949 -0.5116  0.5659
   25TMC2    C4  389   2.116   0.528  11.711  0.2326  0.2509 -0.5303
   25TMC2    C5  390   2.206   0.508  11.813 -0.4351  0.2601  0.6856
   25TMC2    C6  391   2.335   0.462  11.790  0.3398 -0.5263  0.0524
   25TMC2     C  392   2.066   0.530  11.470  0.4465  0.3901  0.5655
   25TMC2     O  393   2.121   0.582  11.370 -0.1865  0.1346  0.0151
   25TMC2     H  394   2.320   0.433  11.452  0.9342 -1.6086  0.2936
   25TMC2    H1  395   2.019   0.574  11.725  0.2088 -0.2518  0.9552
   25TMC2    H2  396   2.396   0.446  11.878  1.4051 -2.8181 -1.0819
   25TMC2    C7  397   2.180   0.572  11.941  0.3847 -0.1880 -0.4181
   25TMC2    C8  398   2.505   0.378  11.611 -0.1126  0.3581  0.1690
   25TMC2    O1  399   2.234   0.525  12.037 -0.6374 -0.0748  0.3043
   25TMC2    O2  400   2.540   0.417  11.504 -0.3984  0.0234  0.1939
   25TMC2    O5  401   2.583   0.355  11.717 -0.6374  1.0888 -0.3630
   25TMC2    H5  402   2.525   0.328  11.791 -0.0051  0.4782 -0.0873
   26MPD2     C  403   1.623   0.492  11.231  0.1859 -0.6377 -0.4470
   26MPD2    C1  404   1.639   0.380  11.307  0.5727  0.0245 -0.0264
   26MPD2    C2  405   1.742   0.376  11.396 -0.1973  0.1889  0.8486
   26MPD2    C3  406   1.830   0.482  11.406 -0.5374  0.1022  0.3164
   26MPD2    C4  407   1.814   0.586  11.318 -0.4169  0.2436  0.4773
   26MPD2    C5  408   1.711   0.595  11.232  0.0424 -0.0650 -0.1082
   26MPD2     H  409   1.751   0.291  11.462  0.2111 -0.4491 -0.0337
   26MPD2    H1  410   1.889   0.664  11.312 -3.1758  2.7709 -1.2279
   26MPD2    H2  411   1.543   0.496  11.159  0.2662 -0.0730 -0.5062
   26MPD2    H3  412   1.700   0.682  11.167  1.5119 -2.1069 -3.0984
   26MPD2     N  413   1.942   0.476  11.493  0.1450  0.3526 -0.1630
   26MPD2    H5  414   1.937   0.412  11.571 -4.0858  0.3130 -0.4288
   26MPD2    N1  415   1.546   0.268  11.309 -0.3232  0.8599  0.0353
   26MPD2    H7  416   1.583   0.188  11.358 -0.2625  1.3597  0.8118
   27TMC2    C1  417   0.778   2.034  12.368 -0.2297 -0.2783  0.1352
   27TMC2    C2  418   0.818   1.939  12.275  0.1870  0.3155  0.6549
   27TMC2    C3  419   0.742   1.914  12.162 -0.6097  0.2399  0.4085
   27TMC2    C4  420   0.671   2.121  12.335  0.9623  0.0767 -0.4758
   27TMC2    C5  421   0.606   2.102  12.212 -0.1437 -0.0044  0.8103
   27TMC2    C6  422   0.638   2.000  12.127 -0.2033 -0.1822  0.9107
   27TMC2     C  423   0.857   2.056  12.495 -0.0141 -0.3542  0.1537
   27TMC2     O  424   0.973   2.021  12.501  0.3472 -0.8488  0.2405
   27TMC2     H  425   0.919   1.901  12.285  0.1819 -0.7245 -3.4366
   27TMC2    H1  426   0.643   2.198  12.406  1.8601 -1.8289  1.9542
   27TMC2    H2  427   0.594   1.996  12.028 -0.1118  0.2156  0.8550
   27TMC2    C7  428   0.527   2.209  12.158 -0.0233  0.1344 -0.3403
   27TMC2    C8  429   0.738   1.776  12.114  0.1527 -0.0599  0.3701
   27TMC2    O1  430   0.492   2.196  12.041 -0.6795  0.0971  0.3250
   27TMC2    O2  431   0.820   1.696  12.144  0.1797  1.2763 -0.8741
   27TMC2    O5  432   0.613   1.745  12.079 -0.0417  0.5154  0.5022
   27TMC2    H5  433   0.558   1.826  12.074 -0.7448  0.1242  1.8014
   28MPD2     C  434   0.914   2.259  12.967 -0.3540 -0.6670 -0.4239
   28MPD2    C1  435   0.800   2.298  12.909  0.6520  0.0001  0.4650
   28MPD2    C2  436   0.760   2.254  12.790 -0.4294 -0.0681 -0.0591
   28MPD2    C3  437   0.843   2.168  12.715 -0.2679 -0.0926 -0.0146
   28MPD2    C4  438   0.961   2.127  12.773 -0.6917 -0.1642 -0.0231
   28MPD2    C5  439   0.989   2.164  12.901  0.4224 -0.6235  0.7744
   28MPD2     H  440   0.660   2.277  12.756 -0.9779 -2.2645  0.0538
   28MPD2    H1  441   1.032   2.061  12.725 -4.0176 -2.2696 -1.9926
   28MPD2    H2  442   0.937   2.293  13.068 -3.1030  3.4309 -1.1858
   28MPD2    H3  443   1.083   2.141  12.949  1.7185 -1.5888 -2.2488
   28MPD2     N  444   0.792   2.133  12.590  0.6260 -0.5003 -0.1330
   28MPD2    H5  445   0.699   2.165  12.565  0.7910  0.5498  0.5955
   28MPD2    N1  446   0.710   2.378  12.983  0.0960 -0.6643  0.3489
   28MPD2    H7  447   0.738   2.393  13.079 -2.2021  0.9248  0.7667
   29TMC2    C1  448   0.754   0.400  14.790 -0.3608  0.3623 -0.1241
   29TMC2    C2  449   0.751   0.440  14.919  0.4189  0.8744  0.7559
   29TMC2    C3  450   0.703   0.560  14.948  0.7913  0.0899 -0.0609
   29TMC2    C4  451   0.720   0.479  14.686 -0.0419  0.0072  0.0341
   29TMC2    C5  452   0.655   0.592  14.724  0.2196 -0.0340  0.1498
   29TMC2    C6  453   0.662   0.646  14.850  0.5289  0.7178 -0.3746
   29TMC2     C  454   0.792   0.263  14.765  0.2595  0.1562  0.3006
   29TMC2     O  455   0.881   0.218  14.837 -0.8032 -0.0536 -0.6428
   29TMC2     H  456   0.783   0.361  14.986  1.3894  2.2936  1.9514
   29TMC2    H1  457   0.743   0.456  14.583 -1.9357 -1.1844 -0.1259
   29TMC2    H2  458   0.614   0.739  14.876 -1.5269 -0.2610 -0.6622
   29TMC2    C7  459   0.666   0.689  14.620  0.6301  0.0054 -0.2600
   29TMC2    C8  460   0.667   0.580  15.086  0.1568  0.0118 -0.7293
   29TMC2    O1  461   0.615   0.659  14.512  0.4868 -0.0517 -0.7919
   29TMC2    O2  462   0.614   0.682  15.125 -0.1567  0.3829  0.0368
   29TMC2    O5  463   0.643   0.467  15.147  0.1976  0.1966 -0.6259
   29TMC2    H5  464   0.659   0.390  15.089  0.2730 -1.3253  1.4002
   30MPD2     C  465   0.703   4.548  14.536 -0.1709  0.3316 -0.3063
   30MPD2    C1  466   0.800   4.591  14.627 -0.5045  0.5158 -0.1490
   30MPD2    C2  467   0.820   4.720  14.667 -0.4687 -0.0801 -0.6268
   30MPD2    C3  468   0.735   0.083  14.613  0.4121  0.5870  1.2402
   30MPD2    C4  469   0.651   0.038  14.512  0.0550 -1.0657 -0.5693
   30MPD2    C5  470   0.631   4.644  14.475 -0.0522 -0.5112  0.2853
   30MPD2     H  471   0.882   0.005  14.753 -0.4335 -2.0286 -0.1744
   30MPD2    H1  472   0.596   0.118  14.463  1.0134 -0.9144 -1.3889
   30MPD2    H2  473   0.689   4.445  14.506 -0.7428 -0.2898  2.1135
   30MPD2    H3  474   0.566   4.632  14.388 -1.8408  1.4855  1.3418
   30MPD2     N  475   0.720   0.212  14.658 -0.1465 -0.0355  0.2288
   30MPD2    H5  476   0.642   0.266  14.623 -0.3626 -0.1453  0.5342
   30MPD2    N1  477   0.886   4.498  14.689  0.5307 -0.1389  0.2105
   30MPD2    H7  478   0.950   4.513  14.766  2.1184 -0.1568 -1.0896
   31TMC2    C1  479   3.217   3.664  15.297 -0.1070  0.3435 -0.1060
   31TMC2    C2  480   3.123   3.568  15.263  0.3240 -0.6155 -0.5798
   31TMC2    C3  481   3.090   3.475  15.362 -0.8108  0.4866  0.2339
   31TMC2    C4  482   3.250   3.685  15.428 -0.2073 -0.1014 -0.9030
   31TMC2    C5  483   3.216   3.590  15.518 -0.5953  0.3232  0.1421
   31TMC2    C6  484   3.125   3.487  15.496  0.4074 -0.5803  0.1476
   31TMC2     C  485   3.304   3.712  15.194 -0.0710 -0.5956  0.3842
   31TMC2     O  486   3.277   3.691  15.075 -0.2445  0.6703  0.1771
   31TMC2     H  487   3.077   3.564  15.164 -0.1365 -0.3576 -0.3778
   31TMC2    H1  488   3.317   3.762  15.464 -0.2333 -0.8287  0.6819
   31TMC2    H2  489   3.091   3.423  15.576  3.6487 -1.2488  0.9648
   31TMC2    C7  490   3.251   3.604  15.655  1.0846  0.6850 -0.9047
   31TMC2    C8  491   2.967   3.408  15.332  0.0289 -0.4553 -1.0873
   31TMC2    O1  492   3.284   3.499  15.711  0.6942 -0.2825 -0.2415
   31TMC2    O2  493   2.870   3.465  15.278 -0.2947  0.8889  0.0332
   31TMC2    O5  494   2.970   3.300  15.411 -0.1521  0.0198 -0.1142
   31TMC2    H5  495   3.059   3.272  15.441 -0.0790  1.5404  1.1233
   32MPD2     C  496   3.622   4.092  15.020 -0.1562 -0.0867 -0.0165
   32MPD2    C1  497   3.515   4.036  14.954 -1.0858  0.0073 -0.8934
   32MPD2    C2  498   3.442   3.936  15.020  0.0544 -0.1614 -0.0191
   32MPD2    C3  499   3.471   3.898  15.150  0.4820  0.3851 -0.5926
   32MPD2    C4  500   3.573   3.958  15.211  0.0367  0.8146 -0.0187
   32MPD2    C5  501   3.640   4.059  15.152  0.5113  0.3236 -0.1471
   32MPD2     H  502   3.354   3.888  14.978  1.5935 -3.2460  0.2747
   32MPD2    H1  503   3.583   3.936  15.316  0.2392  1.3762  0.0760
   32MPD2    H2  504   3.674   4.174  14.972  0.3370  0.6637  1.7795
   32MPD2    H3  505   3.711   4.105  15.220 -0.7004 -0.1580  1.4365
   32MPD2     N  506   3.400   3.801  15.231 -0.2478  0.0611  0.1570
   32MPD2    H5  507   3.426   3.800  15.329 -1.5637  1.3657  0.5157
   32MPD2    N1  508   3.488   4.089  14.822 -0.0533  0.2376  0.4550
   32MPD2    H7  509   3.558   4.143  14.771  0.4068 -1.3839 -0.6236
   33TMC2    C1  510   2.446   2.061  10.223 -0.0399  0.0556 -0.1995
   33TMC2    C2  511   2.396   2.024  10.100  0.4094 -0.1349  0.7112
   33TMC2    C3  512   2.464   2.071   9.989  0.1032 -0.3965 -0.0015
   33TMC2    C4  513   2.545   2.154  10.238 -0.3597  0.6299 -0.0761
   33TMC2    C5  514   2.598   2.199  10.120 -0.1017  0.8821 -0.2358
   33TMC2    C6  515   2.564   2.161   9.993 -0.6443 -0.3650  0.2559
   33TMC2     C  516   2.386   1.999  10.331 -0.5117 -0.0119 -0.4900
   33TMC2     O  517   2.301   1.916  10.298 -0.5839 -0.2433  0.9324
   33TMC2     H  518   2.329   1.940  10.084  1.1979 -0.9979  1.9140
   33TMC2    H1  519   2.592   2.176  10.333 -0.0233  0.3763 -0.1833
   33TMC2    H2  520   2.613   2.198   9.904 -0.9093  1.5954  0.9178
   33TMC2    C7  521   2.719   2.291  10.117 -0.2397 -0.2451 -0.4409
   33TMC2    C8  522   2.425   2.009   9.864 -0.3068 -0.8917  0.1962
   33TMC2    O1  523   2.798   2.278  10.021 -0.0514 -0.1038 -0.0094
   33TMC2    O2  524   2.323   1.945   9.851 -0.4439  0.6020 -0.0626
   33TMC2    O5  525   2.544   1.978   9.807  0.2128  0.8371  0.3142
   33TMC2    H5  526   2.621   2.025   9.845  0.7663  0.1730  0.0046
   34MPD2     C  527   2.236   1.986  10.828  0.0650  0.2241 -0.3331
   34MPD2    C1  528   2.223   1.894  10.727 -0.7153 -0.0149 -0.1073
   34MPD2    C2  529   2.274   1.916  10.599  0.0574  0.2572  0.4671
   34MPD2    C3  530   2.345   2.033  10.576 -0.1258 -0.7072  0.1351
   34MPD2    C4  531   2.360   2.123  10.672 -0.0975  0.2546  0.8693
   34MPD2    C5  532   2.295   2.105  10.794 -0.2635 -0.4896  0.3243
   34MPD2     H  533   2.252   1.851  10.515 -1.7893  0.3826  0.8500
   34MPD2    H1  534   2.418   2.214  10.666  0.1669  0.1886  2.2460
   34MPD2    H2  535   2.207   1.964  10.930 -0.3788  0.2703 -0.4510
   34MPD2    H3  536   2.292   2.185  10.867 -2.7176 -1.0436  0.8151
   34MPD2     N  537   2.406   2.067  10.455 -0.6787 -0.6616 -0.9482
   34MPD2    H5  538   2.463   2.151  10.456 -1.0373 -0.4154 -1.2148
   34MPD2    N1  539   2.164   1.768  10.765  0.1883 -0.3905 -0.0223
   34MPD2    H7  540   2.169   1.746  10.864  0.7090  0.2322  0.0873
   35TMC2    C1  541   3.253   2.906  12.017  0.3307 -0.0722  0.0583
   35TMC2    C2  542   3.137   2.979  11.993  0.5065 -0.3256 -0.9613
   35TMC2    C3  543   3.017   2.930  12.025  0.2220 -0.2935 -0.1854
   35TMC2    C4  544   3.248   2.794  12.093 -1.0547  1.0054 -0.1639
   35TMC2    C5  545   3.128   2.756  12.141 -0.1762 -0.0265  0.1466
   35TMC2    C6  546   3.008   2.819  12.101 -0.0457  0.6770 -0.0161
   35TMC2     C  547   3.377   2.976  11.990  0.7749 -0.5370  0.6581
   35TMC2     O  548   3.370   3.062  11.904 -0.2440 -0.2152  0.1474
   35TMC2     H  549   3.147   3.065  11.928 -1.9230  1.2869  0.7617
   35TMC2    H1  550   3.336   2.738  12.124 -0.9173 -0.0885 -2.5604
   35TMC2    H2  551   2.910   2.784  12.131  0.5601  1.0670  2.3641
   35TMC2    C7  552   3.118   2.627  12.199 -0.0246 -0.1068  0.3982
   35TMC2    C8  553   2.901   3.011  12.000  0.0268 -0.8035 -0.5342
   35TMC2    O1  554   3.220   2.567  12.231  0.1442 -0.0006 -0.1207
   35TMC2    O2  555   2.913   3.128  11.976 -0.6443  0.1070  0.0086
   35TMC2    O5  556   2.798   2.938  11.957  0.0040  0.3505  0.4177
   35TMC2    H5  557   2.806   2.840  11.959  0.9060  0.4277  0.3483
   36MPD2     C  558   3.871   3.087  12.074  0.7601  0.5050  0.1469
   36MPD2    C1  559   3.827   3.005  12.175 -0.2941 -0.2614 -0.1162
   36MPD2    C2  560   3.694   2.968  12.170  0.5935 -0.2489 -0.4056
   36MPD2    C3  561   3.608   3.001  12.068  0.4802 -0.5447  0.6362
   36MPD2    C4  562   3.659   3.074  11.961  0.7137  0.2621 -0.3616
   36MPD2    C5  563   3.792   3.109  11.966 -0.2424 -0.4332 -0.3827
   36MPD2     H  564   3.663   2.896  12.244 -1.0031  0.2313 -0.6170
   36MPD2    H1  565   3.600   3.093  11.873  2.8167  1.2605 -1.5464
   36MPD2    H2  566   3.974   3.117  12.061  0.7396  1.0226  1.1527
   36MPD2    H3  567   3.844   3.159  11.885  0.9491  0.3762  0.8910
   36MPD2     N  568   3.475   2.946  12.076  0.3502 -0.6454 -0.3708
   36MPD2    H5  569   3.456   2.889  12.157  1.5980 -0.5896 -0.0378
   36MPD2    N1  570   3.910   2.999  12.290  0.1076 -0.1822 -0.0488
   36MPD2    H7  571   4.002   3.037  12.273 -0.6695  1.0430 -1.5196
   37TMC2    C1  572   1.201   3.831  11.933 -0.5938  0.0153  0.0735
   37TMC2    C2  573   1.129   3.893  11.834  0.7428  0.8295  1.2251
   37TMC2    C3  574   1.198   3.924  11.722  0.3706 -0.8370 -0.5626
   37TMC2    C4  575   1.336   3.811  11.923  0.4159  0.5429 -0.1295
   37TMC2    C5  576   1.410   3.847  11.808  0.1291 -0.4238  0.0394
   37TMC2    C6  577   1.333   3.907  11.708  0.2291  0.3023  0.1229
   37TMC2     C  578   1.121   3.768  12.036  0.2846 -0.8089 -0.7583
   37TMC2     O  579   1.004   3.801  12.053 -0.3776  0.2710 -0.9639
   37TMC2     H  580   1.028   3.932  11.845  0.8090  0.9206  1.5230
   37TMC2    H1  581   1.388   3.774  12.011  0.0509 -0.9672 -0.5586
   37TMC2    H2  582   1.372   3.908  11.607 -1.2856 -0.1606 -0.4572
   37TMC2    C7  583   1.556   3.834  11.808 -0.0371  0.5163  0.4549
   37TMC2    C8  584   1.134   4.005  11.621  0.0314  0.0102 -0.3284
   37TMC2    O1  585   1.609   3.826  11.918  0.0721  0.1762  0.5297
   37TMC2    O2  586   1.205   4.063  11.537  0.4950 -0.5283  0.2142
   37TMC2    O5  587   1.006   3.966  11.613  0.3477 -0.3410  0.4323
   37TMC2    H5  588   0.972   3.907  11.683  2.4452 -0.7218  1.1441
   38MPD2     C  589   1.071   3.484  12.462 -0.1862 -0.0690 -0.7171
   38MPD2    C1  590   1.203   3.475  12.409 -0.0225  0.2221  1.1050
   38MPD2    C2  591   1.237   3.533  12.289 -0.7645 -0.5742  0.2739
   38MPD2    C3  592   1.140   3.598  12.218 -0.3572 -0.0069  0.1596
   38MPD2    C4  593   1.013   3.612  12.272  0.0190  0.2104 -0.2780
   38MPD2    C5  594   0.983   3.554  12.392 -0.1814  0.3620 -0.3082
   38MPD2     H  595   1.337   3.514  12.252 -1.0372  0.1222 -0.8154
   38MPD2    H1  596   0.937   3.664  12.214  0.2282 -0.6001 -1.2663
   38MPD2    H2  597   1.039   3.455  12.561 -2.7994  0.5767 -1.3789
   38MPD2    H3  598   0.882   3.558  12.430 -0.6824 -1.8403 -1.3835
   38MPD2     N  599   1.188   3.670  12.110 -0.1267  0.2515 -0.5508
   38MPD2    H5  600   1.288   3.658  12.093  0.0629 -1.9992  2.1679
   38MPD2    N1  601   1.307   3.412  12.479 -0.0604  0.6391 -0.1890
   38MPD2    H7  602   1.401   3.427  12.442 -0.6317  0.4285 -1.7096
   39TMC2    C1  603   0.472   4.383   1.513 -0.1644 -0.5071  0.3105
   39TMC2    C2  604   0.407   4.307   1.611  0.2495  0.6815  0.6226
   39TMC2    C3  605   0.482   4.277   1.717 -0.5018 -0.1002  0.3922
   39TMC2    C4  606   0.606   4.425   1.514  0.3150  0.3603 -0.1610
   39TMC2    C5  607   0.675   4.391   1.628 -0.0846 -0.4444  0.6957
   39TMC2    C6  608   0.610   4.323   1.735  0.2214  0.3145 -0.4383
   39TMC2     C  609   0.389   4.455   1.419 -0.1136 -0.1429  0.0629
   39TMC2     O  610   0.273   4.415   1.415  0.2141 -0.4473 -0.7573
   39TMC2     H  611   0.308   4.265   1.596 -0.0246  1.1497  1.1239
   39TMC2    H1  612   0.663   4.462   1.430  1.1488 -0.6989 -0.0587
   39TMC2    H2  613   0.677   4.304   1.818  0.0646  2.5062  0.1940
   39TMC2    C7  614   0.812   4.430   1.659  0.7188  0.4945 -0.3346
   39TMC2    C8  615   0.425   4.202   1.822  0.0040 -0.1492  0.1975
   39TMC2    O1  616   0.882   4.349   1.719  0.9061  0.4315 -0.2410
   39TMC2    O2  617   0.323   4.137   1.808  0.0695  0.0166  0.5339
   39TMC2    O5  618   0.455   4.266   1.938 -0.0597 -0.2349  0.2820
   39TMC2    H5  619   0.504   4.347   1.914 -1.5441  0.5617  0.0116
   40MPD2     C  620   0.464   0.030   1.245 -0.2249  0.2712  0.6260
   40MPD2    C1  621   0.386   4.666   1.292  0.4053 -0.0439 -0.1357
   40MPD2    C2  622   0.252   4.664   1.265  0.9426 -0.8398  0.1106
   40MPD2    C3  623   0.198   0.017   1.182 -0.3219  0.3048 -0.2598
   40MPD2    C4  624   0.280   0.112   1.116 -0.1085  0.6144  0.3664
   40MPD2    C5  625   0.413   0.116   1.152 -0.6116 -0.0529 -0.2034
   40MPD2     H  626   0.184   4.589   1.304  0.2900 -0.1834  0.2338
   40MPD2    H1  627   0.251   0.187   1.044 -1.8786  1.0118  1.4852
   40MPD2    H2  628   0.569   0.032   1.271  0.2641 -0.2074 -1.3475
   40MPD2    H3  629   0.486   0.189   1.118  1.3828 -1.5752  0.7928
   40MPD2     N  630   0.057   0.018   1.153 -0.5241  0.3805  0.5984
   40MPD2    H5  631   0.020   0.092   1.095 -0.3867  0.1523  0.2239
   40MPD2    N1  632   0.451   4.566   1.364 -0.1019  0.1328 -1.0993
   40MPD2    H7  633   0.551   4.576   1.380 -0.2247  1.4585 -1.1979
   41TMC2    C1  634   4.179   2.873  13.798 -0.6959 -0.1449 -0.0295
   41TMC2    C2  635   4.196   2.777  13.708 -0.5606  0.1127  0.0139
   41TMC2    C3  636   4.126   2.788  13.590  0.6663  0.1954 -0.0929
   41TMC2    C4  637   4.104   2.983  13.771  0.2856  0.0223 -0.1736
   41TMC2    C5  638   4.044   2.997  13.651 -0.3434  0.0864  0.2843
   41TMC2    C6  639   4.056   2.899  13.558 -0.6555 -0.1002 -0.1495
   41TMC2     C  640   4.239   2.856  13.932 -0.3976 -0.4830  0.1878
   41TMC2     O  641   4.348   2.801  13.935 -0.5047 -0.0490 -0.1352
   41TMC2     H  642   4.281   2.710  13.715 -0.7970  0.0116  1.9372
   41TMC2    H1  643   4.096   3.063  13.843  3.1968  2.0455 -2.0897
   41TMC2    H2  644   3.987   2.896  13.474  1.3981  2.4328 -1.9223
   41TMC2    C7  645   3.991   3.131  13.619  0.9259  0.2124 -0.0758
   41TMC2    C8  646   4.181   2.705  13.485  0.4058 -0.6468 -0.0357
   41TMC2    O1  647   3.990   3.224  13.701 -0.2721  0.0437 -0.0681
   41TMC2    O2  648   4.186   2.736  13.364  0.2492  0.1236  0.0471
   41TMC2    O5  649   4.166   2.575  13.522 -0.3100 -0.1358 -0.0036
   41TMC2    H5  650   4.132   2.570  13.613  0.3504  1.9102  0.3658
   42MPD2     C  651   4.304   2.911  14.217  0.5746 -0.1863 -0.3512
   42MPD2    C1  652   4.187   2.942  14.155 -0.2562 -0.8107 -0.3289
   42MPD2    C2  653   4.091   3.006  14.225  0.0444 -0.5926 -0.4982
   42MPD2    C3  654   4.105   3.045  14.357  0.7622  0.2235  0.5610
   42MPD2    C4  655   4.225   3.018  14.418  0.3745 -0.1473 -0.6336
   42MPD2    C5  656   4.324   2.951  14.352 -0.7907  0.1445  0.0171
   42MPD2     H  657   4.004   3.044  14.171  0.8356  1.1047 -0.5658
   42MPD2    H1  658   4.249   3.041  14.521  0.2039 -0.2610 -0.5675
   42MPD2    H2  659   4.383   2.850  14.174  1.8024  0.8964  0.3499
   42MPD2    H3  660   4.414   2.920  14.404  0.1228  1.3511 -0.8558
   42MPD2     N  661   4.010   3.130  14.425 -0.2063  0.3345 -0.2706
   42MPD2    H5  662   4.032   3.159  14.520 -0.3665  2.5262 -0.8869
   42MPD2    N1  663   4.162   2.916  14.023 -0.5164 -0.2145 -0.1994
   42MPD2    H7  664   4.071   2.943  13.986  1.0375  1.2478 -2.9197
   43TMC2    C1  665   0.265   1.910   0.680 -0.3070  0.7026  0.0275
   43TMC2    C2  666   0.138   1.939   0.622 -0.1687  0.6841 -0.6345
   43TMC2    C3  667   0.094   2.068   0.633  0.9507 -0.1374 -0.0784
   43TMC2    C4  668   0.344   2.002   0.732  0.4636  0.4392  0.3560
   43TMC2    C5  669   0.289   2.124   0.758 -0.8234  0.0165 -0.2689
   43TMC2    C6  670   0.167   2.158   0.706  0.1992 -0.2263 -0.3607
   43TMC2     C  671   0.316   1.780   0.653 -0.0847 -0.6862 -0.1259
   43TMC2     O  672   0.427   1.755   0.692  0.7443  0.9369  0.0703
   43TMC2     H  673   0.065   1.871   0.581  1.2996 -0.4379 -1.3637
   43TMC2    H1  674   0.449   1.977   0.745  0.8714  1.1595 -1.5160
   43TMC2    H2  675   0.127   2.258   0.717 -2.1970 -1.0249 -1.9674
   43TMC2    C7  676   0.375   2.238   0.772 -0.5897  0.1051  0.3850
   43TMC2    C8  677   4.704   2.116   0.575  0.1495 -0.3577  0.4631
   43TMC2    O1  678   0.344   2.347   0.722 -0.7407  0.5040  0.3973
   43TMC2    O2  679   4.666   2.230   0.602  0.4759 -0.4085 -0.5228
   43TMC2    O5  680   4.626   2.017   0.527  0.4073 -0.3326  0.4661
   43TMC2    H5  681   4.684   1.963   0.468  0.0888 -0.9063  0.6745
   44MPD2     C  682   0.265   1.289   0.510 -0.6229  0.6790 -0.4493
   44MPD2    C1  683   0.376   1.358   0.560  0.0733  0.1619  0.1102
   44MPD2    C2  684   0.368   1.494   0.587 -0.0829  0.5647  0.1980
   44MPD2    C3  685   0.242   1.556   0.575 -0.1862  0.0406  0.0487
   44MPD2    C4  686   0.137   1.489   0.518 -0.1311  0.4929 -0.7033
   44MPD2    C5  687   0.146   1.359   0.486 -0.7615 -0.2651 -0.1132
   44MPD2     H  688   0.464   1.536   0.613 -0.2186  0.1349  1.3765
   44MPD2    H1  689   0.039   1.535   0.505 -0.5983  0.6006  3.1246
   44MPD2    H2  690   0.270   1.182   0.492 -0.2975  0.1968  2.4871
   44MPD2    H3  691   0.059   1.309   0.445  0.1342 -1.1521 -0.9291
   44MPD2     N  692   0.218   1.690   0.608 -0.5372 -0.8933  0.0436
   44MPD2    H5  693   0.123   1.726   0.599 -0.3326 -0.3565  0.0336
   44MPD2    N1  694   0.497   1.299   0.587  0.8774 -0.2983  0.1875
   44MPD2    H7  695   0.576   1.363   0.589  0.2014  0.6011 -1.7935
   45TMC2    C1  696   1.028   2.755  10.131 -0.5104  0.9371 -0.4552
   45TMC2    C2  697   1.136   2.687  10.180 -0.3276 -0.0431  0.1539
   45TMC2    C3  698   1.201   2.755  10.285 -0.2368 -0.4287  0.4303
   45TMC2    C4  699   0.981   2.877  10.175  0.2613  0.3498 -0.1933
   45TMC2    C5  700   1.048   2.940  10.276  0.2690  0.2102  0.1639
   45TMC2    C6  701   1.163   2.883  10.327 -0.9872  0.1120 -0.1656
   45TMC2     C  702   0.945   2.681  10.033 -0.1003  0.0420 -0.5114
   45TMC2     O  703   0.944   2.557  10.038 -0.0079  0.0056 -0.2506
   45TMC2     H  704   1.172   2.594  10.138  0.5616 -0.5760  2.0710
   45TMC2    H1  705   0.889   2.926  10.145  0.2060 -0.8051 -1.9133
   45TMC2    H2  706   1.234   2.941  10.386  1.4387 -2.3035 -0.7410
   45TMC2    C7  707   1.031   3.084  10.292 -0.4984 -0.0814  0.7973
   45TMC2    C8  708   1.334   2.709  10.318 -0.2546 -0.0923 -0.6258
   45TMC2    O1  709   1.081   3.129  10.392 -0.7916 -0.2029 -0.1801
   45TMC2    O2  710   1.390   2.635  10.240 -0.0827  0.0413 -0.2636
   45TMC2    O5  711   1.326   2.687  10.456 -0.3255  0.3478  0.1477
   45TMC2    H5  712   1.261   2.746  10.498  0.3129  0.4815  0.9419
   46MPD2     C  713   0.685   2.598   9.898  0.3333  0.0019 -0.8862
   46MPD2    C1  714   0.726   2.727   9.930  0.2943 -0.0933  0.2229
   46MPD2    C2  715   0.631   2.829   9.896 -0.9350  0.3441  1.5035
   46MPD2    C3  716   0.511   2.805   9.838  0.5337  0.2221 -0.4534
   46MPD2    C4  717   0.471   2.675   9.819  0.1318  0.1682  0.3060
   46MPD2    C5  718   0.559   2.577   9.854 -0.1959  0.1597  0.6370
   46MPD2     H  719   0.649   2.935   9.914  0.5498  0.3482  0.0049
   46MPD2    H1  720   0.371   2.653   9.783 -0.4142 -0.5639  2.2886
   46MPD2    H2  721   0.747   2.509   9.903 -1.2097 -1.1945 -3.1379
   46MPD2    H3  722   0.535   2.474   9.829 -1.0890  0.2881  0.9365
   46MPD2     N  723   0.429   2.920   9.818  0.1299  0.5588 -0.2418
   46MPD2    H5  724   0.458   3.009   9.859  0.4742  0.2815  0.1199
   46MPD2    N1  725   0.853   2.766   9.983  0.6535 -0.5865 -0.6629
   46MPD2    H7  726   0.873   2.865   9.992  1.5915 -0.8613  0.3419
   47TMC2    C1  727   1.979   3.739   9.887  0.1993  0.1657 -0.1059
   47TMC2    C2  728   1.855   3.790   9.877 -0.4960  0.2433 -0.3021
   47TMC2    C3  729   1.753   3.700   9.881 -0.1466 -0.9865 -0.3991
   47TMC2    C4  730   2.019   3.609   9.894 -0.3941 -0.5266  0.1061
   47TMC2    C5  731   1.914   3.529   9.890 -1.0382  0.0719  0.4573
   47TMC2    C6  732   1.781   3.570   9.891 -0.1953 -0.2896 -1.0577
   47TMC2     C  733   2.088   3.836   9.896  0.3118  0.6326  0.2047
   47TMC2     O  734   2.052   3.949   9.923 -0.2243  0.6087 -0.3994
   47TMC2     H  735   1.829   3.895   9.889 -1.1216  0.1274 -0.6576
   47TMC2    H1  736   2.121   3.571   9.889  0.4639  1.9475 -1.5089
   47TMC2    H2  737   1.709   3.490   9.878  2.0989 -2.3355 -1.2939
   47TMC2    C7  738   1.947   3.392   9.925  0.6468  0.6967 -0.5855
   47TMC2    C8  739   1.612   3.743   9.868  0.8194 -0.0522  0.3092
   47TMC2    O1  740   1.892   3.301   9.866  0.4744  0.7243 -0.3745
   47TMC2    O2  741   1.579   3.858   9.835 -0.0741 -0.5867  0.4041
   47TMC2    O5  742   1.538   3.660   9.948  0.2612  0.5294  0.4605
   47TMC2    H5  743   1.595   3.600  10.001 -1.2005 -1.0483  0.2605
   48MPD2     C  744   2.344   3.995   9.960  0.1059 -0.1498 -0.4977
   48MPD2    C1  745   2.344   3.874   9.886  0.0918 -0.3666  0.3114
   48MPD2    C2  746   2.468   3.830   9.835 -0.2935 -0.2142 -0.3111
   48MPD2    C3  747   2.580   3.906   9.859 -0.1390  0.3492  0.5789
   48MPD2    C4  748   2.579   4.028   9.923  0.4867 -0.6732  0.7364
   48MPD2    C5  749   2.457   4.075   9.974  0.3243 -0.0233  0.5131
   48MPD2     H  750   2.469   3.737   9.779 -0.1445  0.1155 -0.8535
   48MPD2    H1  751   2.659   4.100   9.934  0.1502 -0.2880  0.6827
   48MPD2    H2  752   2.250   4.026  10.003 -0.8886 -2.2722 -1.1435
   48MPD2    H3  753   2.457   4.170  10.026  2.5611  0.6806 -0.7501
   48MPD2     N  754   2.700   3.855   9.801  0.3098  0.2862  0.3458
   48MPD2    H5  755   2.692   3.774   9.740 -1.2013 -0.2998  1.3048
   48MPD2    N1  756   2.223   3.795   9.867 -0.0736  0.4346 -0.1345
   48MPD2    H7  757   2.231   3.710   9.813 -2.3553  0.2900 -0.2463
   49TMC2    C1  758   1.624   1.426  10.420 -0.2405  0.7553  0.2367
   49TMC2    C2  759   1.680   1.421  10.294 -0.2890  0.5577 -0.5583
   49TMC2    C3  760   1.634   1.322  10.214 -0.8935 -0.0282 -0.0018
   49TMC2    C4  761   1.530   1.338  10.470  0.2864 -0.1546 -0.7935
   49TMC2    C5  762   1.496   1.241  10.379 -0.4092  1.1345  0.3085
   49TMC2    C6  763   1.546   1.229  10.251  0.1163 -0.2788 -0.5606
   49TMC2     C  764   1.679   1.532  10.504 -0.4296 -0.4970 -0.4194
   49TMC2     O  765   1.750   1.617  10.446 -0.2208  0.3631 -0.1226
   49TMC2     H  766   1.765   1.480  10.261 -0.1918 -0.0319 -1.3442
   49TMC2    H1  767   1.482   1.346  10.567  0.5071 -0.6753 -0.6426
   49TMC2    H2  768   1.501   1.157  10.183  0.2814 -0.6259 -0.3010
   49TMC2    C7  769   1.398   1.146  10.413 -1.1626 -0.4892 -0.4927
   49TMC2    C8  770   1.662   1.329  10.072  0.3530 -0.5611  0.0249
   49TMC2    O1  771   1.332   1.095  10.323 -0.0325  0.5661  0.0889
   49TMC2    O2  772   1.692   1.236   9.996  0.6508  0.4134  0.5552
   49TMC2    O5  773   1.575   1.420  10.031 -0.4886  0.2993 -0.4487
   49TMC2    H5  774   1.533   1.478  10.098  0.9076  0.8332 -0.0390
   50MPD2     C  775   1.762   1.714  10.735 -0.2146 -1.0550 -0.2785
   50MPD2    C1  776   1.715   1.585  10.746  0.1475  0.3721 -0.3492
   50MPD2    C2  777   1.713   1.534  10.874 -0.4033 -0.2223 -0.4192
   50MPD2    C3  778   1.755   1.608  10.981  0.9139 -0.3901  0.7038
   50MPD2    C4  779   1.783   1.741  10.969  0.1830  0.4270  0.6692
   50MPD2    C5  780   1.788   1.800  10.842  0.4968 -0.2470  0.7398
   50MPD2     H  781   1.683   1.430  10.882 -4.0555  0.9275  0.7381
   50MPD2    H1  782   1.820   1.797  11.054 -3.3654  3.9141 -0.1179
   50MPD2    H2  783   1.770   1.761  10.638  1.9166 -0.2283  0.2997
   50MPD2    H3  784   1.802   1.906  10.827  0.8059 -0.6912 -2.0847
   50MPD2     N  785   1.770   1.560  11.113  0.3066 -0.4496 -0.0162
   50MPD2    H5  786   1.786   1.634  11.181  1.1382 -0.0253 -0.6677
   50MPD2    N1  787   1.669   1.502  10.644  0.0149 -0.0185 -0.1462
   50MPD2    H7  788   1.638   1.408  10.668 -0.9167  0.3859  0.2578
   51TMC2    C1  789   2.758   4.604   1.729 -0.5410 -0.1097 -0.3552
   51TMC2    C2  790   2.658   4.669   1.803  0.0710  0.6917  0.1135
   51TMC2    C3  791   2.645   0.070   1.787  0.5427 -0.0421 -0.3411
   51TMC2    C4  792   2.836   4.678   1.646 -0.3791 -0.4127  0.1180
   51TMC2    C5  793   2.814   0.075   1.633  0.4176  0.7129  1.0335
   51TMC2    C6  794   2.719   0.136   1.702 -0.4672 -0.3014 -0.0212
   51TMC2     C  795   2.801   4.467   1.754  0.3451  0.3800 -0.6205
   51TMC2     O  796   2.913   4.445   1.711 -0.2801 -0.1012  0.1992
   51TMC2     H  797   2.612   4.627   1.892  0.3518  0.6251  0.2249
   51TMC2    H1  798   2.923   4.629   1.604  0.9937  2.3396 -0.1936
   51TMC2    H2  799   2.713   0.245   1.704 -1.1979 -0.3572  0.9473
   51TMC2    C7  800   2.905   0.159   1.553  0.1458  0.0540  0.0846
   51TMC2    C8  801   2.527   0.141   1.830 -0.2341 -0.5649 -0.1008
   51TMC2    O1  802   2.874   0.275   1.525 -0.7605  0.5457  0.0644
   51TMC2    O2  803   2.487   0.240   1.776  0.0966 -0.2913 -0.2711
   51TMC2    O5  804   2.500   0.106   1.960 -0.1848 -0.5537 -0.4300
   51TMC2    H5  805   2.576   0.067   2.009 -0.1905  1.3019  1.0382
   52MPD2     C  806   2.708   3.959   1.703 -0.1603 -0.1380  0.5174
   52MPD2    C1  807   2.809   4.043   1.661  0.3557  1.0244 -0.4315
   52MPD2    C2  808   2.800   4.177   1.684 -0.1372  0.0369  0.3667
   52MPD2    C3  809   2.699   4.236   1.759  0.0003 -0.1214  0.2107
   52MPD2    C4  810   2.591   4.148   1.792  0.0982  0.4172  0.0236
   52MPD2    C5  811   2.596   4.012   1.762 -0.1214 -0.4421  0.2584
   52MPD2     H  812   2.885   4.238   1.656  0.1102  0.4978  2.0998
   52MPD2    H1  813   2.506   4.185   1.849 -0.9451 -2.8533  0.6055
   52MPD2    H2  814   2.708   3.853   1.679  2.3125  0.3402 -1.5107
   52MPD2    H3  815   2.517   3.942   1.786 -2.3703  0.9792 -3.0615
   52MPD2     N  816   2.696   4.378   1.787  0.9780  0.0763 -0.6539
   52MPD2    H5  817   2.610   4.417   1.823 -0.6157 -2.5149 -1.6916
   52MPD2    N1  818   2.924   4.008   1.585 -0.3050 -0.2377  0.2247
   52MPD2    H7  819   2.975   4.088   1.548 -1.3308 -1.2909 -3.4908
   53TMC2    C1  820   2.304   3.792  11.866 -0.0280 -0.4932 -0.0744
   53TMC2    C2  821   2.437   3.790  11.836  0.1630 -0.3712  0.5307
   53TMC2    C3  822   2.533   3.800  11.932  0.4075 -0.3330  0.1939
   53TMC2    C4  823   2.271   3.779  12.003  0.0553 -0.0133 -0.8222
   53TMC2    C5  824   2.373   3.760  12.094  0.2363 -0.2736  0.7229
   53TMC2    C6  825   2.508   3.772  12.063 -0.4898 -1.1563  0.5391
   53TMC2     C  826   2.205   3.782  11.751 -0.8844  0.9054 -0.1797
   53TMC2     O  827   2.260   3.779  11.641 -0.1890  0.0985  0.0484
   53TMC2     H  828   2.472   3.797  11.734 -1.6970  3.0590  0.1014
   53TMC2    H1  829   2.167   3.766  12.033 -0.9514  0.7199 -4.0481
   53TMC2    H2  830   2.591   3.766  12.132  1.8937  1.0342 -2.1554
   53TMC2    C7  831   2.319   3.748  12.231  0.4490  0.4353 -0.3227
   53TMC2    C8  832   2.668   3.814  11.879 -0.7360 -0.7890  0.0444
   53TMC2    O1  833   2.206   3.795  12.253 -0.9070 -0.8785  0.2640
   53TMC2    O2  834   2.696   3.778  11.767  0.0546  0.4261  0.0508
   53TMC2    O5  835   2.746   3.877  11.964 -0.4221 -0.3419 -0.4060
   53TMC2    H5  836   2.690   3.925  12.028  1.2640 -0.1812  0.9529
   54MPD2     C  837   2.005   3.813  11.546  0.3218  0.7163 -0.4527
   54MPD2    C1  838   1.974   3.814  11.684  0.0704  0.0394 -0.1885
   54MPD2    C2  839   1.845   3.813  11.731  0.0651  0.2886  0.1142
   54MPD2    C3  840   1.737   3.819  11.638 -0.5440 -0.2305 -0.0942
   54MPD2    C4  841   1.769   3.825  11.501  0.4756  0.8693  0.6053
   54MPD2    C5  842   1.897   3.823  11.460  0.7988  0.4693  0.4465
   54MPD2     H  843   1.836   3.823  11.839  1.6019 -0.2318  0.2985
   54MPD2    H1  844   1.682   3.828  11.436 -0.7470  0.7426  2.2084
   54MPD2    H2  845   2.102   3.804  11.499  0.5334  1.0068 -0.0649
   54MPD2    H3  846   1.915   3.822  11.353  2.0155  0.3056  0.6497
   54MPD2     N  847   1.603   3.831  11.679  0.3698  0.3490  0.1404
   54MPD2    H5  848   1.531   3.839  11.608 -1.0172 -1.0301  1.3952
   54MPD2    N1  849   2.075   3.803  11.781 -0.1447  0.5304  0.1388
   54MPD2    H7  850   2.040   3.804  11.877 -2.5111  2.2551 -0.7266
   55TMC2    C1  851   3.686   1.278  17.384 -0.5160  0.2436  0.2913
   55TMC2    C2  852   3.629   1.216  17.278  0.6118 -0.0560 -0.0466
   55TMC2    C3  853   3.647   1.078  17.269 -0.4474  0.9352 -0.6295
   55TMC2    C4  854   3.739   1.209  17.487  0.4133  0.0514 -0.0986
   55TMC2    C5  855   3.722   1.068  17.492  0.9338  0.1339  0.2869
   55TMC2    C6  856   3.680   1.003  17.378  0.1327  0.3543  0.5507
   55TMC2     C  857   3.665   1.415  17.420  0.7412  0.1255 -0.4797
   55TMC2     O  858   3.683   1.465  17.529  0.2965  0.3563 -0.0520
   55TMC2     H  859   3.558   1.261  17.210 -1.3062 -0.5775  1.6205
   55TMC2    H1  860   3.787   1.265  17.567 -0.5938 -0.9402  1.1969
   55TMC2    H2  861   3.691   0.895  17.375  0.6412  0.4292 -0.2773
   55TMC2    C7  862   3.757   0.996  17.618 -0.9847 -0.0497 -0.2406
   55TMC2    C8  863   3.649   1.020  17.136  0.2208 -0.0823 -0.1622
   55TMC2    O1  864   3.794   0.884  17.606  0.1404 -0.0310 -0.4364
   55TMC2    O2  865   3.654   0.900  17.120  0.4438 -1.1567  0.1334
   55TMC2    O5  866   3.659   1.122  17.042 -0.5339 -0.1072 -0.1394
   55TMC2    H5  867   3.660   1.216  17.070  1.0836 -0.5845  1.4406
   56MPD2     C  868   3.604   1.682  17.177 -0.3249  0.5093  0.2427
   56MPD2    C1  869   3.604   1.624  17.302  0.2660  0.1070  0.4180
   56MPD2    C2  870   3.560   1.693  17.410  0.3052  0.6513  0.2241
   56MPD2    C3  871   3.507   1.823  17.392  1.0964 -0.1823 -0.9636
   56MPD2    C4  872   3.501   1.881  17.261  0.2535 -0.7193  0.3852
   56MPD2    C5  873   3.559   1.812  17.160 -0.0765 -0.1660 -0.2597
   56MPD2     H  874   3.569   1.649  17.508 -0.9479 -2.5948 -1.1184
   56MPD2    H1  875   3.467   1.980  17.236  1.5420 -0.0346  1.3214
   56MPD2    H2  876   3.663   1.629  17.103 -0.0682  4.0082 -2.0558
   56MPD2    H3  877   3.569   1.866  17.066  2.2031 -0.7619 -0.3547
   56MPD2     N  878   3.461   1.886  17.511  0.0453 -0.8786  0.2186
   56MPD2    H5  879   3.453   1.830  17.595 -0.2620  0.3355  1.0035
   56MPD2    N1  880   3.642   1.491  17.312  0.3718  0.5986  0.4130
   56MPD2    H7  881   3.667   1.450  17.223  1.9406  0.2223  1.0214
   57TMC2    C1  882   2.566   2.422  13.336  0.4707 -0.0256  0.4186
   57TMC2    C2  883   2.514   2.473  13.221  0.4827  0.7254  0.5427
   57TMC2    C3  884   2.599   2.534  13.132 -0.0205  0.7223 -0.5032
   57TMC2    C4  885   2.695   2.421  13.369  0.9589  0.2448  0.1385
   57TMC2    C5  886   2.779   2.480  13.280 -0.0046  0.4253 -0.3119
   57TMC2    C6  887   2.739   2.533  13.161  0.4952 -0.3393 -0.2486
   57TMC2     C  888   2.467   2.364  13.424  0.2978 -0.2826 -0.1216
   57TMC2     O  889   2.492   2.370  13.544 -0.4486 -0.7071 -0.1219
   57TMC2     H  890   2.410   2.479  13.192  0.0853 -0.9347  1.6168
   57TMC2    H1  891   2.734   2.383  13.462  1.6484 -0.5724 -0.4843
   57TMC2    H2  892   2.816   2.577  13.099 -0.1372 -0.6754 -1.2846
   57TMC2    C7  893   2.919   2.458  13.307  0.9932 -0.2557 -0.6564
   57TMC2    C8  894   2.538   2.590  13.015 -0.0681  0.3258  0.0881
   57TMC2    O1  895   2.995   2.531  13.251 -0.5323 -0.5060 -0.6162
   57TMC2    O2  896   2.422   2.577  12.980 -0.0193 -0.4728 -0.3134
   57TMC2    O5  897   2.618   2.688  12.970  0.5343  0.0296 -0.1884
   57TMC2    H5  898   2.713   2.675  12.991 -0.1145 -2.2695  1.4057
   58MPD2     C  899   2.055   2.064  13.521  0.2218 -0.3109  0.0118
   58MPD2    C1  900   2.121   2.149  13.605  0.8958  0.5023 -0.9158
   58MPD2    C2  901   2.224   2.229  13.550 -0.0601  0.7429 -0.7794
   58MPD2    C3  902   2.259   2.228  13.415 -0.6538  0.5787 -0.4104
   58MPD2    C4  903   2.190   2.144  13.336 -0.0591 -0.2796 -0.0024
   58MPD2    C5  904   2.088   2.069  13.387  0.4703 -0.2564 -0.4782
   58MPD2     H  905   2.273   2.301  13.614  0.1461 -0.6847  0.6664
   58MPD2    H1  906   2.205   2.137  13.229  1.3305 -1.1694  0.2551
   58MPD2    H2  907   1.974   2.001  13.556  0.6840  0.1672  2.0000
   58MPD2    H3  908   2.038   2.004  13.316  0.5257  1.0860 -1.7343
   58MPD2     N  909   2.371   2.292  13.358  0.1433 -0.0662 -0.0914
   58MPD2    H5  910   2.385   2.280  13.258 -0.3825  1.6442 -0.3734
   58MPD2    N1  911   2.100   2.164  13.749 -0.3356  0.0839 -0.3657
   58MPD2    H7  912   2.142   2.242  13.797 -0.9920 -0.3743  0.9450
   59TMC2    C1  913   4.639   2.057  13.090 -0.2260  0.2740 -0.0163
   59TMC2    C2  914   4.622   1.953  13.177 -0.2580 -0.4334 -0.3008
   59TMC2    C3  915   4.502   1.884  13.175 -0.5759  0.1001 -0.0266
   59TMC2    C4  916   4.533   2.110  13.017 -0.3923  0.4063  0.9248
   59TMC2    C5  917   4.413   2.046  13.024 -0.2461  0.1367  0.1196
   59TMC2    C6  918   4.397   1.934  13.100  0.0567 -0.6266 -0.1911
   59TMC2     C  919   0.023   2.066  13.008 -0.0232  0.3360 -0.0838
   59TMC2     O  920   0.002   2.095  12.891 -0.3372  0.3182 -0.1509
   59TMC2     H  921   4.708   1.909  13.227 -0.3598  1.9307  1.9210
   59TMC2    H1  922   4.544   2.204  12.965  0.5439 -0.2167 -0.0068
   59TMC2    H2  923   4.308   1.873  13.089  0.3119 -0.6639 -2.1129
   59TMC2    C7  924   4.287   2.098  12.973 -0.0876 -0.5224 -0.0075
   59TMC2    C8  925   4.487   1.747  13.216  0.7902  0.4887  0.2861
   59TMC2    O1  926   4.192   2.039  13.022 -0.6110  0.1479 -0.2874
   59TMC2    O2  927   4.413   1.665  13.167  0.0638  0.1714  0.1268
   59TMC2    O5  928   4.564   1.725  13.325  0.4050 -0.3203 -0.1622
   59TMC2    H5  929   4.623   1.801  13.344  0.2011  0.2643 -1.8060
   60MPD2     C  930   0.289   2.050  12.879 -0.6450 -0.2044 -0.5663
   60MPD2    C1  931   0.263   2.059  13.017  0.1616  0.0397 -0.1962
   60MPD2    C2  932   0.375   2.073  13.096 -0.1624  0.4968  0.3000
   60MPD2    C3  933   0.508   2.068  13.053 -0.5491  0.2193 -0.4799
   60MPD2    C4  934   0.523   2.045  12.921 -0.2928 -0.8107 -0.5578
   60MPD2    C5  935   0.417   2.050  12.834  0.3909 -0.0253  0.0177
   60MPD2     H  936   0.348   2.082  13.201  1.3271  0.3257  0.7044
   60MPD2    H1  937   0.627   2.055  12.893 -0.0966 -1.7398 -0.1506
   60MPD2    H2  938   0.210   2.038  12.805  1.6907 -0.8158 -2.9612
   60MPD2    H3  939   0.430   2.046  12.726  0.5110  0.2223  0.0237
   60MPD2     N  940   0.622   2.083  13.135  0.1528  0.4408  0.9002
   60MPD2    H5  941   0.714   2.088  13.094  0.7631 -1.1867  2.0747
   60MPD2    N1  942   0.140   2.043  13.078 -0.0286 -0.2923  0.0735
   60MPD2    H7  943   0.136   2.019  13.176  1.8577  0.3742  0.3215
   61TMC2    C1  944   4.228   3.604  15.898 -0.3167  0.0809 -0.0361
   61TMC2    C2  945   4.209   3.577  16.028  0.2857 -0.0917 -0.8740
   61TMC2    C3  946   4.242   3.671  16.123 -0.2600 -0.0646  0.6841
   61TMC2    C4  947   4.309   3.710  15.860 -0.3383  0.4056 -0.0814
   61TMC2    C5  948   4.359   3.791  15.956 -0.1169 -0.4947  0.4414
   61TMC2    C6  949   4.317   3.776  16.085  0.1147 -0.1383 -0.1191
   61TMC2     C  950   4.219   3.503  15.797  0.1354 -0.2722 -0.3101
   61TMC2     O  951   4.120   3.432  15.797 -0.0306 -0.0579 -0.0281
   61TMC2     H  952   4.170   3.481  16.057 -0.8607  1.2542  2.0355
   61TMC2    H1  953   4.322   3.735  15.756  0.3664 -0.0429 -0.0977
   61TMC2    H2  954   4.355   3.841  16.163  1.7946 -0.1127 -0.9446
   61TMC2    C7  955   4.437   3.905  15.906 -1.3250  0.3576  0.2199
   61TMC2    C8  956   4.254   3.629  16.258 -0.2813  0.3316 -0.1375
   61TMC2    O1  957   4.447   3.926  15.785 -0.3055  0.2576  0.1301
   61TMC2    O2  958   4.273   3.512  16.287  0.0962  0.3099  1.1183
   61TMC2    O5  959   4.256   3.730  16.346  0.7624 -0.3036  0.3199
   61TMC2    H5  960   4.234   3.818  16.308 -0.9494 -1.2478 -0.8948
   62MPD2     C  961   4.240   3.308  15.566  0.3230 -0.1908 -0.1308
   62MPD2    C1  962   4.335   3.405  15.597 -0.3091 -0.2831 -0.4071
   62MPD2    C2  963   4.432   3.433  15.505 -0.9609 -0.7645  0.6090
   62MPD2    C3  964   4.429   3.374  15.380  0.3368  0.5120  0.4508
   62MPD2    C4  965   4.335   3.268  15.360  0.3273  1.1174 -0.5943
   62MPD2    C5  966   4.249   3.234  15.455  0.2703  0.2099 -0.3567
   62MPD2     H  967   4.496   3.520  15.518 -0.3420 -0.7490 -2.6695
   62MPD2    H1  968   4.344   3.215  15.266 -0.1597 -0.7464  0.4182
   62MPD2    H2  969   4.157   3.287  15.632 -0.4181  1.6257 -0.4831
   62MPD2    H3  970   4.170   3.160  15.449 -1.0727  1.5070  1.0416
   62MPD2     N  971   4.508   3.427  15.270  0.3296  0.3774 -0.2770
   62MPD2    H5  972   4.482   3.409  15.173  1.5132 -1.9623 -0.1465
   62MPD2    N1  973   4.318   3.504  15.702  0.3576  0.2692  0.0914
   62MPD2    H7  974   4.392   3.571  15.717  0.5235  0.2435 -0.6518
   63TMC2    C1  975   3.504   3.571  10.314  0.2659  0.3350 -0.2149
   63TMC2    C2  976   3.591   3.529  10.213  0.1059 -0.6736 -0.2243
   63TMC2    C3  977   3.538   3.512  10.088  0.1770 -0.1571  0.1328
   63TMC2    C4  978   3.369   3.556  10.291  0.0145 -0.2935 -0.2411
   63TMC2    C5  979   3.327   3.536  10.163  0.0359  0.2905  0.1167
   63TMC2    C6  980   3.408   3.519  10.052 -0.6301  0.0408 -0.2249
   63TMC2     C  981   3.554   3.576  10.447 -0.2736  0.7735 -0.8495
   63TMC2     O  982   3.667   3.617  10.461 -0.3762  0.2302 -0.1560
   63TMC2     H  983   3.696   3.544  10.234 -0.3021 -1.1485  2.0639
   63TMC2    H1  984   3.308   3.567  10.380 -0.1705  2.9380 -0.7749
   63TMC2    H2  985   3.379   3.517   9.948 -0.1190  1.1329 -0.3834
   63TMC2    C7  986   3.182   3.565  10.150 -0.2237 -0.3429 -0.5257
   63TMC2    C8  987   3.627   3.513   9.965 -0.5923 -0.2830  0.0460
   63TMC2    O1  988   3.122   3.608  10.249  0.1745 -0.2180  0.7717
   63TMC2    O2  989   3.580   3.479   9.857  0.1255  0.0061 -0.0591
   63TMC2    O5  990   3.750   3.570   9.989  0.2508  0.4415  0.5447
   63TMC2    H5  991   3.768   3.609  10.077  2.5288  2.8709 -0.9855
   64MPD2     C  992   3.596   3.491  10.947  0.1214  0.0506 -0.1522
   64MPD2    C1  993   3.498   3.407  10.901  0.5001 -0.4361 -1.0532
   64MPD2    C2  994   3.458   3.428  10.770 -0.4321  0.9632  0.1409
   64MPD2    C3  995   3.508   3.525  10.681  0.0820  0.2377 -0.0873
   64MPD2    C4  996   3.589   3.613  10.734  0.6001  0.3674 -0.3266
   64MPD2    C5  997   3.638   3.594  10.862  0.0711  0.1568 -0.1807
   64MPD2     H  998   3.382   3.363  10.727  1.3652 -1.7212  1.0459
   64MPD2    H1  999   3.631   3.694  10.675  1.5335 -1.3235 -1.9957
   64MPD2    H2 1000   3.647   3.467  11.040  1.7125  0.0050 -1.0430
   64MPD2    H3 1001   3.714   3.662  10.899  1.9941 -2.4959  0.7144
   64MPD2     N 1002   3.472   3.525  10.546 -0.0908  0.0275  0.2243
   64MPD2    H5 1003   3.384   3.481  10.520  0.3210 -2.1225  2.5173
   64MPD2    N1 1004   3.446   3.299  10.976 -0.1852 -0.1051  0.1266
   64MPD2    H7 1005   3.376   3.245  10.926 -0.2683 -1.0637  1.2727
   65TMC2    C1 1006   0.902   3.554  15.802 -0.2113 -0.0025  0.8358
   65TMC2    C2 1007   0.999   3.548  15.704 -0.4086 -0.8367  0.7366
   65TMC2    C3 1008   1.087   3.651  15.693  0.1213  0.0434 -0.3720
   65TMC2    C4 1009   0.896   3.669  15.885  0.7708  0.9811 -0.0371
   65TMC2    C5 1010   0.997   3.761  15.886 -0.1112 -0.1423 -0.5491
   65TMC2    C6 1011   1.089   3.755  15.783 -0.4991 -0.0506 -0.0066
   65TMC2     C 1012   0.864   3.437  15.874 -0.4189  0.2870  0.9965
   65TMC2     O 1013   0.850   3.452  15.994  0.1180 -0.7313 -0.1002
   65TMC2     H 1014   1.018   3.464  15.639  0.6083 -0.8261  1.0276
   65TMC2    H1 1015   0.805   3.682  15.943 -0.1619  1.5766 -1.6322
   65TMC2    H2 1016   1.166   3.832  15.782 -1.3173  0.7924  0.9818
   65TMC2    C7 1017   0.962   3.897  15.934  0.4848 -0.5616 -1.2473
   65TMC2    C8 1018   1.205   3.631  15.613 -0.0688  0.0815 -0.0508
   65TMC2    O1 1019   1.011   3.991  15.873 -0.1786  0.1647  0.7492
   65TMC2    O2 1020   1.323   3.661  15.640  0.0447  0.0765  0.8170
   65TMC2    O5 1021   1.165   3.623  15.490  0.4115  0.2328  0.2744
   65TMC2    H5 1022   1.070   3.597  15.483  0.5764 -0.2396 -0.1550
   66MPD2     C 1023   0.729   3.191  15.962 -0.1340 -0.1740 -0.2428
   66MPD2    C1 1024   0.745   3.227  15.826  0.3095  0.5218 -0.2797
   66MPD2    C2 1025   0.682   3.146  15.734 -0.2273 -0.0334 -0.2270
   66MPD2    C3 1026   0.589   3.043  15.770  0.4424 -0.4923  0.1725
   66MPD2    C4 1027   0.573   3.017  15.903 -0.1362  0.4917 -0.3598
   66MPD2    C5 1028   0.643   3.087  15.998 -0.4765  0.3676 -0.0780
   66MPD2     H 1029   0.681   3.176  15.630 -0.5683 -1.1006 -0.5283
   66MPD2    H1 1030   0.506   2.940  15.942 -1.6038  2.4884  1.0690
   66MPD2    H2 1031   0.778   3.246  16.042 -1.3775 -0.2807  0.5987
   66MPD2    H3 1032   0.629   3.070  16.105  2.7555  1.0902  0.4716
   66MPD2     N 1033   0.524   2.955  15.680 -0.3612  0.2715  0.5076
   66MPD2    H5 1034   0.469   2.877  15.715 -1.7973  0.7369 -0.7026
   66MPD2    N1 1035   0.821   3.337  15.786  0.3494  0.4034  0.3458
   66MPD2    H7 1036   0.834   3.352  15.687 -0.4135  0.0362  0.1978
   67TMC2    C1 1037   0.445   2.749  14.396 -0.6660 -0.1261 -0.3680
   67TMC2    C2 1038   0.396   2.866  14.457  0.2019 -0.5024 -0.3027
   67TMC2    C3 1039   0.472   2.908  14.566 -0.3241  0.3487  1.2012
   67TMC2    C4 1040   0.561   2.685  14.430 -0.0013  0.2796 -0.6728
   67TMC2    C5 1041   0.633   2.735  14.538  0.2615 -0.2509  0.6958
   67TMC2    C6 1042   0.596   2.850  14.597 -0.1609  0.1652 -0.2141
   67TMC2     C 1043   0.371   2.681  14.296  0.1596  0.6557  0.2521
   67TMC2     O 1044   0.367   2.557  14.312 -0.3171  0.1237 -0.0894
   67TMC2     H 1045   0.304   2.919  14.434  0.3063  0.1764  0.8093
   67TMC2    H1 1046   0.586   2.585  14.397  0.3962  0.1783 -0.0647
   67TMC2    H2 1047   0.657   2.892  14.677  0.9876 -2.1022  0.0996
   67TMC2    C7 1048   0.750   2.663  14.588  0.0178 -0.3435  0.2865
   67TMC2    C8 1049   0.411   3.002  14.655  0.7469  0.4627 -0.3741
   67TMC2    O1 1050   0.788   2.564  14.518 -0.1034 -0.3919 -0.1882
   67TMC2    O2 1051   0.480   3.051  14.738  0.2102 -0.1155  0.4190
   67TMC2    O5 1052   0.274   2.988  14.666  0.4368 -0.2029  0.0413
   67TMC2    H5 1053   0.235   2.933  14.595 -1.3054  0.5763  0.4021
   68MPD2     C 1054   0.106   2.596  14.169 -0.3587 -0.0177  0.9153
   68MPD2    C1 1055   0.154   2.723  14.170 -0.7305 -0.8136 -0.6188
   68MPD2    C2 1056   0.067   2.822  14.118  0.4003  0.1854 -0.2553
   68MPD2    C3 1057   4.682   2.797  14.065 -1.2658 -0.4676 -0.4228
   68MPD2    C4 1058   4.640   2.664  14.052 -0.1838  0.1156 -0.5981
   68MPD2    C5 1059   4.718   2.568  14.114 -0.5889 -0.1939 -0.0052
   68MPD2     H 1060   0.105   2.923  14.125 -0.5080  0.4862  0.3351
   68MPD2    H1 1061   4.550   2.641  13.996  0.7896 -0.5101 -1.9182
   68MPD2    H2 1062   0.154   2.504  14.200 -0.2281 -0.3998 -0.4327
   68MPD2    H3 1063   4.680   2.467  14.099  4.0273 -1.9397  0.0620
   68MPD2     N 1064   4.604   2.894  14.004 -0.1886  0.3882 -0.5063
   68MPD2    H5 1065   4.519   2.872  13.954 -0.0599  0.0603 -0.5795
   68MPD2    N1 1066   0.279   2.753  14.224  0.6758  0.0523 -0.5544
   68MPD2    H7 1067   0.298   2.852  14.212  0.9178  0.3978  2.7618
   69TMC2    C1 1068   2.399   4.205  12.602 -0.6868 -0.2274  0.6360
   69TMC2    C2 1069   2.318   4.300  12.658 -0.1479 -0.2817 -0.0306
   69TMC2    C3 1070   2.247   4.374  12.569 -0.7328  0.3969  0.6284
   69TMC2    C4 1071   2.409   4.185  12.472 -0.6292 -0.3389  0.2280
   69TMC2    C5 1072   2.334   4.259  12.391 -0.2210 -0.1633 -0.3410
   69TMC2    C6 1073   2.251   4.356  12.430 -0.1592 -0.1156  0.6044
   69TMC2     C 1074   2.473   4.120  12.691  0.4332  0.1787 -0.1415
   69TMC2     O 1075   2.494   4.004  12.662  0.4579  0.0175  0.0167
   69TMC2     H 1076   2.317   4.320  12.765 -1.9329 -0.3952 -0.0241
   69TMC2    H1 1077   2.474   4.116  12.419  0.5126  0.0917  1.0650
   69TMC2    H2 1078   2.186   4.404  12.357 -0.8316 -0.3686  1.0357
   69TMC2    C7 1079   2.348   4.223  12.251 -0.3059  0.1423  0.1457
   69TMC2    C8 1080   2.169   4.490  12.622 -0.1091  0.0097  0.8801
   69TMC2    O1 1081   2.456   4.188  12.203 -0.4370 -0.7885 -0.3109
   69TMC2    O2 1082   2.108   4.482  12.730  0.1016  0.2875  0.5597
   69TMC2    O5 1083   2.145   4.578  12.521 -0.4263 -0.2535 -0.4976
   69TMC2    H5 1084   2.217   4.568  12.454 -0.8127  0.8662 -1.0851
   70MPD2     C 1085   2.607   4.211  13.027  0.2014 -0.5642 -0.2893
   70MPD2    C1 1086   2.560   4.126  12.930 -0.1119 -0.7994  0.7648
   70MPD2    C2 1087   2.593   3.987  12.940  0.0856 -0.6501  0.4061
   70MPD2    C3 1088   2.661   3.943  13.052  0.3999  0.4223 -0.0584
   70MPD2    C4 1089   2.729   4.035  13.129 -0.5276  0.1604  0.1869
   70MPD2    C5 1090   2.703   4.168  13.116 -0.2613 -0.4193  0.5986
   70MPD2     H 1091   2.547   3.922  12.867 -0.1743 -0.4680  0.4085
   70MPD2    H1 1092   2.796   4.005  13.208 -1.1465 -2.7163 -0.3929
   70MPD2    H2 1093   2.589   4.318  13.026 -2.3383 -0.9716  0.0901
   70MPD2    H3 1094   2.760   4.236  13.179 -1.4568 -0.2495  1.5035
   70MPD2     N 1095   2.672   3.810  13.097 -0.0585  0.1001 -0.5100
   70MPD2    H5 1096   2.734   3.796  13.176 -0.7986  1.7511  0.3619
   70MPD2    N1 1097   2.492   4.179  12.818  0.0938 -0.2690  0.5473
   70MPD2    H7 1098   2.485   4.280  12.816 -0.6291 -0.2816  2.7897
   71TMC2    C1 1099   0.332   3.851   1.627  0.1897 -0.6546  0.1681
   71TMC2    C2 1100   0.437   3.762   1.657  0.0927 -0.6807 -0.7855
   71TMC2    C3 1101   0.424   3.675   1.768  0.6288  0.0198  0.1848
   71TMC2    C4 1102   0.216   3.835   1.692 -0.5456 -0.1006 -0.1514
   71TMC2    C5 1103   0.200   3.740   1.791  0.0696  0.1865 -0.2596
   71TMC2    C6 1104   0.302   3.658   1.828 -0.3605 -0.7646  0.1536
   71TMC2     C 1105   0.345   3.936   1.512 -0.5260 -0.2405  0.6601
   71TMC2     O 1106   0.238   3.966   1.461  0.1535 -0.0994  0.7609
   71TMC2     H 1107   0.534   3.767   1.609 -0.0178 -0.6925 -1.0091
   71TMC2    H1 1108   0.139   3.907   1.668  0.8610  2.4464  2.9794
   71TMC2    H2 1109   0.289   3.583   1.905  0.7699 -1.1270 -0.0171
   71TMC2    C7 1110   0.062   3.710   1.831 -0.1172 -0.2815 -0.0568
   71TMC2    C8 1111   0.519   3.561   1.771 -0.1733  0.2999  0.1119
   71TMC2    O1 1112   0.052   3.632   1.929 -0.3163 -0.3811  0.6858
   71TMC2    O2 1113   0.582   3.531   1.670  0.0428  0.4092 -0.4963
   71TMC2    O5 1114   0.487   3.466   1.858 -0.2326  0.1836  0.2939
   71TMC2    H5 1115   0.455   3.505   1.942  1.3095  0.8327  0.5815
   72MPD2     C 1116   0.603   4.242   1.188  0.1274 -0.2044  0.0356
   72MPD2    C1 1117   0.465   4.219   1.197 -0.9540 -0.3756 -0.6009
   72MPD2    C2 1118   0.420   4.132   1.293 -0.2212 -0.2763  0.1563
   72MPD2    C3 1119   0.505   4.074   1.387  0.4714  0.1788  0.7030
   72MPD2    C4 1120   0.637   4.098   1.380  1.4598 -0.2967  0.0550
   72MPD2    C5 1121   0.685   4.187   1.291  0.7934 -0.8017 -0.0278
   72MPD2     H 1122   0.314   4.114   1.303 -0.0529 -1.3777 -0.1262
   72MPD2    H1 1123   0.708   4.048   1.445 -0.4719 -0.3052  2.1283
   72MPD2    H2 1124   0.643   4.306   1.110 -1.2350  0.6068 -0.0010
   72MPD2    H3 1125   0.793   4.193   1.281  0.4911  2.1301 -1.3591
   72MPD2     N 1126   0.476   3.979   1.486 -0.3264 -0.0267 -0.4224
   72MPD2    H5 1127   0.551   3.950   1.548  1.0849 -1.1432 -2.6551
   72MPD2    N1 1128   0.375   4.271   1.103  0.2554 -0.0204 -0.3339
   72MPD2    H7 1129   0.283   4.229   1.114  0.0865  0.4555  0.0971
   73TMC2    C1 1130   4.082   0.673  13.505  0.6341 -0.2282  0.2927
   73TMC2    C2 1131   3.953   0.706  13.535 -0.1618 -0.6077 -0.6015
   73TMC2    C3 1132   3.902   0.650  13.646 -0.1223  0.1410  0.2496
   73TMC2    C4 1133   4.165   0.598  13.580  0.2072 -0.2430  0.2340
   73TMC2    C5 1134   4.116   0.564  13.703 -0.2602 -0.8066 -0.3539
   73TMC2    C6 1135   3.980   0.583  13.733 -0.4810  0.6531  0.0210
   73TMC2     C 1136   4.164   0.773  13.438  0.2971 -0.1075 -0.4127
   73TMC2     O 1137   4.278   0.787  13.480 -0.6859  0.2519  0.3618
   73TMC2     H 1138   3.899   0.780  13.476 -0.2019 -1.0640 -1.1378
   73TMC2    H1 1139   4.259   0.559  13.543  0.5763  1.3758 -0.5237
   73TMC2    H2 1140   3.945   0.551  13.831 -1.2731 -1.2144 -0.8817
   73TMC2    C7 1141   4.206   0.586  13.814 -0.2353 -0.4799 -0.2254
   73TMC2    C8 1142   3.809   0.733  13.719  0.3871  0.4538 -0.2111
   73TMC2    O1 1143   4.167   0.554  13.927 -0.6892 -0.6018  0.1483
   73TMC2    O2 1144   3.836   0.767  13.832 -0.4401  0.0938  0.1921
   73TMC2    O5 1145   3.739   0.798  13.625  0.0142  0.5020 -0.3229
   73TMC2    H5 1146   3.736   0.754  13.537  2.2669 -0.1384 -0.0748
   74MPD2     C 1147   4.188   1.248  13.255  0.0493 -0.0881 -0.3553
   74MPD2    C1 1148   4.268   1.177  13.349  0.6827 -0.3015 -0.4822
   74MPD2    C2 1149   4.239   1.049  13.379 -0.1788  0.0405  0.7350
   74MPD2    C3 1150   4.143   0.982  13.310  0.4334  0.2270 -0.3350
   74MPD2    C4 1151   4.068   1.046  13.209  0.3422  0.2833  0.1169
   74MPD2    C5 1152   4.095   1.175  13.185 -0.0024  0.5765  0.1117
   74MPD2     H 1153   4.294   1.001  13.459  1.4402  1.0041  0.1895
   74MPD2    H1 1154   3.980   0.993  13.173 -0.1537  1.0353  0.2261
   74MPD2    H2 1155   4.202   1.350  13.219  0.8817  0.4386  1.4971
   74MPD2    H3 1156   4.040   1.233  13.112 -0.2834 -1.5876 -1.3895
   74MPD2     N 1157   4.096   0.862  13.358 -0.2904 -0.2918 -0.5626
   74MPD2    H5 1158   4.005   0.831  13.326 -1.5220  1.2034  1.5579
   74MPD2    N1 1159   4.351   1.267  13.428 -0.0901 -0.3769 -0.1586
   74MPD2    H7 1160   4.348   1.365  13.404  2.3107 -0.1843  0.3799
   75TMC2    C1 1161   4.550   3.113  13.910  0.9598  0.1637  0.1696
   75TMC2    C2 1162   4.578   3.246  13.911 -0.3635  0.4352  0.3197
   75TMC2    C3 1163   4.521   3.327  13.817 -0.2752  0.3086 -0.4348
   75TMC2    C4 1164   4.482   3.062  13.804  0.3211  0.6028  0.7502
   75TMC2    C5 1165   4.437   3.144  13.703  0.9711 -0.6178  0.2289
   75TMC2    C6 1166   4.451   3.279  13.714 -0.3335  0.0745 -0.4892
   75TMC2     C 1167   4.649   3.023  13.979 -0.2697 -0.0752  0.4571
   75TMC2     O 1168   0.015   3.082  14.018 -0.7394  0.0455 -0.4524
   75TMC2     H 1169   4.603   3.293  14.006  0.4639 -0.1196  0.3814
   75TMC2    H1 1170   4.466   2.955  13.791  3.5559  0.0922  0.9571
   75TMC2    H2 1171   4.408   3.346  13.641  0.0731 -0.5615 -1.3174
   75TMC2    C7 1172   4.399   3.088  13.575  0.0907 -0.1729 -0.3995
   75TMC2    C8 1173   4.545   3.468  13.818 -0.1933 -0.3458  0.2320
   75TMC2    O1 1174   4.394   2.967  13.570 -0.0041 -0.1279 -0.2330
   75TMC2    O2 1175   4.503   3.550  13.742 -0.3971  0.2941  0.0778
   75TMC2    O5 1176   4.645   3.491  13.904  0.1158 -0.3125  0.0259
   75TMC2    H5 1177   4.694   3.423  13.955  0.7678 -1.0084 -1.5317
   76TMC2    C1 1178   3.044   3.487  12.079 -0.2662  0.0669  0.0142
   76TMC2    C2 1179   2.931   3.522  12.139  1.0729 -0.1516 -0.1388
   76TMC2    C3 1180   2.881   3.440  12.233  0.5049  0.1884 -0.3495
   76TMC2    C4 1181   3.124   3.373  12.118  0.2164  0.2112  0.2398
   76TMC2    C5 1182   3.055   3.294  12.204  0.4795  0.2923  0.1048
   76TMC2    C6 1183   2.937   3.320  12.260 -0.4972 -0.1108  0.5222
   76TMC2     C 1184   3.090   3.588  11.986  0.2313  0.2307 -0.4647
   76TMC2     O 1185   3.051   3.700  12.009  0.0485 -0.9850 -0.1369
   76TMC2     H 1186   2.872   3.608  12.113  2.0518  0.8460  0.9206
   76TMC2    H1 1187   3.217   3.354  12.066 -0.1798 -0.5173 -0.2055
   76TMC2    H2 1188   2.901   3.251  12.336  1.4164 -1.3620  0.2832
   76TMC2    C7 1189   3.125   3.177  12.269  0.0149 -1.3181  0.8243
   76TMC2    C8 1190   2.741   3.455  12.267 -0.2134 -0.1106  0.5945
   76TMC2    O1 1191   3.054   3.073  12.290 -0.3425  0.1642  0.2555
   76TMC2    O2 1192   2.664   3.517  12.197  0.2549  0.0783 -0.0523
   76TMC2    O5 1193   2.741   3.450  12.399  0.3587  0.3284  0.2667
   76TMC2    H5 1194   2.819   3.408  12.441  1.6397  1.7666 -0.6644
   77MPD2     C 1195   3.105   3.744  11.524 -0.3841 -0.1161 -0.7891
   77MPD2    C1 1196   3.005   3.765  11.618  0.2400  0.2672 -1.0344
   77MPD2    C2 1197   3.021   3.689  11.739 -0.2419 -0.6393  0.3762
   77MPD2    C3 1198   3.129   3.602  11.755  0.4700  0.3306  0.1044
   77MPD2    C4 1199   3.213   3.579  11.649 -0.3967  0.4579  0.6042
   77MPD2    C5 1200   3.196   3.650  11.537  0.0853 -0.5476  0.4051
   77MPD2     H 1201   2.949   3.712  11.818 -1.2373 -0.4636 -0.5762
   77MPD2    H1 1202   3.288   3.501  11.644 -0.0522  0.7123  1.8320
   77MPD2    H2 1203   3.124   3.805  11.436  0.1233  0.2797 -0.4007
   77MPD2    H3 1204   3.271   3.642  11.459  1.3816  0.5999  1.5257
   77MPD2     N 1205   3.151   3.533  11.880 -0.2606  0.3110 -0.0255
   77MPD2    H5 1206   3.217   3.457  11.896  0.7192  0.6995 -2.2637
   77MPD2    N1 1207   2.905   3.859  11.602 -0.0132  0.2849 -0.7162
   77MPD2    H7 1208   2.830   3.854  11.670  0.1183  0.8312 -0.5358
   78TMC2    C1 1209   0.479   2.802   1.547  0.2435  0.2000 -0.2815
   78TMC2    C2 1210   0.470   2.796   1.688  0.6043 -0.4866  0.1660
   78TMC2    C3 1211   0.549   2.880   1.753 -0.2763 -0.1137 -0.1183
   78TMC2    C4 1212   0.546   2.904   1.484 -0.4346  1.0546  0.6414
   78TMC2    C5 1213   0.615   2.994   1.569 -0.2823  0.2522 -0.2002
   78TMC2    C6 1214   0.619   2.983   1.702 -0.8003 -0.0383  0.5505
   78TMC2     C 1215   0.408   2.691   1.479 -0.4147 -0.2751 -0.0863
   78TMC2     O 1216   0.356   2.602   1.548 -0.0690  0.2517 -0.2724
   78TMC2     H 1217   0.414   2.721   1.743 -0.0636 -1.5976 -1.9861
   78TMC2    H1 1218   0.538   2.908   1.376 -0.4104 -1.3496  0.5504
   78TMC2    H2 1219   0.676   3.053   1.763  0.7833  0.0377 -1.0268
   78TMC2    C7 1220   0.709   3.087   1.503  0.4592  0.0663 -0.4958
   78TMC2    C8 1221   0.573   2.855   1.899  0.1263 -0.3424  0.0955
   78TMC2    O1 1222   0.784   3.149   1.577  0.4173 -0.1145 -0.4184
   78TMC2    O2 1223   0.507   2.779   1.965 -0.1581 -0.1615  0.0056
   78TMC2    O5 1224   0.702   2.888   1.912 -0.1478  0.2736 -0.1480
   78TMC2    H5 1225   0.753   2.902   1.829 -1.6072 -1.5828 -1.3459
   79MPD1     C 1226   0.256   2.480   1.027 -0.2970  0.1488 -0.9823
   79MPD1    C1 1227   0.186   2.479   1.149 -0.5364  0.1157  0.0067
   79MPD1    C2 1228   0.242   2.557   1.257  0.0011 -0.6545  0.2769
   79MPD1    C3 1229   0.365   2.617   1.245 -0.0476 -0.5369 -0.1035
   79MPD1    C4 1230   0.437   2.602   1.127 -0.3040 -0.4676  0.0320
   79MPD1    C5 1231   0.383   2.540   1.019 -0.0635 -0.0651  0.1003
   79MPD1     H 1232   0.186   2.570   1.349  0.7446 -2.6569  1.0254
   79MPD1    H1 1233   0.543   2.625   1.127  0.0459 -2.1630  2.2152
   79MPD1    H2 1234   0.221   2.420   0.943 -0.3402 -2.3988  0.8720
   79MPD1    H3 1235   0.441   2.535   0.927 -1.8041 -0.1204 -0.9981
   79MPD1     N 1236   0.429   2.697   1.343 -0.4735  0.0800 -0.4878
   79MPD1    H5 1237   0.516   2.741   1.314 -1.3627  1.3275 -1.2825
   79MPD1    N1 1238   0.048   2.446   1.149 -0.0896  0.6241 -1.2307
   79MPD1    H6 1239   0.022   2.355   1.111  0.5248 -0.5790  1.2495
   79MPD1    H7 1240   0.006   2.503   1.076  1.1115  0.1795 -2.2634
   80TMC2    C1 1241   2.403   3.280  12.250 -0.6672  0.1574  0.3537
   80TMC2    C2 1242   2.442   3.285  12.380  0.1724 -0.5565 -0.0908
   80TMC2    C3 1243   2.513   3.177  12.429 -0.5275 -0.6259 -0.1859
   80TMC2    C4 1244   2.427   3.168  12.175  0.1161  0.2846 -0.5690
   80TMC2    C5 1245   2.499   3.065  12.232 -0.1162  0.2155 -0.3840
   80TMC2    C6 1246   2.541   3.062  12.356  0.5579 -0.6753 -0.2569
   80TMC2     C 1247   2.285   3.357  12.202 -0.9170  0.4403  0.9063
   80TMC2     O 1248   2.269   3.365  12.078 -0.1206  0.2232  0.0237
   80TMC2     H 1249   2.437   3.379  12.434  0.2311  1.4170 -3.5020
   80TMC2    H1 1250   2.402   3.163  12.069  0.4185 -4.4132 -0.4398
   80TMC2    H2 1251   2.603   2.977  12.382  4.0458  2.1590  0.7526
   80TMC2    C7 1252   2.468   2.932  12.178  0.3157 -0.0367 -0.3015
   80TMC2    C8 1253   2.543   3.192  12.571  0.1579  0.0383  0.2833
   80TMC2    O1 1254   2.463   2.919  12.058  0.1400 -0.2316 -0.5064
   80TMC2    O2 1255   2.472   3.263  12.643 -0.5788  0.0068 -0.4622
   80TMC2    O5 1256   2.639   3.104  12.608 -0.8003  0.4098  0.0139
   80TMC2    H5 1257   2.695   3.063  12.538 -0.2485  0.2476  0.5470
   81MPD2     C 1258   2.014   3.492  12.172  0.3344  0.2584  0.2539
   81MPD2    C1 1259   2.060   3.429  12.286  0.0921 -0.3631 -0.6027
   81MPD2    C2 1260   1.978   3.435  12.400  0.1453 -0.3709  0.4194
   81MPD2    C3 1261   1.845   3.484  12.389  0.3775 -0.1771  0.3060
   81MPD2    C4 1262   1.799   3.538  12.273 -0.7525  0.7700 -0.3374
   81MPD2    C5 1263   1.890   3.552  12.171 -0.0170 -0.4645 -0.6670
   81MPD2     H 1264   2.020   3.389  12.488  0.3088 -2.0902 -0.5650
   81MPD2    H1 1265   1.700   3.582  12.268 -0.6555  0.9217 -0.8692
   81MPD2    H2 1266   2.074   3.500  12.082  1.3826  2.8800  1.1877
   81MPD2    H3 1267   1.862   3.605  12.080 -0.2810 -3.0467 -2.0679
   81MPD2     N 1268   1.750   3.455  12.492  0.1209 -0.1148  0.7383
   81MPD2    H5 1269   1.651   3.464  12.471  0.9384  0.8981 -2.7186
   81MPD2    N1 1270   2.192   3.371  12.301  0.2785 -0.6709 -0.0746
   81MPD2    H7 1271   2.221   3.340  12.394  1.6444  0.0164 -0.2690
   82TMC2    C1 1272   0.421   2.066  11.126  0.4239 -0.4515 -0.0948
   82TMC2    C2 1273   0.548   2.114  11.110  0.6979  0.1741 -0.2962
   82TMC2    C3 1274   0.645   2.055  11.183 -0.2416  0.1527 -0.7410
   82TMC2    C4 1275   0.392   1.945  11.178 -0.7403 -0.7237  0.0448
   82TMC2    C5 1276   0.497   1.877  11.239  0.2049 -0.3875 -0.1723
   82TMC2    C6 1277   0.619   1.941  11.253 -0.0647 -0.2288 -0.6194
   82TMC2     C 1278   0.313   2.139  11.062  0.0635  0.3856 -0.1410
   82TMC2     O 1279   0.226   2.073  11.006 -0.7289 -0.1490 -0.0492
   82TMC2     H 1280   0.557   2.193  11.036 -0.6497 -0.8918 -1.6085
   82TMC2    H1 1281   0.290   1.907  11.178 -0.4134 -1.5933 -0.4135
   82TMC2    H2 1282   0.704   1.887  11.294 -0.7144 -1.1342 -0.4885
   82TMC2    C7 1283   0.458   1.785  11.338 -0.0964  0.6961  0.0077
   82TMC2    C8 1284   0.778   2.078  11.140  0.1824 -0.5479 -0.5771
   82TMC2    O1 1285   0.520   1.778  11.447  0.1374  0.6320 -0.2160
   82TMC2    O2 1286   0.867   1.997  11.152 -0.0995 -0.0272  0.1064
   82TMC2    O5 1287   0.794   2.211  11.131 -0.0262  0.2174 -0.8790
   82TMC2    H5 1288   0.718   2.264  11.161  0.3616  0.2548  0.0316
   83MPD2     C 1289   0.088   2.594  10.952  0.2728  0.6333  0.2566
   83MPD2    C1 1290   0.032   2.467  10.963 -0.7762  0.1836 -0.2034
   83MPD2    C2 1291   0.110   2.357  10.984 -0.0220 -0.5049 -0.0938
   83MPD2    C3 1292   0.246   2.376  11.015  0.1267  0.1724 -0.7716
   83MPD2    C4 1293   0.300   2.502  11.006 -0.2305 -0.5811 -0.3085
   83MPD2    C5 1294   0.220   2.605  10.967  0.1943  0.3635 -0.2863
   83MPD2     H 1295   0.060   2.262  11.003  0.2233 -0.5256  0.4436
   83MPD2    H1 1296   0.405   2.518  11.028 -0.2155  2.4871 -2.7106
   83MPD2    H2 1297   0.033   2.681  10.916  3.3469  2.2840 -0.4489
   83MPD2    H3 1298   0.269   2.702  10.964 -0.9304  0.8902 -1.4907
   83MPD2     N 1299   0.339   2.276  11.055 -0.0665 -0.6768 -0.2754
   83MPD2    H5 1300   0.428   2.316  11.082 -1.4962  2.3021  0.0598
   83MPD2    N1 1301   4.627   2.453  10.933  0.1111 -0.7626 -0.2884
   83MPD2    H7 1302   4.572   2.535  10.912 -2.4343 -2.9243 -2.0846
   84TMC2    C1 1303   1.892   1.488  11.478 -0.3835 -0.1986 -0.4403
   84TMC2    C2 1304   1.821   1.385  11.543  0.1152  0.0811  0.3904
   84TMC2    C3 1305   1.767   1.286  11.469 -0.6977 -0.2947  0.5496
   84TMC2    C4 1306   1.891   1.503  11.345 -1.2406 -0.2522 -1.1294
   84TMC2    C5 1307   1.827   1.401  11.279  0.1160 -0.4447  0.0163
   84TMC2    C6 1308   1.783   1.286  11.335  0.3024 -0.0268 -0.2792
   84TMC2     C 1309   1.921   1.611  11.560 -0.8243 -0.8614  0.3856
   84TMC2     O 1310   1.860   1.617  11.665 -0.0059  0.2552 -0.0606
   84TMC2     H 1311   1.806   1.403  11.649 -2.2725 -2.4496  0.4595
   84TMC2    H1 1312   1.941   1.581  11.288  1.0809 -1.1993 -0.3718
   84TMC2    H2 1313   1.742   1.204  11.276 -0.9570  0.0216  0.5381
   84TMC2    C7 1314   1.800   1.430  11.145  0.4900  0.9025 -0.0955
   84TMC2    C8 1315   1.735   1.155  11.535 -0.4382 -0.1043  0.6121
   84TMC2    O1 1316   1.782   1.330  11.079  0.2647  0.0722  0.0960
   84TMC2    O2 1317   1.700   1.053  11.474 -0.2081 -0.1442  0.0671
   84TMC2    O5 1318   1.692   1.166  11.661  0.2106 -0.3352  0.0513
   84TMC2    H5 1319   1.691   1.256  11.698 -2.3263 -0.3880  0.0855
   85TMC2    C1 1320   3.116   4.136  16.324 -0.7959 -0.3044 -0.8583
   85TMC2    C2 1321   3.238   4.106  16.384 -0.4192  0.3874  0.1415
   85TMC2    C3 1322   3.347   4.176  16.357  0.3331  0.2366  0.3883
   85TMC2    C4 1323   3.102   4.252  16.245 -0.5504 -0.1802  0.5126
   85TMC2    C5 1324   3.218   4.326  16.226  0.1249 -0.1404  0.4629
   85TMC2    C6 1325   3.336   4.290  16.272  0.1899 -0.4593 -0.1477
   85TMC2     C 1326   3.003   4.075  16.395 -0.8026  0.8393 -0.4336
   85TMC2     O 1327   3.035   4.011  16.495 -0.8189 -0.6022 -0.4591
   85TMC2     H 1328   3.241   4.023  16.453 -2.8790  0.3908  0.2433
   85TMC2    H1 1329   3.005   4.267  16.199  0.9389  0.6591 -2.3972
   85TMC2    H2 1330   3.424   4.352  16.259 -1.0720  1.3342 -0.0605
   85TMC2    C7 1331   3.206   4.438  16.129 -0.3406  0.7618  0.7854
   85TMC2    C8 1332   3.470   4.143  16.429 -0.5145 -0.3005 -0.4900
   85TMC2    O1 1333   3.311   4.469  16.072 -0.1958 -0.4436  0.2013
   85TMC2    O2 1334   3.550   4.230  16.465  0.7099 -0.0891  0.3229
   85TMC2    O5 1335   3.481   4.014  16.466 -0.8927  0.3527  0.4441
   85TMC2    H5 1336   3.416   3.965  16.412 -0.6128  1.1133 -0.6037
   86MPD2     C 1337   2.536   3.979  16.544 -0.3480  0.3752 -0.5091
   86MPD2    C1 1338   2.526   3.976  16.409 -0.5181  0.0472  0.2430
   86MPD2    C2 1339   2.651   4.004  16.342  0.2071 -0.4076 -0.2967
   86MPD2    C3 1340   2.766   4.041  16.411 -0.2492 -0.5526  0.3215
   86MPD2    C4 1341   2.764   4.053  16.548  0.7015 -0.5668  0.7036
   86MPD2    C5 1342   2.647   4.022  16.611  0.5270  0.4281 -0.5692
   86MPD2     H 1343   2.638   4.008  16.234  1.6842 -1.7547 -0.5142
   86MPD2    H1 1344   2.841   4.103  16.607 -0.1994  1.2910  0.3197
   86MPD2    H2 1345   2.449   3.961  16.605  0.3585  1.2351  0.7543
   86MPD2    H3 1346   2.651   4.030  16.719  0.1357  0.5018 -0.5638
   86MPD2     N 1347   2.880   4.078  16.331 -0.1081 -0.0668  0.1385
   86MPD2    H5 1348   2.880   4.072  16.230  0.9633  4.1215 -0.0965
   86MPD2    N1 1349   2.408   3.951  16.326  0.2917 -0.5185 -0.9265
   86MPD2    H7 1350   2.421   3.952  16.226 -2.0437 -1.1932 -1.2285
   87TMC2    C1 1351   4.626   2.998   0.754 -0.0255 -0.2820 -0.1148
   87TMC2    C2 1352   4.493   3.001   0.777 -0.5885  0.1633  0.1359
   87TMC2    C3 1353   4.450   2.999   0.909 -0.2338  0.1833  0.5465
   87TMC2    C4 1354   4.710   2.976   0.856  0.5643 -0.5019 -0.2534
   87TMC2    C5 1355   4.663   2.949   0.981  0.6241 -0.4664 -0.7253
   87TMC2    C6 1356   4.536   2.973   1.013  0.2374  0.5478  0.2240
   87TMC2     C 1357   4.669   2.974   0.617  1.2517 -0.6054  0.1144
   87TMC2     O 1358   4.584   2.936   0.535 -0.3413  0.1065  0.8690
   87TMC2     H 1359   4.420   3.026   0.701 -1.9084  1.4738  1.8378
   87TMC2    H1 1360   0.081   2.964   0.843  1.2002  3.5839  1.1205
   87TMC2    H2 1361   4.504   2.962   1.116 -0.6538 -0.2818 -0.1430
   87TMC2    C7 1362   0.025   2.938   1.086 -0.0590 -0.9536  0.5454
   87TMC2    C8 1363   4.319   3.052   0.947  0.1507  0.2155  0.7185
   87TMC2    O1 1364   0.144   2.977   1.081 -0.6699 -0.1059  0.1276
   87TMC2    O2 1365   4.227   3.062   0.871  0.0840  0.6051  0.3146
   87TMC2    O5 1366   4.343   3.131   1.054  0.2054 -0.1325 -0.1489
   87TMC2    H5 1367   4.436   3.128   1.085  0.2256 -1.8541 -0.3654
   88MPD2     C 1368   0.011   2.762   1.407 -0.2533 -0.8258 -0.4266
   88MPD2    C1 1369   0.040   2.874   1.327  0.1612 -0.2504  0.1599
   88MPD2    C2 1370   0.124   2.979   1.374  0.4492  0.1086  0.0734
   88MPD2    C3 1371   0.155   2.976   1.506 -0.1068 -0.2953  0.2449
   88MPD2    C4 1372   0.128   2.874   1.590 -0.7342 -0.4463  0.7363
   88MPD2    C5 1373   0.056   2.765   1.536 -0.6591  0.8553  0.3025
   88MPD2     H 1374   0.152   3.057   1.304 -1.7014  1.7349  1.0596
   88MPD2    H1 1375   0.137   2.876   1.698 -0.8243  2.3333  0.7077
   88MPD2    H2 1376   4.679   2.685   1.371 -2.0928 -0.1758  1.6579
   88MPD2    H3 1377   0.017   2.696   1.609  1.1871  1.1898  1.6100
   88MPD2     N 1378   0.216   3.088   1.567 -0.3317 -0.5440 -1.1081
   88MPD2    H5 1379   0.208   3.087   1.668  2.0650 -0.3887 -0.9379
   88MPD2    N1 1380   4.714   2.869   1.194 -0.0889  0.2563 -0.3003
   88MPD2    H7 1381   4.634   2.806   1.190  0.0794  0.1478 -2.1121
   89TMC2    C1 1382   1.249   0.338   1.314 -0.2725 -0.0588 -0.1135
   89TMC2    C2 1383   1.368   0.326   1.244 -0.2211 -0.2863 -0.8748
   89TMC2    C3 1384   1.366   0.370   1.113 -0.0402 -0.0613  0.0945
   89TMC2    C4 1385   1.139   0.403   1.269  0.3114  0.0985  0.4049
   89TMC2    C5 1386   1.147   0.451   1.138  0.9553  0.1058 -0.7129
   89TMC2    C6 1387   1.259   0.432   1.060 -1.0217 -0.3665 -0.1186
   89TMC2     C 1388   1.243   0.245   1.422 -0.2256 -0.1398 -0.8047
   89TMC2     O 1389   1.346   0.243   1.489  0.3849 -0.3890 -0.2159
   89TMC2     H 1390   1.452   0.270   1.284 -0.7912 -2.3173 -2.5280
   89TMC2    H1 1391   1.051   0.396   1.333  0.1872  0.8045  0.3064
   89TMC2    H2 1392   1.265   0.466   0.958  0.6560 -2.4156 -0.6971
   89TMC2    C7 1393   1.027   0.530   1.092 -0.6307 -0.2651  0.2034
   89TMC2    C8 1394   1.498   0.388   1.046 -0.1965  0.4690  0.1808
   89TMC2    O1 1395   0.925   0.498   1.146 -0.4272  0.6058  0.7057
   89TMC2    O2 1396   1.505   0.413   0.926  0.6245 -0.2749 -0.6414
   89TMC2    O5 1397   1.598   0.394   1.137 -0.5361  0.0705  0.1966
   89TMC2    H5 1398   1.561   0.412   1.226  1.0990 -0.8895  1.0657
   90MPD2     C 1399   1.080   4.564   1.668  0.8074 -0.5311 -0.1269
   90MPD2    C1 1400   0.973   4.617   1.605 -0.3764  0.6842 -0.2017
   90MPD2    C2 1401   0.994   4.730   1.530  0.0124 -0.4352  0.0336
   90MPD2    C3 1402   1.111   0.065   1.534  0.1168  0.1919 -0.3724
   90MPD2    C4 1403   1.213   0.021   1.616  0.5296  0.0595  0.2451
   90MPD2    C5 1404   1.194   4.641   1.686 -0.3052 -1.2365 -0.6152
   90MPD2     H 1405   0.907   0.029   1.475  1.6709  1.7067 -1.2371
   90MPD2    H1 1406   1.303   0.079   1.631 -0.9892  2.5754 -0.3684
   90MPD2    H2 1407   1.070   4.483   1.739  0.1993 -1.2006 -0.9650
   90MPD2    H3 1408   1.272   4.603   1.752  0.4114 -0.3831 -0.9719
   90MPD2     N 1409   1.127   0.173   1.442 -0.4013  0.0160 -0.2672
   90MPD2    H5 1410   1.044   0.187   1.385 -0.9180 -1.0920  0.2079
   90MPD2    N1 1411   0.849   4.545   1.592  0.5469 -0.2703 -0.1219
   90MPD2    H7 1412   0.775   4.588   1.538  0.4342  2.0928  1.8999
   91TMC2    C1 1413   2.736   0.985  16.861  0.0331 -0.0849  0.0196
   91TMC2    C2 1414   2.768   0.977  16.996  0.0356 -0.1203  0.3125
   91TMC2    C3 1415   2.690   1.034  17.089 -0.2031 -0.0392 -0.6905
   91TMC2    C4 1416   2.621   1.054  16.813  0.2508  0.0446 -0.1717
   91TMC2    C5 1417   2.546   1.111  16.915  0.5010 -0.3725  0.5929
   91TMC2    C6 1418   2.580   1.102  17.052  0.0786  0.5348 -0.3063
   91TMC2     C 1419   2.824   0.911  16.775 -0.2065 -0.4384  0.3614
   91TMC2     O 1420   2.775   0.861  16.676 -0.1080 -0.0060 -0.5736
   91TMC2     H 1421   2.851   0.915  17.027 -2.0754 -2.7444  0.6321
   91TMC2    H1 1422   2.596   1.052  16.708 -0.6362  0.3501  0.0335
   91TMC2    H2 1423   2.516   1.148  17.126 -0.4051 -2.2152  0.9755
   91TMC2    C7 1424   2.417   1.179  16.890  0.6598 -0.0153  0.8377
   91TMC2    C8 1425   2.709   0.994  17.227 -0.4521 -0.2836  0.2086
   91TMC2    O1 1426   2.380   1.264  16.974  1.2421 -0.0784 -0.7707
   91TMC2    O2 1427   2.613   1.000  17.299 -0.2405  0.1375  0.2711
   91TMC2    O5 1428   2.810   0.911  17.247  0.1177  0.1931 -0.4339
   91TMC2    H5 1429   2.883   0.943  17.189  0.8946  0.6819  0.8160
   92MPD2     C 1430   3.026   0.700  16.752 -0.1020 -0.0800  0.0882
   92MPD2    C1 1431   3.051   0.832  16.785 -0.9426  0.3283 -0.2447
   92MPD2    C2 1432   3.181   0.875  16.792  0.3694 -0.4566 -0.0816
   92MPD2    C3 1433   3.283   0.784  16.767 -0.4434 -0.1172  0.3717
   92MPD2    C4 1434   3.262   0.650  16.722 -0.1110  0.1067 -0.1947
   92MPD2    C5 1435   3.127   0.617  16.716  0.0005  0.6075 -0.6061
   92MPD2     H 1436   3.203   0.978  16.819 -0.8240  0.1499 -1.4421
   92MPD2    H1 1437   3.340   0.576  16.715 -0.1593  0.0404 -0.0264
   92MPD2    H2 1438   2.928   0.654  16.746  0.1846 -0.9196  1.9009
   92MPD2    H3 1439   3.106   0.514  16.688  2.0022 -0.0553  0.3053
   92MPD2     N 1440   3.405   0.845  16.772 -0.7960  0.3800  0.3925
   92MPD2    H5 1441   3.403   0.944  16.794  0.8629  0.1763  1.4617
   92MPD2    N1 1442   2.952   0.933  16.800  0.0236  0.6352  0.2219
   92MPD2    H7 1443   2.981   1.017  16.849 -1.0470 -0.3087  2.5154
   93TMC2    C1 1444   4.650   0.412  14.013  0.4104  0.3843  0.7677
   93TMC2    C2 1445   4.566   0.463  14.110 -0.6031  0.1287 -0.1877
   93TMC2    C3 1446   4.637   0.509  14.215 -0.1814  0.0250 -0.3348
   93TMC2    C4 1447   0.051   0.423  14.014  0.6387  0.7784 -0.1655
   93TMC2    C5 1448   0.116   0.471  14.125 -0.0756 -0.8666 -1.0720
   93TMC2    C6 1449   0.038   0.500  14.232  0.9439  0.4115  0.4973
   93TMC2     C 1450   4.602   0.339  13.895  0.4724 -0.1907  1.6479
   93TMC2     O 1451   4.678   0.285  13.821  0.3017  0.0138 -0.0607
   93TMC2     H 1452   4.459   0.473  14.103 -0.2359  4.9492  1.4675
   93TMC2    H1 1453   0.109   0.386  13.931  0.2685  0.4222 -0.2680
   93TMC2    H2 1454   0.087   0.538  14.321 -0.1737  0.4617  1.0878
   93TMC2    C7 1455   0.254   0.508  14.123 -0.1978  0.0571 -0.8738
   93TMC2    C8 1456   4.555   0.530  14.332 -0.2100 -0.2030 -0.5218
   93TMC2    O1 1457   0.313   0.514  14.232  0.2934 -0.1432 -0.0805
   93TMC2    O2 1458   4.453   0.464  14.354 -1.1820  0.2212 -0.1483
   93TMC2    O5 1459   4.581   0.652  14.386 -0.8176 -0.3396 -0.5377
   93TMC2    H5 1460   4.656   0.699  14.344  0.1750 -0.9775  0.4956
   94MPD2     C 1461   4.421   0.144  13.749  0.0459  0.9398 -0.4114
   94MPD2    C1 1462   4.376   0.235  13.840  0.6639  0.0169  0.2220
   94MPD2    C2 1463   4.239   0.233  13.863 -0.3602  0.0590  0.5906
   94MPD2    C3 1464   4.159   0.148  13.794 -0.5369  0.3492 -0.2874
   94MPD2    C4 1465   4.214   0.048  13.712 -0.7606  0.6362  0.4075
   94MPD2    C5 1466   4.346   0.051  13.687  0.7154  0.0144  0.1458
   94MPD2     H 1467   4.203   0.308  13.932  0.5278 -0.1659  1.3078
   94MPD2    H1 1468   4.143   4.710  13.674 -0.3188  0.7722 -0.6870
   94MPD2    H2 1469   4.526   0.141  13.723  0.6709  0.9063  2.1042
   94MPD2    H3 1470   4.396   4.719  13.618 -0.0684  1.1180 -1.5084
   94MPD2     N 1471   4.020   0.151  13.820 -0.3906  0.3023 -0.2131
   94MPD2    H5 1472   3.965   0.091  13.759  0.8577  1.0655 -2.0992
   94MPD2    N1 1473   4.464   0.326  13.909  0.0064  0.4947 -0.2009
   94MPD2    H7 1474   4.431   0.382  13.988  0.6314 -0.2846  0.6140
   95TMC2    C1 1475   4.265   2.805  15.808  0.4963 -0.3147  0.0212
   95TMC2    C2 1476   4.290   2.918  15.886  0.5359 -0.3027 -0.1427
   95TMC2    C3 1477   4.188   2.948  15.972  0.2101  0.2360 -0.1781
   95TMC2    C4 1478   4.163   2.719  15.830  0.7724 -0.0904  0.5960
   95TMC2    C5 1479   4.071   2.752  15.925  0.5088  0.2314  0.2401
   95TMC2    C6 1480   4.081   2.868  16.004  0.4997 -0.0040  0.0114
   95TMC2     C 1481   4.381   2.766  15.719  0.7758  0.5471  0.0688
   95TMC2     O 1482   4.435   2.865  15.676 -0.3078 -0.1344  0.0638
   95TMC2     H 1483   4.377   2.982  15.873  0.4564 -0.3748 -1.0012
   95TMC2    H1 1484   4.140   2.642  15.757  2.9561 -0.0379 -0.1436
   95TMC2    H2 1485   4.010   2.892  16.083  0.0723  2.5029 -1.1265
   95TMC2    C7 1486   3.934   2.693  15.924 -0.2489  0.1605 -0.0496
   95TMC2    C8 1487   4.209   3.055  16.070  0.4373  0.2120  0.7263
   95TMC2    O1 1488   3.850   2.738  15.996 -0.0579 -0.6762 -0.2496
   95TMC2    O2 1489   4.280   3.010  16.161 -0.3005  0.5871  0.3081
   95TMC2    O5 1490   4.100   3.122  16.077  0.2096  0.3726  0.6131
   95TMC2    H5 1491   4.061   3.146  15.990 -1.8358  0.9732  1.6769
   96MPD2     C 1492   4.681   2.419  15.487  0.8260  0.6903  0.4129
   96MPD2    C1 1493   4.700   2.557  15.501 -1.4153  0.2224  0.5676
   96MPD2    C2 1494   4.599   2.632  15.554 -0.3871 -0.5263 -0.2539
   96MPD2    C3 1495   4.479   2.574  15.595 -0.3653 -0.3594 -0.2981
   96MPD2    C4 1496   4.461   2.444  15.567  0.5823  0.2497  0.1222
   96MPD2    C5 1497   4.553   2.367  15.510  0.1483 -0.2378  0.3182
   96MPD2     H 1498   4.611   2.736  15.583 -0.3438 -0.9604  1.2907
   96MPD2    H1 1499   4.370   2.397  15.603  1.1940 -0.8287  0.2585
   96MPD2    H2 1500   0.022   2.357  15.442 -1.3348 -0.2058 -2.0544
   96MPD2    H3 1501   4.527   2.262  15.499  0.2733 -0.3125  0.7469
   96MPD2     N 1502   4.379   2.642  15.672  0.2923 -0.1694 -0.3624
   96MPD2    H5 1503   4.311   2.583  15.718 -1.3426  0.8492 -1.4932
   96MPD2    N1 1504   0.086   2.610  15.467 -0.1399 -0.1689 -0.3844
   96MPD2    H7 1505   0.153   2.542  15.435  0.0665  0.8976 -2.2266
   97TMC2    C1 1506   2.155   0.293   0.134 -0.5720 -0.4616 -0.2769
   97TMC2    C2 1507   2.039   0.266   0.066  0.8593  1.2138  0.7759
   97TMC2    C3 1508   1.987   0.372  17.731 -0.0717  0.1305  0.8925
   97TMC2    C4 1509   2.208   0.414   0.146 -0.1478  0.4360 -0.2641
   97TMC2    C5 1510   2.153   0.517   0.063  0.4098 -0.6839 -0.1242
   97TMC2    C6 1511   2.042   0.499  17.728  0.3017  0.3397  0.1600
   97TMC2     C 1512   2.190   0.199   0.233 -0.0528  0.3539 -1.4672
   97TMC2     O 1513   2.108   0.117   0.269  0.2767 -0.2757  0.4856
   97TMC2     H 1514   1.993   0.169   0.084  1.1672  0.9973  0.4155
   97TMC2    H1 1515   2.301   0.426   0.200 -1.4637 -0.0159  2.1115
   97TMC2    H2 1516   2.009   0.582  17.666  0.0140 -0.2147 -0.4358
   97TMC2    C7 1517   2.197   0.652   0.104  0.2516 -0.6251 -0.1795
   97TMC2    C8 1518   1.851   0.358  17.682  0.3582 -0.3046  1.0880
   97TMC2    O1 1519   2.315   0.665   0.129  0.3819  0.2934 -0.7691
   97TMC2    O2 1520   1.785   0.452  17.639  0.0143  0.6981 -0.6395
   97TMC2    O5 1521   1.844   0.233  17.627 -0.0211  0.5125  0.4956
   97TMC2    H5 1522   1.921   0.177  17.649  0.3870 -0.0669 -2.4656
   98MPD2     C 1523   2.487   4.717   0.570 -0.7047  0.1184  0.4491
   98MPD2    C1 1524   2.360   0.023   0.576 -0.0868  0.7009 -0.1475
   98MPD2    C2 1525   2.303   0.099   0.475 -0.5901 -0.1907  0.0176
   98MPD2    C3 1526   2.381   0.127   0.366  0.0826  0.4719 -0.3857
   98MPD2    C4 1527   2.509   0.072   0.356 -0.2544  0.1955  0.5372
   98MPD2    C5 1528   2.557   4.730   0.455  0.1357  0.1688  0.0375
   98MPD2     H 1529   2.198   0.126   0.473 -0.1733  1.3927 -0.4707
   98MPD2    H1 1530   2.571   0.072   0.267 -0.7500 -1.0992  0.1965
   98MPD2    H2 1531   2.537   4.652   0.642 -0.8452 -0.9352 -0.3902
   98MPD2    H3 1532   2.656   4.685   0.455  0.4084  0.7811 -0.6867
   98MPD2     N 1533   2.328   0.189   0.252  0.3268 -0.7142 -0.4247
   98MPD2    H5 1534   2.391   0.218   0.178  0.0356  2.7384  0.7229
   98MPD2    N1 1535   2.286   4.717   0.687 -0.3887 -0.5448  0.5413
   98MPD2    H7 1536   2.313   4.642   0.751  0.8985 -0.3218  0.2554
   99TMC2    C1 1537   0.952   2.309   1.382 -0.0717 -0.0530 -0.2943
   99TMC2    C2 1538   1.067   2.362   1.437  0.8255  0.6438  0.2246
   99TMC2    C3 1539   1.090   2.343   1.566 -0.4370 -0.1753 -0.2124
   99TMC2    C4 1540   0.857   2.247   1.461  0.3862  0.4088  0.1570
   99TMC2    C5 1541   0.879   2.238   1.598 -0.1302  0.6963  0.5314
   99TMC2    C6 1542   0.991   2.288   1.656 -0.3213 -0.1326  0.0367
   99TMC2     C 1543   0.926   2.344   1.249  0.4393 -1.6762  0.9079
   99TMC2     O 1544   1.008   2.413   1.194 -0.3223  0.5986 -0.1518
   99TMC2     H 1545   1.139   2.416   1.376  0.4464  0.7468 -0.1297
   99TMC2    H1 1546   0.766   2.207   1.418  0.4391  1.3711 -0.8333
   99TMC2    H2 1547   1.013   2.281   1.762 -2.0779 -2.4362  0.2365
   99TMC2    C7 1548   0.782   2.180   1.691  0.3140 -0.3423 -0.4430
   99TMC2    C8 1549   1.222   2.395   1.609 -0.1557  0.6770 -0.0017
   99TMC2    O1 1550   0.821   2.185   1.809  0.3871  0.0071 -0.2447
   99TMC2    O2 1551   1.270   2.490   1.546  0.4794 -0.0859 -0.2231
   99TMC2    O5 1552   1.251   2.363   1.736 -0.1133 -0.0896 -0.3747
   99TMC2    H5 1553   1.221   2.276   1.770  0.3438  0.2147  0.8123
  100MPD2     C 1554   0.807   2.410   0.981 -0.4453 -0.3659 -0.2041
  100MPD2    C1 1555   0.744   2.324   1.068 -0.5121  0.2722 -0.0484
  100MPD2    C2 1556   0.628   2.260   1.028  0.0548  0.2061  0.0051
  100MPD2    C3 1557   0.568   2.289   0.910  0.8471 -0.7161 -0.0291
  100MPD2    C4 1558   0.618   2.385   0.830 -0.1763  0.1123 -0.1025
  100MPD2    C5 1559   0.740   2.438   0.865 -0.2640  0.1725  0.5229
  100MPD2     H 1560   0.578   2.179   1.080 -1.1875  0.7632 -0.3260
  100MPD2    H1 1561   0.576   2.410   0.733  2.7318 -1.1187 -1.6707
  100MPD2    H2 1562   0.902   2.460   0.999 -0.6410  0.1430 -0.5812
  100MPD2    H3 1563   0.776   2.514   0.796 -0.0314  0.8919  1.4302
  100MPD2     N 1564   0.462   2.212   0.880  0.2397  0.2936 -0.5936
  100MPD2    H5 1565   0.451   2.128   0.935 -1.7421  0.8377 -0.1421
  100MPD2    N1 1566   0.807   2.295   1.196 -0.1409  0.1234 -0.9335
  100MPD2    H7 1567   0.747   2.231   1.247 -1.0544  1.3794 -0.4182
  101TMC2    C1 1568   1.121   2.991  13.485 -0.1463  0.4053  0.6265
  101TMC2    C2 1569   1.012   3.039  13.549 -0.2254 -0.2548 -0.1420
  101TMC2    C3 1570   1.019   3.168  13.602 -0.5521 -0.0694 -0.2796
  101TMC2    C4 1571   1.225   3.067  13.455 -0.1374  1.2648 -0.2107
  101TMC2    C5 1572   1.225   3.196  13.503 -0.0266  0.2701 -0.5130
  101TMC2    C6 1573   1.131   3.247  13.581 -0.3577  0.7420  0.1155
  101TMC2     C 1574   1.116   2.853  13.437  0.1313 -0.4586  0.0542
  101TMC2     O 1575   1.008   2.804  13.419 -0.2919 -0.0559  0.0453
  101TMC2     H 1576   0.924   2.976  13.562  1.4144 -2.1965  1.5243
  101TMC2    H1 1577   1.307   3.026  13.396 -1.2723 -0.0918 -0.8482
  101TMC2    H2 1578   1.145   3.343  13.630  1.0555  0.8287 -0.4736
  101TMC2    C7 1579   1.337   3.273  13.456  0.5372  0.2477 -0.1352
  101TMC2    C8 1580   0.895   3.240  13.591  0.1923  0.9504 -0.0528
  101TMC2    O1 1581   1.321   3.380  13.407 -0.3274  0.0760  0.1718
  101TMC2    O2 1582   0.823   3.200  13.505 -0.5589  0.7324 -0.3877
  101TMC2    O5 1583   0.901   3.370  13.633  0.2474  0.4286 -0.1914
  101TMC2    H5 1584   0.954   3.380  13.715 -0.5652  2.1752  0.1166
  102MPD2     C 1585   1.383   2.617  13.345  0.9700  0.3627  0.2509
  102MPD2    C1 1586   1.251   2.658  13.371 -0.2146 -0.1834  0.2894
  102MPD2    C2 1587   1.143   2.570  13.340 -0.2599 -0.9807  0.0095
  102MPD2    C3 1588   1.168   2.441  13.306 -0.2963 -0.5343 -0.2336
  102MPD2    C4 1589   1.300   2.405  13.287  0.4895  0.0736  0.1778
  102MPD2    C5 1590   1.405   2.487  13.313 -0.0747  0.4808 -0.5868
  102MPD2     H 1591   1.041   2.607  13.347  0.5350  0.8945  1.8736
  102MPD2    H1 1592   1.332   2.303  13.276 -1.2695 -0.5197  0.4684
  102MPD2    H2 1593   1.474   2.674  13.363 -0.1319  3.0429 -2.6752
  102MPD2    H3 1594   1.509   2.459  13.322  0.3498  1.6934 -1.7487
  102MPD2     N 1595   1.067   2.342  13.307 -0.4793  0.0703 -0.2723
  102MPD2    H5 1596   0.971   2.368  13.327 -0.0669  1.5298 -0.2004
  102MPD2    N1 1597   1.231   2.792  13.406 -0.0253 -0.2043  0.4898
  102MPD2    H7 1598   1.313   2.851  13.414 -0.5479  0.2237  2.5345
  103TMC2    C1 1599   3.830   3.309  12.623  0.1805 -0.1415 -0.3629
  103TMC2    C2 1600   3.926   3.386  12.571  0.2041  0.0992  0.0893
  103TMC2    C3 1601   4.033   3.419  12.649 -0.0700 -0.3895 -0.6147
  103TMC2    C4 1602   3.826   3.266  12.753 -0.7422  0.0949  0.3314
  103TMC2    C5 1603   3.937   3.303  12.824 -0.3169 -0.6696  0.0491
  103TMC2    C6 1604   4.043   3.379  12.778  0.0501 -0.1836 -0.3291
  103TMC2     C 1605   3.709   3.278  12.544 -0.0589 -0.2462 -0.6966
  103TMC2     O 1606   3.694   3.351  12.445 -0.3063  0.0931 -0.2991
  103TMC2     H 1607   3.921   3.429  12.472  1.7182  0.5275  0.2052
  103TMC2    H1 1608   3.741   3.220  12.802  0.6790 -2.8362  0.0550
  103TMC2    H2 1609   4.127   3.399  12.842  1.2083 -0.9682 -1.5957
  103TMC2    C7 1610   3.926   3.268  12.968 -0.5998 -0.4071 -0.7201
  103TMC2    C8 1611   4.106   3.542  12.610 -0.2487  0.1081  0.0018
  103TMC2    O1 1612   3.890   3.153  12.986 -0.1569 -0.5963 -0.2874
  103TMC2    O2 1613   4.046   3.616  12.528  0.0671 -0.0394 -0.1413
  103TMC2    O5 1614   4.206   3.576  12.694  0.3958 -0.3289 -0.4945
  103TMC2    H5 1615   4.235   3.502  12.752 -1.3492 -0.9777 -0.4386
  104MPD2     C 1616   3.516   2.957  12.512  0.3280  0.4972 -1.1410
  104MPD2    C1 1617   3.540   3.092  12.499 -0.3823  0.8087  0.0076
  104MPD2    C2 1618   3.455   3.172  12.425  0.9923 -0.9046 -0.6886
  104MPD2    C3 1619   3.340   3.122  12.369 -0.0501  0.3588  0.3260
  104MPD2    C4 1620   3.316   2.983  12.383  0.2256  0.0513  0.1548
  104MPD2    C5 1621   3.407   2.901  12.452 -0.3509  0.2126 -0.6953
  104MPD2     H 1622   3.475   3.278  12.414  2.3049 -1.1051 -0.2544
  104MPD2    H1 1623   3.231   2.931  12.342 -0.4980  0.6646  0.8712
  104MPD2    H2 1624   3.583   2.893  12.569 -0.8130 -0.5618 -0.9787
  104MPD2    H3 1625   3.393   2.794  12.462  1.9682 -0.1126 -0.8585
  104MPD2     N 1626   3.254   3.206  12.300 -0.5442  0.1272  0.3114
  104MPD2    H5 1627   3.298   3.296  12.287  0.7393 -0.7222 -1.2163
  104MPD2    N1 1628   3.653   3.149  12.567 -0.3064  0.2305 -0.2177
  104MPD2    H7 1629   3.701   3.093  12.636 -1.6672 -0.4014  0.2289
  105TMC2    C1 1630   0.118   2.431  17.596 -0.2430 -0.0323 -0.3102
  105TMC2    C2 1631   4.722   2.400  17.623  0.4005  0.0351 -0.0276
  105TMC2    C3 1632   4.645   2.487  17.700  0.8660 -0.0727  0.8832
  105TMC2    C4 1633   0.183   2.536  17.653 -0.5962  0.0039 -0.0779
  105TMC2    C5 1634   0.112   2.608   0.007 -0.0642  0.2696  0.2341
  105TMC2    C6 1635   4.709   2.587   0.024 -0.5796  0.1445  0.0469
  105TMC2     C 1636   0.189   2.339  17.507  0.5350 -0.6762  0.0347
  105TMC2     O 1637   0.122   2.245  17.460  0.0866  0.3470  0.0406
  105TMC2     H 1638   4.671   2.312  17.584 -1.1171  0.8735  0.0752
  105TMC2    H1 1639   0.288   2.560  17.638 -0.8493  0.9949 -0.2521
  105TMC2    H2 1640   4.647   2.651   0.087 -0.9680 -1.2070  1.0388
  105TMC2    C7 1641   0.192   2.704   0.072  0.2762 -0.1070 -0.8578
  105TMC2    C8 1642   4.517   2.449   0.004 -0.0693  0.1862  1.0416
  105TMC2    O1 1643   0.313   2.717   0.040 -0.8780  0.2001  0.1392
  105TMC2    O2 1644   4.473   2.471   0.117  0.3470  0.6848 -0.9974
  105TMC2    O5 1645   4.443   2.431  17.627 -0.1549  0.4914 -0.5485
  105TMC2    H5 1646   4.507   2.435  17.553 -0.7961 -0.5287 -1.1725
  106MPD2     C 1647   0.596   2.234  17.222  0.1988 -0.1054 -0.1950
  106MPD2    C1 1648   0.600   2.371  17.254  0.4067  0.4918 -0.5210
  106MPD2    C2 1649   0.496   2.422  17.329  0.1400  0.4713  0.3917
  106MPD2    C3 1650   0.392   2.338  17.367 -0.4308  1.2166  0.2266
  106MPD2    C4 1651   0.383   2.206  17.325 -0.0389 -0.4825  0.4239
  106MPD2    C5 1652   0.486   2.155  17.243  0.6070  0.3056  1.1949
  106MPD2     H 1653   0.490   2.528  17.350 -0.6851  0.5287 -0.1502
  106MPD2    H1 1654   0.294   2.150  17.352  0.1724 -1.0249  0.0054
  106MPD2    H2 1655   0.668   2.204  17.147  0.6189 -1.8028  0.8765
  106MPD2    H3 1656   0.480   2.050  17.217 -1.6949  0.0404  2.7136
  106MPD2     N 1657   0.305   2.397  17.463  0.3626  0.0722  0.5255
  106MPD2    H5 1658   0.327   2.493  17.487  0.1698 -0.1121  1.4383
  106MPD2    N1 1659   0.697   2.458  17.215 -0.9184  0.4906 -0.1466
  106MPD2    H7 1660   0.676   2.557  17.226  0.2528  0.7358 -0.0921
  107TMC2    C1 1661   1.608   2.113  12.079  0.4514 -0.4501 -0.2741
  107TMC2    C2 1662   1.521   2.216  12.057  0.1433  0.3321  0.0692
  107TMC2    C3 1663   1.573   2.325  11.987 -0.5940  0.6876 -0.4167
  107TMC2    C4 1664   1.731   2.101  12.016 -0.1008 -0.1242  0.1497
  107TMC2    C5 1665   1.777   2.213  11.945 -0.6034 -0.5240  0.1396
  107TMC2    C6 1666   1.692   2.318  11.923  0.2630 -0.0756 -0.6717
  107TMC2     C 1667   1.549   1.996  12.133 -0.4790  0.0488 -0.0940
  107TMC2     O 1668   1.429   1.993  12.129 -0.0843  0.3618 -0.0335
  107TMC2     H 1669   1.417   2.210  12.086  0.2780  3.6869  1.2142
  107TMC2    H1 1670   1.801   2.021  12.034  0.7742  0.7180  0.5212
  107TMC2    H2 1671   1.737   2.390  11.855  1.3147  0.1324  0.2571
  107TMC2    C7 1672   1.883   2.192  11.845 -0.4332  0.6698 -0.3261
  107TMC2    C8 1673   1.499   2.446  11.953  0.2932  0.2513  0.0390
  107TMC2    O1 1674   1.946   2.295  11.820 -0.8149 -0.4041  0.0380
  107TMC2    O2 1675   1.545   2.551  11.906  0.2038  0.7921 -0.1651
  107TMC2    O5 1676   1.376   2.398  11.914 -0.0157  0.1016 -0.3101
  107TMC2    H5 1677   1.357   2.302  11.917 -0.2960  0.2444  2.0669
  108MPD2     C 1678   1.714   1.674  12.205  0.3518  0.2316  0.6951
  108MPD2    C1 1679   1.612   1.762  12.208 -0.0109  0.3327 -0.0855
  108MPD2    C2 1680   1.487   1.723  12.254 -0.3282 -0.2684  0.4053
  108MPD2    C3 1681   1.459   1.589  12.293  0.5232 -0.1675  0.4495
  108MPD2    C4 1682   1.563   1.503  12.288 -0.1075 -0.0372  0.0923
  108MPD2    C5 1683   1.690   1.547  12.244 -0.3191 -0.3371  0.1086
  108MPD2     H 1684   1.412   1.802  12.250 -0.0701 -0.1920 -2.5446
  108MPD2    H1 1685   1.559   1.398  12.318 -1.3882  0.1722  0.6742
  108MPD2    H2 1686   1.817   1.703  12.192 -0.1176  1.7517  0.4447
  108MPD2    H3 1687   1.771   1.476  12.256  1.0303  1.1198 -0.2826
  108MPD2     N 1688   1.338   1.551  12.354 -0.2815  0.1141  0.0930
  108MPD2    H5 1689   1.324   1.458  12.393  0.1109  0.0718  0.1374
  108MPD2    N1 1690   1.640   1.891  12.150  0.5325 -0.5210  0.6083
  108MPD2    H7 1691   1.736   1.916  12.128  0.4316  0.1392  0.9026
  109TMC2    C1 1692   1.790   3.686   0.384 -0.1037 -0.2223  0.0381
  109TMC2    C2 1693   1.841   3.708   0.263  0.6876  0.9504 -0.1545
  109TMC2    C3 1694   1.949   3.790   0.256 -0.0368 -0.5595 -0.2965
  109TMC2    C4 1695   1.842   3.744   0.503 -0.1566  0.0876  0.6467
  109TMC2    C5 1696   1.958   3.812   0.485  0.8425  0.0940 -0.3960
  109TMC2    C6 1697   2.021   3.823   0.361 -0.0649 -1.0674 -0.4527
  109TMC2     C 1698   1.654   3.640   0.392 -0.2260 -0.1152  0.1114
  109TMC2     O 1699   1.582   3.652   0.292 -0.7019  0.3538  0.4750
  109TMC2     H 1700   1.793   3.671   0.173  0.2428 -1.8722  1.2321
  109TMC2    H1 1701   1.782   3.750   0.593 -1.0727  0.1316  0.0394
  109TMC2    H2 1702   2.101   3.895   0.355 -0.9123 -0.1250 -0.4682
  109TMC2    C7 1703   2.010   3.898   0.592  0.1105  0.3072 -0.1595
  109TMC2    C8 1704   2.018   3.786   0.131  0.3212  0.1138 -0.1480
  109TMC2    O1 1705   2.084   3.993   0.563  0.2307 -1.2482  0.1039
  109TMC2    O2 1706   2.135   3.827   0.126 -0.0046  0.3273  0.1827
  109TMC2    O5 1707   1.935   3.807   0.035 -0.0181 -0.3671  0.3929
  109TMC2    H5 1708   1.844   3.815   0.069  0.6708 -0.3994  2.2668
  110MPD2     C 1709   1.247   3.463   0.645 -1.1847 -0.1466  0.1575
  110MPD2    C1 1710   1.350   3.477   0.737 -0.6506  0.0927 -1.0910
  110MPD2    C2 1711   1.476   3.503   0.680 -0.4558 -0.1750 -0.7816
  110MPD2    C3 1712   1.493   3.537   0.546 -0.1425  0.6376 -0.0984
  110MPD2    C4 1713   1.386   3.533   0.464 -0.5546  0.2512 -0.2272
  110MPD2    C5 1714   1.261   3.498   0.515  0.2391  0.2703  0.9037
  110MPD2     H 1715   1.562   3.488   0.744 -1.0242  0.8034  0.2078
  110MPD2    H1 1716   1.396   3.567   0.361 -1.0665 -1.1954 -0.7481
  110MPD2    H2 1717   1.151   3.428   0.680 -0.1843 -1.6777  1.3481
  110MPD2    H3 1718   1.176   3.493   0.449  1.4951 -2.7915 -0.4920
  110MPD2     N 1719   1.620   3.584   0.511 -0.1150 -0.0849  0.1322
  110MPD2    H5 1720   1.694   3.585   0.581  0.7232 -3.6256 -0.7214
  110MPD2    N1 1721   1.330   3.459   0.874  0.3897  0.2298 -0.4578
  110MPD2    H7 1722   1.235   3.452   0.909 -0.2096  0.7471 -1.9898
  111TMC2    C1 1723   0.781   3.970  12.381 -0.6334  0.1146  0.1139
  111TMC2    C2 1724   0.703   3.960  12.494  0.6604  0.7331 -0.4053
  111TMC2    C3 1725   0.770   3.919  12.602 -0.4799 -0.2296 -0.0907
  111TMC2    C4 1726   0.913   3.935  12.379  0.2151 -0.4974 -0.7747
  111TMC2    C5 1727   0.969   3.890  12.497 -0.0976 -0.6660 -0.8147
  111TMC2    C6 1728   0.901   3.870  12.607 -0.1951  0.3441  0.1249
  111TMC2     C 1729   0.725   4.039  12.267 -0.7835  1.0937 -1.3510
  111TMC2     O 1730   0.807   4.049  12.175 -0.1752 -0.3173 -0.2858
  111TMC2     H 1731   0.604   4.000  12.513  0.2474 -0.5016  0.0771
  111TMC2    H1 1732   0.971   3.935  12.287  0.2564 -0.3732 -0.7485
  111TMC2    H2 1733   0.953   3.847  12.699 -1.4664  1.9848  1.2616
  111TMC2    C7 1734   1.111   3.861  12.507 -0.3589  0.6661 -0.2756
  111TMC2    C8 1735   0.706   3.942  12.734  0.0591  0.3776 -0.2132
  111TMC2    O1 1736   1.147   3.787  12.600 -0.2757 -0.3919 -0.6795
  111TMC2    O2 1737   0.614   4.024  12.747  0.4966  0.5339  0.3614
  111TMC2    O5 1738   0.754   3.856  12.832 -0.1285  0.1666 -0.5938
  111TMC2    H5 1739   0.817   3.792  12.793  0.8321  0.8039 -0.0932
  112MPD2     C 1740   0.337   4.225  11.982  1.2130  0.1186  0.5542
  112MPD2    C1 1741   0.464   4.192  11.943  0.1367  0.1690 -0.6791
  112MPD2    C2 1742   0.557   4.145  12.042  0.2183  0.5416  0.2504
  112MPD2    C3 1743   0.515   4.134  12.171  0.7149  0.4926 -0.0716
  112MPD2    C4 1744   0.393   4.176  12.205 -0.7995  0.2390  0.3913
  112MPD2    C5 1745   0.300   4.220  12.114 -0.1567  0.2587  0.1053
  112MPD2     H 1746   0.658   4.121  12.010 -0.1294  0.5086 -0.8316
  112MPD2    H1 1747   0.365   4.184  12.309 -0.2998 -0.4721  0.5831
  112MPD2    H2 1748   0.257   4.262  11.919  0.3885  0.3455  1.7244
  112MPD2    H3 1749   0.205   4.262  12.145 -0.7860 -0.6376 -0.6040
  112MPD2     N 1750   0.592   4.083  12.278  0.1680 -0.2131 -0.3240
  112MPD2    H5 1751   0.546   4.074  12.368  0.7987 -0.4125 -0.0202
  112MPD2    N1 1752   0.501   4.194  11.810  0.5998  0.7102  0.3141
  112MPD2    H7 1753   0.591   4.155  11.784 -0.2230  0.2400 -1.8533
  113TMC2    C1 1754   4.417   2.131   0.853  0.4987 -0.7432 -0.8300
  113TMC2    C2 1755   4.328   2.234   0.842  0.3145 -0.2673 -0.5383
  113TMC2    C3 1756   4.220   2.222   0.758  0.5327  1.1853  0.3089
  113TMC2    C4 1757   4.406   2.019   0.778  0.6405  0.0908 -0.1112
  113TMC2    C5 1758   4.300   2.018   0.693  1.5304  0.3938  0.2989
  113TMC2    C6 1759   4.199   2.112   0.675  0.2405 -0.3907 -0.2989
  113TMC2     C 1760   4.522   2.143   0.947 -0.3372 -0.5134 -0.1427
  113TMC2     O 1761   4.532   2.251   1.004 -0.0418  0.4309  0.3403
  113TMC2     H 1762   4.332   2.326   0.900 -0.3675  0.6209 -1.8967
  113TMC2    H1 1763   4.489   1.950   0.774 -1.1428 -2.1325  1.4955
  113TMC2    H2 1764   4.118   2.095   0.605  1.4246  0.7745 -1.9628
  113TMC2    C7 1765   4.305   1.922   0.593 -0.0488  0.2578 -0.6527
  113TMC2    C8 1766   4.125   2.337   0.761  0.5290 -0.9786  0.0918
  113TMC2    O1 1767   4.255   1.944   0.486  0.5805  0.7219  0.0258
  113TMC2    O2 1768   4.099   2.397   0.862  0.5733  0.0820  0.2004
  113TMC2    O5 1769   4.036   2.316   0.658 -0.1592 -0.2269 -0.2574
  113TMC2    H5 1770   4.067   2.270   0.577  0.9425 -0.6202  0.3858
  114MPD2     C 1771   0.231   2.013   1.188  0.2596  0.3388 -0.2650
  114MPD2    C1 1772   0.132   2.101   1.237  0.1993 -0.4752  0.6593
  114MPD2    C2 1773   0.010   2.110   1.159  0.7536 -0.6223  0.5628
  114MPD2    C3 1774   4.718   2.032   1.045 -0.8181  0.2927  0.1556
  114MPD2    C4 1775   0.072   1.937   1.013  0.7647 -0.1948  0.1130
  114MPD2    C5 1776   0.194   1.931   1.083  0.9080 -0.6946 -0.1028
  114MPD2     H 1777   4.669   2.184   1.183  1.1153  0.2236 -0.8762
  114MPD2    H1 1778   0.051   1.858   0.942  1.7104 -1.2279  0.9703
  114MPD2    H2 1779   0.329   2.000   1.233  0.3536  0.7911 -0.3323
  114MPD2    H3 1780   0.252   1.843   1.058  3.4133  1.0945 -0.5448
  114MPD2     N 1781   4.610   2.037   0.955 -0.2140 -0.1739  0.2574
  114MPD2    H5 1782   4.591   1.959   0.892 -0.0787  0.8674 -1.0706
  114MPD2    N1 1783   0.151   2.182   1.354 -0.1186  0.4614  1.3745
  114MPD2    H7 1784   0.072   2.242   1.375 -1.0470 -0.7577  1.3501
  115TMC2    C1 1785   0.719   4.598   0.256  0.0179  0.4764 -0.2649
  115TMC2    C2 1786   0.812   4.581   0.153  0.4411 -0.1100 -0.5373
  115TMC2    C3 1787   0.795   4.656   0.044 -0.5286  0.9127  0.3236
  115TMC2    C4 1788   0.632   4.703   0.249 -0.4046 -0.0792 -0.0695
  115TMC2    C5 1789   0.630   0.054   0.143  0.0330 -0.4555  0.0649
  115TMC2    C6 1790   0.708   0.028   0.034  0.1453  0.4235  1.1614
  115TMC2     C 1791   0.675   4.476   0.314 -0.0951 -0.0005  0.6919
  115TMC2     O 1792   0.555   4.461   0.304  0.3817  0.1260  0.0716
  115TMC2     H 1793   0.868   4.489   0.140 -2.4947 -1.9159 -0.4466
  115TMC2    H1 1794   0.575   4.732   0.337  2.1578  0.3013  1.4759
  115TMC2    H2 1795   0.694   0.069  17.676  1.4580  0.2712  0.9097
  115TMC2    C7 1796   0.570   0.187   0.164  0.2529  0.5105 -0.2351
  115TMC2    C8 1797   0.830   4.595  17.664 -0.1101  0.3670 -0.4415
  115TMC2    O1 1798   0.480   0.206   0.248  0.5910 -0.2335 -0.5106
  115TMC2    O2 1799   0.840   4.474  17.642  0.1505  0.4589 -0.2364
  115TMC2    O5 1800   0.872   4.694  17.578 -0.0909  0.6748 -0.2006
  115TMC2    H5 1801   0.867   0.046  17.623 -1.1755 -0.0090  1.0369
  116MPD2     C 1802   0.735   3.965   0.268  0.0117 -0.5449 -0.0602
  116MPD2    C1 1803   0.629   4.049   0.241  0.1183  0.6120 -0.5432
  116MPD2    C2 1804   0.642   4.183   0.266  0.3800  0.6094 -0.2275
  116MPD2    C3 1805   0.754   4.241   0.317 -0.3404  0.2929  1.2002
  116MPD2    C4 1806   0.851   4.149   0.354 -0.1259  0.6529  0.4375
  116MPD2    C5 1807   0.847   4.013   0.322 -0.0344  0.5733 -0.3547
  116MPD2     H 1808   0.556   4.245   0.245 -1.0624  0.0259  3.9887
  116MPD2    H1 1809   0.940   4.178   0.408  0.6161 -2.0463  0.6727
  116MPD2    H2 1810   0.732   3.860   0.244  1.5657 -1.0474  1.9573
  116MPD2    H3 1811   0.922   3.940   0.351 -1.1499 -0.0900  0.8187
  116MPD2     N 1812   0.772   4.380   0.336 -0.5287  0.0564  0.1744
  116MPD2    H5 1813   0.867   4.408   0.358 -0.0988 -2.0099  0.9245
  116MPD2    N1 1814   0.511   3.986   0.197  0.3388 -0.1666  0.1296
  116MPD2    H7 1815   0.517   3.890   0.163 -2.2369 -0.7763  1.3844
  117TMC2    C1 1816   3.747   0.706  14.261 -0.0323 -0.0844 -0.6804
  117TMC2    C2 1817   3.778   0.682  14.388  0.3035 -0.2748  0.4726
  117TMC2    C3 1818   3.909   0.718  14.423  0.0284  0.3506  0.6726
  117TMC2    C4 1819   3.831   0.767  14.166  0.2565  0.4416  0.3125
  117TMC2    C5 1820   3.949   0.816  14.215  1.3001 -0.4175 -0.0179
  117TMC2    C6 1821   3.989   0.799  14.345  0.1378  0.1288  1.0845
  117TMC2     C 1822   3.603   0.720  14.231  0.0992  0.1566  0.3227
  117TMC2     O 1823   3.533   0.620  14.238  0.5475  0.7401 -0.5091
  117TMC2     H 1824   3.719   0.621  14.456  0.6495 -0.7655  0.3267
  117TMC2    H1 1825   3.795   0.790  14.066  0.4652  1.3653  0.4433
  117TMC2    H2 1826   4.077   0.847  14.385  0.7559  1.2783 -1.6163
  117TMC2    C7 1827   4.024   0.920  14.139  0.4042 -0.2611 -0.6390
  117TMC2    C8 1828   3.947   0.705  14.560 -0.2616 -0.0203 -0.5457
  117TMC2    O1 1829   4.080   1.005  14.208  0.2420  0.6272 -1.0826
  117TMC2    O2 1830   3.872   0.672  14.649 -0.2554  0.0538  0.4237
  117TMC2    O5 1831   4.077   0.727  14.568 -0.0070  0.0770 -0.9082
  117TMC2    H5 1832   4.127   0.720  14.484  0.2270  3.1221 -1.0170
  118MPD2     C 1833   4.046   0.983  13.773  0.2891  0.6372 -0.1220
  118MPD2    C1 1834   4.065   1.002  13.908 -0.6463  0.7919  0.1918
  118MPD2    C2 1835   4.136   1.119  13.944  0.5056  0.1296  0.2470
  118MPD2    C3 1836   4.167   1.217  13.853 -0.1528  0.6812  0.4913
  118MPD2    C4 1837   4.132   1.203  13.720 -0.3277  0.0554 -0.3498
  118MPD2    C5 1838   4.073   1.085  13.682  0.1297  0.4515 -0.6496
  118MPD2     H 1839   4.153   1.136  14.049  1.0326 -0.7619  0.3057
  118MPD2    H1 1840   4.146   1.285  13.650 -1.0680  0.2472 -0.2741
  118MPD2    H2 1841   3.996   0.899  13.727 -1.7713  1.4168  0.6492
  118MPD2    H3 1842   4.038   1.069  13.581 -0.0220 -0.1087 -0.5074
  118MPD2     N 1843   4.236   1.341  13.896  0.4225 -0.2980 -0.0222
  118MPD2    H5 1844   4.236   1.413  13.824 -0.9295 -0.2040  0.0769
  118MPD2    N1 1845   4.014   0.910  14.001 -0.6355  0.1605  0.4130
  118MPD2    H7 1846   3.958   0.831  13.972  2.1227 -1.5224 -0.2876
  119TMC2    C1 1847   1.824   2.391  13.493 -0.2593 -0.3779  0.6456
  119TMC2    C2 1848   1.848   2.450  13.370 -0.2375  0.0131 -0.5653
  119TMC2    C3 1849   1.787   2.386  13.264  0.0657  0.2415  0.3929
  119TMC2    C4 1850   1.731   2.296  13.515 -0.2729  0.5305 -0.0481
  119TMC2    C5 1851   1.675   2.237  13.406  0.0129 -0.5440  0.4010
  119TMC2    C6 1852   1.705   2.277  13.279  0.5433  0.2134  0.6727
  119TMC2     C 1853   1.903   2.427  13.606 -0.3652  0.1962  0.0706
  119TMC2     O 1854   1.859   2.396  13.711 -0.0316  0.9206 -0.4622
  119TMC2     H 1855   1.897   2.546  13.360 -0.0803  0.0070  0.1633
  119TMC2    H1 1856   1.728   2.253  13.614 -2.5994  2.8331  0.8813
  119TMC2    H2 1857   1.651   2.239  13.194  0.2760 -0.1778  1.0181
  119TMC2    C7 1858   1.555   2.150  13.413  0.1338  0.5221  0.8696
  119TMC2    C8 1859   1.790   2.462  13.143 -0.1389 -0.5185  0.1567
  119TMC2    O1 1860   1.486   2.145  13.311 -0.1737 -0.5234 -1.1101
  119TMC2    O2 1861   1.813   2.583  13.150 -0.1963  0.1004  0.2364
  119TMC2    O5 1862   1.851   2.370  13.061 -0.1700  0.3787  0.2414
  119TMC2    H5 1863   1.838   2.274  13.074 -0.1863  0.3790  0.2273
  120MPD2     C 1864   2.314   2.577  13.839  0.2125 -0.4845  0.3177
  120MPD2    C1 1865   2.195   2.531  13.888  0.0346  0.1489  0.7059
  120MPD2    C2 1866   2.090   2.527  13.799 -0.2474 -0.1111 -0.1749
  120MPD2    C3 1867   2.116   2.535  13.664 -0.5705  0.0200 -0.1445
  120MPD2    C4 1868   2.237   2.570  13.613 -0.0547 -0.1795  0.0291
  120MPD2    C5 1869   2.331   2.604  13.706  0.2123  0.5254 -0.1066
  120MPD2     H 1870   1.986   2.519  13.829  0.6283 -2.3223  2.2738
  120MPD2    H1 1871   2.262   2.589  13.509 -0.6630 -1.4858 -0.3553
  120MPD2    H2 1872   2.401   2.588  13.902  0.3578  0.9951 -0.1533
  120MPD2    H3 1873   2.426   2.647  13.677  0.6880  0.1941  0.9372
  120MPD2     N 1874   2.019   2.491  13.570  0.1051 -0.4134  0.0599
  120MPD2    H5 1875   2.035   2.497  13.470 -2.3703  1.0579 -0.2421
  120MPD2    N1 1876   2.183   2.517  14.031 -0.5213 -0.0062 -0.2085
  120MPD2    H7 1877   2.267   2.549  14.079 -0.6655  0.6629 -0.4058
  121TMC2    C1 1878   3.303   3.778  14.370 -0.8466  0.1995  0.0232
  121TMC2    C2 1879   3.228   3.695  14.449 -0.3024 -0.0948 -0.0378
  121TMC2    C3 1880   3.094   3.700  14.419  0.1942  0.0287 -0.1784
  121TMC2    C4 1881   3.259   3.872  14.284  0.4474  0.3841  0.1215
  121TMC2    C5 1882   3.123   3.878  14.275  1.1665 -0.2815  0.3800
  121TMC2    C6 1883   3.035   3.793  14.338  0.1761  0.7428  0.1795
  121TMC2     C 1884   3.442   3.769  14.374  0.1343  0.6490  0.0515
  121TMC2     O 1885   3.484   3.736  14.487 -0.5070 -0.1838  0.3728
  121TMC2     H 1886   3.276   3.640  14.529 -2.4472 -1.6342  0.1827
  121TMC2    H1 1887   3.321   3.958  14.259 -2.9001  2.7160 -0.1819
  121TMC2    H2 1888   2.927   3.800  14.336  0.2684  2.3366  1.5948
  121TMC2    C7 1889   3.077   3.981  14.189  0.3841 -0.2058  0.1850
  121TMC2    C8 1890   3.005   3.593  14.472 -0.1105  0.1633  0.7850
  121TMC2    O1 1891   3.159   4.028  14.114  0.1427 -0.4161 -0.3345
  121TMC2    O2 1892   2.881   3.595  14.469  0.0796 -0.0014  0.8206
  121TMC2    O5 1893   3.076   3.487  14.522 -0.4354  0.9067 -0.2037
  121TMC2    H5 1894   3.173   3.498  14.516 -0.5425  2.1377  0.3985
  122MPD2     C 1895   3.721   3.857  14.366 -0.5916 -0.2099  0.1912
  122MPD2    C1 1896   3.637   3.848  14.253  0.3765 -0.1478 -0.9218
  122MPD2    C2 1897   3.685   3.888  14.133 -0.2048 -0.2196  0.4065
  122MPD2    C3 1898   3.810   3.941  14.109 -0.0897  0.0530 -0.3365
  122MPD2    C4 1899   3.881   3.959  14.225 -0.3845  0.1572  0.4513
  122MPD2    C5 1900   3.847   3.900  14.345  0.0739 -0.5457  0.2355
  122MPD2     H 1901   3.619   3.879  14.047  1.0703  1.6113 -0.7513
  122MPD2    H1 1902   3.980   4.002  14.217 -0.5532 -0.2196 -3.6350
  122MPD2    H2 1903   3.689   3.825  14.464  1.5425 -1.7373  0.4036
  122MPD2    H3 1904   3.918   3.916  14.425  0.3824  1.5936 -0.4730
  122MPD2     N 1905   3.858   3.991  13.988  0.0354 -0.3069  1.0489
  122MPD2    H5 1906   3.955   4.018  13.977  0.2172 -0.7343  1.5974
  122MPD2    N1 1907   3.505   3.802  14.256  0.1486  0.1010  0.0146
  122MPD2    H7 1908   3.452   3.815  14.171  0.7940 -0.3892 -0.4617
  123TMC2    C1 1909   0.502   1.920  10.264  0.1738  0.1300  0.2106
  123TMC2    C2 1910   0.473   1.987  10.146 -0.8760 -0.5570 -0.6023
  123TMC2    C3 1911   0.562   2.081  10.102  0.2889 -0.1573  1.2238
  123TMC2    C4 1912   0.619   1.937  10.327 -0.4399  0.0231  0.1336
  123TMC2    C5 1913   0.709   2.027  10.276 -0.5543  0.7396  1.3259
  123TMC2    C6 1914   0.683   2.098  10.163  0.4107  0.1083 -0.9314
  123TMC2     C 1915   0.447   1.789  10.291  0.3156 -0.1258  0.7536
  123TMC2     O 1916   0.523   1.690  10.301 -0.2827 -0.1271  0.9668
  123TMC2     H 1917   0.372   1.992  10.109 -0.2239  1.6980 -2.0587
  123TMC2    H1 1918   0.639   1.859  10.400  0.2385  0.4509  0.4083
  123TMC2    H2 1919   0.761   2.153  10.111  0.6467  1.1462  0.5394
  123TMC2    C7 1920   0.838   2.036  10.339  0.6666  0.2914 -0.9698
  123TMC2    C8 1921   0.539   2.141   9.977 -1.0393  0.2224 -0.2275
  123TMC2    O1 1922   0.884   1.948  10.406  0.0112  0.6021  0.4609
  123TMC2    O2 1923   0.579   2.252   9.943  0.2108  0.0925  0.1371
  123TMC2    O5 1924   0.465   2.063   9.898  0.0299  0.2614  0.3642
  123TMC2    H5 1925   0.453   1.979   9.947  0.6993 -0.2154 -0.3067
  124MPD2     C 1926   0.026   1.502  10.230 -0.0932 -0.4586 -0.8746
  124MPD2    C1 1927   4.720   1.629  10.234  0.2093 -0.0225  0.0507
  124MPD2    C2 1928   0.081   1.724  10.269 -0.0793  0.0768  0.2772
  124MPD2    C3 1929   0.213   1.696  10.298  0.4386  1.1724  0.1224
  124MPD2    C4 1930   0.242   1.559  10.311 -0.3390 -0.1049 -0.4524
  124MPD2    C5 1931   0.151   1.467  10.273 -0.4321 -0.1118 -0.3053
  124MPD2     H 1932   0.052   1.827  10.252 -1.5450 -0.8145 -2.7451
  124MPD2    H1 1933   0.339   1.519  10.339  0.1139  0.5409 -1.0906
  124MPD2    H2 1934   4.698   1.420  10.199 -0.2996 -1.0183  1.0045
  124MPD2    H3 1935   0.175   1.362  10.278 -0.4604 -0.0859  0.3652
  124MPD2     N 1936   0.305   1.803  10.300  0.1489 -1.1092  0.0691
  124MPD2    H5 1937   0.268   1.895  10.281 -0.6712 -1.2663  0.9193
  124MPD2    N1 1938   4.590   1.654  10.184  0.2007 -0.2828  0.4216
  124MPD2    H7 1939   4.544   1.579  10.132  0.5958 -0.8308  0.8535
  125TMC2    C1 1940   2.077   2.574   9.812  0.2989 -0.1808  0.2256
  125TMC2    C2 1941   2.184   2.506   9.761  0.3116  0.3776 -0.0304
  125TMC2    C3 1942   2.306   2.554   9.790  0.6193 -0.1442  0.7391
  125TMC2    C4 1943   2.082   2.687   9.899  0.0283 -0.1406 -0.3360
  125TMC2    C5 1944   2.215   2.710   9.938  0.4995 -0.1199  0.4282
  125TMC2    C6 1945   2.323   2.642   9.887  0.5555  0.8443  0.1761
  125TMC2     C 1946   1.953   2.543   9.748 -0.1538  0.1645  0.3932
  125TMC2     O 1947   1.948   2.433   9.698  0.1363 -0.2295  0.1392
  125TMC2     H 1948   2.177   2.416   9.700 -1.0412  1.1469 -1.0114
  125TMC2    H1 1949   2.002   2.752   9.932 -1.0977 -0.8667 -1.6463
  125TMC2    H2 1950   2.423   2.676   9.911  1.2481 -1.1447  0.1595
  125TMC2    C7 1951   2.247   2.831  10.013 -0.0096 -0.0597 -0.3595
  125TMC2    C8 1952   2.409   2.469   9.752 -0.1607  0.0669 -0.2904
  125TMC2    O1 1953   2.357   2.834  10.065  0.0187  0.0120  0.2126
  125TMC2    O2 1954   2.415   2.407   9.649  0.2643 -0.7224  0.0959
  125TMC2    O5 1955   2.427   2.411   9.868  0.1227 -0.0686  0.2495
  125TMC2    H5 1956   2.415   2.452   9.957 -2.0276 -0.6189  0.2269
  126MPD1     C 1957   1.550   2.679   9.490  0.1172  0.6054  0.0756
  126MPD1    C1 1958   1.598   2.791   9.555  0.3369 -0.3729  0.0294
  126MPD1    C2 1959   1.714   2.777   9.635 -0.0635  0.2288 -0.7525
  126MPD1    C3 1960   1.757   2.651   9.666  0.0808 -0.1485  0.1685
  126MPD1    C4 1961   1.692   2.542   9.615 -0.0210  0.2771  0.0474
  126MPD1    C5 1962   1.593   2.557   9.524 -0.6522  0.0118  0.0781
  126MPD1     H 1963   1.778   2.859   9.666 -1.1297  0.3583  1.1293
  126MPD1    H1 1964   1.733   2.448   9.651  0.2659  0.4834  0.2670
  126MPD1    H2 1965   1.469   2.681   9.418 -1.6785 -1.2480  1.9957
  126MPD1    H3 1966   1.544   2.471   9.481  0.3972 -0.7726  0.4370
  126MPD1     N 1967   1.875   2.649   9.740  0.3382 -0.1287 -0.1884
  126MPD1    H5 1968   1.921   2.738   9.758 -0.4925  0.3788 -0.5728
  126MPD1    N1 1969   1.553   2.921   9.520  0.1830 -0.6620 -0.0416
  126MPD1    H6 1970   1.457   2.912   9.487  0.1008 -1.7351  0.4872
  126MPD1    H7 1971   1.554   2.980   9.602 -0.8736 -0.3725 -0.2421
  127TMC2    C1 1972   3.301   2.836   9.764 -0.7595  0.2523 -0.0330
  127TMC2    C2 1973   3.437   2.808   9.755  0.8368 -0.7675  0.4097
  127TMC2    C3 1974   3.490   2.732   9.854  0.0999 -0.1527 -0.1792
  127TMC2    C4 1975   3.219   2.770   9.852  0.7743  0.3026  0.2111
  127TMC2    C5 1976   3.284   2.701   9.955  0.1368 -0.6810  0.1870
  127TMC2    C6 1977   3.421   2.686   9.959 -0.3847  0.4225 -0.4484
  127TMC2     C 1978   3.254   2.949   9.684 -0.0863  0.3412  0.8312
  127TMC2     O 1979   3.330   3.041   9.649  0.0409  0.4101  0.1005
  127TMC2     H 1980   3.491   2.865   9.681  1.6347 -0.7502  1.0023
  127TMC2    H1 1981   3.112   2.786   9.849  0.4604 -1.6098  0.6644
  127TMC2    H2 1982   3.473   2.634  10.038 -1.2667  0.8616  0.4245
  127TMC2    C7 1983   3.214   2.700  10.079  0.5378 -0.2417  0.1864
  127TMC2    C8 1984   3.632   2.741   9.867  0.0599 -0.3625  0.5196
  127TMC2    O1 1985   3.285   2.723  10.178  0.0289  0.1293 -1.0640
  127TMC2    O2 1986   3.697   2.820   9.799  0.1249  0.3129  0.4185
  127TMC2    O5 1987   3.677   2.624   9.903  0.2962 -0.2407 -0.2467
  127TMC2    H5 1988   3.601   2.563   9.918 -0.3322  0.2180 -1.6103
  128MPD2     C 1989   2.910   3.041   9.582 -0.4281 -0.0001  0.1660
  128MPD2    C1 1990   3.042   3.061   9.619  0.5953  0.7599  0.1914
  128MPD2    C2 1991   3.086   3.195   9.611 -0.5794  0.6199 -0.4835
  128MPD2    C3 1992   3.011   3.297   9.563  1.1116 -0.3042 -0.0401
  128MPD2    C4 1993   2.881   3.270   9.519  0.0959  0.5482 -0.4520
  128MPD2    C5 1994   2.830   3.145   9.540  0.6220 -0.6821  0.6966
  128MPD2     H 1995   3.185   3.231   9.639 -1.1196  0.3783  1.7420
  128MPD2    H1 1996   2.809   3.344   9.486  0.0233  0.8097  0.2898
  128MPD2    H2 1997   2.872   2.939   9.583  0.2048 -0.2281  0.8894
  128MPD2    H3 1998   2.724   3.123   9.530  0.1831  2.1443 -0.8616
  128MPD2     N 1999   3.065   3.429   9.575 -0.0126 -0.4912 -0.1155
  128MPD2    H5 2000   3.145   3.434   9.638 -0.5570 -0.3874  0.5733
  128MPD2    N1 2001   3.118   2.949   9.665 -0.0430  0.2990 -0.2658
  128MPD2    H7 2002   3.075   2.857   9.667 -0.3169  0.4465  0.7678
  129TMC2    C1 2003   3.143   2.894   1.560 -0.1240 -0.9517  0.3576
  129TMC2    C2 2004   3.115   2.966   1.679 -0.3722 -0.2855  0.4166
  129TMC2    C3 2005   3.024   2.910   1.765 -0.5303  0.5413 -0.0704
  129TMC2    C4 2006   3.082   2.771   1.533  0.5960  0.2625 -0.3612
  129TMC2    C5 2007   2.978   2.733   1.616  0.4634 -0.0875 -0.1398
  129TMC2    C6 2008   2.946   2.802   1.733 -0.5374  0.4513 -0.8708
  129TMC2     C 2009   3.209   2.953   1.444 -0.1473 -0.6946  0.0421
  129TMC2     O 2010   3.254   2.883   1.358 -0.3742 -0.6906  0.1154
  129TMC2     H 2011   3.179   3.049   1.708 -0.4922 -0.1968  0.4294
  129TMC2    H1 2012   3.096   2.719   1.439 -2.1669 -0.4564 -0.3738
  129TMC2    H2 2013   2.869   2.762   1.798  1.3647 -0.3691  0.8814
  129TMC2    C7 2014   2.855   2.694   1.553  0.0620  0.3773  0.1808
  129TMC2    C8 2015   2.984   2.973   1.891 -0.2950  0.1803  0.1444
  129TMC2    O1 2016   2.753   2.749   1.587  0.3113  0.3376 -0.0962
  129TMC2    O2 2017   2.969   3.093   1.916  0.4037  0.4813  0.0226
  129TMC2    O5 2018   2.961   2.870   1.976  0.0127  0.2360 -0.1986
  129TMC2    H5 2019   3.000   2.784   1.951  3.1552  0.8261  2.6660
  130MPD2     C 2020   3.352   3.148   1.264  0.2568 -0.0786 -0.1299
  130MPD2    C1 2021   3.268   3.188   1.370  0.5833 -1.0659  0.1162
  130MPD2    C2 2022   3.247   3.320   1.398  0.1150  0.1715 -0.3060
  130MPD2    C3 2023   3.297   3.407   1.309 -0.0047 -0.8058 -0.3626
  130MPD2    C4 2024   3.360   3.374   1.190 -0.8199  0.1290  0.2204
  130MPD2    C5 2025   3.397   3.243   1.172 -0.1543  0.2210 -0.0301
  130MPD2     H 2026   3.199   3.354   1.489 -0.8070  2.1413 -1.5357
  130MPD2    H1 2027   3.387   3.448   1.115  2.4325 -0.7678  0.4880
  130MPD2    H2 2028   3.362   3.043   1.242 -1.5836 -0.2869 -0.0125
  130MPD2    H3 2029   3.453   3.210   1.085  0.7937 -0.7289  0.9463
  130MPD2     N 2030   3.269   3.538   1.342 -0.3788  0.1747 -0.6271
  130MPD2    H5 2031   3.202   3.544   1.418  2.0537  1.3382  1.4223
  130MPD2    N1 2032   3.207   3.092   1.457  0.4787  0.2984 -0.1001
  130MPD2    H7 2033   3.167   3.130   1.541 -1.4275 -2.3778  0.2069
  131TMC2    C1 2034   0.510   1.840   9.559 -0.2311 -0.4453  0.0546
  131TMC2    C2 2035   0.564   1.888   9.443  0.3777  0.2696  0.2837
  131TMC2    C3 2036   0.681   1.958   9.438  0.3462 -0.5554  0.3141
  131TMC2    C4 2037   0.587   1.857   9.673  0.0824 -0.1425  0.5423
  131TMC2    C5 2038   0.701   1.936   9.665  0.3171  0.5511 -0.0704
  131TMC2    C6 2039   0.748   1.984   9.548  0.0651  0.6969  0.4622
  131TMC2     C 2040   0.384   1.775   9.575 -0.2640 -0.1871 -0.9593
  131TMC2     O 2041   0.354   1.745   9.689  0.5921  0.5603 -0.4582
  131TMC2     H 2042   0.517   1.867   9.348  0.7515 -0.4595  0.2575
  131TMC2    H1 2043   0.553   1.835   9.773  0.8482 -0.6719  0.6899
  131TMC2    H2 2044   0.839   2.042   9.538 -0.1186  0.7828 -0.7117
  131TMC2    C7 2045   0.783   1.938   9.786 -0.8124  0.0022 -0.1557
  131TMC2    C8 2046   0.771   1.932   9.327  0.6301 -0.6205  0.2926
  131TMC2    O1 2047   0.746   1.869   9.881  0.2924 -0.1104 -0.0027
  131TMC2    O2 2048   0.890   1.922   9.348  0.1620  0.8330  0.4602
  131TMC2    O5 2049   0.704   1.909   9.216 -0.3177  0.0300  0.0229
  131TMC2    H5 2050   0.616   1.952   9.219  0.1295  1.0016 -0.5572
  132MPD2     C 2051   0.102   1.709   9.348  0.1475 -1.0401  0.5716
  132MPD2    C1 2052   0.169   1.747   9.465 -0.6268  0.4373 -0.3509
  132MPD2    C2 2053   0.090   1.762   9.582  0.1015  0.4696  0.4029
  132MPD2    C3 2054   4.687   1.740   9.582 -0.2898 -0.6081 -0.6924
  132MPD2    C4 2055   4.632   1.673   9.476 -0.1842  0.1313 -0.2090
  132MPD2    C5 2056   4.706   1.667   9.361  0.4186  1.0081 -1.1002
  132MPD2     H 2057   0.139   1.805   9.668  3.2316  0.9126 -1.6283
  132MPD2    H1 2058   4.531   1.637   9.464 -0.3458 -0.3685  2.7699
  132MPD2    H2 2059   0.156   1.708   9.254 -0.3749 -0.1176  0.2666
  132MPD2    H3 2060   4.659   1.625   9.273  0.2134  1.5226 -1.2384
  132MPD2     N 2061   4.618   1.758   9.704  0.1633  0.6475 -0.2833
  132MPD2    H5 2062   4.668   1.786   9.787 -0.0417 -0.2652  0.1408
  132MPD2    N1 2063   0.307   1.776   9.458  0.4643  0.0884  0.4527
  132MPD2    H7 2064   0.359   1.757   9.374  1.1275  0.4303  0.7839
  133TMC2    C1 2065   0.982   3.729   9.629 -0.2358 -0.2886  0.1165
  133TMC2    C2 2066   1.085   3.641   9.635 -0.0223  0.0034 -0.6206
  133TMC2    C3 2067   1.205   3.695   9.647 -0.0659  0.9287  0.2707
  133TMC2    C4 2068   1.000   3.864   9.636  0.0656  0.4175 -0.1862
  133TMC2    C5 2069   1.128   3.914   9.647  0.6413 -0.0920 -0.4804
  133TMC2    C6 2070   1.236   3.828   9.646  1.0932  1.1221  0.3294
  133TMC2     C 2071   0.866   3.677   9.699  0.3128  0.1045  0.3196
  133TMC2     O 2072   0.847   3.554   9.700 -0.1058 -0.4699 -0.0593
  133TMC2     H 2073   1.074   3.533   9.644  4.2771 -0.3052  1.2713
  133TMC2    H1 2074   0.921   3.937   9.627  1.3464  1.7325 -0.7119
  133TMC2    H2 2075   1.340   3.856   9.658  0.6988  3.1009 -0.9032
  133TMC2    C7 2076   1.164   4.044   9.592 -0.1830 -0.2900 -0.1746
  133TMC2    C8 2077   1.306   3.603   9.686  0.4348 -0.6214 -0.2992
  133TMC2    O1 2078   1.276   4.060   9.540  0.1952  0.1851  0.2456
  133TMC2    O2 2079   1.280   3.490   9.738  0.2752  0.6819  0.2420
  133TMC2    O5 2080   1.426   3.629   9.625  0.3634  0.1619 -0.8475
  133TMC2    H5 2081   1.399   3.687   9.550  0.5178  0.3117 -0.7882
  134MPD2     C 2082   0.623   3.855   9.927  0.8143 -0.0472 -0.1013
  134MPD2    C1 2083   0.673   3.756   9.843 -0.2608  0.2887  0.4860
  134MPD2    C2 2084   0.595   3.637   9.832 -0.1060  0.1859  0.3993
  134MPD2    C3 2085   0.483   3.616   9.909  0.1194 -0.0761 -0.2077
  134MPD2    C4 2086   0.437   3.719   9.991  0.5252 -0.6426  0.1494
  134MPD2    C5 2087   0.510   3.834  10.003 -0.8477  0.8411 -0.0477
  134MPD2     H 2088   0.617   3.563   9.756 -2.2302  0.8082 -0.8424
  134MPD2    H1 2089   0.344   3.710  10.045  0.0582 -0.6978 -0.6696
  134MPD2    H2 2090   0.672   3.952   9.929  0.6570  0.0462 -0.9068
  134MPD2    H3 2091   0.468   3.912  10.064  2.2713  1.2035  1.6556
  134MPD2     N 2092   0.408   3.495   9.897  0.1295 -0.1168 -0.4047
  134MPD2    H5 2093   0.313   3.497   9.934  0.3536 -1.3774  0.2204
  134MPD2    N1 2094   0.790   3.771   9.771 -0.5186 -0.0393  0.5867
  134MPD2    H7 2095   0.846   3.854   9.783  1.7121 -1.4821  0.1434
  135TMC2    C1 2096   1.829   4.663  10.174  0.7847 -0.0156 -0.0913
  135TMC2    C2 2097   1.786   4.691  10.301 -0.1063 -0.2543  0.2702
  135TMC2    C3 2098   1.690   4.606  10.350  0.6210 -0.1774 -0.4592
  135TMC2    C4 2099   1.779   4.557  10.104  0.3128  0.1058  0.3823
  135TMC2    C5 2100   1.692   4.459  10.161 -0.4759  0.5635 -0.0424
  135TMC2    C6 2101   1.650   4.492  10.286  0.5503 -0.9187  0.0545
  135TMC2     C 2102   1.951   4.728  10.130  0.0075 -0.1255  0.7479
  135TMC2     O 2103   1.986   0.082  10.207  0.6114 -0.8103 -0.2263
  135TMC2     H 2104   1.809   0.048  10.351  0.6614 -0.6531  0.6550
  135TMC2    H1 2105   1.806   4.536  10.001 -1.1575 -1.9444  0.4197
  135TMC2    H2 2106   1.568   4.436  10.331  1.0582 -0.7868  1.1472
  135TMC2    C7 2107   1.600   4.378  10.078 -0.4588  0.4696 -0.5683
  135TMC2    C8 2108   1.593   4.653  10.441 -0.3136 -0.2734  0.0958
  135TMC2    O1 2109   1.607   4.399   9.957  0.3446  0.8035 -0.2127
  135TMC2    O2 2110   1.471   4.629  10.416  0.0746  0.3260 -0.1762
  135TMC2    O5 2111   1.643   0.015  10.522  0.7747  0.6052  0.4062
  135TMC2    H5 2112   1.740   0.005  10.533  0.9417 -0.2642 -1.6978
  136MPD2     C 2113   2.243   0.031  10.039  0.8533  0.6780 -0.2286
  136MPD2    C1 2114   2.164   4.663   9.998 -0.5969 -0.4007 -0.0764
  136MPD2    C2 2115   2.209   4.564   9.915  0.4644  0.2627  1.0155
  136MPD2    C3 2116   2.344   4.563   9.875  0.3856 -0.3669  0.0833
  136MPD2    C4 2117   2.424   4.674   9.913 -0.3178 -0.6417 -0.5763
  136MPD2    C5 2118   2.371   0.038   9.990  0.4674  0.3901  0.0161
  136MPD2     H 2119   2.147   4.479   9.889  0.4203  0.3721  0.7687
  136MPD2    H1 2120   2.527   4.680   9.881 -0.8016  4.1063 -1.2435
  136MPD2    H2 2121   2.204   0.102  10.112 -1.0145 -0.8321  0.2729
  136MPD2    H3 2122   2.433   0.120  10.022  0.3784  1.2999 -2.1424
  136MPD2     N 2123   2.398   4.464   9.790  0.0291  0.6086 -0.2059
  136MPD2    H5 2124   2.498   4.462   9.775 -0.0554  0.1520 -0.6780
  136MPD2    N1 2125   2.027   4.651  10.038  0.1166  0.4390  0.0510
  136MPD2    H7 2126   1.988   4.564  10.003  1.1885  0.7812 -1.9760
  137TMC2    C1 2127   2.362   2.759  10.469  0.1921 -0.8615 -0.1935
  137TMC2    C2 2128   2.487   2.816  10.448  0.8512  0.8114  0.2714
  137TMC2    C3 2129   2.568   2.763  10.351  0.6872  0.0880  0.6152
  137TMC2    C4 2130   2.308   2.659  10.389  0.1188  0.2049 -0.3962
  137TMC2    C5 2131   2.387   2.616  10.286 -0.0099 -0.5961 -0.4341
  137TMC2    C6 2132   2.518   2.667  10.266  0.0612  0.2564  0.3519
  137TMC2     C 2133   2.276   2.812  10.571  0.3599  0.0001  0.3527
  137TMC2     O 2134   2.160   2.826  10.534 -0.8047 -0.0030  0.0509
  137TMC2     H 2135   2.515   2.905  10.504  0.1300  0.7830  0.6803
  137TMC2    H1 2136   2.215   2.611  10.415 -1.4436  3.3917 -0.1405
  137TMC2    H2 2137   2.583   2.643  10.182  0.9927 -0.0687  1.1621
  137TMC2    C7 2138   2.340   2.508  10.201 -0.7366  0.3474 -0.5791
  137TMC2    C8 2139   2.659   2.860  10.292  0.7518  0.1614  0.2672
  137TMC2    O1 2140   2.420   2.452  10.127 -0.3309  0.0444 -0.1560
  137TMC2    O2 2141   2.744   2.920  10.353  0.2583  0.3576  0.2335
  137TMC2    O5 2142   2.584   2.912  10.193  0.6313 -0.1982  0.1405
  137TMC2    H5 2143   2.497   2.875  10.166 -0.4413  2.2783  0.2080
  138MPD2     C 2144   2.366   2.864  10.925  0.4664 -0.6951  0.7506
  138MPD2    C1 2145   2.287   2.876  10.813  0.1312  0.8760 -0.3385
  138MPD2    C2 2146   2.166   2.946  10.822  0.4185  0.2007 -0.4424
  138MPD2    C3 2147   2.116   2.989  10.942  0.2196  0.4767  0.1896
  138MPD2    C4 2148   2.196   2.979  11.054  0.4529  0.8463 -0.0932
  138MPD2    C5 2149   2.322   2.918  11.038 -0.4425 -0.2410  0.2489
  138MPD2     H 2150   2.119   2.964  10.726 -0.5171 -0.2887 -0.0734
  138MPD2    H1 2151   2.167   3.024  11.148  1.4373  2.5223 -0.5937
  138MPD2    H2 2152   2.459   2.809  10.924  0.1233 -1.2498 -0.7288
  138MPD2    H3 2153   2.387   2.907  11.124  1.3702 -0.9913 -1.2151
  138MPD2     N 2154   1.999   3.069  10.942 -0.5091  0.0632 -0.6261
  138MPD2    H5 2155   1.945   3.078  10.857 -0.5463 -0.1572 -0.6260
  138MPD2    N1 2156   2.341   2.826  10.695  0.4925 -0.2160  0.2657
  138MPD2    H7 2157   2.433   2.787  10.712  1.3044  1.6465  0.2249
  139TMC2    C1 2158   3.597   2.075  13.790  0.1530  0.0213 -0.0445
  139TMC2    C2 2159   3.695   2.162  13.828  0.6743 -0.1420  0.0429
  139TMC2    C3 2160   3.668   2.293  13.855  0.4994 -0.0976 -0.1150
  139TMC2    C4 2161   3.465   2.114  13.796  0.2851 -0.3211  0.2111
  139TMC2    C5 2162   3.443   2.246  13.819  1.1605 -0.4811  0.2844
  139TMC2    C6 2163   3.542   2.342  13.842  0.5632 -0.6063  0.4639
  139TMC2     C 2164   3.617   1.931  13.801  0.3496 -0.6648 -0.1536
  139TMC2     O 2165   3.537   1.848  13.759  0.1468  0.1190  0.3888
  139TMC2     H 2166   3.796   2.132  13.854  1.1510 -0.2430 -1.9261
  139TMC2    H1 2167   3.389   2.041  13.770  0.5681 -1.1761  1.7938
  139TMC2    H2 2168   3.515   2.445  13.863 -0.0229 -0.5366 -0.6185
  139TMC2    C7 2169   3.310   2.289  13.834  0.0722 -0.5153 -0.1048
  139TMC2    C8 2170   3.773   2.393  13.865  0.0163 -0.1015 -0.8693
  139TMC2    O1 2171   3.290   2.396  13.895  0.1522 -0.0045 -0.0213
  139TMC2    O2 2172   3.850   2.384  13.959 -0.2222 -0.3355  0.1751
  139TMC2    O5 2173   3.750   2.501  13.794  0.9433  0.4890  0.2074
  139TMC2    H5 2174   3.672   2.486  13.736 -0.2549  2.6832  1.2281
  140MPD2     C 2175   3.881   1.772  13.985 -0.1925  0.4577  0.8545
  140MPD2    C1 2176   3.782   1.776  13.894 -0.5567 -0.1436  0.2752
  140MPD2    C2 2177   3.729   1.662  13.846 -0.3572 -0.1641 -0.3467
  140MPD2    C3 2178   3.771   1.538  13.888 -0.7407  1.6650 -0.0435
  140MPD2    C4 2179   3.871   1.534  13.988  0.1336 -0.4455  0.4272
  140MPD2    C5 2180   3.930   1.652  14.020 -0.9067 -0.3049 -0.0522
  140MPD2     H 2181   3.657   1.666  13.765 -2.3606 -1.2930  1.3680
  140MPD2    H1 2182   3.905   1.440  14.029  0.3278 -0.4885  0.1633
  140MPD2    H2 2183   3.919   1.862  14.030  0.5258  0.9476 -0.7297
  140MPD2    H3 2184   4.008   1.649  14.095 -1.1617  0.1002  0.2264
  140MPD2     N 2185   3.713   1.419  13.828 -0.1898 -0.0279  0.4305
  140MPD2    H5 2186   3.641   1.431  13.757 -0.0309 -2.6071 -0.1454
  140MPD2    N1 2187   3.734   1.906  13.870 -0.5442  0.2506 -0.6226
  140MPD2    H7 2188   3.796   1.983  13.896  1.1275 -0.9490 -1.0529
  141TMC2    C1 2189   3.810   3.232  14.467  0.4799  0.3012 -0.2523
  141TMC2    C2 2190   3.676   3.226  14.454  0.5085  0.1436 -0.0165
  141TMC2    C3 2191   3.597   3.327  14.492 -0.1156  0.2569  0.9522
  141TMC2    C4 2192   3.871   3.349  14.508  0.0018 -0.3759 -0.4862
  141TMC2    C5 2193   3.790   3.448  14.555  0.1089  0.7339  0.4565
  141TMC2    C6 2194   3.652   3.440  14.548  0.6450 -0.3177 -0.2044
  141TMC2     C 2195   3.883   3.148  14.377 -0.4808 -0.7728 -0.6631
  141TMC2     O 2196   3.822   3.105  14.283 -0.3283 -0.4523 -0.3679
  141TMC2     H 2197   3.624   3.138  14.416  3.0187 -0.8529 -1.1233
  141TMC2    H1 2198   3.979   3.357  14.507  0.1160 -1.9899 -0.6517
  141TMC2    H2 2199   3.586   3.526  14.546  1.4992  0.3426  0.1569
  141TMC2    C7 2200   3.835   3.550  14.642  0.5052  0.5626  0.4037
  141TMC2    C8 2201   3.454   3.310  14.499  0.2890  0.2191 -0.0940
  141TMC2    O1 2202   3.757   3.637  14.670  0.1560 -0.1090 -0.3082
  141TMC2    O2 2203   3.386   3.280  14.398 -0.1715 -0.3113  0.1888
  141TMC2    O5 2204   3.403   3.390  14.592 -0.3132  0.2614  0.0684
  141TMC2    H5 2205   3.475   3.392  14.659  0.3830 -2.3789 -0.5869
  142TMC2    C1 2206   1.424   1.771  10.771  0.0778 -0.2929  0.7005
  142TMC2    C2 2207   1.447   1.845  10.884 -0.1679  1.0064  0.9198
  142TMC2    C3 2208   1.471   1.979  10.860 -0.2725 -0.0766 -0.1261
  142TMC2    C4 2209   1.414   1.834  10.647  0.6833 -0.3803  0.0938
  142TMC2    C5 2210   1.424   1.970  10.630  0.2430  0.1933 -0.8114
  142TMC2    C6 2211   1.457   2.040  10.741 -0.1909 -0.2679 -0.1208
  142TMC2     C 2212   1.349   1.645  10.779  0.3259  0.5121 -0.0614
  142TMC2     O 2213   1.285   1.614  10.677 -0.2511 -0.0835 -0.0561
  142TMC2     H 2214   1.458   1.812  10.987 -2.9212 -2.1350  0.2089
  142TMC2    H1 2215   1.394   1.772  10.561  1.8415 -1.2356  0.4427
  142TMC2    H2 2216   1.472   2.147  10.741 -1.8292 -0.0321  0.9572
  142TMC2    C7 2217   1.335   2.021  10.531  0.3062 -0.2947  0.7177
  142TMC2    C8 2218   1.549   2.052  10.962 -0.8645  0.2501  0.7242
  142TMC2    O1 2219   1.292   1.947  10.446  0.2451  0.2745  0.0560
  142TMC2    O2 2220   1.532   2.035  11.084 -0.0731 -0.8734  0.0393
  142TMC2    O5 2221   1.672   2.098  10.919 -0.8024  0.6023 -0.5309
  142TMC2    H5 2222   1.685   2.109  10.822  1.6154  0.1844 -0.2627
  143MPD2     C 2223   1.213   1.200  11.000  0.0366 -0.5377  0.2254
  143MPD2    C1 2224   1.196   1.243  10.873 -0.1098  0.7623  0.0473
  143MPD2    C2 2225   1.253   1.362  10.830  0.0920 -0.7001  0.0049
  143MPD2    C3 2226   1.324   1.443  10.916  0.0631  0.3430 -0.0287
  143MPD2    C4 2227   1.352   1.393  11.044  0.2993 -0.9581 -0.1278
  143MPD2    C5 2228   1.297   1.269  11.079 -0.8685 -0.5643  0.8245
  143MPD2     H 2229   1.245   1.396  10.727  0.0509 -2.3390 -0.5267
  143MPD2    H1 2230   1.432   1.436  11.103  0.2444  2.5284 -2.5873
  143MPD2    H2 2231   1.162   1.109  11.032 -0.6626 -0.1277  0.2885
  143MPD2    H3 2232   1.304   1.221  11.176  1.0807 -3.6026 -0.8208
  143MPD2     N 2233   1.377   1.570  10.893 -0.2494  0.4933 -0.1308
  143MPD2    H5 2234   1.421   1.614  10.973 -0.9343  0.5960  0.1885
  143MPD2    N1 2235   1.119   1.170  10.777 -0.0108 -0.2675 -0.0203
  143MPD2    H7 2236   1.069   1.090  10.813 -1.4364 -0.2336 -1.9050
  144TMC2    C1 2237   0.269   0.795   0.658  0.3473  0.8517 -0.2054
  144TMC2    C2 2238   0.367   0.724   0.599 -0.2794 -0.7848 -0.4069
  144TMC2    C3 2239   0.478   0.693   0.672  0.1357  0.3405 -0.2142
  144TMC2    C4 2240   0.285   0.849   0.782 -0.3869 -0.8339 -0.4759
  144TMC2    C5 2241   0.400   0.824   0.853 -0.1269 -0.0603 -0.3891
  144TMC2    C6 2242   0.494   0.746   0.802 -0.7130  0.5623  0.4200
  144TMC2     C 2243   0.150   0.830   0.580 -0.0356  0.5986  0.0653
  144TMC2     O 2244   0.103   0.748   0.502  0.6765  0.0702  1.0568
  144TMC2     H 2245   0.361   0.683   0.499 -0.4521 -1.1010 -0.2682
  144TMC2    H1 2246   0.206   0.901   0.835  0.5230 -0.0803  0.1371
  144TMC2    H2 2247   0.579   0.711   0.860 -0.3831 -1.8712 -1.4943
  144TMC2    C7 2248   0.408   0.854   0.994 -0.1419 -0.1268 -0.8461
  144TMC2    C8 2249   0.550   0.577   0.628 -0.0944  0.1075  0.0280
  144TMC2    O1 2250   0.468   0.770   1.059 -0.1673 -0.8522  0.6555
  144TMC2    O2 2251   0.494   0.481   0.575 -0.7375 -0.3198 -0.0530
  144TMC2    O5 2252   0.644   0.556   0.718  0.1376  0.2349  0.5423
  144TMC2    H5 2253   0.697   0.638   0.724 -0.1956  0.4693  0.2831
  145MPD2     C 2254   4.494   1.135   0.460  0.2186 -0.3565 -0.1999
  145MPD2    C1 2255   4.540   1.020   0.400 -0.4115 -0.2150 -0.0015
  145MPD2    C2 2256   4.649   0.959   0.453  0.0391 -0.8776  0.4006
  145MPD2    C3 2257   4.718   1.007   0.566 -0.4936 -0.1110 -0.5412
  145MPD2    C4 2258   4.674   1.127   0.622  0.3972  0.6794  0.2001
  145MPD2    C5 2259   4.566   1.195   0.567  0.5358  0.5524  0.7090
  145MPD2     H 2260   4.688   0.873   0.400 -1.7970 -1.0030 -0.7378
  145MPD2    H1 2261   4.729   1.172   0.704  1.1546 -0.2782  0.2263
  145MPD2    H2 2262   4.403   1.187   0.431  0.8875  0.6395 -0.5153
  145MPD2    H3 2263   4.535   1.298   0.583  0.8347  0.7913 -0.2681
  145MPD2     N 2264   0.097   0.950   0.623  0.5991 -0.0374  0.1447
  145MPD2    H5 2265   0.146   1.006   0.691 -1.4379  0.7647  0.9373
  145MPD2    N1 2266   4.473   0.964   0.291 -0.1723 -0.1512  0.6084
  145MPD2    H7 2267   4.519   0.884   0.250 -1.9514 -0.2051 -1.2423
  146TMC2    C1 2268   0.561   4.442  12.974  0.0907 -0.2649 -0.0354
  146TMC2    C2 2269   0.443   4.453  12.906  0.1908 -0.0465  0.1175
  146TMC2    C3 2270   0.430   4.408  12.784  0.1848 -0.0468  0.5052
  146TMC2    C4 2271   0.673   4.376  12.929  0.5676 -0.2203 -0.6527
  146TMC2    C5 2272   0.652   4.323  12.803 -0.5438  0.1844 -0.0602
  146TMC2    C6 2273   0.531   4.329  12.732 -1.0284  0.3771 -0.8480
  146TMC2     C 2274   0.558   4.511  13.098 -0.2316  0.7185 -0.9209
  146TMC2     O 2275   0.504   4.617  13.105 -0.2220  0.8070 -0.7577
  146TMC2     H 2276   0.350   4.479  12.955  0.5007 -0.4319  0.9176
  146TMC2    H1 2277   0.760   4.363  12.993 -0.8548  0.7916  1.5012
  146TMC2    H2 2278   0.523   4.289  12.631 -0.3664  0.0688 -0.7842
  146TMC2    C7 2279   0.769   4.284  12.736 -0.1321  0.5036 -0.5045
  146TMC2    C8 2280   0.303   4.378  12.738 -0.1291 -0.5703 -0.9482
  146TMC2    O1 2281   0.773   4.304  12.616 -0.1038  0.3422  0.7330
  146TMC2    O2 2282   0.225   4.306  12.802 -0.6141 -0.0069 -0.1107
  146TMC2    O5 2283   0.302   4.396  12.602  0.4311  0.4024  0.4951
  146TMC2    H5 2284   0.367   4.459  12.564 -0.9645  1.1779 -0.6492
  147MPD2     C 2285   1.249   4.101  12.693 -0.1226  0.0713  0.0475
  147MPD2    C1 2286   1.214   4.100  12.826 -0.4899 -1.2714  0.5682
  147MPD2    C2 2287   1.089   4.146  12.863  0.0670 -1.1572  0.3363
  147MPD2    C3 2288   0.998   4.193  12.770 -0.1643  0.5687 -0.0373
  147MPD2    C4 2289   1.043   4.197  12.640 -0.3001  0.2465 -0.5092
  147MPD2    C5 2290   1.174   4.168  12.601  0.1034  0.0321  0.3939
  147MPD2     H 2291   1.057   4.149  12.966  0.3531  3.6933  0.2706
  147MPD2    H1 2292   0.980   4.236  12.561  0.1157  0.8363 -0.5475
  147MPD2    H2 2293   1.333   4.042  12.659  0.2776  0.0543  1.0863
  147MPD2    H3 2294   1.202   4.168  12.496  0.4022  1.4920  0.4731
  147MPD2     N 2295   0.865   4.220  12.814  0.2276  0.7913 -0.0178
  147MPD2    H5 2296   0.837   4.194  12.907  1.3683  0.1323  0.1397
  147MPD2    N1 2297   1.308   4.039  12.911  0.1023 -0.0173 -0.0266
  147MPD2    H7 2298   1.386   3.991  12.868 -0.2745 -0.2044 -0.5002
  148TMC2    C1 2299   0.680   3.231  11.193 -0.1111  0.1293 -0.8441
  148TMC2    C2 2300   0.740   3.303  11.284  0.2332 -0.3174  0.0600
  148TMC2    C3 2301   0.831   3.244  11.367 -0.1896 -0.1980 -0.2646
  148TMC2    C4 2302   0.730   3.106  11.159 -0.0379 -0.7881 -0.7667
  148TMC2    C5 2303   0.827   3.049  11.240  0.3985  0.4072  0.5157
  148TMC2    C6 2304   0.882   3.122  11.346  0.0825 -0.0394 -0.2117
  148TMC2     C 2305   0.580   3.294  11.103 -0.0492  0.0444 -0.3042
  148TMC2     O 2306   0.518   3.384  11.157  0.4399  0.1889 -0.3240
  148TMC2     H 2307   0.715   3.408  11.286  0.8952 -0.1522 -0.3936
  148TMC2    H1 2308   0.690   3.050  11.075 -3.1552 -2.6485  1.9776
  148TMC2    H2 2309   0.942   3.076  11.423 -0.9503 -0.6679  0.2221
  148TMC2    C7 2310   0.854   2.908  11.222 -0.1400 -0.4452  0.3849
  148TMC2    C8 2311   0.916   3.323  11.451  0.6334  0.6510  1.1272
  148TMC2    O1 2312   0.773   2.858  11.141 -0.3758 -0.0766  0.3520
  148TMC2    O2 2313   1.032   3.292  11.488 -0.0762  0.3596  0.0304
  148TMC2    O5 2314   0.845   3.426  11.499  0.0134  0.2511  0.4443
  148TMC2    H5 2315   0.751   3.396  11.499  0.2514 -0.4951  0.2085
  149MPD2     C 2316   0.350   3.365  10.926  0.0281 -0.2723  0.4354
  149MPD2    C1 2317   0.433   3.255  10.912 -0.2268 -0.5534 -0.2347
  149MPD2    C2 2318   0.418   3.177  10.792 -1.0320 -0.0187 -0.3725
  149MPD2    C3 2319   0.317   3.203  10.705  0.2855 -0.4395 -0.3040
  149MPD2    C4 2320   0.236   3.315  10.725 -0.2723  0.5717  0.2874
  149MPD2    C5 2321   0.253   3.388  10.834  0.0139 -0.0478  0.1924
  149MPD2     H 2322   0.495   3.102  10.781 -0.2452  1.1038 -2.5611
  149MPD2    H1 2323   0.147   3.329  10.664 -1.0912 -2.1663  0.8258
  149MPD2    H2 2324   0.352   3.430  11.013 -1.1269 -0.5972  0.7032
  149MPD2    H3 2325   0.196   3.479  10.848 -0.9977 -0.9400  1.8843
  149MPD2     N 2326   0.285   3.114  10.600 -0.2179 -0.0797 -0.5467
  149MPD2    H5 2327   0.205   3.137  10.543 -1.6765 -1.7148  0.8583
  149MPD2    N1 2328   0.540   3.220  10.997 -0.4256  0.2140 -0.3102
  149MPD2    H7 2329   0.602   3.146  10.966 -2.4194 -0.5453 -2.4645
  150TMC2    C1 2330   2.675   2.353  12.601  0.6653  0.5431 -0.7197
  150TMC2    C2 2331   2.663   2.485  12.580  0.8389 -0.0467 -0.0845
  150TMC2    C3 2332   2.776   2.562  12.566 -0.0492  0.1031  0.7683
  150TMC2    C4 2333   2.800   2.289  12.606 -0.2256 -0.3338 -0.2035
  150TMC2    C5 2334   2.914   2.362  12.581 -0.0855  0.2129 -0.1901
  150TMC2    C6 2335   2.897   2.498  12.556 -0.0972 -0.4205 -0.1674
  150TMC2     C 2336   2.560   2.272  12.580  0.8161  0.1818  0.0820
  150TMC2     O 2337   2.452   2.328  12.598 -0.6084  0.3464 -0.1839
  150TMC2     H 2338   2.563   2.524  12.567  0.2665 -1.0005  1.4573
  150TMC2    H1 2339   2.823   2.188  12.639  3.0626  0.5754  0.3120
  150TMC2    H2 2340   2.975   2.567  12.526  0.0996 -1.3708 -1.8560
  150TMC2    C7 2341   3.049   2.303  12.581  0.2122  0.0676 -0.5070
  150TMC2    C8 2342   2.760   2.685  12.482  0.4771  0.3223  0.5447
  150TMC2    O1 2343   3.042   2.187  12.617 -0.1151 -0.3822 -0.2865
  150TMC2    O2 2344   2.857   2.738  12.433 -0.2632 -0.3758  0.7131
  150TMC2    O5 2345   2.656   2.766  12.506 -0.4434 -0.2673 -0.3445
  150TMC2    H5 2346   2.590   2.739  12.573  0.1954 -0.3815  0.2286
  151MPD2     C 2347   2.304   1.919  12.356  0.7982  0.0737 -1.3253
  151MPD2    C1 2348   2.412   1.943  12.279 -0.0088 -0.1075 -0.5662
  151MPD2    C2 2349   2.511   2.026  12.329 -0.5577 -0.5240 -0.1345
  151MPD2    C3 2350   2.503   2.075  12.458  0.0524  0.0305 -0.0992
  151MPD2    C4 2351   2.394   2.044  12.537  0.3298  0.8091 -0.4649
  151MPD2    C5 2352   2.296   1.963  12.484 -0.2483 -0.6834 -0.0017
  151MPD2     H 2353   2.595   2.054  12.265 -0.2707  2.2372  1.4409
  151MPD2    H1 2354   2.391   2.071  12.642 -2.7937  0.0949 -0.3788
  151MPD2    H2 2355   2.224   1.866  12.305  0.0574  0.5579 -0.6560
  151MPD2    H3 2356   2.215   1.925  12.544 -0.8249 -0.0028 -0.3336
  151MPD2     N 2357   2.601   2.163  12.508 -0.3638 -0.0594 -0.0168
  151MPD2    H5 2358   2.698   2.152  12.480  0.4602 -1.7182  3.4113
  151MPD2    N1 2359   2.412   1.896  12.143 -0.0032 -0.2444 -0.1809
  151MPD2    H7 2360   2.329   1.838  12.130 -0.1928  0.5072 -2.2857
  152TMC2    C1 2361   2.852   2.208  13.006  0.8743 -0.2041 -0.0351
  152TMC2    C2 2362   2.906   2.081  13.019 -0.3514  0.1131 -1.1823
  152TMC2    C3 2363   3.046   2.070  13.007  0.3764 -0.9700  0.2207
  152TMC2    C4 2364   2.927   2.312  12.964 -0.2056 -0.2335  0.2951
  152TMC2    C5 2365   3.062   2.300  12.951  0.7767  0.1266 -0.0730
  152TMC2    C6 2366   3.125   2.177  12.969  0.4018 -0.6222  0.0172
  152TMC2     C 2367   2.705   2.224  12.984  0.6925 -0.5360 -0.0724
  152TMC2     O 2368   2.665   2.312  12.909 -0.1711  0.0556  0.0883
  152TMC2     H 2369   2.850   1.992  13.044 -0.3255  0.4109 -0.0793
  152TMC2    H1 2370   2.872   2.405  12.959  0.3192  0.0277 -0.5635
  152TMC2    H2 2371   3.230   2.166  12.946  0.6614 -1.4427  1.5951
  152TMC2    C7 2372   3.139   2.423  12.935  0.2251 -0.1391  1.2544
  152TMC2    C8 2373   3.099   1.949  13.074 -0.0253 -0.1666 -0.0623
  152TMC2    O1 2374   3.074   2.515  12.887 -0.0576  0.1514  0.0527
  152TMC2    O2 2375   3.026   1.857  13.107 -0.6294 -0.1859  0.4826
  152TMC2    O5 2376   3.220   1.975  13.130  0.4092  0.1495 -0.2855
  152TMC2    H5 2377   3.263   2.060  13.107  0.8578 -0.3681 -1.3235
  153MPD2     C 2378   2.465   1.980  13.117  0.0463  0.2659  0.0693
  153MPD2    C1 2379   2.502   2.093  13.045 -0.1099 -0.4082 -0.4170
  153MPD2    C2 2380   2.414   2.157  12.961 -0.0789  0.1015  0.6056
  153MPD2    C3 2381   2.292   2.096  12.935 -0.6205  0.4591  0.0715
  153MPD2    C4 2382   2.261   1.984  13.006  0.0552  0.8605  0.0779
  153MPD2    C5 2383   2.346   1.925  13.092  0.6627 -0.0443 -0.0461
  153MPD2     H 2384   2.457   2.239  12.904 -1.2751  0.1549 -0.2248
  153MPD2    H1 2385   2.162   1.941  12.992 -1.1643  2.4529  3.7165
  153MPD2    H2 2386   2.530   1.927  13.186 -1.7623 -1.6500  0.3138
  153MPD2    H3 2387   2.315   1.830  13.133 -0.2821  0.7498  1.0848
  153MPD2     N 2388   2.214   2.144  12.822  0.0677  0.5823  0.0079
  153MPD2    H5 2389   2.241   2.235  12.786  0.4344 -0.7022 -3.0298
  153MPD2    N1 2390   2.642   2.128  13.051 -0.5148 -0.2345 -0.2168
  153MPD2    H7 2391   2.694   2.084  13.127  0.4542  1.7045  0.2431
  154TMC2    C1 2392   0.113   2.583   0.719 -0.5384 -0.0446  0.1251
  154TMC2    C2 2393   0.216   2.662   0.763 -0.2366  0.1977  0.6424
  154TMC2    C3 2394   0.329   2.676   0.685 -0.1702 -1.0232  0.3748
  154TMC2    C4 2395   0.121   2.516   0.600  0.0025  0.1052  0.5221
  154TMC2    C5 2396   0.229   2.539   0.524 -0.6082 -0.7007 -0.9204
  154TMC2    C6 2397   0.337   2.614   0.563 -1.0502  0.3920 -0.4437
  154TMC2     C 2398   4.720   2.612   0.786  0.7629 -0.1179 -0.3514
  154TMC2     O 2399   4.726   2.641   0.905 -0.0830  0.2580 -0.0766
  154TMC2     H 2400   0.208   2.719   0.855  3.5283 -0.6410  1.5024
  154TMC2    H1 2401   0.052   2.437   0.572 -0.8394  0.8074  0.6435
  154TMC2    H2 2402   0.419   2.641   0.497  0.3481 -1.5986  0.4446
  154TMC2    C7 2403   0.251   2.466   0.405  0.0100  0.3115  0.5775
  154TMC2    C8 2404   0.426   2.763   0.738 -0.7083 -0.0630 -0.2613
  154TMC2    O1 2405   0.364   2.470   0.355 -0.4353 -0.0546  0.0616
  154TMC2    O2 2406   0.398   2.843   0.829 -0.4098  0.0332 -0.3740
  154TMC2    O5 2407   0.532   2.684   0.732 -0.1523 -0.2201  0.0923
  154TMC2    H5 2408   0.525   2.623   0.656  2.2722  0.6668 -0.8554
  155MPD2     C 2409   4.391   2.616   0.618  0.0465 -0.2275 -0.4391
  155MPD2    C1 2410   4.477   2.626   0.720  0.6254 -0.2346  0.4397
  155MPD2    C2 2411   4.438   2.668   0.850  0.1996  0.4527 -0.2647
  155MPD2    C3 2412   4.302   2.692   0.866 -0.5387  0.1306 -0.2642
  155MPD2    C4 2413   4.217   2.680   0.763 -0.1577 -0.1792 -0.3885
  155MPD2    C5 2414   4.256   2.647   0.637 -0.1349  0.5441 -0.1778
  155MPD2     H 2415   4.507   2.698   0.928 -1.5546  1.1755  0.9944
  155MPD2    H1 2416   4.111   2.688   0.788  0.6349 -0.5251  3.1039
  155MPD2    H2 2417   4.426   2.596   0.517  0.8173  1.5895 -0.5295
  155MPD2    H3 2418   4.182   2.650   0.557 -0.4273  0.8455  0.1072
  155MPD2     N 2419   4.265   2.729   1.000 -0.5490  0.0091  0.4276
  155MPD2    H5 2420   4.334   2.717   1.073  0.1152  2.0768  0.1223
  155MPD2    N1 2421   4.613   2.593   0.696  0.4753 -0.0183 -0.9929
  155MPD2    H7 2422   4.636   2.570   0.600  1.3687 -0.4966 -0.6679
  156TMC2    C1 2423   2.815   0.024  12.486 -0.4219  0.8082  0.3921
  156TMC2    C2 2424   2.684   4.735  12.524 -0.2037 -0.3597 -0.9293
  156TMC2    C3 2425   2.604   4.680  12.430 -0.1454 -0.3858  0.1204
  156TMC2    C4 2426   2.864   0.006  12.357  0.5704 -0.0178  0.2812
  156TMC2    C5 2427   2.777   4.686  12.266 -0.2687  0.2677  0.2599
  156TMC2    C6 2428   2.647   4.648  12.303 -0.0735 -0.5159  0.5851
  156TMC2     C 2429   2.897   0.074  12.589 -0.2659 -0.5157  0.0607
  156TMC2     O 2430   2.844   0.120  12.684  0.4389  0.4940  0.2834
  156TMC2     H 2431   2.641   0.007  12.624 -0.8816  0.3714 -1.2699
  156TMC2    H1 2432   2.957   0.050  12.325  0.6531  0.1204  0.7046
  156TMC2    H2 2433   2.581   4.592  12.238  1.8732  0.9157 -2.6515
  156TMC2    C7 2434   2.799   0.000  12.128 -0.2935  0.1134  0.4962
  156TMC2    C8 2435   2.485   4.622  12.479  0.1734  0.0901 -0.1635
  156TMC2    O1 2436   2.700   0.046  12.075  0.0078 -0.6596  0.9064
  156TMC2    O2 2437   2.478   4.601  12.602 -0.5480  0.4466  0.2604
  156TMC2    O5 2438   2.380   4.649  12.403  0.1952  0.5779  0.1359
  156TMC2    H5 2439   2.395   4.628  12.309 -1.2224  1.1178 -0.2072
  157MPD2     C 2440   3.263   0.041  12.636 -0.0487 -0.2809 -0.3076
  157MPD2    C1 2441   3.132   0.069  12.667  0.1585  0.1688  0.3025
  157MPD2    C2 2442   3.113   0.129  12.797 -0.4416  0.7237  1.1569
  157MPD2    C3 2443   3.218   0.166  12.883  0.1977 -0.1579 -0.5647
  157MPD2    C4 2444   3.348   0.142  12.846  0.4906 -0.3626 -0.2840
  157MPD2    C5 2445   3.366   0.070  12.728 -0.1378 -0.1378  0.0415
  157MPD2     H 2446   3.009   0.146  12.822 -1.1563  0.1670 -1.3820
  157MPD2    H1 2447   3.433   0.173  12.906  0.1049 -0.7874  0.4900
  157MPD2    H2 2448   3.298   4.725  12.546  0.6658 -0.3420  0.0016
  157MPD2    H3 2449   3.465   0.041  12.696 -0.8752  1.4147 -3.6045
  157MPD2     N 2450   3.188   0.261  12.981 -0.2064  0.7326 -0.1789
  157MPD2    H5 2451   3.090   0.286  12.985 -1.0116 -2.2776 -0.8624
  157MPD2    N1 2452   3.030   0.038  12.574  0.4258 -0.5195  0.5904
  157MPD2    H7 2453   3.055   4.712  12.496  0.9156 -1.4817  1.5059
  158TMC2    C1 2454   3.262   3.503  13.670  0.1865 -0.5778 -0.7658
  158TMC2    C2 2455   3.271   3.560  13.548 -0.2174 -0.4985  0.5234
  158TMC2    C3 2456   3.160   3.584  13.476 -0.2124  0.3061 -0.2600
  158TMC2    C4 2457   3.136   3.482  13.723  0.2404  0.0760  0.7134
  158TMC2    C5 2458   3.022   3.521  13.658 -0.0510 -0.7401  0.2782
  158TMC2    C6 2459   3.035   3.571  13.538 -0.2209 -0.1962 -1.2612
  158TMC2     C 2460   3.375   3.440  13.726  0.1907  0.5872  0.3081
  158TMC2     O 2461   3.488   3.471  13.687 -0.2453  0.6712 -0.4904
  158TMC2     H 2462   3.368   3.588  13.506  0.5893  0.8980  3.3665
  158TMC2    H1 2463   3.127   3.467  13.830  0.2024 -2.0698  0.4248
  158TMC2    H2 2464   2.944   3.610  13.495 -1.7964 -0.3044  2.0289
  158TMC2    C7 2465   2.888   3.506  13.711 -0.1315 -0.3829  0.2371
  158TMC2    C8 2466   3.181   3.673  13.366 -0.7439 -0.3961 -0.6623
  158TMC2    O1 2467   2.803   3.575  13.662  0.2964 -0.0501 -0.1578
  158TMC2    O2 2468   3.269   3.750  13.352 -0.2461 -0.2614  0.3670
  158TMC2    O5 2469   3.068   3.676  13.298 -0.5053 -0.0203  0.0986
  158TMC2    H5 2470   3.034   3.586  13.283  3.2200 -1.5795  1.0590
  159MPD2     C 2471   3.607   3.090  14.011  0.2632  0.2319  0.4731
  159MPD2    C1 2472   3.472   3.082  14.041 -0.1003  0.3881  0.3257
  159MPD2    C2 2473   3.391   3.169  13.966 -0.0359 -0.2368  0.1857
  159MPD2    C3 2474   3.440   3.247  13.869 -0.0344 -0.2453 -0.0212
  159MPD2    C4 2475   3.576   3.244  13.842 -0.4187 -0.1533 -0.6772
  159MPD2    C5 2476   3.661   3.173  13.916 -0.7192 -0.5071  0.2811
  159MPD2     H 2477   3.283   3.174  13.980 -0.2301 -1.1132 -1.0151
  159MPD2    H1 2478   3.623   3.308  13.768 -0.1737  1.6749  1.0427
  159MPD2    H2 2479   3.679   3.029  14.065 -0.6416  0.3304  1.7736
  159MPD2    H3 2480   3.768   3.171  13.905 -0.6961  0.5397  0.3417
  159MPD2     N 2481   3.344   3.337  13.819  0.5014 -0.5788  0.7312
  159MPD2    H5 2482   3.246   3.318  13.840  0.6023 -1.0164  0.8078
  159MPD2    N1 2483   3.428   2.988  14.134  0.5861 -0.1958  0.4561
  159MPD2    H7 2484   3.500   2.945  14.191 -0.0102  0.6458  1.8522
  160TMC2    C1 2485   3.504   0.925   1.252 -0.6322 -0.2148  0.4627
  160TMC2    C2 2486   3.561   0.822   1.317  0.2196 -0.1873 -0.1998
  160TMC2    C3 2487   3.693   0.792   1.302  0.1575  0.4435 -0.2533
  160TMC2    C4 2488   3.567   0.989   1.145  0.2541  0.2419 -0.1644
  160TMC2    C5 2489   3.690   0.943   1.114  0.4377 -0.8112 -0.3503
  160TMC2    C6 2490   3.757   0.856   1.194  0.1771  0.3632  0.6843
  160TMC2     C 2491   3.359   0.943   1.268 -0.3649 -0.7482  0.5488
  160TMC2     O 2492   3.301   0.842   1.310  0.0257  0.7582 -0.5254
  160TMC2     H 2493   3.495   0.753   1.368  0.5837 -0.3216  0.0833
  160TMC2    H1 2494   3.504   1.043   1.076 -1.7476  0.1786  1.6143
  160TMC2    H2 2495   3.863   0.836   1.181 -0.0792  1.0989 -2.3699
  160TMC2    C7 2496   3.763   0.996   1.002 -0.4732  0.2664  1.0199
  160TMC2    C8 2497   3.733   0.657   1.329 -0.5796  0.2327 -0.1506
  160TMC2    O1 2498   3.850   0.929   0.952  0.3123  0.0897 -0.0036
  160TMC2    O2 2499   3.652   0.560   1.319  0.0012 -0.5000 -0.4812
  160TMC2    O5 2500   3.866   0.646   1.321 -0.0309 -0.4937  0.6810
  160TMC2    H5 2501   3.923   0.721   1.350 -1.3491  1.2717 -1.2281
  161MPD2     C 2502   3.061   0.982   1.222 -0.4198  0.4490 -0.2607
  161MPD2    C1 2503   3.160   1.077   1.196  0.2176  0.3951  0.5049
  161MPD2    C2 2504   3.119   1.200   1.155 -0.7202  0.2545 -0.1869
  161MPD2    C3 2505   2.986   1.235   1.159  0.2856 -0.1277  0.2278
  161MPD2    C4 2506   2.891   1.144   1.194 -0.1841  0.1405 -0.1483
  161MPD2    C5 2507   2.932   1.015   1.212 -0.3777 -0.1962  0.0136
  161MPD2     H 2508   3.195   1.272   1.127 -0.4451 -0.3530 -0.9792
  161MPD2    H1 2509   2.784   1.163   1.200  0.1383  2.8510 -2.5849
  161MPD2    H2 2510   3.079   0.877   1.247 -2.7924  0.2157  0.4138
  161MPD2    H3 2511   2.856   0.939   1.224  0.3336 -0.8673  0.2243
  161MPD2     N 2512   2.939   1.366   1.126  0.4796  0.0895 -0.0771
  161MPD2    H5 2513   2.839   1.379   1.135  0.2277  0.0029 -2.6637
  161MPD2    N1 2514   3.302   1.059   1.215 -0.0318  0.6041 -0.1572
  161MPD2    H7 2515   3.359   1.138   1.189  2.4981 -1.2450 -0.2320
  162TMC2    C1 2516   1.486   3.267   1.536  0.1833  0.6881 -0.2702
  162TMC2    C2 2517   1.399   3.346   1.608 -0.2132  0.5574 -0.6295
  162TMC2    C3 2518   1.459   3.437   1.694 -0.3330 -0.7209  0.3496
  162TMC2    C4 2519   1.622   3.275   1.540  0.0877  0.1146  0.3484
  162TMC2    C5 2520   1.674   3.357   1.638  0.6220 -0.1121 -0.5766
  162TMC2    C6 2521   1.594   3.446   1.711 -0.1133 -0.1946  0.7618
  162TMC2     C 2522   1.434   3.191   1.432  0.0329  0.1886  0.1431
  162TMC2     O 2523   1.514   3.163   1.345  0.3748 -0.3252 -0.2504
  162TMC2     H 2524   1.290   3.353   1.607 -0.2896 -0.3109  1.9411
  162TMC2    H1 2525   1.677   3.212   1.471 -1.8424 -1.6381  0.4352
  162TMC2    H2 2526   1.633   3.521   1.779  0.7144 -1.9040  2.1943
  162TMC2    C7 2527   1.816   3.344   1.667 -0.3852 -0.1333  0.4435
  162TMC2    C8 2528   1.382   3.516   1.785  1.0211 -0.4354  0.0521
  162TMC2    O1 2529   1.881   3.441   1.696 -0.0294  0.1345  0.4684
  162TMC2    O2 2530   1.427   3.616   1.836  0.2991 -0.3140 -0.1492
  162TMC2    O5 2531   1.295   3.428   1.834 -0.7051  0.1363 -0.2938
  162TMC2    H5 2532   1.301   3.342   1.788 -2.0762 -1.0071  1.6529
  163MPD2     C 2533   1.032   3.068   1.134  0.1577  0.0825  0.4294
  163MPD2    C1 2534   1.167   3.081   1.100  0.8627 -0.1510 -0.6372
  163MPD2    C2 2535   1.254   3.099   1.204 -0.2283 -0.5341 -1.2983
  163MPD2    C3 2536   1.216   3.109   1.339 -0.6752 -0.5411 -0.0186
  163MPD2    C4 2537   1.083   3.082   1.369 -0.0038 -0.9388 -0.0670
  163MPD2    C5 2538   0.993   3.060   1.266  0.2632 -0.4406 -0.0708
  163MPD2     H 2539   1.359   3.114   1.183 -0.7699  0.3214 -3.4215
  163MPD2    H1 2540   1.047   3.098   1.470  2.7402 -4.0960  1.4010
  163MPD2    H2 2541   0.948   3.067   1.065 -0.0959 -1.7954  0.7665
  163MPD2    H3 2542   0.886   3.058   1.282  0.3878 -0.1922  0.7906
  163MPD2     N 2543   1.297   3.165   1.442 -0.4518 -0.0728 -0.1201
  163MPD2    H5 2544   1.260   3.182   1.535  1.0746 -1.9600  0.8429
  163MPD2    N1 2545   1.197   3.062   0.961 -0.7719  0.6211  0.0320
  163MPD2    H7 2546   1.118   3.046   0.900 -0.6140  0.0348 -0.0194
  164TMC2    C1 2547   0.945   2.696  11.716  0.4144 -0.4580 -0.1065
  164TMC2    C2 2548   1.031   2.679  11.823 -0.4217  0.0172  0.0513
  164TMC2    C3 2549   1.062   2.790  11.899  0.4057  0.9451 -0.3436
  164TMC2    C4 2550   0.885   2.814  11.697 -0.0203 -0.1449 -0.3256
  164TMC2    C5 2551   0.937   2.924  11.762 -0.2448 -0.8267 -0.2687
  164TMC2    C6 2552   1.032   2.920  11.863  0.2848  0.3773 -0.4650
  164TMC2     C 2553   0.884   2.582  11.655  0.2242  0.6542  0.0380
  164TMC2     O 2554   0.778   2.593  11.598 -0.1877 -0.0290  0.9228
  164TMC2     H 2555   1.087   2.591  11.851  0.3025  0.4396 -0.0854
  164TMC2    H1 2556   0.813   2.831  11.618  1.0349  0.0510 -1.2521
  164TMC2    H2 2557   1.079   3.004  11.914 -0.9950 -0.7890  2.6531
  164TMC2    C7 2558   0.864   3.052  11.738 -0.1851  1.1515  0.1101
  164TMC2    C8 2559   1.170   2.771  11.999  0.0001 -0.2595  0.4493
  164TMC2    O1 2560   0.785   3.052  11.644  0.3424  0.1524  0.5728
  164TMC2    O2 2561   1.248   2.678  11.982 -0.2148 -0.0831  0.0351
  164TMC2    O5 2562   1.136   2.827  12.116 -0.5804 -0.6450  0.0599
  164TMC2    H5 2563   1.051   2.876  12.117  0.8908  1.8983  0.1542
  165TMC2    C1 2564   3.195   0.585   1.105  0.5807  0.1305  0.3237
  165TMC2    C2 2565   3.092   0.604   1.024  0.3536  0.0276  0.6544
  165TMC2    C3 2566   3.121   0.656   0.901  0.5053 -0.1520  0.1130
  165TMC2    C4 2567   3.319   0.590   1.060 -0.2681 -0.4787 -0.7443
  165TMC2    C5 2568   3.347   0.638   0.936  0.3853 -0.2680  0.5668
  165TMC2    C6 2569   3.246   0.678   0.854 -0.1641 -0.3799  0.2233
  165TMC2     C 2570   3.163   0.491   1.213 -0.4934  0.1055 -0.2809
  165TMC2     O 2571   3.046   0.494   1.255  0.1667 -0.0583 -0.0424
  165TMC2     H 2572   2.992   0.572   1.052 -0.8669  2.9043 -0.3847
  165TMC2    H1 2573   3.392   0.570   1.138 -0.6217 -0.6001 -0.4453
  165TMC2    H2 2574   3.263   0.722   0.757 -1.4165  0.1448  0.2496
  165TMC2    C7 2575   3.490   0.640   0.896 -0.7179 -0.4889  0.5992
  165TMC2    C8 2576   3.021   0.638   0.802 -0.1725  0.1794 -0.0897
  165TMC2    O1 2577   3.578   0.643   0.979 -0.0750 -0.2398  0.1965
  165TMC2    O2 2578   2.949   0.537   0.796  0.1093  0.6737  0.7443
  165TMC2    O5 2579   3.045   0.720   0.697 -0.3688  0.0034  0.3333
  165TMC2    H5 2580   3.092   0.802   0.724 -2.1506  0.7402  1.2338
  166MPD2     C 2581   3.268   0.089   1.520 -0.0338  1.0031  0.6448
  166MPD2    C1 2582   3.147   0.159   1.499 -0.0753 -0.5350  0.4204
  166MPD2    C2 2583   3.139   0.253   1.396  0.2390  0.5514 -0.1812
  166MPD2    C3 2584   3.249   0.286   1.325 -0.1208  0.0932 -0.4648
  166MPD2    C4 2585   3.364   0.213   1.343  0.6844 -0.1759  0.1673
  166MPD2    C5 2586   3.376   0.123   1.443 -0.0268  0.0216  0.4108
  166MPD2     H 2587   3.044   0.300   1.373  0.4273  1.3355  0.6552
  166MPD2    H1 2588   3.461   0.239   1.304  0.1824  1.0946 -0.2148
  166MPD2    H2 2589   3.285   0.002   1.581  0.6910 -1.5071 -3.1104
  166MPD2    H3 2590   3.464   0.066   1.469  0.8818  0.8190 -0.8893
  166MPD2     N 2591   3.265   0.399   1.236 -0.1300 -0.1293  0.3694
  166MPD2    H5 2592   3.354   0.397   1.188 -0.7048  2.6996 -0.8041
  166MPD2    N1 2593   3.028   0.106   1.558  0.5230 -0.3290 -0.1950
  166MPD2    H7 2594   3.041   0.021   1.611  0.3352  0.3344  0.9286
  167TMC2    C1 2595   0.446   2.971  12.481 -0.3700 -0.2893  0.5329
  167TMC2    C2 2596   0.402   3.105  12.491  0.6859  0.0022 -0.0299
  167TMC2    C3 2597   0.451   3.181  12.595  0.7218 -0.3416 -0.4807
  167TMC2    C4 2598   0.546   2.917  12.560  0.5377  0.2792  0.6572
  167TMC2    C5 2599   0.595   3.009  12.656 -0.0057  0.2312  0.1897
  167TMC2    C6 2600   0.553   3.135  12.671  0.5122  0.4893 -0.2602
  167TMC2     C 2601   0.396   2.904  12.363 -0.0091  1.2634 -0.8496
  167TMC2     O 2602   0.337   2.968  12.276 -0.3634 -0.3002 -0.6797
  167TMC2     H 2603   0.325   3.149  12.429  0.1185  0.7518  1.2229
  167TMC2    H1 2604   0.572   2.813  12.549 -0.9153  0.0625 -0.7766
  167TMC2    H2 2605   0.595   3.199  12.747  1.6631 -0.4131 -0.1309
  167TMC2    C7 2606   0.709   2.968  12.744  0.2486 -0.0652 -0.9610
  167TMC2    C8 2607   0.408   3.323  12.602  0.8571  0.8533  0.8022
  167TMC2    O1 2608   0.735   3.033  12.841 -0.0875 -0.3101 -0.1520
  167TMC2    O2 2609   0.478   3.417  12.628  0.7958 -0.0425  0.4024
  167TMC2    O5 2610   0.289   3.310  12.665  0.0595 -0.0703 -0.3031
  167TMC2    H5 2611   0.267   3.215  12.678 -1.5642  0.4695  0.9599
  168MPD2     C 2612   0.336   2.690  12.160  0.0305 -0.4326  0.2365
  168MPD2    C1 2613   0.401   2.666  12.279  0.0322 -0.1401 -0.1462
  168MPD2    C2 2614   0.465   2.547  12.285  0.3558 -0.1242  0.1885
  168MPD2    C3 2615   0.465   2.444  12.196  0.0571  0.4376 -0.2233
  168MPD2    C4 2616   0.393   2.472  12.075 -0.4441  0.2994  0.1665
  168MPD2    C5 2617   0.334   2.597  12.059  0.0415 -0.1357  0.4965
  168MPD2     H 2618   0.526   2.536  12.375 -0.4836 -0.6499  0.6916
  168MPD2    H1 2619   0.394   2.402  11.993  0.7444  0.7003 -0.1604
  168MPD2    H2 2620   0.269   2.773  12.141  1.0331  0.3376  0.0914
  168MPD2    H3 2621   0.280   2.634  11.972  1.0826  2.2776  0.8880
  168MPD2     N 2622   0.538   2.332  12.221  0.3682  0.2338 -0.2762
  168MPD2    H5 2623   0.597   2.323  12.303 -1.2583 -1.1430  0.7481
  168MPD2    N1 2624   0.424   2.769  12.377  0.1621 -0.1519 -0.6344
  168MPD2    H7 2625   0.464   2.734  12.463 -1.1697 -1.7758 -0.6669
  169MPD1     C 2626   3.686   1.478   9.582  0.6675 -0.4691 -0.9126
  169MPD1    C1 2627   3.558   1.529   9.591 -0.0430 -0.7148  0.2608
  169MPD1    C2 2628   3.484   1.523   9.705  0.1555 -0.6382 -0.1382
  169MPD1    C3 2629   3.539   1.470   9.818  1.0862  1.2883  0.2688
  169MPD1    C4 2630   3.661   1.412   9.809 -0.0637 -0.3212 -0.7680
  169MPD1    C5 2631   3.731   1.419   9.694 -0.2845 -0.2322  0.2896
  169MPD1     H 2632   3.381   1.559   9.703  0.1624 -0.7203 -1.8193
  169MPD1    H1 2633   3.716   1.377   9.895 -0.7593  0.3302 -0.0609
  169MPD1    H2 2634   3.740   1.472   9.488  0.5355  1.7473 -1.1305
  169MPD1    H3 2635   3.837   1.398   9.692 -0.0111  1.0341  1.4534
  169MPD1     N 2636   3.467   1.485   9.943  0.0037  0.0587  0.4059
  169MPD1    H5 2637   3.391   1.551   9.952 -0.7554 -0.8945  1.0510
  169MPD1    N1 2638   3.506   1.570   9.466  0.1186 -0.3238  0.1080
  169MPD1    H6 2639   3.445   1.650   9.478  0.3578 -0.5190  2.5097
  169MPD1    H7 2640   3.579   1.604   9.404  0.7141  0.3004  1.1578
  170MPD1     C 2641   1.876   0.322  13.143  0.5794  0.0668 -0.3112
  170MPD1    C1 2642   1.814   0.267  13.255  0.2108 -0.1782  0.3777
  170MPD1    C2 2643   1.849   0.316  13.380  0.1608 -0.0981 -0.7959
  170MPD1    C3 2644   1.946   0.416  13.398  0.4089  0.3573 -0.1104
  170MPD1    C4 2645   1.986   0.483  13.285  0.2503  0.1650 -0.2529
  170MPD1    C5 2646   1.954   0.431  13.160 -0.0982 -0.8675 -0.2882
  170MPD1     H 2647   1.799   0.264  13.460  0.0016  0.1136 -0.7566
  170MPD1    H1 2648   2.059   0.562  13.280  0.3119  0.1204 -0.0505
  170MPD1    H2 2649   1.855   0.293  13.041  1.2363  0.0466 -0.4449
  170MPD1    H3 2650   1.999   0.481  13.075  1.9200 -1.3493  0.5057
  170MPD1     N 2651   1.971   0.452  13.531 -0.5893 -0.4809  0.1387
  170MPD1    H5 2652   1.926   0.409  13.611 -1.0339  0.1071  0.2021
  170MPD1    N1 2653   1.703   0.183  13.251  0.1190  0.2540  0.1747
  170MPD1    H6 2654   1.678   0.120  13.327  0.1378  0.2029  0.1387
  170MPD1    H7 2655   1.699   0.128  13.165  0.3255  1.0775 -0.3649
  171MPD1     C 2656   0.485   1.710  15.474  0.1865 -0.3538 -0.8744
  171MPD1    C1 2657   0.472   1.582  15.472 -0.1708  0.2776 -0.5549
  171MPD1    C2 2658   0.541   1.503  15.563 -0.1951 -0.1108  0.1152
  171MPD1    C3 2659   0.630   1.555  15.656 -0.0451 -0.0200  0.2493
  171MPD1    C4 2660   0.633   1.693  15.661  0.4680 -0.6983 -0.7190
  171MPD1    C5 2661   0.569   1.768  15.567  0.1407  0.2478 -0.0804
  171MPD1     H 2662   0.535   1.396  15.551  0.3140 -0.1159 -0.1328
  171MPD1    H1 2663   0.690   1.743  15.738 -1.1889  1.1453 -0.6945
  171MPD1    H2 2664   0.429   1.778  15.411  0.4638  1.0579  0.3977
  171MPD1    H3 2665   0.596   1.873  15.575 -0.6486  0.3898  0.7157
  171MPD1     N 2666   0.714   1.486  15.748  0.5738  0.4705  0.2115
  171MPD1    H5 2667   0.753   1.544  15.822 -0.1986  0.7243  0.4134
  171MPD1    N1 2668   0.363   1.523  15.406  0.2330  0.4824  0.3013
  171MPD1    H6 2669   0.393   1.431  15.377  0.8995  0.8816 -0.2753
  171MPD1    H7 2670   0.345   1.569  15.316  1.3802 -1.6485 -1.0070
  172MPD1     C 2671   0.130   0.593  17.687 -0.4000 -0.1795  0.4367
  172MPD1    C1 2672   0.055   0.650   0.039  0.0739  0.0227 -0.9823
  172MPD1    C2 2673   0.072   0.783   0.073 -0.0711  0.2205  0.5694
  172MPD1    C3 2674   0.146   0.862  17.730  0.1615 -0.1839  0.2032
  172MPD1    C4 2675   0.218   0.804  17.623  0.0322  0.3202 -0.1507
  172MPD1    C5 2676   0.202   0.668  17.595  0.4103 -0.5117  0.3120
  172MPD1     H 2677   0.023   0.825   0.159  2.9452  0.1430  2.3152
  172MPD1    H1 2678   0.274   0.864  17.553  1.4332  2.7997  3.1156
  172MPD1    H2 2679   0.123   0.487  17.664  0.4611 -0.0939 -0.2491
  172MPD1    H3 2680   0.249   0.612  17.515  1.2644 -1.5699  1.5507
  172MPD1     N 2681   0.169   1.001   0.016  0.0328 -0.5706 -0.0926
  172MPD1    H5 2682   0.250   1.046  17.714 -0.5128  0.0674 -0.4495
  172MPD1    N1 2683   0.000   0.563   0.135  0.4618  0.1689  0.0929
  172MPD1    H6 2684   4.671   0.615   0.194  0.5783  0.2029  0.1921
  172MPD1    H7 2685   4.694   0.482   0.090  2.6584 -0.7841 -0.2239
  173MPD1     C 2686   1.308   4.472  14.497  0.1004  0.4943  0.6212
  173MPD1    C1 2687   1.346   4.500  14.625  0.6199  0.1777 -0.3138
  173MPD1    C2 2688   1.310   4.622  14.681 -0.7753  0.0869  0.6016
  173MPD1    C3 2689   1.230   4.717  14.614 -0.1476  0.2527  0.3039
  173MPD1    C4 2690   1.189   4.682  14.483 -0.3076 -0.2746 -0.1496
  173MPD1    C5 2691   1.230   4.565  14.427 -0.4074  0.5164  0.0872
  173MPD1     H 2692   1.339   4.642  14.784 -1.2079 -2.0149  1.1313
  173MPD1    H1 2693   1.134   0.013  14.417 -0.0618  2.3834  2.3261
  173MPD1    H2 2694   1.339   4.378  14.453  0.3592  0.4276  0.9416
  173MPD1    H3 2695   1.199   4.556  14.323 -0.9605 -0.7282  0.3512
  173MPD1     N 2696   1.204   0.104  14.681  0.3959 -0.5729 -0.1297
  173MPD1    H5 2697   1.247   0.131  14.769 -0.0269 -2.2571  0.5965
  173MPD1    N1 2698   1.454   4.425  14.680  0.5291  0.4541 -0.3004
  173MPD1    H6 2699   1.456   4.327  14.652 -3.0243  0.0955  0.6707
  173MPD1    H7 2700   1.450   4.420  14.781 -2.6539  0.4105 -0.4053
  174MPD1     C 2701   1.308   0.933  14.224  0.5413  0.4467 -0.3941
  174MPD1    C1 2702   1.237   0.973  14.334 -0.2860  0.0383  0.5102
  174MPD1    C2 2703   1.236   0.890  14.445 -0.2422 -0.4545 -0.3944
  174MPD1    C3 2704   1.292   0.763  14.440  0.4823 -0.1218  0.1608
  174MPD1    C4 2705   1.372   0.727  14.331 -0.7258  0.1582 -0.1963
  174MPD1    C5 2706   1.385   0.818  14.227 -0.5947  0.1676  0.7575
  174MPD1     H 2707   1.178   0.916  14.532 -0.5454 -1.5535 -0.2723
  174MPD1    H1 2708   1.439   0.643  14.327 -1.6716 -0.6850  1.6489
  174MPD1    H2 2709   1.317   0.995  14.135 -1.4638  0.3957 -0.6378
  174MPD1    H3 2710   1.456   0.799  14.148 -0.8272 -1.9221  1.0546
  174MPD1     N 2711   1.279   0.666  14.548  0.3631  0.1047 -0.1992
  174MPD1    H5 2712   1.322   0.578  14.524 -2.1857 -0.9894 -0.7368
  174MPD1    N1 2713   1.167   1.092  14.333 -0.3070  0.5094  0.0757
  174MPD1    H6 2714   1.090   1.086  14.400  0.9072  1.3239  1.5196
  174MPD1    H7 2715   1.121   1.106  14.243  0.3906  2.2086 -0.0060
  175MPD1     C 2716   4.657   1.368  15.321 -0.2536 -0.4927 -0.2719
  175MPD1    C1 2717   4.527   1.402  15.319  1.1032  0.1746 -0.3383
  175MPD1    C2 2718   4.462   1.387  15.442 -0.1425  1.5475 -0.0834
  175MPD1    C3 2719   4.527   1.367  15.563  0.0048 -0.1100 -0.4996
  175MPD1    C4 2720   4.666   1.345  15.561  0.0143  0.5101 -0.0158
  175MPD1    C5 2721   4.725   1.337  15.438 -0.4216 -0.5281 -0.1937
  175MPD1     H 2722   4.355   1.404  15.444 -0.1699  1.4685 -0.6891
  175MPD1    H1 2723   4.720   1.320  15.652  0.4507 -1.0067 -0.6910
  175MPD1    H2 2724   4.711   1.367  15.226 -0.6251 -0.0625 -0.4886
  175MPD1    H3 2725   0.092   1.302  15.436  0.4370  2.0286 -1.1537
  175MPD1     N 2726   4.454   1.371  15.684  0.4340 -0.4646 -0.3662
  175MPD1    H5 2727   4.510   1.361  15.768 -1.7638 -0.7600  1.0786
  175MPD1    N1 2728   4.454   1.426  15.206 -0.8494  0.0072  0.1666
  175MPD1    H6 2729   4.370   1.481  15.223 -1.3432 -0.0126 -2.2575
  175MPD1    H7 2730   4.512   1.462  15.131 -0.3121 -0.2474  0.4571
  176MPD1     C 2731   1.740   4.158   0.638  0.4397 -0.2603 -0.4883
  176MPD1    C1 2732   1.642   4.067   0.613  0.1652  0.3430 -0.2041
  176MPD1    C2 2733   1.626   4.037   0.477 -0.1434 -0.2037  0.0051
  176MPD1    C3 2734   1.703   4.086   0.376 -0.2063  0.0097  0.3454
  176MPD1    C4 2735   1.809   4.176   0.402  0.4017  0.1643  0.1321
  176MPD1    C5 2736   1.820   4.212   0.537  0.3789 -0.9309 -0.2453
  176MPD1     H 2737   1.544   3.969   0.455  0.3966 -0.2856 -1.7787
  176MPD1    H1 2738   1.864   4.232   0.327 -0.0332 -1.5995 -1.5067
  176MPD1    H2 2739   1.759   4.190   0.740  0.8117  1.6906 -1.1589
  176MPD1    H3 2740   1.897   4.283   0.564  1.3969 -1.5758 -1.4252
  176MPD1     N 2741   1.667   4.062   0.243 -0.5637 -0.3545  0.4173
  176MPD1    H5 2742   1.574   4.027   0.222 -0.3221 -1.5357  1.3688
  176MPD1    N1 2743   1.549   4.029   0.710 -0.5191  0.6407  0.2600
  176MPD1    H6 2744   1.482   3.956   0.684 -1.9391  2.1214 -0.2007
  176MPD1    H7 2745   1.585   4.011   0.804 -1.3556 -0.8545  0.2999
  177MPD1     C 2746   3.698   3.911  10.129 -0.7694 -0.3601 -0.2801
  177MPD1    C1 2747   3.581   3.914  10.197  0.1425 -0.2704  0.4175
  177MPD1    C2 2748   3.459   3.914  10.128  0.1318  0.0352  0.1384
  177MPD1    C3 2749   3.458   3.869  10.001 -0.4049  0.4113  0.0093
  177MPD1    C4 2750   3.583   3.861   9.932  0.7636 -0.4827 -0.7872
  177MPD1    C5 2751   3.695   3.908   9.996  0.1189  0.1714 -0.0723
  177MPD1     H 2752   3.364   3.921  10.180 -0.7287  0.4501 -1.4951
  177MPD1    H1 2753   3.582   3.843   9.825  0.4608  0.7007 -0.9918
  177MPD1    H2 2754   3.790   3.911  10.187 -1.9340 -0.3148  1.5724
  177MPD1    H3 2755   3.796   3.908   9.955  0.0577 -2.3661 -0.2368
  177MPD1     N 2756   3.330   3.844   9.944 -0.4908 -0.0763  0.0611
  177MPD1    H5 2757   3.248   3.869   9.999 -1.9848 -1.7239 -1.4390
  177MPD1    N1 2758   3.579   3.936  10.338  0.3631 -0.1686 -0.1588
  177MPD1    H6 2759   3.489   3.905  10.375 -0.3774  0.6054 -1.3206
  177MPD1    H7 2760   3.651   3.877  10.378  0.3409 -0.4783 -0.5803
  178MPD1     C 2761   2.425   0.357  17.625 -0.5227 -0.0190  0.1456
  178MPD1    C1 2762   2.332   0.272  17.573  0.1333  0.5739  0.3989
  178MPD1    C2 2763   2.350   0.134  17.597 -0.0691 -0.6375  0.1680
  178MPD1    C3 2764   2.460   0.091  17.675 -0.4193  0.0095 -0.1336
  178MPD1    C4 2765   2.543   0.189  17.729  0.1557  0.4402  0.1065
  178MPD1    C5 2766   2.517   0.319  17.714 -0.0241  0.4274 -0.5244
  178MPD1     H 2767   2.282   0.067  17.546 -0.8138 -0.8950  1.4912
  178MPD1    H1 2768   2.633   0.167   0.043 -0.0008 -0.7102 -0.1102
  178MPD1    H2 2769   2.426   0.463  17.601  1.6610  0.0282  0.4454
  178MPD1    H3 2770   2.573   0.395   0.026  0.6881 -1.1516  0.9843
  178MPD1     N 2771   2.478   4.693  17.698 -0.1772  0.0240  0.2682
  178MPD1    H5 2772   2.565   4.679   0.007 -1.5501 -0.9659  2.3704
  178MPD1    N1 2773   2.238   0.316  17.481  0.2639  0.0206  0.2656
  178MPD1    H6 2774   2.143   0.291  17.509  0.8245  0.2284  2.3581
  178MPD1    H7 2775   2.231   0.417  17.489 -1.5184 -0.0376 -0.4868
  179MPD1     C 2776   1.501   2.676  14.838  0.4879  0.3990  0.3916
  179MPD1    C1 2777   1.617   2.675  14.917 -0.7401  0.0972 -0.1407
  179MPD1    C2 2778   1.625   2.596  15.030  0.0067  0.1640 -0.2142
  179MPD1    C3 2779   1.513   2.548  15.086 -0.5301 -0.3656 -0.4109
  179MPD1    C4 2780   1.393   2.573  15.032 -0.0158 -0.5622  0.5915
  179MPD1    C5 2781   1.393   2.620  14.901 -0.3004  0.5067  0.0217
  179MPD1     H 2782   1.721   2.589  15.080  1.6820 -1.3200 -3.6283
  179MPD1    H1 2783   1.300   2.552  15.083  0.0926  0.0622  1.0533
  179MPD1    H2 2784   1.488   2.719  14.739 -0.8903 -0.2474  0.2917
  179MPD1    H3 2785   1.302   2.637  14.845  0.5731  0.5036 -1.3727
  179MPD1     N 2786   1.512   2.481  15.213  0.3458 -0.7237  0.4201
  179MPD1    H5 2787   1.423   2.451  15.250  0.5190 -0.0736  1.3612
  179MPD1    N1 2788   1.734   2.734  14.861  0.6775  0.0839 -0.0162
  179MPD1    H6 2789   1.794   2.771  14.934 -0.2279  0.8747  0.3161
  179MPD1    H7 2790   1.713   2.816  14.805  1.4456 -0.3975 -1.0146
  180MPD1     C 2791   1.991   3.647  15.551  0.0855  0.1603 -0.8772
  180MPD1    C1 2792   1.870   3.608  15.503 -0.1791 -0.8095  0.3924
  180MPD1    C2 2793   1.792   3.690  15.420 -0.8434  0.1742  0.8374
  180MPD1    C3 2794   1.860   3.798  15.365 -0.3607  0.1640  0.0531
  180MPD1    C4 2795   1.994   3.823  15.401 -0.4400 -0.6475 -0.0116
  180MPD1    C5 2796   2.053   3.749  15.500  0.5395  1.0487 -0.1692
  180MPD1     H 2797   1.684   3.682  15.420 -0.7306 -1.1689  2.3763
  180MPD1    H1 2798   2.063   3.889  15.349 -1.0279  1.2128  1.5938
  180MPD1    H2 2799   2.051   3.585  15.617  1.6847  1.9880 -0.6026
  180MPD1    H3 2800   2.160   3.754  15.516  0.6475 -0.6297 -0.3202
  180MPD1     N 2801   1.789   3.873  15.268  0.1958 -0.0004  0.8782
  180MPD1    H5 2802   1.702   3.836  15.232  0.3724  1.2875 -0.8671
  180MPD1    N1 2803   1.813   3.509  15.581  0.3652 -0.9402 -0.0135
  180MPD1    H6 2804   1.878   3.441  15.620  1.2322 -0.4547 -0.6073
  180MPD1    H7 2805   1.741   3.463  15.525  0.0513  0.5621 -0.8263
  181MPD1     C 2806   2.582   4.667  10.515 -0.7535 -0.3968  0.0489
  181MPD1    C1 2807   2.523   0.025  10.435 -0.7410  0.0793  0.3028
  181MPD1    C2 2808   2.541   0.156  10.463  0.0339  0.2105  0.7980
  181MPD1    C3 2809   2.601   0.193  10.580 -0.4943  0.1410  0.1485
  181MPD1    C4 2810   2.659   0.097  10.662  0.0832 -0.2869  0.4917
  181MPD1    C5 2811   2.654   4.702  10.621  0.0141  0.4212 -0.1014
  181MPD1     H 2812   2.489   0.223  10.395 -0.8638 -1.6216 -0.3277
  181MPD1    H1 2813   2.706   0.127  10.755  0.9085 -0.1922  0.0467
  181MPD1    H2 2814   2.579   4.561  10.493  3.2133 -0.3217 -0.7854
  181MPD1    H3 2815   2.702   4.624  10.680  0.5082  2.3624  2.0759
  181MPD1     N 2816   2.617   0.330  10.624 -0.3303 -0.1557 -0.8992
  181MPD1    H5 2817   2.650   0.349  10.718  3.7428  0.5130 -2.4468
  181MPD1    N1 2818   2.451   4.723  10.321 -0.3025 -1.1168 -0.4640
  181MPD1    H6 2819   2.411   4.631  10.338  0.7466 -1.6331 -0.8536
  181MPD1    H7 2820   2.368   0.047  10.317  0.4220 -0.0448  0.3424
  182MPD1     C 2821   4.307   4.530   1.387  0.3799  0.2654  0.1609
  182MPD1    C1 2822   4.246   4.424   1.322  0.0534 -0.4451  0.7857
  182MPD1    C2 2823   4.154   4.450   1.224 -0.4422  1.0099  0.1556
  182MPD1    C3 2824   4.119   4.574   1.182 -0.1468 -0.7949  0.1409
  182MPD1    C4 2825   4.169   4.675   1.260  0.7786 -1.4810 -0.9936
  182MPD1    C5 2826   4.255   4.651   1.361 -0.5790  0.7010  0.3693
  182MPD1     H 2827   4.117   4.364   1.169 -1.3037  3.5076 -3.0985
  182MPD1    H1 2828   4.126   0.039   1.250  0.6780 -1.1182  2.7865
  182MPD1    H2 2829   4.380   4.511   1.465  0.2607  1.7379  0.6431
  182MPD1    H3 2830   4.278   4.735   1.425  1.7311  0.0277  0.4195
  182MPD1     N 2831   4.028   4.603   1.077  0.4357  0.0157 -0.1252
  182MPD1    H5 2832   4.012   4.702   1.064 -1.8881 -0.5168 -1.4521
  182MPD1    N1 2833   4.261   4.292   1.369 -0.4194 -0.5383  0.2385
  182MPD1    H6 2834   4.350   4.286   1.417  0.2105 -0.1546 -0.9061
  182MPD1    H7 2835   4.259   4.224   1.293 -0.3987 -0.3811  0.0972
  183MPD1     C 2836   4.661   0.746  10.002  0.5902 -0.6340 -0.4127
  183MPD1    C1 2837   4.668   0.847  10.095  0.4012  0.8053 -0.1956
  183MPD1    C2 2838   4.566   0.844  10.190  0.1518 -0.1095  0.0402
  183MPD1    C3 2839   4.463   0.758  10.183 -0.0770 -0.2655 -0.0928
  183MPD1    C4 2840   4.461   0.659  10.085  0.2122  0.2675 -0.5151
  183MPD1    C5 2841   4.563   0.651   9.997  0.0061 -0.0526  0.6296
  183MPD1     H 2842   4.572   0.927  10.260 -0.2958 -1.2585  1.4399
  183MPD1    H1 2843   4.389   0.577  10.083 -0.1695  0.5901  0.1636
  183MPD1    H2 2844   4.729   0.755   9.918  1.1585 -2.3261 -0.1381
  183MPD1    H3 2845   4.564   0.572   9.922  0.8398  1.1030 -0.5718
  183MPD1     N 2846   4.356   0.775  10.270  0.6147 -0.3206 -0.9150
  183MPD1    H5 2847   4.384   0.842  10.341 -1.0797 -1.6357  0.9952
  183MPD1    N1 2848   0.025   0.951  10.078 -0.4753  0.0107  0.0957
  183MPD1    H6 2849   0.115   0.920  10.041 -0.4453  1.1349 -0.7880
  183MPD1    H7 2850   0.042   0.994  10.169  3.7182 -0.6932 -0.3370
  184MPD1     C 2851   2.464   3.502  10.538  0.3346 -0.2809 -0.0417
  184MPD1    C1 2852   2.598   3.514  10.572 -0.2838 -0.9347 -0.6664
  184MPD1    C2 2853   2.690   3.437  10.499  0.1105  0.9113 -0.1699
  184MPD1    C3 2854   2.647   3.369  10.385  0.3716  0.3958  0.1422
  184MPD1    C4 2855   2.516   3.369  10.347 -0.4697 -0.3694 -0.6144
  184MPD1    C5 2856   2.424   3.427  10.431  0.1564  0.0113  0.7910
  184MPD1     H 2857   2.793   3.429  10.532 -0.7112 -0.0960  2.1588
  184MPD1    H1 2858   2.483   3.328  10.252  0.6376 -1.0885 -0.6855
  184MPD1    H2 2859   2.387   3.550  10.597 -0.7723 -2.1471  0.0334
  184MPD1    H3 2860   2.316   3.428  10.419  0.4702  1.8069 -1.8405
  184MPD1     N 2861   2.738   3.302  10.300  0.0497 -0.1281 -0.2116
  184MPD1    H5 2862   2.702   3.249  10.222  0.7229 -1.0616  0.1075
  184MPD1    N1 2863   2.633   3.567  10.699 -0.3508  0.5252  0.0647
  184MPD1    H6 2864   2.563   3.637  10.722  0.3595  0.5988  1.9592
  184MPD1    H7 2865   2.729   3.599  10.708  0.1408 -1.1492  0.6795
  185MPD1     C 2866   2.426   2.873   9.668 -0.1259 -0.1875  0.4645
  185MPD1    C1 2867   2.551   2.821   9.658 -0.6716  0.3160 -1.1631
  185MPD1    C2 2868   2.648   2.856   9.747  0.2604 -0.2615  0.2682
  185MPD1    C3 2869   2.623   2.965   9.829 -0.4784  0.6024  0.0212
  185MPD1    C4 2870   2.497   3.023   9.832 -0.3179 -0.7166  0.1761
  185MPD1    C5 2871   2.405   2.977   9.751  0.8404 -0.0354 -0.2332
  185MPD1     H 2872   2.745   2.808   9.738  0.9555  1.5045 -1.6679
  185MPD1    H1 2873   2.478   3.102   9.903 -0.8869 -0.6022 -0.1077
  185MPD1    H2 2874   2.340   2.843   9.609 -1.6554  0.2277  2.5087
  185MPD1    H3 2875   2.307   3.024   9.753  2.0930  2.6421 -1.3846
  185MPD1     N 2876   2.714   3.027   9.913  0.4379  0.2029 -0.4163
  185MPD1    H5 2877   2.684   3.103   9.973  0.6141 -0.5366  0.6105
  185MPD1    N1 2878   2.563   2.708   9.568 -0.1776  0.2015 -0.7225
  185MPD1    H6 2879   2.494   2.695   9.494 -0.3193 -2.3166 -0.1432
  185MPD1    H7 2880   2.654   2.698   9.524  0.6047  0.1248  0.9034
  186MPD1     C 2881   1.345   3.005  15.984  0.0962 -0.5323 -0.0631
  186MPD1    C1 2882   1.321   3.002  16.122 -0.0249 -0.6973  0.2103
  186MPD1    C2 2883   1.429   3.009  16.202  0.3715 -1.2680  0.1027
  186MPD1    C3 2884   1.558   3.025  16.159  0.0293  0.4061  0.4031
  186MPD1    C4 2885   1.579   3.015  16.024  0.3644  0.1501  0.2466
  186MPD1    C5 2886   1.476   3.012  15.938 -0.5149 -0.5356 -0.3897
  186MPD1     H 2887   1.411   3.000  16.309 -1.5917  0.2757 -0.1058
  186MPD1    H1 2888   1.677   3.013  15.976  1.2462 -2.6511  2.1571
  186MPD1    H2 2889   1.272   2.994  15.904  1.1610  0.9979 -1.2509
  186MPD1    H3 2890   1.481   3.003  15.830  1.0146 -2.8880 -0.1222
  186MPD1     N 2891   1.670   3.051  16.239 -0.0480 -0.2495 -0.6413
  186MPD1    H5 2892   1.762   3.049  16.196  0.7024 -3.0228  1.1214
  186MPD1    N1 2893   1.189   2.992  16.170 -0.1619 -0.2897  0.1226
  186MPD1    H6 2894   1.126   3.059  16.126 -0.1906 -0.2285  0.2547
  186MPD1    H7 2895   1.171   3.005  16.269  2.0959  2.0192  0.2331
  187MPD1     C 2896   1.882   4.690   0.468 -0.1258  0.2809  0.1140
  187MPD1    C1 2897   1.851   4.653   0.339 -0.5483  0.5025  0.0377
  187MPD1    C2 2898   1.764   4.734   0.266  0.5606 -0.7488  0.0343
  187MPD1    C3 2899   1.715   0.115   0.314 -0.2483 -0.4060 -0.1499
  187MPD1    C4 2900   1.751   0.150   0.447 -0.1030  0.3670 -0.5061
  187MPD1    C5 2901   1.832   0.070   0.522  0.1892  0.1357  0.2830
  187MPD1     H 2902   1.737   4.707   0.165 -1.6685  0.0283  0.4304
  187MPD1    H1 2903   1.730   0.243   0.499 -0.8136  0.4809 -0.9894
  187MPD1    H2 2904   1.939   4.623   0.532 -0.7268  1.0294  1.4245
  187MPD1    H3 2905   1.855   0.100   0.623 -0.8132  0.3809  0.4369
  187MPD1     N 2906   1.627   0.197   0.245  0.2111  0.0170  0.2113
  187MPD1    H5 2907   1.580   0.274   0.292 -0.9296  1.0922 -2.7131
  187MPD1    N1 2908   1.889   4.528   0.292  0.3312 -0.1688  0.6344
  187MPD1    H6 2909   1.904   4.531   0.191  2.8079 -0.3644  1.0033
  187MPD1    H7 2910   1.988   4.531   0.317  0.5211 -1.4487  0.0299
  188MPD1     C 2911   0.336   0.312  10.603  0.1986  0.0308  0.0339
  188MPD1    C1 2912   0.256   0.232  10.521  0.1286 -0.4603 -0.2620
  188MPD1    C2 2913   0.277   0.096  10.517  0.1842 -0.2541  0.4977
  188MPD1    C3 2914   0.374   0.034  10.590  0.8598  0.4099 -0.1257
  188MPD1    C4 2915   0.449   0.119  10.676  0.0003 -0.2910 -0.6267
  188MPD1    C5 2916   0.440   0.252  10.676  0.1489 -0.0293  0.2857
  188MPD1     H 2917   0.215   0.031  10.455 -1.5733  1.4880  0.4327
  188MPD1    H1 2918   0.526   0.076  10.739 -0.6818 -1.5985 -0.6940
  188MPD1    H2 2919   0.339   0.420  10.596  0.6970  0.0462  0.4883
  188MPD1    H3 2920   0.513   0.312  10.729 -1.0884 -1.0477  3.1866
  188MPD1     N 2921   0.395   4.631  10.574  0.0746  0.5754  0.3341
  188MPD1    H5 2922   0.335   4.582  10.508 -0.0428  0.0355  0.8370
  188MPD1    N1 2923   0.168   0.295  10.435  0.6498 -0.4012 -0.1899
  188MPD1    H6 2924   0.145   0.386  10.474 -2.4973 -1.1001 -0.4560
  188MPD1    H7 2925   0.081   0.246  10.416  0.1214 -0.3208  2.0388
  189MPD1     C 2926   3.253   0.982   0.400  0.2637 -0.4362 -0.7700
  189MPD1    C1 2927   3.142   0.896   0.419 -0.4918  0.6431  0.0318
  189MPD1    C2 2928   3.022   0.955   0.456 -0.0954 -0.4771  0.1064
  189MPD1    C3 2929   3.000   1.090   0.454 -0.1579  0.2130  0.6104
  189MPD1    C4 2930   3.109   1.170   0.432 -0.3560  0.1273 -0.6143
  189MPD1    C5 2931   3.232   1.113   0.399 -0.0827  0.6739 -0.5931
  189MPD1     H 2932   2.937   0.893   0.479 -0.6895  1.4333  2.9824
  189MPD1    H1 2933   3.118   1.277   0.449 -0.6161  0.4685 -2.5999
  189MPD1    H2 2934   3.353   0.949   0.374  0.6626 -0.8947  1.2706
  189MPD1    H3 2935   3.317   1.178   0.379 -0.4750  1.3164 -0.1854
  189MPD1     N 2936   2.870   1.141   0.480  0.1368  0.3507 -0.3887
  189MPD1    H5 2937   2.792   1.077   0.491  0.4331 -0.3724 -2.6902
  189MPD1    N1 2938   3.158   0.754   0.407 -0.2055 -0.1606 -0.2913
  189MPD1    H6 2939   3.221   0.735   0.330  0.6247 -0.2500  0.4044
  189MPD1    H7 2940   3.071   0.702   0.411 -1.1337  1.4643  1.1477
  190MPD1     C 2941   1.853   0.041  15.444  0.3440 -0.2353  0.5456
  190MPD1    C1 2942   1.764   4.670  15.458 -0.0765 -0.2191  0.2684
  190MPD1    C2 2943   1.797   4.558  15.528  0.0649 -0.7739  0.1735
  190MPD1    C3 2944   1.922   4.561  15.594  0.1314  0.2117  0.2980
  190MPD1    C4 2945   2.009   4.656  15.569  0.3704 -0.6670 -0.4295
  190MPD1    C5 2946   1.976   0.032  15.501  0.3359  0.8995  0.7119
  190MPD1     H 2947   1.733   4.478  15.562 -1.2637  0.5372  0.7434
  190MPD1    H1 2948   2.109   4.642  15.609 -0.0287 -0.1171  0.7575
  190MPD1    H2 2949   1.828   0.136  15.397  2.2055  0.7118  1.4692
  190MPD1    H3 2950   2.047   0.105  15.463 -0.0219 -0.6876 -2.9397
  190MPD1     N 2951   1.962   4.451  15.668 -0.2925  0.0164  0.0933
  190MPD1    H5 2952   1.913   4.362  15.663 -2.3848  1.1031  1.4771
  190MPD1    N1 2953   1.630   4.689  15.425  0.5843 -0.1812  0.0554
  190MPD1    H6 2954   1.573   4.607  15.408  0.4006  0.2990 -1.6238
  190MPD1    H7 2955   1.611   0.018  15.349 -1.7861 -1.7694 -0.6503
  191MPD1     C 2956   1.180   0.630  13.113 -0.4968 -0.3262  0.3649
  191MPD1    C1 2957   1.307   0.641  13.072 -0.7083 -0.0523 -0.3279
  191MPD1    C2 2958   1.336   0.730  12.968  0.6438  0.0809  0.2360
  191MPD1    C3 2959   1.243   0.808  12.905 -0.4978 -0.0128  0.3098
  191MPD1    C4 2960   1.115   0.797  12.961  0.0296  1.0234  0.1927
  191MPD1    C5 2961   1.084   0.707  13.053  0.2687 -0.4200 -0.1384
  191MPD1     H 2962   1.437   0.739  12.929  1.4161  0.4954  2.3491
  191MPD1    H1 2963   1.036   0.860  12.920 -0.7405  0.5471  0.9351
  191MPD1    H2 2964   1.154   0.562  13.193  1.1217 -0.7770  0.5208
  191MPD1    H3 2965   0.979   0.712  13.081  0.8250  0.5212  1.7812
  191MPD1     N 2966   1.269   0.895  12.801 -0.1388  0.1591  0.3269
  191MPD1    H5 2967   1.366   0.920  12.784 -0.0885  0.7145  1.4246
  191MPD1    N1 2968   1.408   0.557  13.122  0.6247 -0.1793  0.5661
  191MPD1    H6 2969   1.386   0.533  13.219  1.1061 -4.6521 -0.4243
  191MPD1    H7 2970   1.500   0.599  13.116  1.5157 -2.2722 -0.3899
  192MPD1     C 2971   0.706   1.026  11.984  0.1837 -0.4590  0.6190
  192MPD1    C1 2972   0.830   1.078  11.946  0.5455 -0.0522 -0.1985
  192MPD1    C2 2973   0.936   1.050  12.023 -0.1172 -0.0624  0.5351
  192MPD1    C3 2974   0.924   0.978  12.140  0.2201 -0.1912  0.0497
  192MPD1    C4 2975   0.799   0.920  12.170  0.0069 -0.1367  0.0640
  192MPD1    C5 2976   0.691   0.943  12.088 -0.1427  0.0122  0.2261
  192MPD1     H 2977   1.034   1.085  11.992 -1.2546  1.3875 -1.3935
  192MPD1    H1 2978   0.784   0.858  12.258 -2.6661  0.0613 -0.2306
  192MPD1    H2 2979   0.619   1.044  11.923  0.1899 -0.9879  0.4461
  192MPD1    H3 2980   0.598   0.901  12.122  0.1497  0.2241  1.2844
  192MPD1     N 2981   1.025   0.968  12.246 -0.2288 -0.2366  0.4290
  192MPD1    H5 2982   1.001   0.903  12.321  0.7624  2.7455  3.3309
  192MPD1    N1 2983   0.842   1.138  11.823 -0.0990  0.1020 -0.1068
  192MPD1    H6 2984   0.758   1.188  11.794 -1.5795 -2.6319 -0.4581
  192MPD1    H7 2985   0.919   1.206  11.822 -1.2916  1.3814 -3.0606
  193MPD1     C 2986   0.655   1.477  16.361  0.5943  0.3494  0.5224
  193MPD1    C1 2987   0.587   1.597  16.388  0.4224  0.2862 -0.4059
  193MPD1    C2 2988   0.666   1.706  16.413  0.2620 -0.7202 -0.2296
  193MPD1    C3 2989   0.805   1.696  16.437  0.4197  0.2379 -0.5903
  193MPD1    C4 2990   0.863   1.571  16.428  0.2671 -0.0599  0.2419
  193MPD1    C5 2991   0.793   1.469  16.374  0.4726  0.0588 -0.0134
  193MPD1     H 2992   0.621   1.804  16.422 -0.8954 -1.2856  0.1984
  193MPD1    H1 2993   0.971   1.560  16.437 -0.0742 -2.7917  0.9853
  193MPD1    H2 2994   0.602   1.387  16.333  1.4954  0.1882 -0.6779
  193MPD1    H3 2995   0.839   1.373  16.355  0.6162  0.5076 -1.9907
  193MPD1     N 2996   0.883   1.804  16.482  0.4379 -0.2979  0.6011
  193MPD1    H5 2997   0.978   1.773  16.500 -0.1755 -0.1498  4.1522
  193MPD1    N1 2998   0.452   1.602  16.357  0.8495  0.2295 -0.6282
  193MPD1    H6 2999   0.412   1.511  16.378  0.1536  0.5402 -0.5907
  193MPD1    H7 3000   0.401   1.673  16.410 -0.3787 -1.4001  0.3679
  194MPD1     C 3001   3.271   3.731  16.761  0.1384  0.4528 -0.4185
  194MPD1    C1 3002   3.179   3.668  16.678  0.9445  0.3718  0.3807
  194MPD1    C2 3003   3.173   3.527  16.683  0.0202  0.2755  0.3213
  194MPD1    C3 3004   3.270   3.454  16.758 -0.2505  0.7998 -0.7308
  194MPD1    C4 3005   3.360   3.527  16.833  0.0244  0.1343 -0.4725
  194MPD1    C5 3006   3.368   3.663  16.827 -0.0558  0.1635 -0.2238
  194MPD1     H 3007   3.092   3.485  16.624  0.5158 -0.0825 -0.1059
  194MPD1    H1 3008   3.434   3.477  16.894  0.6742  1.7064  0.0256
  194MPD1    H2 3009   3.273   3.839  16.771  0.5310  0.5580 -1.6493
  194MPD1    H3 3010   3.447   3.710  16.885 -1.7063  1.8621  0.6469
  194MPD1     N 3011   3.275   3.319  16.766  0.5769  0.0420 -0.3924
  194MPD1    H5 3012   3.354   3.280  16.817  1.3605  0.4420 -1.3167
  194MPD1    N1 3013   3.082   3.743  16.608 -0.6062  0.1725 -0.6538
  194MPD1    H6 3014   3.115   3.834  16.575 -2.2345  0.9112 -0.2481
  194MPD1    H7 3015   3.045   3.701  16.523  1.1028  0.5220 -1.5777
  195MPD1     C 3016   0.662   0.926   0.302 -0.2108 -0.1899 -0.2392
  195MPD1    C1 3017   0.798   0.917   0.311  0.0535 -0.1780  0.4003
  195MPD1    C2 3018   0.861   0.796   0.325  0.0859  0.2090 -0.2686
  195MPD1    C3 3019   0.791   0.674   0.339 -0.4928 -0.3966 -0.9250
  195MPD1    C4 3020   0.656   0.686   0.345 -1.0196 -0.8126 -0.4692
  195MPD1    C5 3021   0.591   0.810   0.320  0.1104  0.3105  0.0899
  195MPD1     H 3022   0.969   0.801   0.325  0.1330 -0.7784 -0.4902
  195MPD1    H1 3023   0.597   0.595   0.347 -1.8509 -0.3081 -2.5545
  195MPD1    H2 3024   0.610   1.017   0.275 -0.7175 -0.4010  0.0212
  195MPD1    H3 3025   0.484   0.805   0.304 -0.3053  1.5918  2.4644
  195MPD1     N 3026   0.856   0.548   0.328  0.1132  0.0112 -0.0753
  195MPD1    H5 3027   0.796   0.471   0.356 -0.7140  0.8597  0.4735
  195MPD1    N1 3028   0.875   1.033   0.277  0.3073  0.1140  0.3479
  195MPD1    H6 3029   0.966   1.035   0.324  0.2097 -1.6632  0.6012
  195MPD1    H7 3030   0.837   1.125   0.299  0.8259  0.2077  0.8786
  196MPD1     C 3031   4.428   3.881   0.579  0.6177 -0.7998  0.2508
  196MPD1    C1 3032   4.456   3.895   0.711 -0.1842 -0.1429 -0.0907
  196MPD1    C2 3033   4.521   4.002   0.757  0.1295 -0.0030 -0.2090
  196MPD1    C3 3034   4.560   4.105   0.673 -0.6265  0.2897 -0.1921
  196MPD1    C4 3035   4.513   4.102   0.542  0.4006 -0.2142 -0.1631
  196MPD1    C5 3036   4.443   3.988   0.499  0.3284 -0.0848 -0.4901
  196MPD1     H 3037   4.537   4.009   0.864  0.4283 -0.2622 -0.2367
  196MPD1    H1 3038   4.525   4.187   0.477 -1.0089 -0.8809 -1.2959
  196MPD1    H2 3039   4.380   3.790   0.546  3.2021 -1.9028 -0.4519
  196MPD1    H3 3040   4.403   3.980   0.398 -1.2970  0.7745  0.0846
  196MPD1     N 3041   4.634   4.220   0.722  0.3515  0.3185  0.1519
  196MPD1    H5 3042   4.634   4.305   0.665  0.1724  0.3428  0.1874
  196MPD1    N1 3043   4.436   3.788   0.796  0.0810  0.4484  0.2733
  196MPD1    H6 3044   4.451   3.823   0.890  2.3752 -1.4688  0.5877
  196MPD1    H7 3045   4.355   3.727   0.787  1.1931 -1.2571  2.0243
  197MPD1     C 3046   4.335   1.419  17.223  0.0157 -0.3883  0.5165
  197MPD1    C1 3047   4.416   1.519  17.275  0.2280 -0.2719  0.0718
  197MPD1    C2 3048   4.421   1.644  17.210 -0.3764 -0.0331 -0.5453
  197MPD1    C3 3049   4.344   1.662  17.090 -0.9278 -0.0093  0.2797
  197MPD1    C4 3050   4.273   1.554  17.038 -0.6387 -0.0732 -0.2950
  197MPD1    C5 3051   4.263   1.437  17.109 -0.2638  0.2007 -0.3007
  197MPD1     H 3052   4.479   1.724  17.252  0.9618  0.3029 -3.0225
  197MPD1    H1 3053   4.203   1.570  16.956 -0.8701  2.9446  0.4658
  197MPD1    H2 3054   4.315   1.322  17.267  2.7097 -1.6428 -1.0702
  197MPD1    H3 3055   4.205   1.353  17.072  1.3492 -0.6698 -0.8345
  197MPD1     N 3056   4.328   1.796  17.037 -0.7249 -0.0412 -1.1962
  197MPD1    H5 3057   4.261   1.807  16.961  0.2748  0.6944 -1.9741
  197MPD1    N1 3058   4.473   1.503  17.400  0.2454  0.0638 -0.5718
  197MPD1    H6 3059   4.507   1.407  17.403 -2.4482 -0.8294  0.8497
  197MPD1    H7 3060   4.548   1.571  17.412 -1.0115  1.6834 -1.9134
  198MPD1     C 3061   1.736   1.394  15.548 -0.1507  0.6174 -0.2883
  198MPD1    C1 3062   1.791   1.272  15.529  0.5442 -0.1309  0.7321
  198MPD1    C2 3063   1.784   1.185  15.638  0.1433 -0.1372  0.0505
  198MPD1    C3 3064   1.754   1.230  15.767 -0.0736  0.0114 -0.6904
  198MPD1    C4 3065   1.724   1.363  15.787 -0.1381 -0.2039  0.3070
  198MPD1    C5 3066   1.706   1.431  15.673  0.9441  0.1348  0.4187
  198MPD1     H 3067   1.812   1.083  15.614  1.7988  0.2747  0.2019
  198MPD1    H1 3068   1.699   1.405  15.884 -1.6380 -0.9715  0.2522
  198MPD1    H2 3069   1.721   1.467  15.469 -0.8015 -1.0023 -1.6472
  198MPD1    H3 3070   1.680   1.534  15.693 -3.5135 -0.6036 -1.4724
  198MPD1     N 3071   1.750   1.130  15.872 -0.5683  0.0553 -0.1911
  198MPD1    H5 3072   1.774   1.034  15.848  2.4579  0.8542 -0.4358
  198MPD1    N1 3073   1.837   1.228  15.402 -0.0280  0.0920  0.5960
  198MPD1    H6 3074   1.920   1.175  15.427  0.0198 -0.0256  0.1923
  198MPD1    H7 3075   1.865   1.303  15.339  0.2174  0.0378  0.6379
  199MPD1     C 3076   3.041   4.601  10.789 -0.2965  0.8639  0.9263
  199MPD1    C1 3077   2.981   4.703  10.862  0.6180  0.3659  0.1664
  199MPD1    C2 3078   2.980   0.091  10.792 -0.4602 -0.0908 -0.5852
  199MPD1    C3 3079   3.012   0.096  10.661 -0.1666 -0.4016  0.1414
  199MPD1    C4 3080   3.073   4.728  10.599  0.8693  0.1543  0.1823
  199MPD1    C5 3081   3.073   4.611  10.656 -0.0067 -0.4433 -0.4437
  199MPD1     H 3082   2.941   0.176  10.846  0.6113  0.5294 -0.7867
  199MPD1    H1 3083   3.126   0.007  10.505  0.3770  1.0915  0.0488
  199MPD1    H2 3084   3.064   4.508  10.840  0.4860  0.6347  0.1659
  199MPD1    H3 3085   3.123   4.533  10.599  2.3900  0.7502  0.0374
  199MPD1     N 3086   3.016   0.213  10.580 -0.1967  0.2533  0.3515
  199MPD1    H5 3087   3.070   0.210  10.494 -0.5551  2.5512  0.0232
  199MPD1    N1 3088   2.969   4.694  11.000  0.5375 -0.1331  0.4629
  199MPD1    H6 3089   2.907   0.025  11.044  0.5058  1.1396 -1.5058
  199MPD1    H7 3090   2.941   4.599  11.024  1.2610 -1.1488 -2.5857
  200MPD1     C 3091   3.234   1.414  15.146 -0.4364  0.6293  0.0143
  200MPD1    C1 3092   3.250   1.383  15.013  0.2604  0.9091 -0.1551
  200MPD1    C2 3093   3.307   1.479  14.937  0.0198  0.7032  0.9060
  200MPD1    C3 3094   3.346   1.604  14.988 -0.2210  0.1365 -0.4437
  200MPD1    C4 3095   3.331   1.634  15.122 -0.7058  0.7032  0.6317
  200MPD1    C5 3096   3.283   1.531  15.197 -0.2428  0.3192 -0.8561
  200MPD1     H 3097   3.324   1.463  14.831  0.8743 -2.3163  1.4778
  200MPD1    H1 3098   3.375   1.717  15.175 -1.2709  0.0596  2.0991
  200MPD1    H2 3099   3.195   1.340  15.214  0.1067 -0.2731 -0.6463
  200MPD1    H3 3100   3.266   1.556  15.301  0.8754 -0.6575 -0.4357
  200MPD1     N 3101   3.411   1.694  14.898 -0.3209 -0.2499  0.0201
  200MPD1    H5 3102   3.421   1.664  14.801  0.2819  1.5352 -0.4580
  200MPD1    N1 3103   3.212   1.255  14.954  0.1387  0.4616  0.1802
  200MPD1    H6 3104   3.187   1.256  14.856  1.9715 -0.6203 -0.3108
  200MPD1    H7 3105   3.143   1.202  15.007 -0.0046 -2.7997 -3.2322
  201MPD1     C 3106   0.218   0.614  13.299  0.5228  0.0237  0.1368
  201MPD1    C1 3107   0.181   0.492  13.250  0.3196 -0.4301  0.1474
  201MPD1    C2 3108   0.196   0.373  13.332  0.4797  0.1354 -0.1591
  201MPD1    C3 3109   0.215   0.392  13.466 -0.6518  0.3435 -0.5472
  201MPD1    C4 3110   0.228   0.519  13.522  0.5029 -0.0137 -0.1430
  201MPD1    C5 3111   0.247   0.624  13.434  0.1824  0.7663 -0.3966
  201MPD1     H 3112   0.188   0.275  13.285  0.6157  0.0139  0.0763
  201MPD1    H1 3113   0.235   0.544  13.627 -1.0844  0.8796 -0.2588
  201MPD1    H2 3114   0.226   0.696  13.229  3.1097  0.3853  0.8705
  201MPD1    H3 3115   0.257   0.720  13.482 -1.9446  1.6823 -1.7822
  201MPD1     N 3116   0.225   0.268  13.540  0.1172  0.4828 -0.1798
  201MPD1    H5 3117   0.213   0.184  13.485  1.2850  0.2156 -0.0158
  201MPD1    N1 3118   0.173   0.485  13.111 -0.1241 -0.0958  0.6015
  201MPD1    H6 3119   0.141   0.577  13.083 -0.7515 -0.3728  0.4079
  201MPD1    H7 3120   0.109   0.412  13.079 -0.7569 -0.1073  1.8596
  202MPD1     C 3121   3.972   0.057   9.608  0.2081  0.5485  0.7416
  202MPD1    C1 3122   3.868   4.705   9.638  0.0919 -0.4399  0.4372
  202MPD1    C2 3123   3.868   4.674   9.777 -0.0199  0.1183  0.1466
  202MPD1    C3 3124   3.977   4.693   9.863  0.1844  0.3052 -0.2000
  202MPD1    C4 3125   4.082   0.032   9.824 -0.2492 -0.8019  0.3721
  202MPD1    C5 3126   4.079   0.080   9.695 -0.2676 -0.8790 -0.4921
  202MPD1     H 3127   3.787   4.612   9.814  0.5561  0.2565  1.6211
  202MPD1    H1 3128   4.174   0.039   9.882 -0.0021 -1.4985  0.0600
  202MPD1    H2 3129   3.988   0.100   9.509  0.1546 -1.2999 -0.0665
  202MPD1    H3 3130   4.170   0.121   9.654  0.3867  0.4000  2.2996
  202MPD1     N 3131   3.973   4.649  10.004  0.0336 -0.2995 -0.1967
  202MPD1    H5 3132   4.060   4.666  10.054  0.3393  3.0249 -1.8932
  202MPD1    N1 3133   3.757   4.717   9.553  0.1230  0.1909 -0.0672
  202MPD1    H6 3134   3.785   4.708   9.456  0.8757 -1.5038  0.3093
  202MPD1    H7 3135   3.688   4.646   9.574 -1.4526  1.5921 -0.4823
  203MPD1     C 3136   3.377   0.895  12.884 -0.7400  0.2400  0.2452
  203MPD1    C1 3137   3.442   0.835  12.779 -0.2921 -0.3337 -0.0172
  203MPD1    C2 3138   3.504   0.709  12.797  0.2669 -0.2665 -0.2930
  203MPD1    C3 3139   3.524   0.664  12.921 -0.2811  0.3222 -0.4356
  203MPD1    C4 3140   3.477   0.734  13.030 -0.2816  0.5356  0.0291
  203MPD1    C5 3141   3.405   0.852  13.013  0.2899 -0.1403  0.6003
  203MPD1     H 3142   3.529   0.641  12.717 -1.5362  0.1012 -1.1608
  203MPD1    H1 3143   3.483   0.699  13.132  1.5562 -0.6035 -0.4637
  203MPD1    H2 3144   3.304   0.972  12.860  0.8198  0.7784 -2.8067
  203MPD1    H3 3145   3.366   0.908  13.097  0.3347  1.3373 -0.3517
  203MPD1     N 3146   3.582   0.534  12.937 -1.1323  0.2684  0.8696
  203MPD1    H5 3147   3.595   0.473  12.857 -0.1644 -0.8778  1.9102
  203MPD1    N1 3148   3.424   0.887  12.651 -0.5308  0.3853  0.1873
  203MPD1    H6 3149   3.509   0.872  12.597 -0.2565  0.0888  0.7020
  203MPD1    H7 3150   3.401   0.986  12.655 -0.2711  0.4375  0.3805
  204MPD1     C 3151   2.783   2.248  17.334  0.2956  0.2859 -0.5039
  204MPD1    C1 3152   2.874   2.254  17.235  0.4847 -0.4856  0.1137
  204MPD1    C2 3153   2.978   2.164  17.230  0.7128 -0.5889  1.0064
  204MPD1    C3 3154   2.978   2.057  17.311  0.5023 -0.2481  0.2846
  204MPD1    C4 3155   2.886   2.042  17.403 -0.4031 -0.0852  0.0032
  204MPD1    C5 3156   2.785   2.137  17.417 -0.1198  0.8714 -0.6105
  204MPD1     H 3157   3.047   2.165  17.147  0.1084  1.4867  0.5124
  204MPD1    H1 3158   2.887   1.960  17.474  0.6798 -0.4108 -0.3893
  204MPD1    H2 3159   2.711   2.326  17.354  0.5027  0.8847 -2.1083
  204MPD1    H3 3160   2.706   2.124  17.490  2.0340 -1.7600  1.2642
  204MPD1     N 3161   3.085   1.968  17.284  0.7305 -0.4798 -0.2724
  204MPD1    H5 3162   3.134   1.983  17.196 -1.0737  0.0545 -1.1761
  204MPD1    N1 3163   2.878   2.358  17.147  0.4200  0.0435 -0.4652
  204MPD1    H6 3164   2.925   2.352  17.057 -0.5448  1.4896 -1.0690
  204MPD1    H7 3165   2.790   2.400  17.117  1.4914  1.3942 -1.7203
  205MPD1     C 3166   4.069   0.485   0.201  0.2547 -0.3746  0.9823
  205MPD1    C1 3167   3.952   0.413   0.222 -0.5541 -0.2773  0.1663
  205MPD1    C2 3168   3.843   0.434   0.135 -0.7122 -0.4663  0.5427
  205MPD1    C3 3169   3.849   0.538   0.045  0.0410  0.0131  0.5566
  205MPD1    C4 3170   3.966   0.612   0.029  0.3965  0.6597 -0.0640
  205MPD1    C5 3171   4.076   0.583   0.109 -0.4065 -0.1481  0.1778
  205MPD1     H 3172   3.769   0.355   0.146  1.1449 -2.3287 -0.4822
  205MPD1    H1 3173   3.979   0.693  17.699 -1.3706  0.3912 -0.6869
  205MPD1    H2 3174   4.149   0.467   0.272 -0.5420  1.0300  2.2264
  205MPD1    H3 3175   4.163   0.645   0.093 -0.4371  0.1617  1.2299
  205MPD1     N 3176   3.734   0.579  17.713  0.6652  0.1802 -0.0297
  205MPD1    H5 3177   3.747   0.671  17.673 -1.6298  0.2007 -0.7064
  205MPD1    N1 3178   3.948   0.308   0.313  0.6999 -0.6050 -0.7688
  205MPD1    H6 3179   3.995   0.328   0.401  0.8858 -1.1867 -0.7361
  205MPD1    H7 3180   3.855   0.268   0.327 -0.1871  0.8968 -2.2900
  206MPD1     C 3181   3.867   3.402  17.110 -0.3647  0.4271  0.1520
  206MPD1    C1 3182   3.866   3.531  17.058  0.4253  0.4551  0.0432
  206MPD1    C2 3183   3.802   3.555  16.937 -0.1263  0.6603 -0.0509
  206MPD1    C3 3184   3.775   3.441  16.859 -0.1907  0.2861  0.0474
  206MPD1    C4 3185   3.797   3.315  16.903  0.3437  0.2923  0.9881
  206MPD1    C5 3186   3.828   3.299  17.032  0.1951  0.1352 -0.1086
  206MPD1     H 3187   3.795   3.653  16.891 -0.7853  0.9098  0.5836
  206MPD1    H1 3188   3.788   3.229  16.838 -1.5229  0.2046  1.3508
  206MPD1    H2 3189   3.887   3.377  17.214  1.0712 -0.0772 -0.2537
  206MPD1    H3 3190   3.824   3.201  17.079  0.7443 -0.5415 -1.4804
  206MPD1     N 3191   3.694   3.441  16.735 -0.0686 -0.2379 -0.2216
  206MPD1    H5 3192   3.656   3.353  16.701  1.1581  0.1290 -2.5765
  206MPD1    N1 3193   3.887   3.643  17.137  0.0387  0.2081 -0.3421
  206MPD1    H6 3194   3.951   3.628  17.215 -0.3495  1.4396  0.2184
  206MPD1    H7 3195   3.919   3.718  17.076  1.8362 -0.2332  0.0408
  207MPD1     C 3196   0.562   0.912   9.894 -0.1976 -0.3117  0.1724
  207MPD1    C1 3197   0.603   1.039   9.930  0.0672 -0.0259 -0.0089
  207MPD1    C2 3198   0.667   1.042  10.051 -0.0071  0.0022 -0.1582
  207MPD1    C3 3199   0.688   0.935  10.133  0.1822 -0.4483 -0.6277
  207MPD1    C4 3200   0.643   0.812  10.090 -0.1957  0.2053  0.2032
  207MPD1    C5 3201   0.579   0.805   9.974  0.5756  0.3039 -0.4459
  207MPD1     H 3202   0.706   1.138  10.081 -0.1548  0.0569 -0.1423
  207MPD1    H1 3203   0.654   0.719  10.146 -1.6924  1.1045  2.0045
  207MPD1    H2 3204   0.521   0.886   9.797  0.8515 -0.4323 -0.2437
  207MPD1    H3 3205   0.552   0.707   9.938 -0.0071  0.4693 -0.4457
  207MPD1     N 3206   0.762   0.940  10.256  0.1477 -0.5862 -0.7568
  207MPD1    H5 3207   0.795   0.854  10.298  1.8323  0.4026 -0.0442
  207MPD1    N1 3208   0.615   1.137   9.834 -0.1671 -0.3556  0.8752
  207MPD1    H6 3209   0.611   1.227   9.881 -1.7436 -1.0778  2.1176
  207MPD1    H7 3210   0.532   1.134   9.775  0.0540  0.8877  0.5021
  208MPD1     C 3211   2.453   3.914  17.727 -0.2023 -0.2319 -0.4202
  208MPD1    C1 3212   2.398   4.024   0.048 -0.1823 -0.5413 -0.4547
  208MPD1    C2 3213   2.484   4.110   0.101 -0.1791 -0.4475  0.7710
  208MPD1    C3 3214   2.619   4.084   0.115  0.0598  0.0987 -0.3127
  208MPD1    C4 3215   2.671   3.979   0.053 -0.2486  0.6633 -0.5744
  208MPD1    C5 3216   2.588   3.893  17.730  0.2916 -0.1486 -0.7531
  208MPD1     H 3217   2.438   4.194   0.152 -1.4606 -1.1112  0.7199
  208MPD1    H1 3218   2.774   3.959   0.081 -0.3660  1.7872  0.6295
  208MPD1    H2 3219   2.394   3.837  17.679 -1.5054  1.7547 -2.0131
  208MPD1    H3 3220   2.630   3.798  17.697 -1.1732 -1.1957  0.3946
  208MPD1     N 3221   2.688   4.179   0.187 -0.0442  0.1158  0.1414
  208MPD1    H5 3222   2.642   4.261   0.226  0.2773  0.4001 -0.0855
  208MPD1    N1 3223   2.263   4.057   0.048 -0.5656  0.3232 -0.7071
  208MPD1    H6 3224   2.201   3.978   0.065 -2.6907  2.4424  1.4316
  208MPD1    H7 3225   2.244   4.124   0.122 -1.5730 -1.6020  0.7888
  209MPD1     C 3226   0.927   4.265  11.284 -0.0715  0.2902 -0.0909
  209MPD1    C1 3227   0.904   4.333  11.167  0.3193  0.0024 -0.0097
  209MPD1    C2 3228   0.885   4.471  11.169 -0.1331  0.5104  0.0299
  209MPD1    C3 3229   0.910   4.540  11.288  0.0105  0.1603  0.3174
  209MPD1    C4 3230   0.944   4.471  11.406  0.2061 -0.4819 -0.0264
  209MPD1    C5 3231   0.949   4.335  11.399 -0.0192  0.0916 -0.2007
  209MPD1     H 3232   0.861   4.528  11.079  1.6474  0.5921 -0.4001
  209MPD1    H1 3233   0.973   4.520  11.498  0.7144 -1.7585  0.4967
  209MPD1    H2 3234   0.945   4.158  11.283 -0.6992  0.1938 -1.0161
  209MPD1    H3 3235   0.981   4.281  11.488  0.7284 -0.4340 -0.7868
  209MPD1     N 3236   0.900   4.682  11.279  0.3214 -0.0935 -0.4983
  209MPD1    H5 3237   0.885   4.724  11.187 -2.0861 -0.4097 -0.2496
  209MPD1    N1 3238   0.879   4.256  11.054 -0.4686  0.4399  0.2208
  209MPD1    H6 3239   0.920   4.163  11.061 -0.2119  0.4477 -1.2758
  209MPD1    H7 3240   0.915   4.296  10.967  0.4076 -2.6046 -0.8107
  210MPD1     C 3241   1.512   0.770  11.619 -0.2526 -0.7630  0.9074
  210MPD1    C1 3242   1.433   0.696  11.702 -1.0559  0.2501 -0.4452
  210MPD1    C2 3243   1.347   0.598  11.657 -0.5551 -0.4616  0.1958
  210MPD1    C3 3244   1.341   0.576  11.516 -0.3571  0.3950 -0.0785
  210MPD1    C4 3245   1.426   0.650  11.439  0.4297  0.2439  0.1279
  210MPD1    C5 3246   1.502   0.749  11.488 -1.0870  0.3722 -0.3908
  210MPD1     H 3247   1.284   0.535  11.718 -0.3797 -1.7293 -0.9512
  210MPD1    H1 3248   1.428   0.639  11.331 -0.8354 -0.0195  0.1327
  210MPD1    H2 3249   1.580   0.847  11.653 -1.0937  1.6705 -2.9595
  210MPD1    H3 3250   1.551   0.818  11.420  0.6336 -0.0785  0.3813
  210MPD1     N 3251   1.245   0.497  11.450  0.2010  0.0613  0.3219
  210MPD1    H5 3252   1.248   0.496  11.348  0.4280 -0.7761  0.3411
  210MPD1    N1 3253   1.445   0.711  11.839  0.4663 -0.5808 -0.5072
  210MPD1    H6 3254   1.465   0.804  11.875 -0.3589 -0.6936  0.2687
  210MPD1    H7 3255   1.362   0.686  11.892  0.4668 -0.3981 -0.4188
  211MPD1     C 3256   4.470   0.960  16.640  0.0293  0.4281 -0.0898
  211MPD1    C1 3257   4.416   1.034  16.538  0.4654  0.3144 -0.6428
  211MPD1    C2 3258   4.283   1.018  16.522  0.1166  0.1133 -0.5150
  211MPD1    C3 3259   4.198   0.952  16.614 -0.5132 -0.3035  0.4292
  211MPD1    C4 3260   4.251   0.903  16.732 -0.2133 -0.9216 -0.6084
  211MPD1    C5 3261   4.392   0.904  16.739  0.1364 -0.3840  0.3649
  211MPD1     H 3262   4.243   1.047  16.426  0.9569  1.4504 -0.4514
  211MPD1    H1 3263   4.191   0.858  16.810  2.3841 -1.0390  1.3199
  211MPD1    H2 3264   4.576   0.946  16.659 -0.1493  0.9531  1.2931
  211MPD1    H3 3265   4.431   0.852  16.826 -0.8485 -0.2369  0.8901
  211MPD1     N 3266   4.063   0.955  16.577 -0.6436  0.3448  0.1552
  211MPD1    H5 3267   4.044   1.025  16.506  0.3104  0.1430 -0.3011
  211MPD1    N1 3268   4.492   1.093  16.434  0.5590 -0.1248 -0.1874
  211MPD1    H6 3269   4.587   1.107  16.469  1.3809  1.0768 -2.8590
  211MPD1    H7 3270   4.438   1.174  16.405  0.1689  0.2722  1.6262
  212MPD1     C 3271   2.995   3.573  16.199  0.4402  0.2658 -0.1142
  212MPD1    C1 3272   2.933   3.670  16.274 -0.0234  0.8714 -0.7598
  212MPD1    C2 3273   2.874   3.615  16.392 -0.0566  0.1464  0.3037
  212MPD1    C3 3274   2.889   3.479  16.423  0.4641 -0.6802  0.7679
  212MPD1    C4 3275   2.967   3.397  16.343  0.6089 -1.0296  0.3248
  212MPD1    C5 3276   3.018   3.448  16.227  0.7142  0.2722  0.8778
  212MPD1     H 3277   2.815   3.683  16.452  0.6939  2.0215 -1.0888
  212MPD1    H1 3278   2.988   3.295  16.374 -0.1493 -1.0306  0.8357
  212MPD1    H2 3279   3.028   3.602  16.100  1.2562  1.4096  0.4828
  212MPD1    H3 3280   3.059   3.377  16.156  1.4869  1.8846 -0.2956
  212MPD1     N 3281   2.842   3.417  16.541  0.4299  0.2629 -0.7898
  212MPD1    H5 3282   2.874   3.322  16.558  0.0756  0.1810 -0.5696
  212MPD1    N1 3283   2.903   3.800  16.230 -0.4119 -0.4080  0.0447
  212MPD1    H6 3284   2.973   3.832  16.163  0.6156 -2.8755 -0.0525
  212MPD1    H7 3285   2.903   3.860  16.312  0.1914  1.1044 -1.0380
  213MPD1     C 3286   1.639   3.982  15.907 -0.1320 -0.0473  0.1873
  213MPD1    C1 3287   1.561   4.080  15.972 -0.4385  0.5544  0.2996
  213MPD1    C2 3288   1.446   4.120  15.899 -0.1574  0.7014 -0.3334
  213MPD1    C3 3289   1.408   4.058  15.778 -0.2327 -0.1665 -0.3226
  213MPD1    C4 3290   1.470   3.945  15.734  0.5700  0.5477 -0.4517
  213MPD1    C5 3291   1.583   3.906  15.802 -0.1847 -0.1589  0.5388
  213MPD1     H 3292   1.401   4.211  15.938  1.3031  1.9138 -1.4667
  213MPD1    H1 3293   1.442   3.895  15.642  1.4490  1.8072 -1.3950
  213MPD1    H2 3294   1.733   3.946  15.948  0.5894  2.6395  0.8691
  213MPD1    H3 3295   1.637   3.820  15.765 -2.0890 -1.5783  1.0301
  213MPD1     N 3296   1.294   4.115  15.719 -0.0577  0.4342 -0.5099
  213MPD1    H5 3297   1.249   4.186  15.775  1.5419  1.9835 -1.1850
  213MPD1    N1 3298   1.628   4.175  16.051 -0.2265 -0.2391  0.2109
  213MPD1    H6 3299   1.701   4.135  16.110 -1.6000 -1.5990  0.9975
  213MPD1    H7 3300   1.571   4.236  16.109 -1.5786 -0.3727 -0.9669
  214MPD1     C 3301   0.427   3.707  15.857  0.2231  0.0470  0.6982
  214MPD1    C1 3302   0.523   3.661  15.773 -0.3128 -0.1915 -0.1898
  214MPD1    C2 3303   0.611   3.750  15.714  0.2653 -0.0145 -0.2268
  214MPD1    C3 3304   0.611   3.886  15.750 -1.0604  0.1375  0.9413
  214MPD1    C4 3305   0.517   3.932  15.839  0.6172  0.5490 -0.1177
  214MPD1    C5 3306   0.425   3.843  15.891 -0.8000 -0.2821  0.3015
  214MPD1     H 3307   0.680   3.704  15.645 -1.3335 -3.5629  0.5253
  214MPD1    H1 3308   0.523   4.035  15.872  0.1449  0.4408  0.3035
  214MPD1    H2 3309   0.345   3.639  15.875 -0.0883 -0.1239 -1.3066
  214MPD1    H3 3310   0.343   3.864  15.959 -1.4695 -2.8791  0.2887
  214MPD1     N 3311   0.691   3.985  15.685  0.2475 -0.3622  0.1928
  214MPD1    H5 3312   0.689   4.075  15.731  0.3649 -0.8476  1.1449
  214MPD1    N1 3313   0.510   3.534  15.721  0.5681 -0.0333 -0.5918
  214MPD1    H6 3314   0.484   3.473  15.798  0.0477  0.0071 -0.7354
  214MPD1    H7 3315   0.593   3.500  15.672 -0.1043 -1.6169 -0.6092
  215MPD1     C 3316   4.654   0.564  11.455  0.7152  0.0976  0.6342
  215MPD1    C1 3317   4.706   0.689  11.434 -0.2613 -0.2831 -0.2022
  215MPD1    C2 3318   0.106   0.708  11.400  0.4002  0.1350  0.3027
  215MPD1    C3 3319   0.190   0.607  11.414  0.5180  0.2953  0.1827
  215MPD1    C4 3320   0.132   0.484  11.457 -0.3057 -0.3813  0.9586
  215MPD1    C5 3321   0.003   0.459  11.481 -0.1539 -0.2601 -0.0671
  215MPD1     H 3322   0.133   0.810  11.377 -0.5100  0.4529  0.6565
  215MPD1    H1 3323   0.197   0.401  11.481  0.4069  0.1899  1.0138
  215MPD1    H2 3324   4.549   0.544  11.475  0.5688 -1.1257 -1.3860
  215MPD1    H3 3325   4.715   0.360  11.519 -0.9324  0.2599  0.8269
  215MPD1     N 3326   0.328   0.641  11.416 -0.2323 -0.4075 -0.2277
  215MPD1    H5 3327   0.356   0.737  11.397 -1.7889  0.3477  1.2153
  215MPD1    N1 3328   4.617   0.796  11.419  0.3469 -0.1810  0.8356
  215MPD1    H6 3329   4.520   0.773  11.441 -0.0914 -1.1206 -2.0391
  215MPD1    H7 3330   4.649   0.873  11.476 -0.2248  1.3019 -0.8327
  216MPD1     C 3331   2.861   3.625  17.246 -0.1389 -0.2493  0.3674
  216MPD1    C1 3332   2.870   3.513  17.172  0.0132  0.4675  0.3405
  216MPD1    C2 3333   2.801   3.402  17.209 -0.2150 -0.2806  0.5318
  216MPD1    C3 3334   2.732   3.393  17.325 -0.0724  0.6226 -0.3040
  216MPD1    C4 3335   2.726   3.505  17.407 -0.8069 -0.3939  0.3913
  216MPD1    C5 3336   2.788   3.619  17.363 -0.1577  0.2704  0.5567
  216MPD1     H 3337   2.831   3.309  17.161 -0.1114  1.5392 -2.9036
  216MPD1    H1 3338   2.663   3.520  17.494 -1.0964  0.3535  0.0517
  216MPD1    H2 3339   2.913   3.717  17.220  0.4170 -0.1091  1.9767
  216MPD1    H3 3340   2.776   3.709  17.423  1.3358  1.4754 -0.9582
  216MPD1     N 3341   2.669   3.267  17.362  0.4301 -0.4146  0.0475
  216MPD1    H5 3342   2.694   3.198  17.292  1.8891  2.8425 -2.6617
  216MPD1    N1 3343   2.969   3.502  17.067  0.1471 -0.5903  0.8337
  216MPD1    H6 3344   2.965   3.582  17.004  0.1138 -2.2137 -1.2099
  216MPD1    H7 3345   2.957   3.425  17.002  2.3263  0.6591 -1.0562
  217MPD1     C 3346   1.951   3.617   9.527  0.0882  0.0251 -0.1511
  217MPD1    C1 3347   2.086   3.591   9.504 -0.2381  0.7052  0.2006
  217MPD1    C2 3348   2.173   3.695   9.506 -0.5250  0.9041  0.8048
  217MPD1    C3 3349   2.129   3.821   9.496 -0.3356  0.3415 -0.4486
  217MPD1    C4 3350   1.999   3.852   9.497  0.3015  0.3628  0.2267
  217MPD1    C5 3351   1.909   3.747   9.525  0.1760  0.2526  0.4671
  217MPD1     H 3352   2.278   3.669   9.507 -0.4167  1.3313  0.3121
  217MPD1    H1 3353   1.963   3.954   9.494 -1.3997 -0.2051  0.7451
  217MPD1    H2 3354   1.884   3.538   9.558 -1.4355  0.9302 -1.1037
  217MPD1    H3 3355   1.802   3.760   9.528  0.5610  3.5832  0.2398
  217MPD1     N 3356   2.219   3.935   9.503 -0.4294 -0.2475  0.5792
  217MPD1    H5 3357   2.172   4.022   9.523 -0.2617 -0.3796  1.5986
  217MPD1    N1 3358   2.123   3.457   9.520 -0.1996  0.2020  1.1684
  217MPD1    H6 3359   2.057   3.387   9.487 -1.1171  1.6212  0.0204
  217MPD1    H7 3360   2.211   3.437   9.472 -0.3629 -0.0577  0.9803
  218MPD1     C 3361   1.717   0.837  12.201  0.2524  0.6239  0.1412
  218MPD1    C1 3362   1.646   0.738  12.148  0.5714  0.1336 -0.0720
  218MPD1    C2 3363   1.561   0.669  12.231  0.6823 -0.4608 -0.4820
  218MPD1    C3 3364   1.545   0.704  12.364  0.1724 -0.3193  0.1027
  218MPD1    C4 3365   1.617   0.803  12.421 -0.6689 -0.5138 -0.1467
  218MPD1    C5 3366   1.699   0.870  12.335  0.1310  0.1427 -0.3132
  218MPD1     H 3367   1.510   0.585  12.185 -0.1068  0.9515 -2.1693
  218MPD1    H1 3368   1.585   0.847  12.515  1.4013 -1.7871  1.1534
  218MPD1    H2 3369   1.784   0.895  12.138 -2.4007  0.7581 -2.5456
  218MPD1    H3 3370   1.752   0.955  12.377 -0.9726  1.0667 -0.7956
  218MPD1     N 3371   1.436   0.652  12.429  0.1552 -0.1488 -0.2788
  218MPD1    H5 3372   1.364   0.607  12.374  1.0044 -0.2193 -1.3393
  218MPD1    N1 3373   1.668   0.683  12.023  0.1436 -0.3882 -0.0254
  218MPD1    H6 3374   1.586   0.636  11.984 -0.3246  0.0317  0.4482
  218MPD1    H7 3375   1.702   0.742  11.948 -0.3332 -0.5567 -0.3688
  219MPD1     C 3376   0.543   0.589  12.199  0.0519 -0.2616  0.5062
  219MPD1    C1 3377   0.670   0.600  12.150  0.4668 -0.3114 -0.4133
  219MPD1    C2 3378   0.765   0.600  12.246 -0.0200  0.6995  0.5993
  219MPD1    C3 3379   0.732   0.594  12.382 -0.0721  0.0119  0.0242
  219MPD1    C4 3380   0.606   0.574  12.425  0.4363  0.0293  0.1271
  219MPD1    C5 3381   0.512   0.568  12.329 -0.3132  0.9951  0.5727
  219MPD1     H 3382   0.869   0.602  12.217 -0.4779  3.4720 -0.9667
  219MPD1    H1 3383   0.587   0.573  12.532  2.7310 -0.0976  0.5400
  219MPD1    H2 3384   0.454   0.598  12.137 -0.1269  1.1566  0.9852
  219MPD1    H3 3385   0.407   0.549  12.350 -1.2057  3.1128 -1.9770
  219MPD1     N 3386   0.833   0.600  12.482  0.3666  0.1297  0.4877
  219MPD1    H5 3387   0.797   0.571  12.572 -0.4974 -2.0064 -0.5567
  219MPD1    N1 3388   0.704   0.598  12.010 -0.9982 -0.1821 -0.4484
  219MPD1    H6 3389   0.628   0.615  11.945 -1.9028 -0.0626  0.6385
  219MPD1    H7 3390   0.784   0.658  11.993 -0.1776 -1.8141 -2.3502
  220MPD1     C 3391   0.592   1.514   9.881 -1.3989  0.2067 -0.1300
  220MPD1    C1 3392   0.679   1.524   9.983 -0.4413  0.2630 -0.2180
  220MPD1    C2 3393   0.654   1.432  10.083  0.9316 -0.1604  0.3622
  220MPD1    C3 3394   0.533   1.356  10.089 -0.1407  0.2357  0.3738
  220MPD1    C4 3395   0.445   1.363   9.987 -0.4750  0.2082  0.0877
  220MPD1    C5 3396   0.475   1.441   9.879  0.1483  0.1402 -0.1049
  220MPD1     H 3397   0.723   1.431  10.167  0.3265 -2.1492  0.8575
  220MPD1    H1 3398   0.362   1.293   9.978  3.0835 -3.9432 -0.7906
  220MPD1    H2 3399   0.610   1.583   9.800 -2.3493 -1.8771 -2.1229
  220MPD1    H3 3400   0.403   1.458   9.800 -0.8497 -2.5866  0.2097
  220MPD1     N 3401   0.510   1.273  10.205  0.5283  0.5269  0.1470
  220MPD1    H5 3402   0.580   1.274  10.278  0.3736 -0.2171  0.3095
  220MPD1    N1 3403   0.791   1.610   9.984 -0.2143 -0.2518 -0.3129
  220MPD1    H6 3404   0.812   1.629  10.081 -0.2069 -1.1411 -0.1464
  220MPD1    H7 3405   0.764   1.700   9.945 -1.5061 -0.5697 -0.1608
  221MPD1     C 3406   3.446   4.258  17.000 -0.2119  0.0799  0.2402
  221MPD1    C1 3407   3.513   4.379  17.021 -0.0781  0.3088 -0.5021
  221MPD1    C2 3408   3.597   4.422  16.923  0.2348 -0.2718 -0.1124
  221MPD1    C3 3409   3.607   4.353  16.802  0.0172 -0.3647 -0.1778
  221MPD1    C4 3410   3.531   4.234  16.785 -0.3684 -0.1368  0.1970
  221MPD1    C5 3411   3.455   4.183  16.889 -0.0363  0.4879 -0.8242
  221MPD1     H 3412   3.659   4.505  16.954 -2.3318  0.6040  2.7378
  221MPD1    H1 3413   3.535   4.171  16.697  3.9485  0.5621 -0.1472
  221MPD1    H2 3414   3.390   4.207  17.077  0.4676  1.0167  1.3660
  221MPD1    H3 3415   3.383   4.104  16.876 -0.5883  1.4545 -3.5954
  221MPD1     N 3416   3.701   4.388  16.698 -0.2088  0.2988 -0.0746
  221MPD1    H5 3417   3.711   4.319  16.626 -0.0633 -0.5386  0.7486
  221MPD1    N1 3418   3.528   4.444  17.144 -0.3118 -0.3255 -0.0137
  221MPD1    H6 3419   3.545   4.544  17.137 -2.6457  0.1126  0.3888
  221MPD1    H7 3420   3.442   4.426  17.196 -1.2644  2.0972 -0.7157
  222MPD1     C 3421   2.716   3.652   1.401 -0.5169 -0.2346 -0.3614
  222MPD1    C1 3422   2.750   3.727   1.292 -0.1858 -0.1319  0.1479
  222MPD1    C2 3423   2.683   3.847   1.272  0.0292 -0.1426 -0.3688
  222MPD1    C3 3424   2.569   3.875   1.344  0.6521  0.0405 -0.3940
  222MPD1    C4 3425   2.530   3.790   1.447  0.0881 -0.3504  0.3263
  222MPD1    C5 3426   2.603   3.677   1.474 -0.7928  0.2132 -0.1995
  222MPD1     H 3427   2.704   3.908   1.185  0.0539  1.5115  0.8119
  222MPD1    H1 3428   2.445   3.799   1.514  2.1439  0.4176  2.8300
  222MPD1    H2 3429   2.774   3.569   1.440  0.6681  0.3723 -0.8230
  222MPD1    H3 3430   2.576   3.614   1.558  0.6589 -0.0908  0.0319
  222MPD1     N 3431   2.498   3.996   1.320 -0.6137 -0.5609 -0.2865
  222MPD1    H5 3432   2.534   4.060   1.250  0.4985  0.3876  1.1729
  222MPD1    N1 3433   2.868   3.700   1.225 -0.4961  0.8981 -0.4073
  222MPD1    H6 3434   2.883   3.603   1.201 -1.2417  0.2770  1.6983
  222MPD1    H7 3435   2.855   3.751   1.137  0.0006  0.8685 -0.4940
  223MPD1     C 3436   1.594   4.223   1.681  0.8495 -0.5950 -0.8472
  223MPD1    C1 3437   1.704   4.208   1.763 -0.5089 -0.0411  0.1796
  223MPD1    C2 3438   1.823   4.195   1.699 -0.1696  0.1549 -0.4577
  223MPD1    C3 3439   1.838   4.223   1.567 -0.6332  0.3290 -0.1472
  223MPD1    C4 3440   1.731   4.237   1.487  0.0226  0.4863 -0.3333
  223MPD1    C5 3441   1.614   4.238   1.550 -0.4315  0.4016 -0.5493
  223MPD1     H 3442   1.911   4.177   1.761  1.0603  2.7249 -1.4505
  223MPD1    H1 3443   1.732   4.257   1.381 -1.2512 -1.6054 -0.7302
  223MPD1    H2 3444   1.495   4.241   1.721  1.2047 -2.1194  0.6786
  223MPD1    H3 3445   1.527   4.256   1.487  0.8577 -0.1934 -2.5212
  223MPD1     N 3446   1.963   4.249   1.514  0.1616  0.1948  0.3790
  223MPD1    H5 3447   2.043   4.213   1.566  1.4074  1.5972 -0.5811
  223MPD1    N1 3448   1.685   4.184   1.901 -0.3106  0.1152 -0.1713
  223MPD1    H6 3449   1.599   4.223   1.940 -0.9526 -0.8411 -0.6184
  223MPD1    H7 3450   1.765   4.223   1.950 -0.2908  0.8971 -0.8216
  224MPD1     C 3451   3.635   1.106  10.407 -0.1494 -0.5142 -0.5784
  224MPD1    C1 3452   3.604   1.021  10.302 -0.3386  0.0859  0.0929
  224MPD1    C2 3453   3.587   0.884  10.332  0.1691  0.6182 -0.0903
  224MPD1    C3 3454   3.561   0.845  10.463 -0.1741  0.0690  0.1425
  224MPD1    C4 3455   3.575   0.942  10.561 -0.0691  0.0214 -0.5551
  224MPD1    C5 3456   3.607   1.068  10.533 -0.0782 -0.8842 -0.0504
  224MPD1     H 3457   3.586   0.805  10.258 -1.2899 -0.5136  1.1256
  224MPD1    H1 3458   3.564   0.914  10.665 -0.9555  0.7423 -0.4510
  224MPD1    H2 3459   3.670   1.207  10.394  1.3659 -1.0289 -0.5220
  224MPD1    H3 3460   3.627   1.135  10.615 -2.3988 -1.4034  0.9519
  224MPD1     N 3461   3.521   0.722  10.512  0.5797  0.0364 -0.4172
  224MPD1    H5 3462   3.499   0.705  10.610  0.2378  0.7991 -0.3687
  224MPD1    N1 3463   3.633   1.071  10.173 -0.0489 -0.2349  0.3757
  224MPD1    H6 3464   3.631   1.173  10.174  0.3213 -0.2118 -1.0362
  224MPD1    H7 3465   3.562   1.040  10.107 -0.3382  1.1604  0.0362
  225MPD1     C 3466   0.634   1.636  13.038 -0.0704 -0.4819 -0.5558
  225MPD1    C1 3467   0.622   1.553  12.927  0.0623  0.3219  1.0993
  225MPD1    C2 3468   0.502   1.544  12.864 -0.2259 -0.5539 -0.2053
  225MPD1    C3 3469   0.399   1.625  12.892 -0.2182 -0.1016 -0.9496
  225MPD1    C4 3470   0.413   1.701  13.007 -0.6782 -0.2450 -0.1011
  225MPD1    C5 3471   0.526   1.702  13.084 -0.3233 -0.4006  0.5551
  225MPD1     H 3472   0.498   1.491  12.770 -0.6272 -1.9723  0.6104
  225MPD1    H1 3473   0.331   1.764  13.039 -2.5130 -1.2976 -2.7238
  225MPD1    H2 3474   0.728   1.655  13.089 -1.8426  1.1609  2.0792
  225MPD1    H3 3475   0.527   1.762  13.174 -2.5946  1.2300 -0.5161
  225MPD1     N 3476   0.271   1.624  12.838  0.4066 -0.3924  0.6014
  225MPD1    H5 3477   0.204   1.671  12.899 -0.6204 -0.6069 -0.3571
  225MPD1    N1 3478   0.729   1.470  12.877  0.3086 -0.2797  0.7505
  225MPD1    H6 3479   0.807   1.535  12.881 -1.1586  1.5873 -1.0940
  225MPD1    H7 3480   0.712   1.444  12.780  0.4625  2.6375 -0.0425
  226MPD1     C 3481   4.210   1.475   9.726 -0.0104 -0.3638 -0.4850
  226MPD1    C1 3482   4.157   1.391   9.819 -0.1834 -0.3327 -0.2676
  226MPD1    C2 3483   4.058   1.439   9.903  0.5527  0.1900 -0.6710
  226MPD1    C3 3484   4.011   1.566   9.893  0.2358  0.0092  0.4191
  226MPD1    C4 3485   4.059   1.639   9.792  0.3541 -0.1353 -0.0765
  226MPD1    C5 3486   4.160   1.596   9.711  0.0165  0.3670 -0.5538
  226MPD1     H 3487   4.022   1.370   9.978 -0.6166  0.6392 -0.8298
  226MPD1    H1 3488   4.014   1.732   9.762  1.2546  0.3610  0.1037
  226MPD1    H2 3489   4.278   1.437   9.650 -0.3465 -1.3474 -0.2905
  226MPD1    H3 3490   4.209   1.671   9.650  2.2223 -1.0365 -0.5164
  226MPD1     N 3491   3.927   1.624   9.991 -0.0260 -0.1758 -0.0073
  226MPD1    H5 3492   3.885   1.560  10.057  0.0565 -0.4960 -0.2623
  226MPD1    N1 3493   4.184   1.253   9.817 -0.7103  0.3554 -0.1593
  226MPD1    H6 3494   4.181   1.208   9.909 -1.1473 -0.3236 -0.5063
  226MPD1    H7 3495   4.282   1.237   9.798 -0.8680 -3.2019  1.9791
  227MPD1     C 3496   3.128   2.236   9.981  0.3603  0.6791  0.2229
  227MPD1    C1 3497   3.192   2.156   9.890 -0.3622  0.4200 -0.2030
  227MPD1    C2 3498   3.305   2.094   9.920 -0.6257  0.4291  0.4145
  227MPD1    C3 3499   3.361   2.108  10.050  0.0094  0.0667 -1.2447
  227MPD1    C4 3500   3.302   2.193  10.141 -0.4838  0.4886 -0.0926
  227MPD1    C5 3501   3.187   2.261  10.105 -0.1606 -0.1671 -0.0449
  227MPD1     H 3502   3.344   2.026   9.846  0.6078  0.1687  1.3170
  227MPD1    H1 3503   3.341   2.206  10.241  0.5430  1.1515 -0.5808
  227MPD1    H2 3504   3.035   2.287   9.957 -1.6890 -2.4519  1.3626
  227MPD1    H3 3505   3.139   2.338  10.163  1.2616  0.5894  0.1240
  227MPD1     N 3506   3.466   2.027  10.085  0.4991  0.2954  0.1195
  227MPD1    H5 3507   3.500   1.961  10.016  3.7815  1.2165  0.8737
  227MPD1    N1 3508   3.120   2.118   9.775 -0.0116  0.3380 -0.5756
  227MPD1    H6 3509   3.180   2.089   9.698 -1.3745  0.6440 -1.7391
  227MPD1    H7 3510   3.052   2.184   9.737  1.7401  0.2790 -3.8115
  228MPD1     C 3511   2.070   4.054  12.654 -0.1685 -0.8176 -0.1987
  228MPD1    C1 3512   1.947   4.094  12.630 -0.1134  0.3318  0.3046
  228MPD1    C2 3513   1.864   4.100  12.736  0.4929 -0.2557 -0.3262
  228MPD1    C3 3514   1.891   4.040  12.859 -0.0280 -0.0952 -0.0850
  228MPD1    C4 3515   2.010   3.974  12.869 -0.3223 -0.3228  0.5403
  228MPD1    C5 3516   2.100   3.981  12.767 -0.1748 -0.2146  0.2771
  228MPD1     H 3517   1.766   4.144  12.724  0.7772  0.2163 -0.9290
  228MPD1    H1 3518   2.046   3.928  12.961  1.1590 -1.4969 -0.6213
  228MPD1    H2 3519   2.145   4.058  12.576  0.4191 -1.0762  0.3515
  228MPD1    H3 3520   2.200   3.956  12.801  0.6710 -0.5561 -2.5301
  228MPD1     N 3521   1.784   4.045  12.952 -0.3405  0.0425 -0.0158
  228MPD1    H5 3522   1.711   4.109  12.921 -0.8947 -0.1266  0.9438
  228MPD1    N1 3523   1.920   4.158  12.508  0.2785 -0.3172 -0.6699
  228MPD1    H6 3524   1.973   4.131  12.425  3.3707  4.5415 -0.3100
  228MPD1    H7 3525   1.821   4.163  12.484 -0.1822  0.2253  1.3625
  229MPD1     C 3526   2.140   2.220  14.874  0.2235 -0.5614  0.1281
  229MPD1    C1 3527   2.075   2.101  14.869 -0.1979 -0.5968 -0.4434
  229MPD1    C2 3528   2.116   2.018  14.772  0.5712 -0.4108  0.4082
  229MPD1    C3 3529   2.229   2.048  14.685 -0.7732 -0.4180 -0.2037
  229MPD1    C4 3530   2.293   2.168  14.699 -0.4193  0.4759  0.1238
  229MPD1    C5 3531   2.251   2.250  14.802 -0.1104 -0.3625  0.4727
  229MPD1     H 3532   2.053   1.933  14.750  2.2877 -2.0691  1.8645
  229MPD1    H1 3533   2.382   2.193  14.642  2.2395 -4.0660  2.3348
  229MPD1    H2 3534   2.099   2.292  14.944  0.5589 -0.3344  0.0881
  229MPD1    H3 3535   2.300   2.342  14.832 -0.9301  0.4349 -0.6169
  229MPD1     N 3536   2.276   1.958  14.583 -0.1115 -0.1603  0.3573
  229MPD1    H5 3537   2.358   1.985  14.530 -0.9917  2.8117  0.4979
  229MPD1    N1 3538   2.002   2.060  14.980 -0.2822  0.0264 -0.2274
  229MPD1    H6 3539   1.949   2.138  15.017 -0.8459 -0.7199  0.5574
  229MPD1    H7 3540   1.930   1.993  14.952 -1.0562  0.7744 -0.0077
  230MPD1     C 3541   2.436   0.926  14.760  0.0917  0.2973 -0.0703
  230MPD1    C1 3542   2.546   1.011  14.761  0.0545 -0.9924 -0.5420
  230MPD1    C2 3543   2.533   1.134  14.704 -0.7920 -0.0489 -0.0294
  230MPD1    C3 3544   2.417   1.182  14.647  0.2634 -0.6270  0.1027
  230MPD1    C4 3545   2.306   1.103  14.646 -0.2221  0.5086 -0.6051
  230MPD1    C5 3546   2.317   0.970  14.698 -0.1496 -0.0803  0.0095
  230MPD1     H 3547   2.620   1.196  14.719 -0.7297 -0.0177 -0.5014
  230MPD1    H1 3548   2.221   1.118  14.581 -0.6972 -0.0012 -0.1055
  230MPD1    H2 3549   2.437   0.823  14.795 -0.4790  0.5877  0.7883
  230MPD1    H3 3550   2.238   0.896  14.694  0.8628 -1.1198 -0.7452
  230MPD1     N 3551   2.416   1.303  14.583  0.0921  0.1751 -0.3050
  230MPD1    H5 3552   2.510   1.342  14.578 -0.8963  2.6410 -0.0315
  230MPD1    N1 3553   2.657   0.990  14.853 -0.1301 -0.6193 -0.3941
  230MPD1    H6 3554   2.693   0.895  14.849  3.7331  0.8206  0.2016
  230MPD1    H7 3555   2.738   1.048  14.832 -1.5412  0.8454 -1.8025
  231MPD1     C 3556   0.228   4.211  16.126  0.0803 -0.0151  0.2217
  231MPD1    C1 3557   0.203   4.135  16.008 -0.5415 -0.1405 -0.0838
  231MPD1    C2 3558   0.257   4.181  15.886  0.3294 -0.5351 -0.4723
  231MPD1    C3 3559   0.324   4.302  15.875 -0.0546  0.6077  0.1351
  231MPD1    C4 3560   0.345   4.372  15.994  0.0307 -0.1111  0.7885
  231MPD1    C5 3561   0.296   4.331  16.110 -0.2542 -0.6254 -0.6162
  231MPD1     H 3562   0.235   4.128  15.794 -2.2386  0.4186 -0.4166
  231MPD1    H1 3563   0.389   4.471  15.997 -0.9683  0.3027  1.8384
  231MPD1    H2 3564   0.182   4.178  16.219 -0.8144  1.8939  0.4501
  231MPD1    H3 3565   0.307   4.398  16.195 -1.7809  2.5907 -2.9668
  231MPD1     N 3566   0.366   4.352  15.749 -0.2975 -0.4827  0.4136
  231MPD1    H5 3567   0.362   4.290  15.669 -0.7839 -0.7312  0.6270
  231MPD1    N1 3568   0.135   4.013  16.014 -0.5005 -0.9854  0.1787
  231MPD1    H6 3569   0.131   3.978  15.919 -0.1977 -1.0170  0.1799
  231MPD1    H7 3570   0.038   4.035  16.039 -1.3603 -2.3530 -1.9530
  232MPD1     C 3571   2.101   2.214   0.438 -0.1608 -0.4331  0.7975
  232MPD1    C1 3572   2.070   2.348   0.450  0.6432  0.4082 -0.7888
  232MPD1    C2 3573   1.946   2.377   0.434 -0.1560 -0.5370  0.8265
  232MPD1    C3 3574   1.844   2.277   0.428  0.0911  0.3259  0.3828
  232MPD1    C4 3575   1.879   2.150   0.407 -0.8178 -0.2102 -0.0350
  232MPD1    C5 3576   2.014   2.118   0.415 -0.1730  0.7849  0.3110
  232MPD1     H 3577   1.914   2.480   0.422  0.4529 -0.1722  2.3700
  232MPD1    H1 3578   1.813   2.064   0.401 -0.8952 -0.2540  1.3689
  232MPD1    H2 3579   2.204   2.182   0.454 -0.6153 -0.8184  2.9163
  232MPD1    H3 3580   2.046   2.014   0.412  2.7373  1.7998 -3.1898
  232MPD1     N 3581   1.707   2.313   0.426 -0.5111  0.4319  0.3789
  232MPD1    H5 3582   1.679   2.410   0.415  2.0359  1.3591  2.3016
  232MPD1    N1 3583   2.158   2.456   0.448  0.4290  0.2243  0.1424
  232MPD1    H6 3584   2.244   2.429   0.494  0.4978  0.5891  0.2274
  232MPD1    H7 3585   2.115   2.543   0.481 -1.9026 -0.6079 -0.6921
  233MPD1     C 3586   2.316   4.484   1.612 -0.2062  0.1044 -0.3813
  233MPD1    C1 3587   2.367   4.603   1.565 -0.0986  0.3537 -0.8122
  233MPD1    C2 3588   2.469   4.599   1.471  0.1914 -0.1092  0.2201
  233MPD1    C3 3589   2.546   4.488   1.463  0.8096  0.0514 -0.4599
  233MPD1    C4 3590   2.508   4.370   1.527 -0.5816 -0.2658  0.4736
  233MPD1    C5 3591   2.387   4.372   1.593 -0.6652  0.6516  0.1109
  233MPD1     H 3592   2.499   4.691   1.422  2.0661  0.1095  1.7731
  233MPD1    H1 3593   2.553   4.273   1.517 -0.1556 -0.3620  3.3725
  233MPD1    H2 3594   2.221   4.470   1.664 -0.3055  0.6517 -0.4133
  233MPD1    H3 3595   2.346   4.279   1.631  0.7781 -0.6795 -1.5853
  233MPD1     N 3596   2.663   4.473   1.383  0.0860 -0.8094  0.5180
  233MPD1    H5 3597   2.701   4.379   1.376  1.2589 -0.3396  0.6297
  233MPD1    N1 3598   2.287   4.717   1.580  0.1840  0.1505  0.2243
  233MPD1    H6 3599   2.342   0.067   1.577 -0.7666  0.7093 -1.5381
  233MPD1    H7 3600   2.234   4.715   1.666 -2.7970 -1.7868 -1.6673
  234MPD1     C 3601   4.198   4.224  10.002 -0.1131  0.5137  0.2608
  234MPD1    C1 3602   4.133   4.194  10.120 -0.7199  0.3388 -0.5726
  234MPD1    C2 3603   3.995   4.214  10.115 -0.3987  0.1029 -0.0783
  234MPD1    C3 3604   3.930   4.263  10.003 -0.0993  0.2645 -0.2586
  234MPD1    C4 3605   4.002   4.302   9.898  0.1840 -0.1213  0.5898
  234MPD1    C5 3606   4.136   4.285   9.890  0.3235  0.0881 -0.5974
  234MPD1     H 3607   3.932   4.195  10.201  0.7840 -0.0387  0.7554
  234MPD1    H1 3608   3.963   4.345   9.807 -1.5290 -0.0055  1.3660
  234MPD1    H2 3609   4.306   4.213   9.998 -0.2325 -0.5333 -0.2095
  234MPD1    H3 3610   4.176   4.329   9.800 -0.9605  2.3043 -0.0775
  234MPD1     N 3611   3.789   4.263  10.008 -0.2826  0.2303  0.1082
  234MPD1    H5 3612   3.749   4.231  10.096  1.7097  0.9949  1.2840
  234MPD1    N1 3613   4.197   4.122  10.223  0.2529  0.1888 -0.2423
  234MPD1    H6 3614   4.297   4.139  10.226  0.4531 -1.2981  1.3248
  234MPD1    H7 3615   4.158   4.154  10.312  0.8849 -2.1965  0.8711
  235MPD1     C 3616   3.832   2.356  10.147  0.4964  0.1246  0.3007
  235MPD1    C1 3617   3.840   2.244  10.224  0.2833 -0.8177 -0.1294
  235MPD1    C2 3618   3.939   2.158  10.196 -0.1653  0.2642  1.4755
  235MPD1    C3 3619   4.034   2.182  10.103  0.2454 -0.3815 -0.1660
  235MPD1    C4 3620   4.036   2.300  10.030  0.2848  0.0455  0.2982
  235MPD1    C5 3621   3.925   2.379  10.044  0.2559  0.2454 -0.7446
  235MPD1     H 3622   3.957   2.072  10.259 -1.4768 -0.9641  0.1772
  235MPD1    H1 3623   4.103   2.325   9.949 -0.3229  0.7110 -0.0085
  235MPD1    H2 3624   3.766   2.436  10.179  2.7274  1.7448  0.8836
  235MPD1    H3 3625   3.916   2.470   9.986 -2.8915  2.1142  2.7200
  235MPD1     N 3626   4.123   2.070  10.089 -0.0265  0.5410  0.1261
  235MPD1    H5 3627   4.112   1.989  10.149 -0.6093  1.0943  0.7747
  235MPD1    N1 3628   3.762   2.236  10.345  0.0640  0.3881 -0.0462
  235MPD1    H6 3629   3.664   2.262  10.339 -0.6133 -1.8356  0.9878
  235MPD1    H7 3630   3.766   2.147  10.396 -0.3011  0.6728  0.4804
  236MPD1     C 3631   4.322   2.849   9.955 -0.1207  0.3931  0.0681
  236MPD1    C1 3632   4.400   2.968   9.968 -0.3666 -0.3606 -0.3726
  236MPD1    C2 3633   4.503   2.963  10.061  0.5686 -0.5534 -0.0042
  236MPD1    C3 3634   4.545   2.845  10.119  0.0405  0.1629 -0.5466
  236MPD1    C4 3635   4.474   2.733  10.100  0.3651  0.7834 -0.0782
  236MPD1    C5 3636   4.361   2.736  10.025  1.1972  0.5149  0.1100
  236MPD1     H 3637   4.564   3.051  10.080  1.4345 -1.2544  0.4656
  236MPD1    H1 3638   4.498   2.641  10.151  0.3281  0.9524  0.2454
  236MPD1    H2 3639   4.233   2.842   9.894 -0.7788 -0.8700  1.1883
  236MPD1    H3 3640   4.305   2.644  10.023 -0.5603  1.6467 -2.5530
  236MPD1     N 3641   4.647   2.836  10.213 -0.7787 -0.1810 -0.6194
  236MPD1    H5 3642   4.636   2.750  10.266  1.6494 -0.4072 -0.4812
  236MPD1    N1 3643   4.347   3.085   9.902 -0.8541 -0.0920 -0.0386
  236MPD1    H6 3644   4.413   3.162   9.896 -1.7687  0.6868  0.0840
  236MPD1    H7 3645   4.328   3.059   9.805  2.0837 -1.7467 -0.1767
  237MPD1     C 3646   0.708   0.698  15.603 -0.4762  0.5256  0.4860
  237MPD1    C1 3647   0.618   0.659  15.700 -0.0482  0.0486  0.2951
  237MPD1    C2 3648   0.483   0.654  15.670  0.5882  0.0240 -0.2544
  237MPD1    C3 3649   0.436   0.689  15.540 -0.0392 -0.6754 -0.0717
  237MPD1    C4 3650   0.531   0.714  15.444 -0.4120  0.0265 -0.1649
  237MPD1    C5 3651   0.659   0.725  15.484  0.3448  0.1133 -0.1381
  237MPD1     H 3652   0.407   0.636  15.745 -1.1048  1.4853 -1.6190
  237MPD1    H1 3653   0.497   0.725  15.342 -1.4577  1.2522  0.3156
  237MPD1    H2 3654   0.815   0.697  15.621 -0.1170  0.8140 -1.6616
  237MPD1    H3 3655   0.731   0.750  15.407 -0.0705 -1.6363 -1.0763
  237MPD1     N 3656   0.298   0.690  15.499 -1.1333 -0.9272 -1.0179
  237MPD1    H5 3657   0.289   0.688  15.398 -1.3846 -2.4376 -0.9592
  237MPD1    N1 3658   0.659   0.604  15.822 -0.4319  0.0104  0.6745
  237MPD1    H6 3659   0.603   0.626  15.904  0.1901  2.8450  0.3702
  237MPD1    H7 3660   0.747   0.650  15.847  0.9709 -1.9352 -0.7375
  238MPD1     C 3661   2.837   4.654  15.021  0.5519 -0.3804 -0.2328
  238MPD1    C1 3662   2.831   4.519  15.058  0.4254  0.2534  0.3487
  238MPD1    C2 3663   2.729   4.438  14.998 -0.1209  0.0259 -0.1725
  238MPD1    C3 3664   2.626   4.498  14.930  0.5335 -0.6176 -0.0137
  238MPD1    C4 3665   2.632   4.635  14.895  0.4524  0.1110 -0.5670
  238MPD1    C5 3666   2.741   4.705  14.931 -0.2136 -0.5715 -0.4396
  238MPD1     H 3667   2.739   4.331  15.013  1.4835  0.2914  0.6605
  238MPD1    H1 3668   2.562   4.682  14.827 -0.5683 -1.3403 -0.5277
  238MPD1    H2 3669   2.923   4.716  15.045  1.1870 -0.9177 -1.0956
  238MPD1    H3 3670   2.766   0.070  14.899  0.3281 -0.4500  0.3664
  238MPD1     N 3671   2.527   4.423  14.868 -0.6502  0.2491  0.1046
  238MPD1    H5 3672   2.459   4.481  14.821 -0.2401 -0.1427 -0.9684
  238MPD1    N1 3673   2.947   4.456  15.117  0.4327  0.1269  0.2959
  238MPD1    H6 3674   2.918   4.363  15.148  0.8437  0.7654  2.5726
  238MPD1    H7 3675   2.988   4.511  15.192 -1.2064  2.7951 -0.7639
  239MPD1     C 3676   2.247   0.016  15.223 -0.0129 -0.2212  0.1031
  239MPD1    C1 3677   2.352   0.025  15.131 -0.0227 -0.6649  0.1370
  239MPD1    C2 3678   2.349   0.135  15.047  0.0111 -0.1989 -0.3095
  239MPD1    C3 3679   2.240   0.219  15.042 -0.7001 -0.0724  0.0460
  239MPD1    C4 3680   2.126   0.183  15.113 -0.6657 -0.8354  0.2099
  239MPD1    C5 3681   2.131   0.083  15.207  0.5126 -0.1310 -0.2483
  239MPD1     H 3682   2.430   0.161  14.980 -0.4112  0.5906 -0.5084
  239MPD1    H1 3683   2.027   0.226  15.105  0.3101  1.3344 -0.0924
  239MPD1    H2 3684   2.245   4.671  15.296  1.8336 -0.7378 -0.4043
  239MPD1    H3 3685   2.042   0.052  15.262 -0.4755 -1.2104 -2.4490
  239MPD1     N 3686   2.231   0.336  14.964 -0.3655 -0.7316 -0.4922
  239MPD1    H5 3687   2.138   0.374  14.953  0.7076  1.7609 -0.9248
  239MPD1    N1 3688   2.466   4.687  15.160  0.6640  0.4220  0.2252
  239MPD1    H6 3689   2.443   4.594  15.194  0.4886 -0.4889 -2.3571
  239MPD1    H7 3690   2.527   4.683  15.079  1.9914 -0.0962  1.2575
  240MPD1     C 3691   1.910   0.430  14.546 -0.9728 -0.0215  0.5172
  240MPD1    C1 3692   1.797   0.412  14.629  0.3987 -0.0349 -0.3157
  240MPD1    C2 3693   1.803   0.312  14.723  0.1095  0.4456 -0.5735
  240MPD1    C3 3694   1.918   0.241  14.736 -0.1837  0.2472  0.1152
  240MPD1    C4 3695   2.036   0.270  14.663  0.3490  0.3788 -0.2369
  240MPD1    C5 3696   2.024   0.370  14.574  0.6683 -0.6178 -0.1407
  240MPD1     H 3697   1.726   0.290  14.796 -0.2925  0.8453 -0.8745
  240MPD1    H1 3698   2.129   0.218  14.683  0.3188  0.8268  1.0935
  240MPD1    H2 3699   1.909   0.511  14.474 -0.3907 -1.1577 -0.7795
  240MPD1    H3 3700   2.110   0.399  14.515 -0.9081 -0.5496 -2.4137
  240MPD1     N 3701   1.921   0.133  14.828 -0.6307 -0.9900 -0.4687
  240MPD1    H5 3702   1.845   0.130  14.895 -1.0072  2.8273 -0.7512
  240MPD1    N1 3703   1.685   0.474  14.595  0.3943  0.6248  0.1244
  240MPD1    H6 3704   1.615   0.481  14.668  0.7494  2.9007  0.2482
  240MPD1    H7 3705   1.698   0.558  14.539  0.9197  1.2487  1.1989
  241MPD1     C 3706   2.513   4.402  15.510 -0.8840 -0.0358 -0.1879
  241MPD1    C1 3707   2.540   4.413  15.375  0.3260 -0.7381 -0.0623
  241MPD1    C2 3708   2.429   4.401  15.300 -0.0476  0.3119  0.1072
  241MPD1    C3 3709   2.295   4.410  15.335 -0.4217 -0.3700 -0.2901
  241MPD1    C4 3710   2.275   4.414  15.472 -0.3514  0.5038  0.0734
  241MPD1    C5 3711   2.383   4.404  15.559  0.1185 -0.0385 -0.8826
  241MPD1     H 3712   2.443   4.403  15.192  0.7444  0.4110  0.2092
  241MPD1    H1 3713   2.174   4.397  15.508 -0.2498 -0.9422 -0.3201
  241MPD1    H2 3714   2.592   4.392  15.583  0.6349  0.2684 -1.7822
  241MPD1    H3 3715   2.364   4.416  15.665  1.5742 -0.3172 -0.5942
  241MPD1     N 3716   2.185   4.415  15.244  0.6872 -0.4788  0.2904
  241MPD1    H5 3717   2.091   4.413  15.283  0.5972  1.5284  0.1996
  241MPD1    N1 3718   2.669   4.400  15.325  0.0258 -0.2367  0.1721
  241MPD1    H6 3719   2.742   4.432  15.387  1.2825  0.5716 -1.7286
  241MPD1    H7 3720   2.677   4.439  15.231  2.4729  0.2173  0.5889
  242MPD1     C 3721   1.398   2.619  15.824 -0.0791 -0.5912 -0.5603
  242MPD1    C1 3722   1.299   2.699  15.755  0.0725  0.4576  0.2940
  242MPD1    C2 3723   1.332   2.736  15.626  0.8227 -0.2935  0.9420
  242MPD1    C3 3724   1.457   2.717  15.569 -0.1868  1.0374  0.3308
  242MPD1    C4 3725   1.542   2.634  15.647 -0.4670 -0.1756  0.0301
  242MPD1    C5 3726   1.516   2.590  15.770 -0.4028 -0.3652 -0.8057
  242MPD1     H 3727   1.255   2.794  15.576  0.6307 -1.4785 -0.1584
  242MPD1    H1 3728   1.646   2.622  15.617 -0.4832 -1.1553  0.3710
  242MPD1    H2 3729   1.370   2.576  15.920 -1.8093  0.0904 -0.7677
  242MPD1    H3 3730   1.595   2.545  15.828 -0.5954 -1.7571 -1.6115
  242MPD1     N 3731   1.497   2.760  15.439 -0.5568  1.0543 -0.2055
  242MPD1    H5 3732   1.594   2.747  15.414  0.1669  1.7310  2.2749
  242MPD1    N1 3733   1.170   2.704  15.802 -0.5732 -0.1659 -0.0421
  242MPD1    H6 3734   1.119   2.788  15.774  1.8483  1.0342 -0.8922
  242MPD1    H7 3735   1.172   2.698  15.903 -1.7855  0.9929  0.0490
  243MPD1     C 3736   2.137   1.930   0.047  0.3067 -0.3450  0.0721
  243MPD1    C1 3737   2.156   2.008  17.679  0.4751  0.1838  0.4974
  243MPD1    C2 3738   2.263   1.979  17.594  0.3211  0.3150  0.4075
  243MPD1    C3 3739   2.355   1.874  17.612  0.5188  0.2353  0.6522
  243MPD1    C4 3740   2.336   1.808  17.728  0.3654  0.4054 -0.0267
  243MPD1    C5 3741   2.228   1.832   0.071 -0.8771  0.0667 -0.6242
  243MPD1     H 3742   2.278   2.045  17.509 -3.4003 -0.2826 -0.7221
  243MPD1    H1 3743   2.402   1.731   0.024 -0.4659  0.0475  0.7156
  243MPD1    H2 3744   2.050   1.934   0.112 -0.2142  1.1445 -0.7011
  243MPD1    H3 3745   2.219   1.762   0.153 -0.9911 -0.3916 -1.0321
  243MPD1     N 3746   2.461   1.836  17.528 -0.2755 -0.2935 -0.1787
  243MPD1    H5 3747   2.520   1.759  17.558  0.0353 -0.2765 -0.7449
  243MPD1    N1 3748   2.063   2.118  17.653 -0.2388  0.8462  0.5904
  243MPD1    H6 3749   2.018   2.152  17.738 -2.4076 -1.2426  0.2491
  243MPD1    H7 3750   2.107   2.197  17.606 -0.5614 -0.5628 -2.0675
  244MPD1     C 3751   3.048   1.094  17.404 -0.3371  0.0061 -0.6539
  244MPD1    C1 3752   3.022   1.138  17.278  0.9180  0.3966  0.1636
  244MPD1    C2 3753   2.968   1.260  17.256  0.1225 -0.1061  0.3175
  244MPD1    C3 3754   2.943   1.345  17.359 -0.3556 -0.0378  0.3817
  244MPD1    C4 3755   2.986   1.309  17.489 -0.8424 -0.3642  0.4953
  244MPD1    C5 3756   3.033   1.175  17.505 -0.2099 -0.5195 -0.6080
  244MPD1     H 3757   2.935   1.292  17.158  0.5121  2.1604  0.9356
  244MPD1    H1 3758   2.966   1.374  17.573  3.2785 -1.7964  2.6014
  244MPD1    H2 3759   3.069   0.990  17.425  0.9510  0.2267 -0.8556
  244MPD1    H3 3760   3.052   1.149  17.609  0.0414  0.4495 -0.4088
  244MPD1     N 3761   2.882   1.471  17.329  0.4792 -0.3925 -0.3455
  244MPD1    H5 3762   2.849   1.480  17.233  1.5102 -0.9298 -0.7471
  244MPD1    N1 3763   3.030   1.044  17.175 -0.0624  0.1729 -0.2226
  244MPD1    H6 3764   3.104   0.977  17.195 -1.1881 -1.2993 -0.9905
  244MPD1    H7 3765   3.048   1.087  17.085  1.0414 -0.5325 -0.3510
  245MPD1     C 3766   4.330   2.148  13.683  0.1450 -0.1934  0.4024
  245MPD1    C1 3767   4.463   2.116  13.688  0.1390  0.3054 -0.9646
  245MPD1    C2 3768   4.553   2.223  13.695 -0.3715  0.5732  0.4368
  245MPD1    C3 3769   4.522   2.355  13.709 -0.1023  0.9422 -0.4446
  245MPD1    C4 3770   4.389   2.381  13.704  0.4915  0.2507  0.4255
  245MPD1    C5 3771   4.294   2.282  13.695  0.2378  0.7797 -0.3364
  245MPD1     H 3772   4.657   2.196  13.706 -1.1639 -2.5797  0.1361
  245MPD1    H1 3773   4.350   2.482  13.705 -0.9738 -0.2943 -1.1700
  245MPD1    H2 3774   4.256   2.069  13.684  1.3362 -1.3488 -1.9845
  245MPD1    H3 3775   4.189   2.306  13.700  0.0742 -0.1761  0.7134
  245MPD1     N 3776   4.629   2.443  13.719  0.5685  0.3642 -0.8899
  245MPD1    H5 3777   4.727   2.414  13.717  0.2131 -1.1319  2.5169
  245MPD1    N1 3778   4.509   1.981  13.685 -0.0548 -0.0926 -0.1142
  245MPD1    H6 3779   4.435   1.912  13.701  0.2130 -0.0104  1.4425
  245MPD1    H7 3780   4.580   1.956  13.754 -0.1820 -0.7644 -0.2268
  246MPD1     C 3781   0.994   4.510   9.433  0.2526 -0.6968  0.1904
  246MPD1    C1 3782   0.889   4.456   9.511  0.3518 -0.2339  0.1492
  246MPD1    C2 3783   0.920   4.334   9.575 -0.5629 -0.3327  0.3472
  246MPD1    C3 3784   1.036   4.258   9.551  0.3725 -0.6282 -0.1377
  246MPD1    C4 3785   1.134   4.311   9.468  0.5187  0.4790 -0.0209
  246MPD1    C5 3786   1.111   4.432   9.416 -0.6339 -0.1595 -0.0180
  246MPD1     H 3787   0.848   4.303   9.650 -0.7518 -0.3595  0.1544
  246MPD1    H1 3788   1.213   4.247   9.430 -0.0590  0.4279 -1.1198
  246MPD1    H2 3789   0.982   4.599   9.373  0.9993  0.1372  1.2794
  246MPD1    H3 3790   1.190   4.461   9.348 -0.3059 -2.0359 -0.4365
  246MPD1     N 3791   1.061   4.135   9.613  0.2963 -0.3722  0.1184
  246MPD1    H5 3792   0.983   4.100   9.667 -1.6818  2.6278 -0.8144
  246MPD1    N1 3793   0.786   4.540   9.556 -0.4679 -0.0907 -1.2320
  246MPD1    H6 3794   0.757   4.604   9.482 -4.5258 -1.1688 -0.5554
  246MPD1    H7 3795   0.708   4.485   9.590  0.1101  1.1919  2.1630
  247MPD1     C 3796   3.598   2.341  15.760 -0.2258  0.2015 -0.3758
  247MPD1    C1 3797   3.587   2.443  15.851  0.2370 -0.6880 -0.0257
  247MPD1    C2 3798   3.697   2.516  15.896 -0.5379  0.3936 -0.2302
  247MPD1    C3 3799   3.814   2.489  15.830 -0.5368 -0.2713  0.3852
  247MPD1    C4 3800   3.833   2.388  15.743 -0.0730  0.8898 -0.3894
  247MPD1    C5 3801   3.722   2.311  15.711 -0.1762  0.4425 -0.4268
  247MPD1     H 3802   3.682   2.598  15.965  0.0587 -0.0476  0.4255
  247MPD1    H1 3803   3.925   2.365  15.692 -1.1929 -0.4550 -1.8051
  247MPD1    H2 3804   3.517   2.278  15.725 -0.7889  0.7030  0.0368
  247MPD1    H3 3805   3.737   2.255  15.619 -0.4551  2.1199 -1.4818
  247MPD1     N 3806   3.927   2.575  15.855  0.1904  0.8543 -0.6658
  247MPD1    H5 3807   4.013   2.532  15.823 -1.5140 -4.0888  1.2642
  247MPD1    N1 3808   3.461   2.477  15.900 -0.1368 -0.3519 -0.9036
  247MPD1    H6 3809   3.452   2.501  15.998 -0.7924  0.9234 -1.2691
  247MPD1    H7 3810   3.398   2.400  15.881  0.2589 -0.2577 -2.6685
  248MPD1     C 3811   0.092   2.131   0.042 -0.4805 -0.4507 -0.6065
  248MPD1    C1 3812   4.714   2.169   0.119 -0.2250  0.3330 -0.0805
  248MPD1    C2 3813   0.004   2.266   0.220 -0.0973 -0.1412 -0.7081
  248MPD1    C3 3814   0.129   2.316   0.242 -0.0331  0.6020 -0.4768
  248MPD1    C4 3815   0.233   2.270   0.164  0.2408  0.5139  0.7983
  248MPD1    C5 3816   0.216   2.180   0.067 -0.5166 -0.0326 -0.8175
  248MPD1     H 3817   4.658   2.299   0.283  0.2320 -0.4925 -0.0965
  248MPD1    H1 3818   0.336   2.293   0.189  0.6045 -1.2460  0.9152
  248MPD1    H2 3819   0.073   2.065  17.698  0.5210 -2.0214  0.4005
  248MPD1    H3 3820   0.298   2.139   0.010  1.5842  2.2522  0.6220
  248MPD1     N 3821   0.139   2.403   0.352  0.2722  0.1579 -1.0581
  248MPD1    H5 3822   0.048   2.426   0.391  1.2515  2.6621 -0.2595
  248MPD1    N1 3823   4.583   2.149   0.070 -0.1322 -0.2029 -0.1508
  248MPD1    H6 3824   4.511   2.165   0.140  0.5531  0.4137  0.4043
  248MPD1    H7 3825   4.565   2.063   0.018  3.3792 -0.7088 -0.5146
  249MPD1     C 3826   1.342   0.750  10.725  0.3688 -0.3079 -0.5274
  249MPD1    C1 3827   1.409   0.849  10.794  0.2924  0.7188  0.5239
  249MPD1    C2 3828   1.437   0.962  10.729 -0.0782 -0.4001  0.2359
  249MPD1    C3 3829   1.386   0.978  10.599  0.0623 -0.2594 -0.7167
  249MPD1    C4 3830   1.307   0.883  10.538  0.1903 -0.2216 -0.6745
  249MPD1    C5 3831   1.287   0.765  10.604  0.0978  0.6620 -0.1478
  249MPD1     H 3832   1.494   1.037  10.783 -0.3666  0.5547 -0.7855
  249MPD1    H1 3833   1.257   0.891  10.442 -0.6644  2.2598 -0.0230
  249MPD1    H2 3834   1.327   0.661  10.785  1.0756  0.3079  0.5654
  249MPD1    H3 3835   1.234   0.683  10.558 -1.2096  1.8078 -0.6570
  249MPD1     N 3836   1.424   1.101  10.534 -0.2315 -0.4483 -0.3813
  249MPD1    H5 3837   1.491   1.153  10.590  1.6746  0.0576 -3.1371
  249MPD1    N1 3838   1.470   0.809  10.914 -0.0848 -0.1106 -0.0930
  249MPD1    H6 3839   1.486   0.894  10.968  0.1183  1.5590 -2.7748
  249MPD1    H7 3840   1.413   0.760  10.982  0.3286  0.4159  0.6382
  250MPD2     C 3841   2.933   1.372  13.095  0.0867 -0.6335  0.3880
  250MPD2    C1 3842   2.933   1.335  13.229 -0.0798 -0.0815 -0.6316
  250MPD2    C2 3843   2.868   1.218  13.269 -0.1387 -0.2846  0.3427
  250MPD2    C3 3844   2.788   1.148  13.177 -0.0251 -0.3301 -0.0548
  250MPD2    C4 3845   2.781   1.188  13.046 -0.6360  0.7994  0.4221
  250MPD2    C5 3846   2.852   1.302  13.011  0.0964 -1.3874 -0.0841
  250MPD2     H 3847   2.870   1.196  13.375 -1.7096  0.4272  0.5306
  250MPD2    H1 3848   2.721   1.132  12.975 -2.1185 -1.0996  3.1856
  250MPD2    H2 3849   2.967   1.469  13.063 -0.0094 -1.0170 -0.8627
  250MPD2    H3 3850   2.831   1.341  12.912  2.7096 -2.2116 -0.9639
  250MPD2     N 3851   2.715   1.032  13.211  0.4416  0.3045 -0.2529
  250MPD2    H5 3852   2.651   1.002  13.139 -1.2099  0.8288  1.0008
  250MPD2    N1 3853   3.010   1.419  13.312  0.1686  0.1955 -0.0141
  250MPD2    H7 3854   3.047   1.503  13.269 -0.9429  1.2679  1.1105
  251TMC3    C1 3855   3.131   1.493  13.495 -0.4337 -0.0600 -0.0686
  251TMC3    C2 3856   3.098   1.621  13.454  0.4925  0.2942  0.2782
  251TMC3    C3 3857   3.181   1.722  13.479 -0.2806  0.4778  0.3655
  251TMC3    C4 3858   3.254   1.457  13.537 -0.2895  0.3192  0.1234
  251TMC3    C5 3859   3.339   1.562  13.554 -0.2889  0.1334  0.2440
  251TMC3    C6 3860   3.308   1.692  13.525 -0.5019 -0.5633 -0.1518
  251TMC3     C 3861   3.052   1.388  13.434  0.2143 -0.1063  0.1728
  251TMC3     O 3862   3.065   1.273  13.482  0.0864 -1.0863  0.3256
  251TMC3     H 3863   2.996   1.637  13.421  0.1027 -2.5884  0.0889
  251TMC3    H1 3864   3.286   1.357  13.565 -0.9006  0.1220  0.1013
  251TMC3    H2 3865   3.373   1.774  13.552  0.1316 -1.0952 -0.0790
  251TMC3    C7 3866   3.479   1.528  13.581 -0.5286  0.4028 -0.2477
  251TMC3    C8 3867   3.130   1.855  13.462  0.4465  0.7298 -0.5423
  251TMC3    O1 3868   3.503   1.421  13.634  0.4884 -0.5221 -0.9476
  251TMC3    O2 3869   3.008   1.863  13.451  0.5044  1.0952  0.2346
  252TMC3    C1 3870   3.403   1.460  10.174  0.2424 -0.1240 -0.1160
  252TMC3    C2 3871   3.361   1.586  10.174 -0.2955 -0.3679  0.4973
  252TMC3    C3 3872   3.336   1.648  10.295  0.5856  0.1680  0.7077
  252TMC3    C4 3873   3.399   1.381  10.284  0.3115 -0.3155  0.0945
  252TMC3    C5 3874   3.352   1.443  10.395 -0.5600  0.3441  0.1573
  252TMC3    C6 3875   3.340   1.577  10.405  1.0154 -0.0140  0.4116
  252TMC3     C 3876   3.487   1.410  10.062  0.3548  0.7421 -0.8127
  252TMC3     O 3877   3.570   1.326  10.095  0.8135  0.4148  0.1913
  252TMC3     H 3878   3.343   1.642  10.082 -0.8338  0.0087  0.8342
  252TMC3    H1 3879   3.439   1.280  10.284  1.6943  0.2210  1.3998
  252TMC3    H2 3880   3.294   1.612  10.497  0.5288 -0.3903  0.3125
  252TMC3    C7 3881   3.307   1.373  10.511  0.4993 -0.4055  0.1593
  252TMC3    C8 3882   3.227   1.747  10.287  0.4909  0.0543  0.5444
  252TMC3    O1 3883   3.315   1.430  10.620 -0.3413 -0.0319  0.7451
  252TMC3    O2 3884   3.162   1.749  10.186 -0.1619  0.8840  0.0727
  253MPD2     C 3885   0.095   1.011  15.334 -0.6414  0.1303  0.6347
  253MPD2    C1 3886   4.704   1.003  15.282  0.2101 -0.1314  0.4672
  253MPD2    C2 3887   4.596   0.976  15.364 -0.7509  0.0305  0.0791
  253MPD2    C3 3888   4.609   0.974  15.500 -0.9715  0.1728 -0.4332
  253MPD2    C4 3889   4.733   0.990  15.556 -0.1202  0.4363 -0.6216
  253MPD2    C5 3890   0.103   1.008  15.476  0.7593 -0.6067 -0.1156
  253MPD2     H 3891   4.498   0.952  15.325 -1.1746  0.8186  0.6649
  253MPD2    H1 3892   0.011   0.997  15.663 -0.4716  3.2673 -0.7623
  253MPD2    H2 3893   0.191   1.017  15.284 -1.3728 -0.3082 -0.8126
  253MPD2    H3 3894   0.201   1.006  15.523  1.0329 -0.8520 -0.6876
  253MPD2     N 3895   4.489   0.986  15.580 -0.3463  0.5473  0.7720
  253MPD2    H5 3896   4.503   0.981  15.680 -2.3635 -0.3500  0.9972
  253MPD2    N1 3897   4.686   1.014  15.141 -0.1329  0.3491  0.5604
  253MPD2    H7 3898   4.589   0.998  15.119  0.3964  0.7196 -2.1085
  254TMC3    C1 3899   4.264   1.025  15.629  0.5923  0.1284  0.1542
  254TMC3    C2 3900   4.144   1.089  15.602  0.0612 -0.1654  0.5452
  254TMC3    C3 3901   4.040   1.064  15.685 -0.2534 -0.0396  0.2473
  254TMC3    C4 3902   4.275   0.943  15.743  1.5972  0.0648  0.2053
  254TMC3    C5 3903   4.165   0.918  15.821  0.3732  0.5308 -0.5596
  254TMC3    C6 3904   4.051   0.982  15.792  0.0161  0.5373  0.6669
  254TMC3     C 3905   4.372   1.040  15.539 -0.5987  0.0087 -0.5475
  254TMC3     O 3906   4.338   1.076  15.426  0.0013 -0.0666 -0.2386
  254TMC3     H 3907   4.129   1.145  15.511 -0.3943 -0.9133  0.1538
  254TMC3    H1 3908   4.362   0.881  15.760  2.0444  1.1171  1.7644
  254TMC3    H2 3909   3.970   0.974  15.864 -0.5731 -2.7668 -0.3874
  254TMC3    C7 3910   4.185   0.845  15.945 -0.0257 -0.2889 -0.5695
  254TMC3    C8 3911   3.936   1.172  15.698  0.7551  0.2536 -0.4913
  254TMC3    O1 3912   4.299   0.831  15.984 -0.1665  0.2122  0.2393
  254TMC3    O2 3913   3.843   1.150  15.777  0.3489 -0.2387  0.4525
  255MPD2     C 3914   1.132   3.217  10.681  0.1752 -0.1787  0.3508
  255MPD2    C1 3915   1.231   3.311  10.641  0.4190 -0.8149 -0.1186
  255MPD2    C2 3916   1.329   3.345  10.733  0.1498 -0.0378  0.3330
  255MPD2    C3 3917   1.337   3.273  10.858 -0.6290  0.1868  0.4000
  255MPD2    C4 3918   1.240   3.180  10.898 -0.1222  0.4818 -0.2170
  255MPD2    C5 3919   1.131   3.160  10.810  0.0358 -0.4754 -0.2992
  255MPD2     H 3920   1.407   3.412  10.700 -0.4414  0.0973 -0.7622
  255MPD2    H1 3921   1.239   3.138  10.998 -0.4087  1.1175  0.0507
  255MPD2    H2 3922   1.044   3.202  10.619 -1.2502 -1.3767  2.6598
  255MPD2    H3 3923   1.044   3.102  10.839  1.5955 -1.7516  1.7751
  255MPD2     N 3924   1.464   3.300  10.921  0.3338 -0.4210  0.2510
  255MPD2    H5 3925   1.518   3.374  10.878 -2.5351  0.7840 -1.2965
  255MPD2    N1 3926   1.219   3.369  10.513  0.0577  0.0429  0.3935
  255MPD2    H7 3927   1.162   3.319  10.446  1.9224  0.0527 -1.2100
  256TMC3    C1 3928   1.258   3.506  10.333 -0.6040  0.6100 -0.2968
  256TMC3    C2 3929   1.230   3.631  10.280  0.4417 -0.0712  0.4640
  256TMC3    C3 3930   1.199   3.637  10.144  0.6557 -0.7175  1.0856
  256TMC3    C4 3931   1.262   3.389  10.258  0.1780  0.3434 -0.8430
  256TMC3    C5 3932   1.244   3.406  10.128 -0.1465 -0.5649 -0.5257
  256TMC3    C6 3933   1.212   3.528  10.067 -0.1595 -0.6432  0.1046
  256TMC3     C 3934   1.279   3.486  10.473  0.5590  0.2764  0.5859
  256TMC3     O 3935   1.338   3.575  10.535 -0.2900  0.6977  0.1916
  256TMC3     H 3936   1.209   3.719  10.340  1.8165  0.6612 -0.1455
  256TMC3    H1 3937   1.304   3.301  10.305 -1.3563 -0.1213 -0.3249
  256TMC3    H2 3938   1.225   3.554   9.962  0.1255 -0.1256  0.2712
  256TMC3    C7 3939   1.230   3.284  10.052 -0.2041  0.4647  0.2889
  256TMC3    C8 3940   1.204   3.764  10.082  0.4846 -0.4011 -0.3889
  256TMC3    O1 3941   1.282   3.184  10.103 -0.3283 -0.4124 -0.3106
  256TMC3    O2 3942   1.114   3.782  10.000 -0.4060  0.1054 -0.2618
  257MPD2     C 3943   2.068   1.384  13.782 -0.3674 -0.9823  0.1123
  257MPD2    C1 3944   2.044   1.303  13.670 -0.2345 -0.3091 -0.0015
  257MPD2    C2 3945   2.059   1.168  13.681 -0.1266  0.2949  0.3903
  257MPD2    C3 3946   2.065   1.110  13.803 -0.7024  0.3887  1.4444
  257MPD2    C4 3947   2.079   1.184  13.923 -0.6764  0.1733 -0.2345
  257MPD2    C5 3948   2.067   1.323  13.908 -0.0941 -0.1853  0.4343
  257MPD2     H 3949   2.062   1.096  13.600 -0.3711  1.1155 -0.3526
  257MPD2    H1 3950   2.078   1.136  14.020 -1.6959  0.6703 -0.0012
  257MPD2    H2 3951   2.068   1.492  13.782  1.3210 -0.9888 -0.5927
  257MPD2    H3 3952   2.082   1.374  14.002  0.6678  3.5981 -1.7023
  257MPD2     N 3953   2.065   0.968  13.812 -0.2840  0.1968  0.2671
  257MPD2    H5 3954   2.025   0.926  13.729  1.6738 -1.6543  0.2725
  257MPD2    N1 3955   2.040   1.360  13.541 -0.3657  0.0523  0.2499
  257MPD2    H7 3956   2.063   1.458  13.523 -3.1177  0.0205 -3.4617
  258TMC3    C1 3957   2.104   0.749  13.877 -0.1842 -0.3146 -0.4627
  258TMC3    C2 3958   2.103   0.714  13.745 -1.5715  1.0022 -0.2225
  258TMC3    C3 3959   2.047   0.591  13.708 -0.2055 -0.1843  0.6546
  258TMC3    C4 3960   2.066   0.665  13.977  0.4058  0.2697  0.2437
  258TMC3    C5 3961   2.020   0.536  13.938 -0.1761 -0.0060 -0.1096
  258TMC3    C6 3962   2.023   0.499  13.807 -0.1153  0.2662 -0.2382
  258TMC3     C 3963   2.108   0.886  13.917 -0.5730 -0.1797  0.2358
  258TMC3     O 3964   2.169   0.916  14.020 -0.0948 -0.0371 -0.0913
  258TMC3     H 3965   2.163   0.771  13.676 -0.3764 -1.5785 -1.3027
  258TMC3    H1 3966   2.060   0.704  14.078 -2.6358 -0.4582  0.3574
  258TMC3    H2 3967   2.008   0.395  13.779 -0.7477  0.5724 -1.0531
  258TMC3    C7 3968   2.028   0.423  14.025 -0.4913 -0.8986 -1.1141
  258TMC3    C8 3969   2.060   0.550  13.567 -0.0020 -0.0330  0.4734
  258TMC3    O1 3970   1.947   0.332  14.014 -0.4975  0.6102 -0.2877
  258TMC3    O2 3971   2.120   0.631  13.504 -0.3038 -0.0289  0.1099
  259MPD2     C 3972   0.632   3.022   0.789 -0.0511 -0.0544  0.4798
  259MPD2    C1 3973   0.720   2.925   0.757  0.5659  0.6617  0.6094
  259MPD2    C2 3974   0.759   2.917   0.619  0.1208  0.2061 -0.6372
  259MPD2    C3 3975   0.707   3.007   0.528  0.7593 -0.2312  0.3486
  259MPD2    C4 3976   0.619   3.104   0.565 -0.0674  0.6492  0.9687
  259MPD2    C5 3977   0.579   3.105   0.697  0.2404 -0.0434  0.3836
  259MPD2     H 3978   0.821   2.833   0.589  3.1746  1.7211  1.4600
  259MPD2    H1 3979   0.595   3.193   0.508 -0.8452  1.8062  3.0885
  259MPD2    H2 3980   0.594   3.037   0.890  0.7907 -2.2422  1.1211
  259MPD2    H3 3981   0.538   3.200   0.732  0.8329 -0.0508  1.1112
  259MPD2     N 3982   0.738   2.988   0.392 -0.1196  0.1044  0.8061
  259MPD2    H5 3983   0.792   2.904   0.370 -1.1254 -0.2079 -0.4853
  259MPD2    N1 3984   0.786   2.862   0.866 -0.1043 -0.4575 -0.0264
  259MPD2    H7 3985   0.743   2.897   0.951 -0.6238 -1.5006  0.1404
  260TMC3    C1 3986   0.809   3.051   0.175  0.1067 -0.1872 -0.0019
  260TMC3    C2 3987   0.903   3.138   0.120 -0.1142 -0.2745  0.9289
  260TMC3    C3 3988   0.966   3.093   0.003 -0.0011 -0.5342  0.0924
  260TMC3    C4 3989   0.769   2.940   0.111  0.3397 -0.5915  0.2884
  260TMC3    C5 3990   0.833   2.898  17.736 -0.1129  0.4926  0.4209
  260TMC3    C6 3991   0.930   2.974  17.680  0.1742  0.7158 -0.6848
  260TMC3     C 3992   0.744   3.090   0.303 -0.6690 -0.1660  0.0453
  260TMC3     O 3993   0.721   3.209   0.317  0.2016 -0.5306  0.1980
  260TMC3     H 3994   0.932   3.225   0.178 -0.5138 -0.0196  0.7418
  260TMC3    H1 3995   0.692   2.875   0.151  0.0948  0.7597  2.0109
  260TMC3    H2 3996   0.987   2.945  17.592  3.0870  1.7328  0.8573
  260TMC3    C7 3997   0.857   2.760  17.694 -0.5180  0.7677 -0.2295
  260TMC3    C8 3998   1.104   3.107   0.024 -0.1224 -0.1496 -0.2428
  260TMC3    O1 3999   0.977   2.742  17.683  0.2170 -0.0986  0.1405
  260TMC3    O2 4000   1.149   3.213   0.060  0.2865  0.2695  0.2631
  261MPD2     C 4001   2.240   0.586  12.866  0.0838  0.2491  0.4988
  261MPD2    C1 4002   2.354   0.659  12.873 -0.3363  0.1624  0.3897
  261MPD2    C2 4003   2.407   0.700  12.753  0.4589 -0.4181 -0.3100
  261MPD2    C3 4004   2.359   0.650  12.635 -0.3114 -0.3451 -0.0425
  261MPD2    C4 4005   2.254   0.561  12.634  0.6082 -0.1200  0.8384
  261MPD2    C5 4006   2.187   0.538  12.748  0.2861 -0.0928 -0.6237
  261MPD2     H 4007   2.492   0.767  12.758  0.4938 -0.4986  0.1721
  261MPD2    H1 4008   2.207   0.526  12.543  1.1044 -1.1184  0.9695
  261MPD2    H2 4009   2.199   0.537  12.953 -0.2133  1.6597  1.1406
  261MPD2    H3 4010   2.096   0.480  12.744 -0.6559  1.4283 -1.3714
  261MPD2     N 4011   2.406   0.717  12.515 -0.1834 -0.6557  0.2136
  261MPD2    H5 4012   2.461   0.802  12.519 -1.2922  0.0766 -0.3467
  261MPD2    N1 4013   2.399   0.700  13.007  0.1418  0.8915  0.0420
  261MPD2    H7 4014   2.460   0.780  13.003  0.1198  0.8784 -0.5664
  262TMC3    C1 4015   2.425   0.749  12.284 -0.4543  0.3228 -0.1180
  262TMC3    C2 4016   2.420   0.886  12.303 -0.0009 -0.0028 -0.9977
  262TMC3    C3 4017   2.493   0.964  12.228 -0.1633  0.8010 -0.3549
  262TMC3    C4 4018   2.493   0.694  12.177 -0.3492 -0.2853 -0.6184
  262TMC3    C5 4019   2.572   0.780  12.102  0.8287  0.2215 -0.6388
  262TMC3    C6 4020   2.571   0.917  12.128 -0.2180  1.2143 -0.2587
  262TMC3     C 4021   2.389   0.664  12.389  0.0991 -0.0557 -0.3903
  262TMC3     O 4022   2.353   0.546  12.370 -0.3432  0.4023  0.0212
  262TMC3     H 4023   2.351   0.929  12.375 -0.7235 -1.3203 -0.8971
  262TMC3    H1 4024   2.497   0.585  12.185  1.5437 -0.1268  0.5122
  262TMC3    H2 4025   2.643   0.981  12.080  0.5351 -0.4794 -1.4015
  262TMC3    C7 4026   2.585   0.743  11.964  0.1827  0.6052  0.3328
  262TMC3    C8 4027   2.437   1.088  12.182  0.0134 -0.0960 -0.0152
  262TMC3    O1 4028   2.582   0.628  11.922 -0.0109 -0.2433  0.2410
  262TMC3    O2 4029   2.461   1.195  12.231  0.3175  0.0325  0.3661
  263MPD2     C 4030   3.347   0.454  11.971  0.1097 -0.1288  0.7122
  263MPD2    C1 4031   3.402   0.374  11.877 -0.2114 -0.2365 -0.8397
  263MPD2    C2 4032   3.382   0.401  11.741  0.3421 -0.0227  0.3030
  263MPD2    C3 4033   3.306   0.506  11.707  0.0045 -0.2045 -0.3113
  263MPD2    C4 4034   3.244   0.586  11.815 -0.3037 -0.0037  0.1236
  263MPD2    C5 4035   3.269   0.559  11.946 -0.2908 -0.8613  0.0364
  263MPD2     H 4036   3.412   0.327  11.668 -0.8141 -1.2918  1.1091
  263MPD2    H1 4037   3.169   0.660  11.791  1.8336  2.4121  0.9066
  263MPD2    H2 4038   3.371   0.427  12.073  2.8441 -1.0667 -0.1813
  263MPD2    H3 4039   3.210   0.612  12.021 -0.2192 -0.9631  0.1652
  263MPD2     N 4040   3.280   0.536  11.571 -0.4394 -0.0094 -0.5057
  263MPD2    H5 4041   3.305   0.467  11.501 -0.9051 -1.0959  0.3928
  263MPD2    N1 4042   3.487   0.269  11.918  0.3176 -0.2642 -0.0556
  263MPD2    H7 4043   3.497   0.252  12.018 -2.0327  1.8134  0.5390
  264TMC3    C1 4044   3.193   0.638  11.382 -0.4976  0.9568 -0.6941
  264TMC3    C2 4045   3.090   0.711  11.333 -0.1857 -0.1866  0.7220
  264TMC3    C3 4046   3.097   0.767  11.209  0.0061  0.5490  0.1631
  264TMC3    C4 4047   3.285   0.580  11.292 -0.3844 -0.4084  0.1293
  264TMC3    C5 4048   3.279   0.621  11.161 -0.1022  0.0961  0.2678
  264TMC3    C6 4049   3.191   0.717  11.120 -0.9682  1.0266 -0.7281
  264TMC3     C 4050   3.215   0.646  11.529  0.3008  0.1541 -0.1891
  264TMC3     O 4051   3.167   0.745  11.586 -0.7703 -0.0597  0.4001
  264TMC3     H 4052   3.034   0.763  11.410 -0.7183 -0.7686  0.7205
  264TMC3    H1 4053   3.370   0.517  11.318  0.7459  1.1030  0.0785
  264TMC3    H2 4054   3.188   0.766  11.023 -2.1247  1.7702 -0.3079
  264TMC3    C7 4055   3.411   0.639  11.103 -0.0421 -0.2116 -0.2257
  264TMC3    C8 4056   3.111   0.909  11.203 -0.1612  0.8623 -0.2863
  264TMC3    O1 4057   3.484   0.544  11.089 -0.7334  0.4356  0.2932
  264TMC3    O2 4058   3.203   0.959  11.141 -0.1448 -0.0299 -0.2270
  265MPD2     C 4059   0.944   0.662  15.933 -0.9889 -0.1595 -0.3166
  265MPD2    C1 4060   0.991   0.758  15.845  0.4599 -0.1326  0.0693
  265MPD2    C2 4061   1.060   0.710  15.738 -0.1858 -0.0943 -0.0358
  265MPD2    C3 4062   1.069   0.573  15.712  0.0780 -0.3252  0.3758
  265MPD2    C4 4063   1.020   0.485  15.808  0.1595 -0.1047  0.2717
  265MPD2    C5 4064   0.959   0.527  15.916  0.8427  0.5122  0.8386
  265MPD2     H 4065   1.095   0.777  15.661  1.4848  1.8814  2.4466
  265MPD2    H1 4066   1.023   0.377  15.801  2.4426 -0.0115 -0.3474
  265MPD2    H2 4067   0.893   0.693  16.024 -1.1064  0.0818 -0.4630
  265MPD2    H3 4068   0.905   0.461  15.983  2.6528 -2.5530 -0.7391
  265MPD2     N 4069   1.135   0.524  15.601  0.5062 -0.3332  0.2738
  265MPD2    H5 4070   1.151   0.425  15.587  3.1359  0.0995  0.2215
  265MPD2    N1 4071   0.961   0.902  15.858  0.1208  0.1871  0.6067
  265MPD2    H7 4072   0.985   0.967  15.783  0.8053 -0.4703  0.2581
  266TMC3    C1 4073   0.908   1.110  15.967 -0.0555  0.8238  0.5774
  266TMC3    C2 4074   0.945   1.190  16.072 -0.3154 -0.4582  0.1754
  266TMC3    C3 4075   0.928   1.330  16.057 -0.1343 -0.0173 -0.1697
  266TMC3    C4 4076   0.835   1.161  15.861 -0.0556  0.1410 -0.5182
  266TMC3    C5 4077   0.802   1.294  15.859  0.6566 -0.0278 -0.1374
  266TMC3    C6 4078   0.859   1.377  15.952 -0.1028  0.0300 -0.0823
  266TMC3     C 4079   0.939   0.965  15.974  0.7109 -0.0247  0.0165
  266TMC3     O 4080   0.946   0.919  16.090 -0.2351  0.0059  0.1984
  266TMC3     H 4081   1.012   1.151  16.148 -0.9815 -0.6035  0.6848
  266TMC3    H1 4082   0.812   1.098  15.776 -0.0265  0.9223 -1.1090
  266TMC3    H2 4083   0.848   1.484  15.934 -0.6739  0.4766  3.0446
  266TMC3    C7 4084   0.742   1.349  15.742 -0.0937 -0.2736  0.4375
  266TMC3    C8 4085   1.029   1.413  16.119  0.0175  0.9249  0.1343
  266TMC3    O1 4086   0.705   1.265  15.661  0.2901 -0.5657  0.0574
  266TMC3    O2 4087   1.111   1.355  16.185 -0.0360  0.3498  0.2220
  267MPD2     C 4088   2.899   2.585   0.274 -0.9595 -0.8887 -0.0989
  267MPD2    C1 4089   2.926   2.559   0.141  0.1435  0.8157  0.0026
  267MPD2    C2 4090   2.836   2.620   0.047 -0.5718  0.3358  0.3683
  267MPD2    C3 4091   2.738   2.704   0.079  1.3458 -0.7368  0.1741
  267MPD2    C4 4092   2.716   2.728   0.219 -0.4711  0.1537  0.6905
  267MPD2    C5 4093   2.800   2.674   0.313  0.1410  0.0777  0.5427
  267MPD2     H 4094   2.863   2.609  17.683 -0.7412 -2.2948  0.5937
  267MPD2    H1 4095   2.648   2.806   0.252 -0.2163  1.5187 -1.9382
  267MPD2    H2 4096   2.973   2.550   0.346 -1.6828 -2.7384 -0.2688
  267MPD2    H3 4097   2.784   2.704   0.416 -0.9206  0.7360  0.1734
  267MPD2     N 4098   2.658   2.769  17.713 -0.4611  0.0909  0.3769
  267MPD2    H5 4099   2.666   2.737  17.617 -0.0452  1.7889 -0.1594
  267MPD2    N1 4100   3.051   2.492   0.108 -1.0187 -0.8404  0.0986
  267MPD2    H7 4101   3.108   2.468   0.188 -1.6917 -0.9485  0.5404
  268TMC3    C1 4102   3.236   2.406  17.728 -0.4743  0.1878  0.0759
  268TMC3    C2 4103   3.312   2.419  17.609 -0.0035  0.4446 -0.5997
  268TMC3    C3 4104   3.448   2.381  17.612 -0.0250 -0.0474  0.0412
  268TMC3    C4 4105   3.303   2.366   0.102 -0.7901 -0.4600  0.3760
  268TMC3    C5 4106   3.434   2.334   0.093  0.0302  0.5571  0.0544
  268TMC3    C6 4107   3.508   2.341  17.719 -0.1807  0.3115  0.1733
  268TMC3     C 4108   3.107   2.466  17.727 -0.3016  0.4702  0.3780
  268TMC3     O 4109   3.076   2.515  17.621  0.3285  0.5907  0.0328
  268TMC3     H 4110   3.260   2.437  17.516  2.0073  1.1058 -1.5767
  268TMC3    H1 4111   3.242   2.342   0.189  2.1166  1.0075  2.8021
  268TMC3    H2 4112   3.607   2.298  17.708 -1.0498 -1.0514 -2.3301
  268TMC3    C7 4113   3.498   2.284   0.217 -0.4071  0.3033 -0.0885
  268TMC3    C8 4114   3.538   2.451  17.525  0.1794 -0.1742 -0.4024
  268TMC3    O1 4115   3.584   2.197   0.213  0.2394 -0.0565  0.2755
  268TMC3    O2 4116   3.653   2.457  17.563  0.6307 -0.2818  0.8967
  269MPD2     C 4117   3.436   1.135  15.907 -0.8672 -0.2231  0.0776
  269MPD2    C1 4118   3.297   1.145  15.924  0.4483  0.3899 -0.3239
  269MPD2    C2 4119   3.231   1.268  15.920 -0.4470  0.5388  0.1425
  269MPD2    C3 4120   3.312   1.381  15.899  0.4005  0.2562  0.0512
  269MPD2    C4 4121   3.450   1.367  15.874  0.0929  0.4876  0.5893
  269MPD2    C5 4122   3.510   1.245  15.881  0.2456  0.2081 -0.0630
  269MPD2     H 4123   3.128   1.294  15.941 -0.9491 -2.9979  1.9584
  269MPD2    H1 4124   3.508   1.450  15.836 -1.8331  1.1270 -0.9581
  269MPD2    H2 4125   3.487   1.040  15.916  0.3617  0.5350  1.0156
  269MPD2    H3 4126   3.616   1.237  15.862  0.3354 -3.0895  1.8536
  269MPD2     N 4127   3.243   1.502  15.872 -0.6145  0.3051 -0.1586
  269MPD2    H5 4128   3.143   1.508  15.855 -0.5352 -1.6502 -1.3755
  269MPD2    N1 4129   3.217   1.030  15.946 -0.3254  0.5074 -0.0797
  269MPD2    H7 4130   3.267   0.943  15.965 -2.7189 -0.5666  1.2647
  270TMC3    C1 4131   3.032   0.883  15.903  0.2087 -1.0082  0.1288
  270TMC3    C2 4132   2.968   0.845  15.795  0.6264  0.4425 -0.1291
  270TMC3    C3 4133   2.936   0.714  15.781  0.2054  0.3854 -0.3999
  270TMC3    C4 4134   3.079   0.799  15.999 -0.2445  0.4658  0.3568
  270TMC3    C5 4135   3.057   0.668  15.973  0.3692 -0.4304  0.6028
  270TMC3    C6 4136   2.979   0.616  15.865 -0.0009  0.5409 -0.8025
  270TMC3     C 4137   3.085   1.018  15.910  0.0671  0.6639  0.3953
  270TMC3     O 4138   3.011   1.096  15.849  0.1176  0.1791  0.3829
  270TMC3     H 4139   2.952   0.910  15.710 -0.6027  0.9428  0.4762
  270TMC3    H1 4140   3.122   0.830  16.093  1.2432  0.9966 -0.5029
  270TMC3    H2 4141   2.973   0.512  15.838  1.1300 -0.0660  1.3026
  270TMC3    C7 4142   3.155   0.578  16.030 -0.8125  0.4925 -0.6225
  270TMC3    C8 4143   2.892   0.675  15.653 -0.3774 -0.3047 -0.2521
  270TMC3    O1 4144   3.247   0.636  16.089  0.0840 -0.5746  0.2269
  270TMC3    O2 4145   2.779   0.691  15.611  0.3297 -0.2578 -0.0532
  271MPD2     C 4146   2.737   1.044  14.294 -0.7964 -0.2202  0.6594
  271MPD2    C1 4147   2.659   0.960  14.376 -1.0905 -0.1633 -0.3814
  271MPD2    C2 4148   2.523   0.982  14.386 -0.2195 -0.0749 -0.3983
  271MPD2    C3 4149   2.461   1.087  14.321 -0.0999  0.1140 -0.4290
  271MPD2    C4 4150   2.540   1.173  14.252  0.2553 -0.0762 -0.0131
  271MPD2    C5 4151   2.675   1.157  14.243 -1.0082 -0.4517 -0.0241
  271MPD2     H 4152   2.469   0.914  14.452  1.4414 -0.6795  0.3313
  271MPD2    H1 4153   2.517   1.263  14.195  0.9746 -0.0477 -0.2565
  271MPD2    H2 4154   2.841   1.038  14.266 -0.8869 -0.8007  0.4508
  271MPD2    H3 4155   2.721   1.222  14.170 -1.8979  0.6361  0.3930
  271MPD2     N 4156   2.317   1.098  14.308  0.1798  0.5877  0.2724
  271MPD2    H5 4157   2.285   1.184  14.264  1.7073  0.4558 -1.1104
  271MPD2    N1 4158   2.720   0.853  14.435  0.0927 -0.4153  0.6879
  271MPD2    H7 4159   2.660   0.790  14.487  0.5108 -1.8632 -0.5793
  272TMC3    C1 4160   2.899   0.703  14.503  0.0305  0.4448 -0.0821
  272TMC3    C2 4161   3.030   0.680  14.475 -0.0091  0.2180  0.1096
  272TMC3    C3 4162   3.113   0.656  14.578 -0.0768 -0.0017  0.4325
  272TMC3    C4 4163   2.849   0.724  14.634 -0.7253 -0.0143 -0.0381
  272TMC3    C5 4164   2.939   0.715  14.734 -0.2675  0.4729  0.0869
  272TMC3    C6 4165   3.066   0.673  14.707 -0.7944  0.6235  0.1644
  272TMC3     C 4166   2.849   0.800  14.408 -0.2257  0.4837 -0.5212
  272TMC3     O 4167   2.939   0.848  14.333 -0.1254 -0.3428 -0.1818
  272TMC3     H 4168   3.063   0.659  14.374 -1.7271 -1.6984 -0.0416
  272TMC3    H1 4169   2.743   0.742  14.654 -0.2818  0.9507  1.4427
  272TMC3    H2 4170   3.131   0.661  14.793  1.2771  0.5733 -1.4101
  272TMC3    C7 4171   2.893   0.748  14.866 -0.6014 -0.7311 -0.0561
  272TMC3    C8 4172   3.241   0.588  14.540  0.0192  0.6083 -0.3150
  272TMC3    O1 4173   2.778   0.722  14.897  0.3365  0.0072 -0.2979
  272TMC3    O2 4174   3.267   0.580  14.424  0.5234  0.3542  0.2079
  273MPD2     C 4175   3.501   3.815  11.932 -0.6342 -0.8091 -0.0998
  273MPD2    C1 4176   3.626   3.863  11.936  0.1945  0.5848  0.7901
  273MPD2    C2 4177   3.691   3.885  11.818 -0.4145  0.3388  0.7931
  273MPD2    C3 4178   3.639   3.862  11.696 -0.1309  0.2555  0.0463
  273MPD2    C4 4179   3.506   3.811  11.694  0.9399 -0.4272  0.0221
  273MPD2    C5 4180   3.445   3.776  11.811  0.3991  0.0044 -0.7498
  273MPD2     H 4181   3.783   3.940  11.832  0.8167 -1.9785  1.8891
  273MPD2    H1 4182   3.452   3.798  11.601 -1.4877  0.9541  1.2285
  273MPD2    H2 4183   3.442   3.790  12.020  1.3495 -1.5590  1.0011
  273MPD2    H3 4184   3.345   3.734  11.807  0.2915  0.3394 -1.5564
  273MPD2     N 4185   3.710   3.892  11.570  0.2781 -0.0522  0.1038
  273MPD2    H5 4186   3.661   3.897  11.481 -1.8400 -0.3820  1.2349
  273MPD2    N1 4187   3.678   3.891  12.062  0.2139 -0.0661  0.1003
  273MPD2    H7 4188   3.617   3.877  12.142  1.2232 -0.7435  0.7491
  274TMC3    C1 4189   3.907   3.962  11.442 -0.4437 -0.1708 -0.0934
  274TMC3    C2 4190   3.850   3.916  11.327  0.6668  0.5294  0.0374
  274TMC3    C3 4191   3.904   3.964  11.211  0.2465 -1.0244  0.3247
  274TMC3    C4 4192   4.017   4.048  11.449 -0.1566 -0.3869 -0.0161
  274TMC3    C5 4193   4.048   4.111  11.335  0.2079  0.2353  0.0395
  274TMC3    C6 4194   3.986   4.074  11.212 -0.3921 -0.3681  0.1707
  274TMC3     C 4195   3.846   3.919  11.570  0.2522 -0.3774  0.8080
  274TMC3     O 4196   3.921   3.933  11.667  0.4139  0.0634  0.4210
  274TMC3     H 4197   3.776   3.836  11.333 -0.4942  1.7534  2.1588
  274TMC3    H1 4198   4.055   4.074  11.547 -2.2911  4.2546 -0.4308
  274TMC3    H2 4199   4.038   4.102  11.122 -2.1801  0.5522 -0.5774
  274TMC3    C7 4200   4.115   4.238  11.331 -0.9101  0.5615  0.2030
  274TMC3    C8 4201   3.834   3.934  11.094 -0.6786  0.3363 -0.4301
  274TMC3    O1 4202   4.157   4.284  11.223 -0.4842 -0.4998  0.0332
  274TMC3    O2 4203   3.777   3.825  11.092 -0.1949  0.1192 -0.2068
  275MPD2     C 4204   4.726   1.562  14.569 -0.7613 -0.0082 -0.5778
  275MPD2    C1 4205   4.643   1.656  14.524  0.0779 -0.3636 -0.0406
  275MPD2    C2 4206   4.529   1.622  14.459  0.2127  0.4305  0.6201
  275MPD2    C3 4207   4.489   1.487  14.449  0.7431 -0.7545 -0.2145
  275MPD2    C4 4208   4.576   1.389  14.494  0.1327  0.2282  0.0686
  275MPD2    C5 4209   4.690   1.429  14.553  0.1018  0.1455 -0.1429
  275MPD2     H 4210   4.460   1.693  14.416  0.9273  0.3839 -0.5951
  275MPD2    H1 4211   4.545   1.285  14.503 -1.2333  0.7519  1.4867
  275MPD2    H2 4212   0.087   1.589  14.610  0.8163 -1.9869 -2.9670
  275MPD2    H3 4213   0.029   1.360  14.590  1.2877  1.5675  0.1371
  275MPD2     N 4214   4.358   1.451  14.434  0.5095  0.2245 -0.4156
  275MPD2    H5 4215   4.326   1.365  14.478 -3.5001  1.2503 -1.4071
  275MPD2    N1 4216   4.671   1.794  14.538 -0.7409 -0.2372  0.0075
  275MPD2    H7 4217   4.606   1.853  14.488 -0.6794 -0.0472  0.1523
  276TMC3    C1 4218   4.733   2.001  14.639  0.1557  0.4298  0.2532
  276TMC3    C2 4219   4.605   2.025  14.630 -0.6508 -0.2428  0.4142
  276TMC3    C3 4220   4.548   2.114  14.720  0.2824 -0.3164  0.1925
  276TMC3    C4 4221   0.079   2.064  14.727  0.5007  0.1648  0.5586
  276TMC3    C5 4222   0.018   2.169  14.797 -0.1410 -0.4874 -0.1143
  276TMC3    C6 4223   4.616   2.187  14.808  0.0696 -0.5675 -0.5486
  276TMC3     C 4224   0.038   1.856  14.610  0.0973  0.1224 -0.2914
  276TMC3     O 4225   0.139   1.808  14.663  0.6573  0.3356 -0.6319
  276TMC3     H 4226   4.537   1.999  14.549 -0.4495 -0.6344  0.3676
  276TMC3    H1 4227   0.178   2.024  14.744  0.8582 -0.3060 -2.7526
  276TMC3    H2 4228   4.566   2.243  14.886  1.0074 -2.8838  1.6838
  276TMC3    C7 4229   0.100   2.273  14.858 -0.5353  0.8574 -0.5823
  276TMC3    C8 4230   4.437   2.043  14.789  0.4391  0.6082  0.4009
  276TMC3    O1 4231   0.053   2.311  14.967  1.1904  0.2633 -0.3445
  276TMC3    O2 4232   4.346   2.110  14.842  0.2764  0.0448 -0.0604
  277MPD2     C 4233   1.293   0.561  13.582  0.4990 -0.2901  0.1948
  277MPD2    C1 4234   1.187   0.633  13.618  0.2270  1.0295  0.0238
  277MPD2    C2 4235   1.155   0.639  13.761  0.0177  0.7391  0.2070
  277MPD2    C3 4236   1.222   0.561  13.855 -0.1215 -0.5012  0.4493
  277MPD2    C4 4237   1.330   0.491  13.811 -0.0677  0.5609 -0.2225
  277MPD2    C5 4238   1.361   0.493  13.676  0.1276  0.4683  0.0632
  277MPD2     H 4239   1.094   0.722  13.795 -1.0610  0.3879 -0.8662
  277MPD2    H1 4240   1.388   0.430  13.879  0.5688  1.3973 -0.0124
  277MPD2    H2 4241   1.343   0.555  13.486 -0.0321  0.5168 -0.1348
  277MPD2    H3 4242   1.446   0.434  13.646  1.3211  2.3330 -0.2259
  277MPD2     N 4243   1.186   0.580  13.988  0.1758 -0.0825  0.4831
  277MPD2    H5 4244   1.107   0.644  13.994 -0.6575 -1.0398 -0.2066
  277MPD2    N1 4245   1.115   0.702  13.515 -0.4083 -0.2770 -0.6859
  277MPD2    H7 4246   1.152   0.711  13.421  2.3364 -3.5114  0.0680
  278TMC3    C1 4247   1.141   0.529  14.218  0.1585 -0.0782  0.2985
  278TMC3    C2 4248   1.074   0.422  14.261  0.1293 -0.0622 -0.3285
  278TMC3    C3 4249   0.951   0.443  14.319  0.4463 -0.4344 -0.0898
  278TMC3    C4 4250   1.090   0.654  14.217  0.0456  0.2528  0.3009
  278TMC3    C5 4251   0.957   0.667  14.254 -0.4092 -0.2128  0.2662
  278TMC3    C6 4252   0.890   0.565  14.315 -0.0695 -0.0218  0.4716
  278TMC3     C 4253   1.229   0.504  14.100  0.3077  0.1335 -0.5278
  278TMC3     O 4254   1.291   0.397  14.103  0.0267  0.0052  0.1807
  278TMC3     H 4255   1.108   0.320  14.242 -0.6377 -0.4228  0.2597
  278TMC3    H1 4256   1.153   0.734  14.179 -0.4860  0.2004 -0.7004
  278TMC3    H2 4257   0.794   0.577  14.364  0.9638 -0.0813  2.5183
  278TMC3    C7 4258   0.886   0.717  14.135 -0.2819 -0.4862  0.6211
  278TMC3    C8 4259   0.849   0.339  14.291 -0.2121 -0.3399 -0.2951
  278TMC3    O1 4260   0.953   0.758  14.045  0.1365  0.3588  0.1831
  278TMC3    O2 4261   0.755   0.381  14.224  0.4062 -0.5979  0.5932
  279MPD2     C 4262   0.682   1.474  17.665 -0.1087 -0.2166 -0.1590
  279MPD2    C1 4263   0.573   1.399  17.627  0.9527 -0.0422  0.5519
  279MPD2    C2 4264   0.561   1.359  17.495 -0.1687 -0.7865 -0.1081
  279MPD2    C3 4265   0.651   1.393  17.403 -0.3962 -0.2063 -0.5518
  279MPD2    C4 4266   0.759   1.476  17.442 -0.1686 -0.4243 -0.3467
  279MPD2    C5 4267   0.772   1.511  17.568  0.2401 -0.0146  0.4698
  279MPD2     H 4268   0.482   1.290  17.467 -0.9805  0.8817 -1.9236
  279MPD2    H1 4269   0.847   1.488  17.380  0.3785 -0.4936  0.4097
  279MPD2    H2 4270   0.699   1.495   0.029 -1.1832 -2.1157  0.3962
  279MPD2    H3 4271   0.866   1.555  17.598 -0.2951 -1.2288  3.8917
  279MPD2     N 4272   0.662   1.356  17.268 -0.4049 -0.1300 -0.4497
  279MPD2    H5 4273   0.729   1.407  17.211 -0.5185 -2.1541 -2.4264
  279MPD2    N1 4274   0.476   1.351  17.721 -0.3523 -0.0605 -0.6337
  279MPD2    H7 4275   0.404   1.286  17.691 -0.6184  0.0916 -0.3369
  280TMC3    C1 4276   0.336   1.342   0.166  0.2251  0.2681  0.4394
  280TMC3    C2 4277   0.285   1.228   0.117  0.0987  0.4786  0.7975
  280TMC3    C3 4278   0.153   1.216   0.105 -0.2650 -0.0810 -0.1832
  280TMC3    C4 4279   0.255   1.449   0.192 -0.7845 -0.9066 -1.2236
  280TMC3    C5 4280   0.121   1.434   0.179  0.2948  0.1132  0.9733
  280TMC3    C6 4281   0.063   1.313   0.136 -0.1018  0.0596 -0.8449
  280TMC3     C 4282   0.462   1.389   0.113 -0.0969 -0.5343 -0.6594
  280TMC3     O 4283   0.516   1.485   0.169  0.2890  0.2678 -0.4049
  280TMC3     H 4284   0.358   1.150   0.101 -2.6550 -1.9115 -0.1541
  280TMC3    H1 4285   0.296   1.535   0.244 -0.9746 -1.9206  0.5980
  280TMC3    H2 4286   4.693   1.290   0.147 -0.6396  1.8126 -2.4336
  280TMC3    C7 4287   0.041   1.556   0.184  0.3305  0.0394 -0.0752
  280TMC3    C8 4288   0.100   1.080   0.101  0.6610  0.4616 -0.1432
  280TMC3    O1 4289   0.098   1.658   0.209 -0.1159 -0.6457  0.5188
  280TMC3    O2 4290   4.718   1.068   0.135 -0.2632 -0.2131  0.0952
  281TMC3    C1 4291   3.691   1.200  13.761  0.1598 -0.2137 -0.1717
  281TMC3    C2 4292   3.774   1.203  13.656 -0.5559  0.1441  0.3488
  281TMC3    C3 4293   3.730   1.124  13.554  0.5595  0.6407  0.0977
  281TMC3    C4 4294   3.568   1.148  13.770 -0.5422 -0.3240 -0.0476
  281TMC3    C5 4295   3.519   1.096  13.655 -1.0919 -0.1626 -0.3062
  281TMC3    C6 4296   3.607   1.065  13.552  0.3331 -0.0176  0.3988
  281TMC3     C 4297   3.736   1.293  13.866 -0.7647 -0.1520 -0.2764
  281TMC3     O 4298   3.819   1.239  13.940  0.3863  0.0795 -0.1712
  281TMC3     H 4299   3.871   1.249  13.670 -1.2234  2.3199 -2.2416
  281TMC3    H1 4300   3.513   1.159  13.862  1.9211 -0.7318  1.4815
  281TMC3    H2 4301   3.586   0.991  13.476  0.5941  0.3510 -0.0335
  281TMC3    C7 4302   3.409   1.003  13.659 -0.4074 -0.4016 -0.5836
  281TMC3    C8 4303   3.814   1.122  13.436  0.3237 -0.2722 -0.2121
  281TMC3    O1 4304   3.303   1.057  13.685 -0.1370  0.3972  0.0387
  281TMC3    O2 4305   3.841   1.012  13.391  0.0110 -0.0361  0.3177
  282MPD2     C 4306   0.999   2.455  14.969  0.0710  0.1383  0.4651
  282MPD2    C1 4307   0.960   2.583  15.020  0.2990 -0.7289  0.4447
  282MPD2    C2 4308   0.890   2.665  14.932  0.1701  1.1211  0.0429
  282MPD2    C3 4309   0.860   2.618  14.800 -0.1949 -0.5869 -0.1809
  282MPD2    C4 4310   0.911   2.502  14.755 -0.9786 -0.4183 -0.4881
  282MPD2    C5 4311   0.980   2.418  14.838 -0.2540 -0.3333 -0.5899
  282MPD2     H 4312   0.863   2.769  14.946  0.1656  1.4198 -2.2883
  282MPD2    H1 4313   0.894   2.455  14.659 -1.8750 -0.9461 -0.0706
  282MPD2    H2 4314   1.059   2.391  15.034  0.7388  0.2504 -0.0448
  282MPD2    H3 4315   1.017   2.322  14.803  2.0152 -0.2494  1.5564
  282MPD2     N 4316   0.782   2.702  14.717 -0.4066  0.0233 -0.2434
  282MPD2    H5 4317   0.749   2.788  14.759  0.4051  0.2218 -0.0105
  282MPD2    N1 4318   0.967   2.629  15.160 -0.4343 -0.0719 -0.7774
  282MPD2    H7 4319   0.925   2.719  15.182 -0.7238 -0.6598  1.0682
  283TMC3    C1 4320   0.931   2.579  15.388  0.3745  0.4676 -0.6303
  283TMC3    C2 4321   0.964   2.708  15.418  0.3958  0.1917 -0.2296
  283TMC3    C3 4322   0.908   2.761  15.537 -0.4247  0.5954 -0.2445
  283TMC3    C4 4323   0.841   2.502  15.459 -0.7211  0.3137  0.3828
  283TMC3    C5 4324   0.790   2.554  15.577  0.2052  0.7966  0.5211
  283TMC3    C6 4325   0.829   2.674  15.619  0.1825 -0.2746  0.1098
  283TMC3     C 4326   0.968   2.529  15.252 -0.7296 -0.7600  0.2173
  283TMC3     O 4327   0.984   2.408  15.245 -0.4530 -0.1149 -0.2741
  283TMC3     H 4328   1.045   2.754  15.364  0.3601 -0.1822 -0.5986
  283TMC3    H1 4329   0.799   2.416  15.409  0.6330 -0.4746  0.5831
  283TMC3    H2 4330   0.793   2.709  15.714 -0.2689 -0.0190 -0.1563
  283TMC3    C7 4331   0.651   2.524  15.607 -0.2379  0.1914  0.8836
  283TMC3    C8 4332   0.967   2.881  15.602  0.4327 -0.3149 -0.3582
  283TMC3    O1 4333   0.585   2.624  15.631 -0.1038 -0.1974 -0.0020
  283TMC3    O2 4334   0.954   2.895  15.725 -0.2176 -0.3828  0.1543
  284MPD2     C 4335   3.723   1.612  12.560 -0.0797 -0.3860 -0.5501
  284MPD2    C1 4336   3.778   1.691  12.464 -0.2894 -0.8277 -0.4929
  284MPD2    C2 4337   3.907   1.684  12.427  0.3267 -0.0689  0.5392
  284MPD2    C3 4338   3.987   1.604  12.504 -0.2144 -0.5170  0.1826
  284MPD2    C4 4339   3.943   1.535  12.610  0.4349 -0.2331 -0.9236
  284MPD2    C5 4340   3.807   1.535  12.640 -0.0082  0.4516  0.6019
  284MPD2     H 4341   3.943   1.759  12.356 -2.3217 -0.0340 -0.7839
  284MPD2    H1 4342   4.013   1.474  12.665 -0.2868 -0.7505 -0.5888
  284MPD2    H2 4343   3.618   1.604  12.587  0.1762 -1.5260  0.0970
  284MPD2    H3 4344   3.760   1.472  12.715 -1.0717  3.6602  2.6436
  284MPD2     N 4345   4.123   1.590  12.476 -0.3276  0.2910  0.1852
  284MPD2    H5 4346   4.171   1.520  12.532  1.5989 -0.4258 -2.3365
  284MPD2    N1 4347   3.684   1.758  12.379 -0.1433  0.3797 -0.6330
  284MPD2    H7 4348   3.715   1.802  12.293  2.4524 -0.4346 -0.0991
  285TMC3    C1 4349   3.482   1.867  12.314  0.4395 -0.5071  0.4824
  285TMC3    C2 4350   3.514   1.843  12.188  0.7824  0.6120 -0.5473
  285TMC3    C3 4351   3.428   1.881  12.094  0.0422 -0.2386 -0.0088
  285TMC3    C4 4352   3.364   1.933  12.344 -0.0514 -0.8322  0.6952
  285TMC3    C5 4353   3.277   1.974  12.250 -0.2013 -0.3901 -0.2015
  285TMC3    C6 4354   3.306   1.940  12.120  0.1869 -0.4309 -0.5245
  285TMC3     C 4355   3.562   1.803  12.419 -0.1588  0.7467 -0.1545
  285TMC3     O 4356   3.525   1.809  12.534  0.1477 -0.1847 -0.2884
  285TMC3     H 4357   3.599   1.782  12.164 -0.9045 -2.0254  0.1794
  285TMC3    H1 4358   3.350   1.952  12.450  1.9390  2.3770  0.3702
  285TMC3    H2 4359   3.242   1.967  12.037 -0.3802 -2.5203 -0.7741
  285TMC3    C7 4360   3.218   2.110  12.262 -0.4205 -0.3415 -0.3846
  285TMC3    C8 4361   3.460   1.865  11.951  0.1480  0.1461  0.4999
  285TMC3    O1 4362   3.302   2.198  12.266 -0.1247  0.2473 -0.1113
  285TMC3    O2 4363   3.371   1.850  11.867 -0.2144 -0.1234  0.1650
  286MPD2     C 4364   4.416   0.789   1.318 -0.3485  0.2093 -0.8465
  286MPD2    C1 4365   4.373   0.735   1.201 -0.0575 -0.1284 -0.0106
  286MPD2    C2 4366   4.391   0.603   1.179  0.6828  0.4267  0.1389
  286MPD2    C3 4367   4.445   0.518   1.274  0.5027 -0.3750  0.9468
  286MPD2    C4 4368   4.477   0.576   1.398 -0.2308  0.4592  0.6334
  286MPD2    C5 4369   4.453   0.706   1.420 -0.5125  0.1946  0.2026
  286MPD2     H 4370   4.352   0.568   1.084  0.0304 -2.6238  1.5153
  286MPD2    H1 4371   4.501   0.520   1.487 -2.5052 -2.6647 -0.7368
  286MPD2    H2 4372   4.397   0.893   1.338 -2.1901 -0.0918 -1.0830
  286MPD2    H3 4373   4.474   0.739   1.521  0.5651 -0.1352  0.0857
  286MPD2     N 4374   4.458   0.376   1.257 -0.0189  0.1491 -0.7649
  286MPD2    H5 4375   4.510   0.321   1.324 -0.6434 -0.4837 -0.8009
  286MPD2    N1 4376   4.309   0.807   1.103 -0.1001  0.1403 -0.1098
  286MPD2    H7 4377   4.293   0.756   1.017  2.6921  0.6641 -0.9605
  287TMC3    C1 4378   4.448   0.166   1.126 -0.0934  0.1545 -0.1294
  287TMC3    C2 4379   4.361   0.092   1.048  0.0943  0.3874 -0.7950
  287TMC3    C3 4380   4.381   4.691   1.027  0.1213  0.1625 -0.1590
  287TMC3    C4 4381   4.557   0.117   1.182  0.3941 -0.4009  0.4512
  287TMC3    C5 4382   4.568   4.714   1.171  0.4267 -0.2301 -0.1139
  287TMC3    C6 4383   4.485   4.631   1.094  0.7316  0.3737 -0.4764
  287TMC3     C 4384   4.405   0.309   1.146  0.2200 -0.4144  0.4368
  287TMC3     O 4385   4.319   0.348   1.067  0.5447  0.0849  0.1302
  287TMC3     H 4386   4.277   0.140   1.000  1.4046  3.5598  0.1041
  287TMC3    H1 4387   4.634   0.175   1.232 -0.1264  0.0447  0.7294
  287TMC3    H2 4388   4.520   4.531   1.072 -3.4315 -1.6717  2.3290
  287TMC3    C7 4389   4.699   4.661   1.187 -0.1429 -0.3621 -0.0332
  287TMC3    C8 4390   4.326   4.629   0.906  0.2274  0.4931  0.5039
  287TMC3    O1 4391   4.710   4.551   1.241 -0.2864 -0.2888  0.4253
  287TMC3    O2 4392   4.362   4.517   0.871 -0.0457  0.5754  0.1800
  288TMC3    C1 4393   1.199   0.554  14.728 -0.6205  0.3405 -0.2207
  288TMC3    C2 4394   1.181   0.555  14.863 -0.7277 -0.6447  0.3429
  288TMC3    C3 4395   1.159   0.430  14.924 -0.4823 -0.1135 -0.3247
  288TMC3    C4 4396   1.182   0.445  14.648  0.1784  0.4632  0.2006
  288TMC3    C5 4397   1.159   0.325  14.712 -0.8385 -0.1295 -0.1318
  288TMC3    C6 4398   1.148   0.316  14.850  0.0164  0.3960 -0.1832
  288TMC3     C 4399   1.202   0.680  14.659 -0.3049  0.4045 -0.8026
  288TMC3     O 4400   1.160   0.780  14.716  0.1956 -0.6784  0.4573
  288TMC3     H 4401   1.208   0.646  14.916  1.9642 -0.5135 -1.2948
  288TMC3    H1 4402   1.195   0.440  14.540  0.8426  0.1230  0.2918
  288TMC3    H2 4403   1.124   0.228  14.908  1.7905  0.4917  0.6856
  288TMC3    C7 4404   1.136   0.203  14.631  0.4941  0.3595 -0.2870
  288TMC3    C8 4405   1.099   0.451  15.055 -0.3651 -0.3423  0.2966
  288TMC3    O1 4406   1.091   0.214  14.518 -0.1945  0.2041 -0.5068
  288TMC3    O2 4407   1.118   0.551  15.120  0.4517  0.2360 -0.1175
  289MPD2     C 4408   1.564   4.302  15.371 -0.3106 -0.1241 -0.3884
  289MPD2    C1 4409   1.564   4.379  15.255  0.5645 -0.0899 -0.7824
  289MPD2    C2 4410   1.452   4.372  15.175  0.6314  0.2765 -0.0526
  289MPD2    C3 4411   1.339   4.304  15.212 -0.5052 -0.0516  0.5016
  289MPD2    C4 4412   1.339   4.236  15.335 -0.7869 -0.4634 -0.0529
  289MPD2    C5 4413   1.456   4.229  15.405 -0.0839 -1.2198  0.0462
  289MPD2     H 4414   1.456   4.404  15.071  0.6246  1.7013  0.3761
  289MPD2    H1 4415   1.253   4.183  15.372 -0.4496 -0.8227  0.2148
  289MPD2    H2 4416   1.652   4.297  15.433  0.0213  2.8980 -0.5802
  289MPD2    H3 4417   1.472   4.159  15.486  2.4061  0.6795  1.1857
  289MPD2     N 4418   1.231   4.270  15.123  0.3618 -0.1119  0.6994
  289MPD2    H5 4419   1.161   4.202  15.153 -1.3261  0.4061 -2.1370
  289MPD2    N1 4420   1.688   4.433  15.209 -0.4266 -0.6624  0.0289
  289MPD2    H7 4421   1.770   4.408  15.264  0.3936  1.0708 -0.4065
  290TMC3    C1 4422   1.099   4.289  14.930 -0.6175 -0.0870  0.1616
  290TMC3    C2 4423   1.073   4.355  14.809  0.4917  0.5406  0.2436
  290TMC3    C3 4424   1.000   4.293  14.712 -0.3375  0.5851  0.1602
  290TMC3    C4 4425   1.051   4.162  14.950  0.0026 -0.1572 -0.0644
  290TMC3    C5 4426   0.972   4.104  14.848  0.1777  0.3915  0.3191
  290TMC3    C6 4427   0.946   4.170  14.732 -0.5580  0.7766  0.6183
  290TMC3     C 4428   1.203   4.351  15.016  0.0479 -1.6117  0.2965
  290TMC3     O 4429   1.238   4.468  14.999  0.0515  0.0332 -0.2933
  290TMC3     H 4430   1.124   4.450  14.800 -0.8360  0.9497 -3.0817
  290TMC3    H1 4431   1.061   4.097  15.037 -1.9369 -1.1787 -0.6079
  290TMC3    H2 4432   0.871   4.128  14.664  1.8803  1.2723 -2.3626
  290TMC3    C7 4433   0.875   4.006  14.888 -0.6371 -0.4421  0.3968
  290TMC3    C8 4434   0.918   4.372  14.628 -0.1817 -0.3493  0.2299
  290TMC3    O1 4435   0.841   4.007  15.006 -0.0572  0.8493  0.2692
  290TMC3    O2 4436   0.873   4.314  14.531 -0.9752 -0.1696 -0.7629
  291MPD2     C 4437   0.513   4.599   0.656  0.5820  0.5192  0.1727
  291MPD2    C1 4438   0.639   4.550   0.656  0.1228  0.2974 -0.1645
  291MPD2    C2 4439   0.748   4.639   0.636 -0.4665  0.0427  0.0210
  291MPD2    C3 4440   0.731   0.034   0.599 -0.3489 -0.5276  0.5480
  291MPD2    C4 4441   0.604   0.083   0.601  0.4071  0.0035 -0.4793
  291MPD2    C5 4442   0.502   4.731   0.630  0.5424 -0.5297  0.1736
  291MPD2     H 4443   0.849   4.601   0.644 -0.2980  0.2368 -1.1791
  291MPD2    H1 4444   0.587   0.187   0.575 -0.2745  0.4817  1.8781
  291MPD2    H2 4445   0.424   4.538   0.668  0.9558 -0.4654 -1.9412
  291MPD2    H3 4446   0.403   0.037   0.618  0.5208 -0.3575  0.9812
  291MPD2     N 4447   0.838   0.128   0.569 -0.1548  0.3457  0.0503
  291MPD2    H5 4448   0.810   0.217   0.528 -1.5553 -0.7276 -1.3184
  291MPD2    N1 4449   0.668   4.412   0.687  0.0485  0.2220  0.7716
  291MPD2    H7 4450   0.763   4.378   0.696 -0.7265 -2.2026 -0.3527
  292TMC3    C1 4451   0.621   4.183   0.688  0.1193  0.4450  0.7988
  292TMC3    C2 4452   0.681   4.147   0.804 -0.2632 -0.6565 -0.0103
  292TMC3    C3 4453   0.699   4.012   0.836  0.2966 -0.2294 -0.0062
  292TMC3    C4 4454   0.552   4.089   0.610  0.6805  1.2288 -0.7968
  292TMC3    C5 4455   0.560   3.960   0.654  0.3835 -0.4502 -0.0604
  292TMC3    C6 4456   0.626   3.927   0.764 -0.1378 -0.2381 -0.3292
  292TMC3     C 4457   0.567   4.313   0.688 -0.0074  0.0890  1.0452
  292TMC3     O 4458   0.459   4.322   0.638 -0.4999  0.4886  0.5365
  292TMC3     H 4459   0.725   4.217   0.875  1.9808 -2.4092  0.3440
  292TMC3    H1 4460   0.506   4.116   0.516  3.6310 -0.6963 -2.7887
  292TMC3    H2 4461   0.615   3.824   0.797  1.8109 -0.2757  0.1604
  292TMC3    C7 4462   0.493   3.858   0.577 -0.6291 -0.0647  0.2547
  292TMC3    C8 4463   0.770   3.967   0.955 -0.9784  0.4504 -0.7003
  292TMC3    O1 4464   0.541   3.746   0.564 -0.5386  0.2238  0.3674
  292TMC3    O2 4465   0.852   4.048   0.998 -0.5317 -0.3639  0.1628
  293MPD2     C 4466   2.343   1.143  12.966  0.1579 -0.6370 -0.6921
  293MPD2    C1 4467   2.253   1.054  13.021  0.2321 -0.0856 -0.2900
  293MPD2    C2 4468   2.253   1.035  13.158  0.1490  0.1915 -0.2595
  293MPD2    C3 4469   2.332   1.115  13.249  0.1356  0.5347  0.1727
  293MPD2    C4 4470   2.431   1.189  13.190  0.4450 -0.3813 -0.4267
  293MPD2    C5 4471   2.431   1.203  13.052  0.4087 -0.1750 -0.0088
  293MPD2     H 4472   2.182   0.964  13.200  0.1088  1.3074  1.5977
  293MPD2    H1 4473   2.508   1.249  13.236 -2.9642  1.5955  2.7227
  293MPD2    H2 4474   2.341   1.182  12.865  0.6427 -2.6306 -1.4725
  293MPD2    H3 4475   2.496   1.279  13.010 -0.2643  0.2722 -0.2591
  293MPD2     N 4476   2.321   1.098  13.388 -0.2155 -0.5126 -0.9357
  293MPD2    H5 4477   2.275   1.012  13.417 -2.0812  1.1666  1.0872
  293MPD2    N1 4478   2.161   0.989  12.936  0.4206 -0.5254 -0.0572
  293MPD2    H7 4479   2.179   1.009  12.838 -3.0667  0.4035 -0.4902
  294TMC3    C1 4480   2.007   0.844  12.842  0.0229 -0.2296 -0.6722
  294TMC3    C2 4481   1.942   0.725  12.851  0.2517  0.7596 -0.3838
  294TMC3    C3 4482   1.887   0.682  12.737 -0.4837 -0.5049  0.1109
  294TMC3    C4 4483   2.022   0.913  12.723  0.4051 -0.2196 -0.1666
  294TMC3    C5 4484   1.970   0.856  12.614  0.1479 -0.5781  0.4424
  294TMC3    C6 4485   1.900   0.741  12.615  0.4156  0.3372  0.4716
  294TMC3     C 4486   2.059   0.907  12.965  0.4373  0.3645 -0.4034
  294TMC3     O 4487   2.022   0.862  13.074  1.0135 -0.0555 -0.0411
  294TMC3     H 4488   1.922   0.680  12.948 -0.3709 -0.7685 -1.2305
  294TMC3    H1 4489   2.075   1.007  12.716 -1.3468  0.7529 -0.1539
  294TMC3    H2 4490   1.855   0.693  12.528  3.0452 -0.3516 -0.5183
  294TMC3    C7 4491   2.034   0.911  12.498  0.0482 -0.0287  0.9317
  294TMC3    C8 4492   1.791   0.569  12.750 -0.5628 -0.1765 -0.0987
  294TMC3    O1 4493   2.090   1.019  12.499  0.6385 -0.0386 -0.2842
  294TMC3    O2 4494   1.766   0.538  12.865  0.4726  0.3947  0.1115
  295MPD2     C 4495   3.432   4.427   0.877  0.0305 -0.1603 -0.1743
  295MPD2    C1 4496   3.296   4.403   0.878  0.1382 -0.6310 -0.1342
  295MPD2    C2 4497   3.251   4.300   0.958 -0.4473  0.2059  1.0335
  295MPD2    C3 4498   3.339   4.226   1.032  0.1091  0.8570 -0.5895
  295MPD2    C4 4499   3.470   4.260   1.037  0.8805  0.2009 -0.2409
  295MPD2    C5 4500   3.518   4.359   0.961 -0.3124  0.5791 -0.3576
  295MPD2     H 4501   3.146   4.277   0.943 -0.1119  0.2464 -1.4191
  295MPD2    H1 4502   3.540   4.218   1.108 -1.6947 -0.9106  1.6623
  295MPD2    H2 4503   3.464   4.516   0.824  0.9628  0.0886  0.7860
  295MPD2    H3 4504   3.623   4.385   0.966  0.0825 -0.7595 -1.6008
  295MPD2     N 4505   3.304   4.118   1.114 -0.0794  0.0429  0.2494
  295MPD2    H5 4506   3.374   4.073   1.171 -1.5889  1.4670  3.2260
  295MPD2    N1 4507   3.197   4.473   0.797 -0.4105 -0.5294  0.1540
  295MPD2    H7 4508   3.102   4.443   0.819 -0.0127 -1.8636  0.0174
  296TMC3    C1 4509   3.167   3.993   1.256 -0.9658  0.0158 -0.0943
  296TMC3    C2 4510   3.074   3.989   1.354 -0.2059 -0.2510  0.5431
  296TMC3    C3 4511   3.067   3.885   1.439 -0.5955 -0.5358  0.4699
  296TMC3    C4 4512   3.250   3.888   1.229  1.0366  0.0173  0.0843
  296TMC3    C5 4513   3.239   3.781   1.319 -0.1236  0.4722 -0.1364
  296TMC3    C6 4514   3.158   3.786   1.433 -0.1794 -0.1335 -0.5562
  296TMC3     C 4515   3.172   4.095   1.154 -0.7980 -0.7659  0.8008
  296TMC3     O 4516   3.067   4.156   1.123 -0.5977  0.2016 -0.2548
  296TMC3     H 4517   2.991   4.058   1.347  0.8587  0.9780  0.0811
  296TMC3    H1 4518   3.300   3.882   1.133  1.1417  0.1270  0.1306
  296TMC3    H2 4519   3.152   3.710   1.511 -1.3970  0.4962 -0.0442
  296TMC3    C7 4520   3.290   3.654   1.265  0.1974  0.2718 -0.0378
  296TMC3    C8 4521   2.965   3.884   1.543  0.1727  0.6350  0.1157
  296TMC3    O1 4522   3.370   3.664   1.169 -0.0135  0.1349 -0.0457
  296TMC3    O2 4523   2.929   3.775   1.583 -0.0159  0.3340 -0.2713
  297MPD2     C 4524   4.626   1.442  16.397  0.2207  0.9789  0.4776
  297MPD2    C1 4525   4.630   1.489  16.270  0.4616  0.6707  0.2598
  297MPD2    C2 4526   4.716   1.589  16.234 -0.0207 -0.3641  0.6364
  297MPD2    C3 4527   0.064   1.640  16.335 -0.5074  0.1346 -0.1945
  297MPD2    C4 4528   0.064   1.599  16.469  0.1539 -1.0908  0.6178
  297MPD2    C5 4529   4.710   1.495  16.493  0.1861  0.0339  0.2055
  297MPD2     H 4530   4.732   1.628  16.134 -1.3763 -1.9060 -0.1758
  297MPD2    H1 4531   0.121   1.637  16.553  1.4492  2.1872 -1.7117
  297MPD2    H2 4532   4.558   1.367  16.436 -0.5598  1.8045  0.7252
  297MPD2    H3 4533   4.710   1.458  16.595  0.0309  0.6936  0.4439
  297MPD2     N 4534   0.144   1.747  16.290  0.2430 -0.0972 -0.3240
  297MPD2    H5 4535   0.129   1.779  16.195  0.9362  0.4819 -0.2348
  297MPD2    N1 4536   4.549   1.443  16.162 -0.0109 -0.5966 -0.0881
  297MPD2    H7 4537   4.558   1.491  16.073 -0.0684 -1.6990 -0.6970
  298TMC3    C1 4538   4.337   1.410  16.081  0.1456  0.0614 -0.0302
  298TMC3    C2 4539   4.372   1.380  15.953 -0.4893 -0.1062 -0.2252
  298TMC3    C3 4540   4.291   1.415  15.851 -0.2095  0.4922 -0.3197
  298TMC3    C4 4541   4.233   1.487  16.115 -0.4077 -0.4431  0.0867
  298TMC3    C5 4542   4.153   1.525  16.017 -0.2869 -0.2894  0.2117
  298TMC3    C6 4543   4.180   1.492  15.885 -0.4226  0.7220  0.3132
  298TMC3     C 4544   4.428   1.376  16.184 -0.5426 -0.0697 -0.2313
  298TMC3     O 4545   4.373   1.343  16.287  0.4717 -0.0879 -0.0181
  298TMC3     H 4546   4.455   1.312  15.941 -1.2889 -1.0264 -0.6026
  298TMC3    H1 4547   4.220   1.522  16.217 -0.7277  0.1649 -0.1641
  298TMC3    H2 4548   4.113   1.530  15.808  0.5417 -0.6199 -1.1814
  298TMC3    C7 4549   4.073   1.640  16.059  0.5797 -0.5385  0.2747
  298TMC3    C8 4550   4.324   1.412  15.707  0.7836 -0.2767 -0.0762
  298TMC3    O1 4551   4.047   1.654  16.177  0.1442 -0.4493  0.1618
  298TMC3    O2 4552   4.233   1.446  15.635 -0.3808  0.3333 -0.2819
  299MPD2     C 4553   0.385   0.908  11.107  0.0423  0.6337  0.0736
  299MPD2    C1 4554   0.358   1.023  11.044 -0.2096  0.3107  0.2112
  299MPD2    C2 4555   0.236   1.033  10.972  0.7247  0.1246  0.0470
  299MPD2    C3 4556   0.141   0.928  10.970 -0.1576 -0.0763 -0.2853
  299MPD2    C4 4557   0.178   0.814  11.036 -0.6953 -0.5116 -0.1968
  299MPD2    C5 4558   0.299   0.805  11.098 -0.2539  0.1225  0.5363
  299MPD2     H 4559   0.207   1.124  10.922  0.2952 -0.0626 -0.0440
  299MPD2    H1 4560   0.121   0.723  11.042 -0.7330 -0.3733  1.5847
  299MPD2    H2 4561   0.483   0.894  11.152  0.6139  1.0755 -1.0283
  299MPD2    H3 4562   0.318   0.706  11.138 -0.3245  0.0809  0.4667
  299MPD2     N 4563   0.015   0.933  10.901 -0.1679  0.2884 -0.5715
  299MPD2    H5 4564   4.689   0.864  10.943 -0.4456  1.5006  1.0455
  299MPD2    N1 4565   0.443   1.135  11.061 -0.2640 -0.2990  0.5756
  299MPD2    H7 4566   0.529   1.135  11.115 -1.2001  1.0001  2.0715
  300TMC3    C1 4567   4.568   1.021  10.794  0.4099  0.7438 -0.0796
  300TMC3    C2 4568   4.526   1.082  10.678 -0.8774 -0.3600 -0.4910
  300TMC3    C3 4569   4.394   1.119  10.677  0.5577  0.0845 -0.7650
  300TMC3    C4 4570   4.492   1.021  10.910 -0.2899  0.5567  0.0317
  300TMC3    C5 4571   4.361   1.064  10.900  0.3312 -0.2415  0.8463
  300TMC3    C6 4572   4.312   1.119  10.784  0.1757  0.0652  0.7787
  300TMC3     C 4573   4.712   1.029  10.813  0.3590 -0.3153 -0.4770
  300TMC3     O 4574   0.034   1.130  10.775 -0.0019  0.2912  0.0315
  300TMC3     H 4575   4.590   1.085  10.590  1.3179 -1.9884  1.0436
  300TMC3    H1 4576   4.528   0.992  11.008 -1.3176  1.5354  0.7037
  300TMC3    H2 4577   4.209   1.151  10.770 -0.0000 -0.0361  1.8192
  300TMC3    C7 4578   4.274   1.037  11.012  0.1404 -0.1707  0.1641
  300TMC3    C8 4579   4.358   1.187  10.553  0.4059 -0.1417 -0.1808
  300TMC3    O1 4580   4.303   0.948  11.090  0.2114 -0.3507  0.4519
  300TMC3    O2 4581   4.392   1.128  10.453 -0.0052 -0.0834  0.3370
  301MPD2     C 4582   3.234   2.343   0.995 -1.0983 -0.0729  0.1058
  301MPD2    C1 4583   3.101   2.341   1.029 -0.0083 -0.3387  0.8733
  301MPD2    C2 4584   3.035   2.218   1.046  0.5659  0.4679  0.3274
  301MPD2    C3 4585   3.104   2.097   1.032 -0.5633 -0.0592 -0.1658
  301MPD2    C4 4586   3.231   2.108   0.990 -0.2227  1.0153 -0.5706
  301MPD2    C5 4587   3.294   2.220   0.976  0.5144 -0.0624 -0.3520
  301MPD2     H 4588   2.929   2.218   1.070  1.2862 -0.7434  3.4997
  301MPD2    H1 4589   3.281   2.013   0.978 -1.8865  0.0438  0.2927
  301MPD2    H2 4590   3.286   2.437   0.985 -2.1172  0.5578  0.8072
  301MPD2    H3 4591   3.394   2.227   0.934 -0.2177  0.8511 -1.9678
  301MPD2     N 4592   3.046   1.971   1.052 -0.4157 -0.7791  0.3970
  301MPD2    H5 4593   3.104   1.893   1.023 -0.0489 -0.5728  0.5879
  301MPD2    N1 4594   3.023   2.453   1.053 -0.2960 -0.4164  0.3485
  301MPD2    H7 4595   2.923   2.435   1.061 -0.5010  0.3233 -0.5004
  302TMC3    C1 4596   2.878   1.805   1.057  0.4036 -0.1134 -0.0171
  302TMC3    C2 4597   2.958   1.698   1.089  0.5294  0.5848 -0.3568
  302TMC3    C3 4598   2.911   1.575   1.059  0.1588 -0.0520 -0.2490
  302TMC3    C4 4599   2.765   1.787   0.985 -0.2862 -0.2306  0.2482
  302TMC3    C5 4600   2.730   1.660   0.947 -0.1376  0.4469 -0.7062
  302TMC3    C6 4601   2.797   1.553   0.983  0.3592 -0.2143 -0.0353
  302TMC3     C 4602   2.915   1.940   1.088  0.2761  0.2660 -0.2774
  302TMC3     O 4603   2.818   2.013   1.094 -0.2516  0.1618 -0.0995
  302TMC3     H 4604   3.047   1.709   1.149  1.4162 -0.3680 -1.5195
  302TMC3    H1 4605   2.714   1.877   0.952 -0.5641 -0.2214  0.6990
  302TMC3    H2 4606   2.770   1.451   0.961 -0.8492 -0.1280  1.0134
  302TMC3    C7 4607   2.626   1.639   0.841  0.4386 -0.6084 -0.3310
  302TMC3    C8 4608   3.009   1.467   1.064  0.5077  0.0989  0.2162
  302TMC3    O1 4609   2.615   1.535   0.776  0.0718 -0.0499 -0.2942
  302TMC3    O2 4610   3.128   1.482   1.086 -0.5877 -0.1662  0.0175
  303MPD2     C 4611   2.049   0.657  10.792 -0.6129  0.2206  0.2125
  303MPD2    C1 4612   2.012   0.525  10.766  0.0646 -0.1713  0.2778
  303MPD2    C2 4613   1.977   0.487  10.635 -0.3923 -0.1390  0.5885
  303MPD2    C3 4614   1.976   0.581  10.534 -0.2788  0.2712  0.3093
  303MPD2    C4 4615   2.007   0.713  10.564 -0.0801  0.2296  0.1091
  303MPD2    C5 4616   2.041   0.751  10.690 -0.1424 -0.5464 -0.1045
  303MPD2     H 4617   1.941   0.389  10.609 -1.2816  0.3503 -0.0343
  303MPD2    H1 4618   1.993   0.787  10.485  0.1939  2.6442  2.3290
  303MPD2    H2 4619   2.067   0.690  10.894 -1.2953 -1.5964  0.9269
  303MPD2    H3 4620   2.056   0.857  10.706  0.8166 -0.7766  0.5538
  303MPD2     N 4621   1.937   0.549  10.400 -0.4641 -0.1816  0.2645
  303MPD2    H5 4622   1.968   0.607  10.324 -2.5132 -0.9475 -1.1553
  303MPD2    N1 4623   2.020   0.437  10.873 -0.6524  0.5161  0.1640
  303MPD2    H7 4624   2.027   0.470  10.969  0.6704 -2.1861  0.9989
  304TMC3    C1 4625   1.967   0.236  10.985  0.1135  0.1314 -0.5998
  304TMC3    C2 4626   1.840   0.255  11.028 -0.1029 -0.1025 -0.1417
  304TMC3    C3 4627   1.769   0.141  11.065 -0.4366 -0.7655 -0.7394
  304TMC3    C4 4628   2.026   0.116  10.993  0.2688  0.0292 -0.1435
  304TMC3    C5 4629   1.958   0.005  11.026  0.2250  0.2318 -0.5144
  304TMC3    C6 4630   1.827   0.020  11.069 -0.0469  0.0106 -0.3252
  304TMC3     C 4631   1.995   0.303  10.860 -0.0347 -0.7183 -0.8260
  304TMC3     O 4632   1.981   0.226  10.765  0.1811 -0.3512  0.7659
  304TMC3     H 4633   1.790   0.349  11.009  2.6518  1.5128  0.5903
  304TMC3    H1 4634   2.118   0.110  10.937  0.9590 -0.5166  1.0317
  304TMC3    H2 4635   1.766   4.674  11.105  0.5544 -0.3416 -0.1031
  304TMC3    C7 4636   1.970   4.639  10.928 -0.1610 -0.4042 -0.2627
  304TMC3    C8 4637   1.635   0.127  11.003  0.2362 -0.0906 -0.3501
  304TMC3    O1 4638   2.077   4.597  10.890 -0.5689 -0.6376 -0.3811
  304TMC3    O2 4639   1.595   0.014  10.984 -0.0701 -0.6720  0.3066
  305MPD2     C 4640   0.801   2.767  13.760  0.0482  0.1778  0.9255
  305MPD2    C1 4641   0.896   2.681  13.801  0.0379  0.8342 -0.1791
  305MPD2    C2 4642   0.893   2.557  13.755  0.1702 -0.4352  0.6130
  305MPD2    C3 4643   0.790   2.505  13.674 -0.2907  0.1034  0.6884
  305MPD2    C4 4644   0.695   2.596  13.634 -0.4095 -0.1923  0.0950
  305MPD2    C5 4645   0.702   2.723  13.676 -0.4155  0.1086 -0.0530
  305MPD2     H 4646   0.975   2.493  13.786  0.3601 -1.4877 -2.0533
  305MPD2    H1 4647   0.617   2.563  13.567  1.3866  1.2552 -2.7367
  305MPD2    H2 4648   0.803   2.872  13.787 -0.2851  0.5723 -0.5853
  305MPD2    H3 4649   0.621   2.786  13.643  0.3666  0.9309 -0.4059
  305MPD2     N 4650   0.774   2.376  13.618 -0.0999 -0.1524 -0.5609
  305MPD2    H5 4651   0.685   2.372  13.570 -2.5686  1.4480  3.8571
  305MPD2    N1 4652   1.002   2.739  13.872 -0.6332 -0.0171 -0.4711
  305MPD2    H7 4653   1.000   2.839  13.885 -0.0038 -0.1367  0.4964
  306TMC3    C1 4654   1.219   2.780  13.966  0.8354 -0.4423 -0.2065
  306TMC3    C2 4655   1.350   2.747  13.965 -0.0830  0.2322 -0.8153
  306TMC3    C3 4656   1.426   2.779  14.071 -0.7329 -0.0317 -0.4215
  306TMC3    C4 4657   1.165   2.825  14.081  0.2153  0.7180 -0.7215
  306TMC3    C5 4658   1.237   2.834  14.192 -1.1571 -0.3816 -0.1003
  306TMC3    C6 4659   1.377   2.811  14.193  0.6172 -0.2609 -0.0777
  306TMC3     C 4660   1.129   2.681  13.894  0.3266 -0.7365 -0.4132
  306TMC3     O 4661   1.162   2.563  13.887  0.5210 -0.0767 -0.0026
  306TMC3     H 4662   1.400   2.704  13.879  0.7343  1.6708 -1.0553
  306TMC3    H1 4663   1.063   2.861  14.078 -0.2005 -0.6742 -3.3837
  306TMC3    H2 4664   1.444   2.826  14.277  1.5109 -2.4263 -0.4274
  306TMC3    C7 4665   1.150   2.852  14.316 -0.5252  0.4426 -0.1999
  306TMC3    C8 4666   1.554   2.720  14.074 -0.2661  0.1078 -0.8490
  306TMC3    O1 4667   1.029   2.855  14.299 -0.4098  0.1208  0.4024
  306TMC3    O2 4668   1.564   2.606  14.039  0.4333 -0.3892  0.1265
  307MPD2     C 4669   3.798   0.903   0.158 -0.4042 -0.2795  0.0389
  307MPD2    C1 4670   3.730   1.020   0.127  0.5298  0.6088  0.2624
  307MPD2    C2 4671   3.676   1.094   0.233 -0.2029 -0.4348  0.7692
  307MPD2    C3 4672   3.685   1.047   0.359  0.6344  0.2208  0.5813
  307MPD2    C4 4673   3.747   0.927   0.389  0.8042  0.2635  0.3274
  307MPD2    C5 4674   3.807   0.861   0.284  0.1355  0.4735 -0.5676
  307MPD2     H 4675   3.619   1.183   0.209  0.0386 -0.8552 -1.3559
  307MPD2    H1 4676   3.749   0.889   0.490 -1.2989  0.6151  0.4977
  307MPD2    H2 4677   3.837   0.843   0.077 -2.5886  1.2232 -2.1299
  307MPD2    H3 4678   3.844   0.762   0.305 -1.0110  0.3711  0.9756
  307MPD2     N 4679   3.607   1.107   0.463 -0.0989 -0.0144  0.3904
  307MPD2    H5 4680   3.565   1.199   0.449  0.1666 -0.1435 -1.3464
  307MPD2    N1 4681   3.723   1.071  17.734  0.1251  0.2504 -0.0270
  307MPD2    H7 4682   3.670   1.156  17.716  0.4220  0.8288  1.8150
  308TMC3    C1 4683   3.291   1.139   0.794 -0.0798 -0.1747 -0.3577
  308TMC3    C2 4684   3.321   1.271   0.814 -0.4965  0.1498 -0.7696
  308TMC3    C3 4685   3.425   1.331   0.754 -0.1064 -0.2158  0.8277
  308TMC3    C4 4686   3.373   1.063   0.715  0.0517  0.1376 -0.3228
  308TMC3    C5 4687   3.479   1.119   0.655 -0.1552 -0.1044  0.3673
  308TMC3    C6 4688   3.502   1.257   0.667  1.5077 -0.0328 -0.0926
  308TMC3     C 4689   3.160   1.081   0.811 -0.2505 -0.6422 -0.7480
  308TMC3     O 4690   3.158   0.958   0.812  0.1806  0.3852 -0.0056
  308TMC3     H 4691   3.247   1.327   0.869 -0.7650 -0.6026 -0.3648
  308TMC3    H1 4692   3.351   0.957   0.706 -1.7037  0.4646  0.1038
  308TMC3    H2 4693   3.592   1.296   0.621  1.4877 -1.6378 -1.5105
  308TMC3    C7 4694   3.562   1.036   0.571 -0.3087 -0.3441 -0.2012
  308TMC3    C8 4695   3.421   1.476   0.756 -0.1195 -0.5877  0.4376
  308TMC3    O1 4696   3.551   0.913   0.584  0.2729  0.1874 -0.2495
  308TMC3    O2 4697   3.358   1.524   0.849  0.0477  0.2168 -0.2693
  309MPD2     C 4698   2.588   1.384  17.240  0.3772 -0.7548 -0.1205
  309MPD2    C1 4699   2.546   1.490  17.157 -0.3004  0.0788  0.3446
  309MPD2    C2 4700   2.436   1.568  17.200 -1.0219  0.5413  0.1185
  309MPD2    C3 4701   2.358   1.529  17.308 -0.5108 -0.1345  0.4510
  309MPD2    C4 4702   2.394   1.417  17.376 -0.3823 -0.2733 -0.6864
  309MPD2    C5 4703   2.511   1.353  17.349 -0.2242 -0.0571 -0.4349
  309MPD2     H 4704   2.425   1.663  17.149 -1.5991 -0.8626 -2.3911
  309MPD2    H1 4705   2.325   1.376  17.449  1.1284  1.8825  1.9595
  309MPD2    H2 4706   2.668   1.316  17.213 -0.7994 -2.3731  0.4187
  309MPD2    H3 4707   2.546   1.268  17.406 -1.8892 -0.9628 -0.7758
  309MPD2     N 4708   2.245   1.601  17.352 -0.3978  0.3824 -0.0904
  309MPD2    H5 4709   2.192   1.563  17.430  0.8302  0.3981  0.7490
  309MPD2    N1 4710   2.617   1.540  17.043  0.2267  0.4339  0.1555
  309MPD2    H7 4711   2.570   1.604  16.981  1.4851  0.7437 -0.4690
  310TMC3    C1 4712   2.772   1.532  16.856  0.0929  0.5750  0.9588
  310TMC3    C2 4713   2.719   1.642  16.797 -0.2844 -0.0505  0.3092
  310TMC3    C3 4714   2.778   1.682  16.677  0.1620  0.0619  0.2507
  310TMC3    C4 4715   2.887   1.477  16.813  0.0705  0.0351  0.2268
  310TMC3    C5 4716   2.945   1.516  16.696 -0.0071  0.2613  0.1285
  310TMC3    C6 4717   2.895   1.623  16.630 -0.6103 -0.4157 -0.0327
  310TMC3     C 4718   2.726   1.481  16.984  0.2799 -0.2580 -0.6719
  310TMC3     O 4719   2.801   1.404  17.040 -0.3352 -0.1038 -0.0874
  310TMC3     H 4720   2.630   1.688  16.839 -0.6568 -3.4255  3.3083
  310TMC3    H1 4721   2.918   1.386  16.862 -0.3658  1.1147  2.5141
  310TMC3    H2 4722   2.943   1.668  16.544  0.7610  1.6955  1.7998
  310TMC3    C7 4723   3.069   1.447  16.656  0.2018 -0.3813 -0.9960
  310TMC3    C8 4724   2.686   1.741  16.585  0.1781 -0.7045 -0.0508
  310TMC3    O1 4725   3.127   1.380  16.743  0.3178  0.1370  0.1767
  310TMC3    O2 4726   2.567   1.737  16.609  0.2533 -0.2834  0.1831
  311MPD2     C 4727   4.727   2.274  13.314 -0.2443 -0.2848  0.2222
  311MPD2    C1 4728   0.002   2.360  13.212  0.6150 -1.1565  0.4033
  311MPD2    C2 4729   4.616   2.414  13.168  0.1904  0.4416 -0.4231
  311MPD2    C3 4730   4.495   2.379  13.227  0.0126 -0.0938 -0.1233
  311MPD2    C4 4731   4.490   2.283  13.331  0.2400  0.8473  0.2855
  311MPD2    C5 4732   4.611   2.240  13.378  0.0482  0.6534 -0.4425
  311MPD2     H 4733   4.625   2.485  13.087  1.7907 -0.6240 -1.1764
  311MPD2    H1 4734   4.394   2.253  13.370 -2.2225  5.6164 -2.0432
  311MPD2    H2 4735   0.082   2.226  13.350 -1.0151 -0.2681  2.2138
  311MPD2    H3 4736   4.607   2.159  13.449 -0.2663  1.4851  0.4843
  311MPD2     N 4737   4.373   2.439  13.169  0.7410  0.0326  0.4202
  311MPD2    H5 4738   4.390   2.509  13.098  0.1117 -0.8609 -0.6069
  311MPD2    N1 4739   0.126   2.413  13.157  0.1363 -0.0621  1.0004
  311MPD2    H7 4740   0.113   2.476  13.078 -1.3900 -1.1117  0.4170
  312TMC3    C1 4741   4.152   2.505  13.138  0.0365 -0.3685  0.4934
  312TMC3    C2 4742   4.024   2.460  13.118 -1.1763 -0.0314  0.1733
  312TMC3    C3 4743   3.935   2.553  13.063  0.3718  0.3979 -0.3556
  312TMC3    C4 4744   4.203   2.632  13.096  0.5671  0.0941  0.2441
  312TMC3    C5 4745   4.109   2.706  13.036 -0.8660  0.4539  0.2501
  312TMC3    C6 4746   3.982   2.673  13.021 -0.2411 -0.2719 -0.5234
  312TMC3     C 4747   4.248   2.411  13.201  0.1865  0.2135 -0.6531
  312TMC3     O 4748   4.211   2.329  13.286 -0.0944 -0.0738  0.5548
  312TMC3     H 4749   3.999   2.356  13.136 -2.1273 -0.1065 -1.5185
  312TMC3    H1 4750   4.310   2.653  13.096  0.6602 -0.3134 -1.5694
  312TMC3    H2 4751   3.915   2.738  12.965 -2.6742 -3.4412 -1.3022
  312TMC3    C7 4752   4.141   2.847  13.021  0.0520 -0.3796 -0.4068
  312TMC3    C8 4753   3.793   2.522  13.050 -0.7028 -0.2172  0.5887
  312TMC3    O1 4754   4.088   2.915  12.935 -0.0996  0.0721  0.8153
  312TMC3    O2 4755   3.762   2.406  13.072 -0.4634 -0.3422 -0.8681
  313MPD2     C 4756   3.475   2.075  11.406  0.1194 -0.4477 -0.5073
  313MPD2    C1 4757   3.358   2.039  11.462 -0.1563 -0.2444  0.3399
  313MPD2    C2 4758   3.266   1.973  11.384 -0.3195 -0.4083  0.2720
  313MPD2    C3 4759   3.289   1.944  11.249 -0.4328  0.2420  0.0927
  313MPD2    C4 4760   3.410   1.986  11.193  0.2829 -0.4146  0.2124
  313MPD2    C5 4761   3.503   2.048  11.272 -0.5105 -0.7401  0.2607
  313MPD2     H 4762   3.170   1.950  11.430  0.4496 -0.7142  1.7201
  313MPD2    H1 4763   3.437   1.968  11.090 -0.3844 -1.7932  0.2903
  313MPD2    H2 4764   3.558   2.100  11.472  0.4418 -3.3825  0.1787
  313MPD2    H3 4765   3.597   2.062  11.221  0.4048  0.7131  2.3773
  313MPD2     N 4766   3.198   1.861  11.179  0.5667  0.0301  0.1995
  313MPD2    H5 4767   3.128   1.828  11.244  1.2514  1.5950  1.7297
  313MPD2    N1 4768   3.335   2.083  11.599  0.5596  0.2413 -0.2811
  313MPD2    H7 4769   3.404   2.137  11.650  0.9099  2.2145 -2.8453
  314TMC3    C1 4770   3.219   2.139  11.787 -0.1109  0.1982  1.0433
  314TMC3    C2 4771   3.341   2.186  11.838  0.3489  0.1280  0.4233
  314TMC3    C3 4772   3.327   2.301  11.916 -0.7242 -0.5810 -0.4299
  314TMC3    C4 4773   3.104   2.207  11.800 -0.0674 -0.1942  0.2933
  314TMC3    C5 4774   3.098   2.324  11.881  0.1977 -0.4307 -0.6427
  314TMC3    C6 4775   3.213   2.370  11.938 -0.0605  0.0310 -0.9892
  314TMC3     C 4776   3.219   2.062  11.665  0.4288 -0.1316 -0.7722
  314TMC3     O 4777   3.124   1.989  11.644  0.7821 -0.0220  0.1927
  314TMC3     H 4778   3.432   2.129  11.824  0.8819  1.2173 -0.6318
  314TMC3    H1 4779   3.016   2.176  11.746  1.0425 -2.0087 -0.4640
  314TMC3    H2 4780   3.203   2.462  11.995 -0.6655  0.0377 -1.0972
  314TMC3    C7 4781   3.033   2.432  11.812  0.8887 -0.6699 -0.1406
  314TMC3    C8 4782   3.448   2.355  11.977  0.6953 -0.4901  0.5258
  314TMC3    O1 4783   2.989   2.532  11.872 -0.2130  0.1802 -0.2073
  314TMC3    O2 4784   3.553   2.300  11.948  0.0723 -0.4346  0.4115
  315MPD2     C 4785   4.038   1.045  17.324  0.1194 -0.5460  0.0065
  315MPD2    C1 4786   4.069   1.089  17.451 -0.9098  0.3243  0.0723
  315MPD2    C2 4787   4.069   1.226  17.466  0.2116  0.0660  0.6589
  315MPD2    C3 4788   4.028   1.318  17.366 -0.0464 -0.2432 -0.5107
  315MPD2    C4 4789   3.995   1.264  17.242  0.0417  0.8554  0.4499
  315MPD2    C5 4790   4.007   1.131  17.222 -0.0073  0.0862 -0.3617
  315MPD2     H 4791   4.089   1.263  17.566 -0.7527  0.4842  0.6904
  315MPD2    H1 4792   3.985   1.318  17.148  0.8873 -0.9425 -0.6653
  315MPD2    H2 4793   4.029   0.940  17.301 -0.7472 -0.3749 -0.4271
  315MPD2    H3 4794   3.987   1.090  17.124 -0.6065  1.6662 -0.8895
  315MPD2     N 4795   4.027   1.455  17.391  0.5992 -0.0472  0.2654
  315MPD2    H5 4796   4.049   1.484  17.485 -1.0506  1.1979  0.2675
  315MPD2    N1 4797   4.103   1.020  17.568 -0.3868  0.6792 -0.2720
  315MPD2    H7 4798   4.152   1.080  17.634  2.9629 -0.5070 -1.6782
  316TMC3    C1 4799   4.026   1.687  17.342  0.4027 -0.2324  0.6100
  316TMC3    C2 4800   4.149   1.711  17.410  0.1864  0.0776  0.3040
  316TMC3    C3 4801   4.197   1.844  17.411  0.4019  0.0206  0.2027
  316TMC3    C4 4802   3.969   1.790  17.271 -0.1298 -0.6956  0.4510
  316TMC3    C5 4803   4.031   1.915  17.273 -0.1689 -1.0601 -0.3598
  316TMC3    C6 4804   4.133   1.949  17.357 -0.4036  0.0648 -0.1404
  316TMC3     C 4805   3.993   1.546  17.299  0.1253 -0.4726 -0.1750
  316TMC3     O 4806   3.938   1.539  17.189 -0.0951 -0.0778  0.0150
  316TMC3     H 4807   4.194   1.637  17.475 -2.2791 -2.2925 -0.6962
  316TMC3    H1 4808   3.886   1.766  17.207 -0.9757 -0.6588  1.5242
  316TMC3    H2 4809   4.174   2.049  17.366 -0.5121 -0.1246  2.3887
  316TMC3    C7 4810   3.957   2.026  17.222  0.2175 -0.5626 -0.0401
  316TMC3    C8 4811   4.287   1.874  17.516 -0.4227 -0.4132  0.0492
  316TMC3    O1 4812   3.981   2.134  17.267 -0.1077  0.4997  0.2361
  316TMC3    O2 4813   4.285   1.991  17.553 -0.1543 -0.3867 -0.3028
  317MPD2     C 4814   0.638   4.628  13.373  0.6510 -1.2696 -0.6848
  317MPD2    C1 4815   0.666   4.503  13.328 -0.2379  0.1123  1.4249
  317MPD2    C2 4816   0.734   4.421  13.414 -0.5761 -0.1258 -0.0723
  317MPD2    C3 4817   0.793   4.461  13.538 -0.5695 -1.0581 -0.1364
  317MPD2    C4 4818   0.769   4.592  13.581  0.4709 -0.6170 -0.6057
  317MPD2    C5 4819   0.695   4.674  13.495 -0.3724  0.1195  0.2723
  317MPD2     H 4820   0.763   4.320  13.387  0.5147 -0.2522  1.5524
  317MPD2    H1 4821   0.813   4.637  13.668  1.9398 -1.6334 -0.8177
  317MPD2    H2 4822   0.584   4.693  13.306  1.2753  0.6663  0.6933
  317MPD2    H3 4823   0.694   0.044  13.520  0.8542  0.3275 -0.5217
  317MPD2     N 4824   0.883   4.367  13.596 -0.0281  0.5405  0.0445
  317MPD2    H5 4825   0.870   4.274  13.559 -0.2365  0.6282 -0.1017
  317MPD2    N1 4826   0.633   4.452  13.196 -0.0571 -0.1981  0.2074
  317MPD2    H7 4827   0.680   4.363  13.179 -0.9728 -0.4864 -0.7766
  318TMC3    C1 4828   1.074   4.277  13.705  0.4138  0.0965  0.7515
  318TMC3    C2 4829   1.013   4.156  13.709 -0.4866  0.0056  0.1846
  318TMC3    C3 4830   1.086   4.051  13.764 -0.1844  0.5497  0.9583
  318TMC3    C4 4831   1.198   4.295  13.759 -0.4572  0.0905  0.1178
  318TMC3    C5 4832   1.268   4.185  13.808  0.4950 -0.0847  0.6199
  318TMC3    C6 4833   1.214   4.061  13.807 -0.7565  0.6862 -0.0607
  318TMC3     C 4834   0.991   4.395  13.680  0.1554  0.0047  0.3423
  318TMC3     O 4835   1.027   4.507  13.720 -0.0906  1.1153 -0.7218
  318TMC3     H 4836   0.904   4.150  13.710 -0.4098 -1.5873 -0.5698
  318TMC3    H1 4837   1.237   4.395  13.765 -0.8789  0.2719 -0.1264
  318TMC3    H2 4838   1.270   3.976  13.846 -0.3886  1.9878  2.2355
  318TMC3    C7 4839   1.411   4.202  13.796 -0.3212  0.1157 -0.4059
  318TMC3    C8 4840   1.040   3.910  13.749  0.2300 -1.0962 -0.2252
  318TMC3    O1 4841   1.444   4.308  13.745 -0.3316 -0.1763 -0.3345
  318TMC3    O2 4842   1.110   3.818  13.785  0.3153 -0.0469  0.2497
  319MPD2     C 4843   1.753   1.464  17.062  0.0448  0.2014  0.3319
  319MPD2    C1 4844   1.733   1.330  17.108  0.3359 -0.8476  0.3400
  319MPD2    C2 4845   1.662   1.243  17.031 -0.4141 -0.4239 -0.2025
  319MPD2    C3 4846   1.608   1.291  16.919 -0.5101  0.5123 -0.1290
  319MPD2    C4 4847   1.610   1.420  16.881 -0.6027  0.7787 -0.1256
  319MPD2    C5 4848   1.686   1.505  16.952  0.7689  0.3802  0.0337
  319MPD2     H 4849   1.661   1.141  17.069 -1.1948 -0.5857 -0.6645
  319MPD2    H1 4850   1.577   1.445  16.780 -0.2328 -0.7846 -0.6341
  319MPD2    H2 4851   1.810   1.541  17.113 -0.0158  0.7026 -0.3610
  319MPD2    H3 4852   1.687   1.607  16.915 -0.3011  0.3095 -0.2021
  319MPD2     N 4853   1.555   1.203  16.815  0.3860 -0.1988 -0.4628
  319MPD2    H5 4854   1.528   1.248  16.728  2.5593 -1.8419 -1.9777
  319MPD2    N1 4855   1.783   1.273  17.232 -0.6926 -0.4564  0.0756
  319MPD2    H7 4856   1.759   1.175  17.247  0.0058 -0.7122 -0.4384
  320TMC3    C1 4857   1.539   0.985  16.706  0.3488  0.5263  0.1086
  320TMC3    C2 4858   1.467   1.028  16.599  0.2330  0.4759 -0.3023
  320TMC3    C3 4859   1.468   0.956  16.486 -0.5479 -0.0957 -0.2335
  320TMC3    C4 4860   1.597   0.864  16.709  0.5178  0.1419 -0.0273
  320TMC3    C5 4861   1.612   0.804  16.588  0.1213 -0.1703 -0.0076
  320TMC3    C6 4862   1.540   0.839  16.478 -0.2336  0.0237  0.4146
  320TMC3     C 4863   1.546   1.066  16.828 -0.3315  0.4920 -0.1728
  320TMC3     O 4864   1.563   0.999  16.930  0.2272 -0.0826  0.4597
  320TMC3     H 4865   1.417   1.124  16.606 -2.6667 -1.2227  2.2437
  320TMC3    H1 4866   1.646   0.819  16.794  1.7016  2.1141  0.3352
  320TMC3    H2 4867   1.560   0.793  16.382 -0.8525  0.6320 -0.0021
  320TMC3    C7 4868   1.753   0.763  16.563 -0.1986 -0.0643  0.0371
  320TMC3    C8 4869   1.409   1.022  16.371  0.0447  0.5438 -0.0444
  320TMC3    O1 4870   1.762   0.703  16.457 -0.5007  0.5408 -0.1780
  320TMC3    O2 4871   1.382   1.141  16.385  0.2779  0.0184 -0.0239
  321TMC3    C1 4872   1.911   1.255  17.433  0.8482 -0.1991 -0.4294
  321TMC3    C2 4873   1.934   1.124  17.423  0.3257 -0.0501  0.0260
  321TMC3    C3 4874   1.970   1.062  17.543 -0.5906 -0.3902  0.0630
  321TMC3    C4 4875   1.940   1.334  17.543  0.4818  0.1406  0.6025
  321TMC3    C5 4876   2.001   1.276  17.645  0.1413 -0.2791  0.8289
  321TMC3    C6 4877   2.010   1.140  17.653  0.4596 -0.3624  0.6436
  321TMC3     C 4878   1.871   1.335  17.321  0.3662 -0.4738 -0.0897
  321TMC3     O 4879   1.921   1.444  17.306 -0.3268 -0.0293 -0.0384
  321TMC3     H 4880   1.902   1.068  17.336 -2.0198 -1.3176  1.7002
  321TMC3    H1 4881   1.938   1.442  17.537  0.1935  0.0032 -1.9962
  321TMC3    H2 4882   2.034   1.095   0.008  1.6385 -2.4014 -0.6013
  321TMC3    C7 4883   2.124   1.350  17.687 -0.4938 -0.2417  0.7037
  321TMC3    C8 4884   2.082   0.974  17.529 -0.4034  0.3432 -0.3918
  321TMC3    O1 4885   2.127   1.464  17.646 -0.0267 -0.3505  0.4092
  321TMC3    O2 4886   2.189   1.014  17.569  0.0920 -0.6899  0.0675
  322MPD2     C 4887   0.827   1.800  13.510 -0.0609  0.0456 -0.0609
  322MPD2    C1 4888   0.830   1.770  13.642 -0.3097  0.0053 -0.3561
  322MPD2    C2 4889   0.854   1.637  13.675  0.2015  0.0875 -0.6974
  322MPD2    C3 4890   0.862   1.543  13.575 -0.5673  0.3433 -0.2659
  322MPD2    C4 4891   0.851   1.576  13.443  0.0637 -0.2520 -0.1208
  322MPD2    C5 4892   0.834   1.707  13.413  0.6123 -0.8649  0.1640
  322MPD2     H 4893   0.850   1.604  13.778  0.5182  1.1653 -0.3358
  322MPD2    H1 4894   0.860   1.499  13.368 -0.1479 -2.0630  1.7056
  322MPD2    H2 4895   0.813   1.903  13.482  0.5433 -0.0094 -0.5727
  322MPD2    H3 4896   0.828   1.738  13.309  1.4530  0.0901  0.3956
  322MPD2     N 4897   0.894   1.412  13.625 -0.3513 -0.2665 -0.3560
  322MPD2    H5 4898   0.884   1.405  13.726 -0.6591  0.7733 -0.3085
  322MPD2    N1 4899   0.826   1.874  13.738 -0.1205  0.0823  0.3983
  322MPD2    H7 4900   0.818   1.969  13.704  1.1065  0.2416  0.5261
  323TMC3    C1 4901   0.857   1.976  13.959  0.2581  0.0093  0.0516
  323TMC3    C2 4902   0.968   2.048  13.920 -1.2479 -0.1234 -0.0851
  323TMC3    C3 4903   1.023   2.129  14.018 -0.4243 -0.2086 -0.3508
  323TMC3    C4 4904   0.811   1.979  14.092 -0.0434 -0.1331  0.3714
  323TMC3    C5 4905   0.875   2.056  14.187 -0.1020 -0.2060 -0.2619
  323TMC3    C6 4906   0.981   2.139  14.153 -0.1030  0.1154  0.7306
  323TMC3     C 4907   0.829   1.859  13.876 -0.4101  0.6557 -0.0243
  323TMC3     O 4908   0.791   1.760  13.943 -0.1955 -0.5253  0.9383
  323TMC3     H 4909   1.016   2.036  13.824 -0.7152  0.0182  0.1673
  323TMC3    H1 4910   0.727   1.917  14.116 -0.4042 -0.4947 -1.7782
  323TMC3    H2 4911   1.047   2.193  14.220 -0.8533  0.2778  1.3338
  323TMC3    C7 4912   0.870   1.999  14.313  0.1337  0.1172 -0.0741
  323TMC3    C8 4913   1.160   2.183  13.997  0.5830 -0.2813  0.3415
  323TMC3    O1 4914   0.856   1.879  14.319  0.0489  0.0632 -0.2556
  323TMC3    O2 4915   1.229   2.171  14.098  0.2372 -0.3526  0.4105
  324MPD2     C 4916   2.414   2.991  14.657 -0.5396  0.2777  0.5069
  324MPD2    C1 4917   2.441   3.121  14.610  0.2361  0.0748  0.6721
  324MPD2    C2 4918   2.333   3.188  14.566 -0.0426  0.1472 -0.3939
  324MPD2    C3 4919   2.208   3.135  14.556  0.6918 -0.1152  0.1256
  324MPD2    C4 4920   2.184   3.007  14.603  0.1790 -0.4938 -0.0261
  324MPD2    C5 4921   2.280   2.942  14.670  0.0396 -0.2430 -0.5134
  324MPD2     H 4922   2.346   3.292  14.538 -0.7410  0.4871  0.5886
  324MPD2    H1 4923   2.084   2.968  14.614  0.7234 -1.2652  2.1846
  324MPD2    H2 4924   2.489   2.936  14.712  1.1044  1.4924 -0.5048
  324MPD2    H3 4925   2.252   2.853  14.726 -0.3551  0.6974  0.7658
  324MPD2     N 4926   2.100   3.201  14.496 -0.1089 -0.3205  0.1322
  324MPD2    H5 4927   2.010   3.159  14.516  0.1833 -1.9173 -1.8962
  324MPD2    N1 4928   2.571   3.185  14.614  0.6493  0.2186  0.2121
  324MPD2    H7 4929   2.582   3.276  14.571  2.8990  0.1221  0.5781
  325TMC3    C1 4930   1.969   3.360  14.387  0.0999 -0.4678  0.4074
  325TMC3    C2 4931   1.894   3.272  14.316 -0.1656  0.3278 -0.2184
  325TMC3    C3 4932   1.794   3.321  14.237 -0.1091 -0.2399 -0.5779
  325TMC3    C4 4933   1.951   3.494  14.379  0.3475  0.1969  0.5788
  325TMC3    C5 4934   1.853   3.535  14.296 -0.0926 -0.4158  0.2127
  325TMC3    C6 4935   1.780   3.455  14.213  0.2652  0.5104  0.3263
  325TMC3     C 4936   2.105   3.311  14.422  0.1761 -0.2595  0.0367
  325TMC3     O 4937   2.202   3.380  14.395 -0.3626 -0.1403 -0.1548
  325TMC3     H 4938   1.920   3.167  14.308  1.0123  0.5783  0.2800
  325TMC3    H1 4939   2.030   3.562  14.410  0.1839  0.4374  0.4755
  325TMC3    H2 4940   1.695   3.507  14.169  0.8799  1.6604  0.5025
  325TMC3    C7 4941   1.840   3.678  14.268  0.5798 -0.1196  0.5011
  325TMC3    C8 4942   1.741   3.232  14.131 -0.2270 -0.1273 -0.6828
  325TMC3    O1 4943   1.795   3.721  14.160  0.7422 -0.3308 -0.1555
  325TMC3    O2 4944   1.796   3.124  14.113  0.6109 -0.3542  0.3051
  326MPD2     C 4945   3.268   4.055  11.535  0.3469 -0.0128  0.2468
  326MPD2    C1 4946   3.310   4.035  11.407  0.0260 -0.4282 -0.5980
  326MPD2    C2 4947   3.430   4.083  11.367 -0.2254  0.5344  0.7670
  326MPD2    C3 4948   3.520   4.136  11.458  0.5666 -0.8731  0.6962
  326MPD2    C4 4949   3.480   4.147  11.589 -0.7954 -0.4639  0.2124
  326MPD2    C5 4950   3.358   4.105  11.632 -0.2782 -0.3232 -0.8369
  326MPD2     H 4951   3.458   4.090  11.263 -1.5803  2.6806  0.5528
  326MPD2    H1 4952   3.548   4.198  11.656 -1.8044  1.3209 -0.1115
  326MPD2    H2 4953   3.165   4.031  11.560 -0.1123 -0.4307 -2.0461
  326MPD2    H3 4954   3.329   4.117  11.736  0.7291  1.0539 -0.7143
  326MPD2     N 4955   3.635   4.202  11.419  0.1596 -0.5238 -0.1389
  326MPD2    H5 4956   3.684   4.244  11.497  0.6445  1.1057 -1.3010
  326MPD2    N1 4957   3.217   3.991  11.314  0.1304 -0.3687 -0.2838
  326MPD2    H7 4958   3.118   3.987  11.339  0.5632 -1.6552  1.2484
  327TMC3    C1 4959   3.140   3.934  11.086 -0.6625  0.7543  0.4168
  327TMC3    C2 4960   3.055   4.038  11.090 -0.2546 -0.2214  0.5912
  327TMC3    C3 4961   3.016   4.102  10.971  0.2206  0.0024 -0.2993
  327TMC3    C4 4962   3.186   3.894  10.960 -0.1683  1.0738  0.0464
  327TMC3    C5 4963   3.152   3.962  10.845  0.4699 -0.4098  0.4557
  327TMC3    C6 4964   3.063   4.064  10.847 -0.4070  0.0224 -0.4625
  327TMC3     C 4965   3.246   3.944  11.186  0.1020 -1.0562  0.0968
  327TMC3     O 4966   3.352   3.903  11.142  0.3799  0.4741 -0.1232
  327TMC3     H 4967   3.017   4.075  11.184  0.1938  0.2654  0.5839
  327TMC3    H1 4968   3.247   3.805  10.961  1.3744  2.1152 -2.5797
  327TMC3    H2 4969   3.019   4.089  10.751 -0.9773 -1.5378 -0.6064
  327TMC3    C7 4970   3.271   3.992  10.765 -0.8810 -0.4589 -0.2461
  327TMC3    C8 4971   2.920   4.212  10.980 -0.8968  0.1399  0.0927
  327TMC3    O1 4972   3.266   4.049  10.658 -0.1505  0.3545  0.0882
  327TMC3    O2 4973   2.880   4.259  10.875 -0.2626 -0.7979 -1.1650
  328MPD2     C 4974   2.042   4.426  17.404 -0.0455 -0.4504  0.4335
  328MPD2    C1 4975   1.914   4.389  17.361 -0.5100  0.1879  0.3702
  328MPD2    C2 4976   1.845   4.483  17.285 -0.3168  0.0674  0.2478
  328MPD2    C3 4977   1.907   4.598  17.235  0.5772 -0.1263 -0.4480
  328MPD2    C4 4978   2.038   4.613  17.269  0.4751 -0.5978 -0.0976
  328MPD2    C5 4979   2.104   4.536  17.354  0.1578  1.2291 -0.0401
  328MPD2     H 4980   1.738   4.471  17.274 -0.4387 -0.4415  2.1118
  328MPD2    H1 4981   2.093   4.698  17.230 -1.7981 -0.0660 -2.1620
  328MPD2    H2 4982   2.094   4.365  17.477  3.5194 -1.0156 -2.5777
  328MPD2    H3 4983   2.196   4.579  17.392 -0.2646  1.7454  0.4108
  328MPD2     N 4984   1.843   4.692  17.154  0.0447  0.1246  0.1833
  328MPD2    H5 4985   1.888   0.048  17.160 -0.7535  0.4472  1.1472
  328MPD2    N1 4986   1.852   4.282  17.433  0.1538 -0.6997 -0.3728
  328MPD2    H7 4987   1.914   4.255  17.509 -0.5237 -0.2620  0.3322
  329TMC3    C1 4988   1.685   4.131  17.515 -0.5753  0.1586  0.2683
  329TMC3    C2 4989   1.549   4.125  17.513  0.2843 -0.0207  0.6147
  329TMC3    C3 4990   1.474   4.129  17.623  0.5733 -0.7564 -0.4821
  329TMC3    C4 4991   1.748   4.118  17.630  0.6424 -0.7763 -0.1106
  329TMC3    C5 4992   1.673   4.111   0.004  0.4194 -0.3717 -0.1964
  329TMC3    C6 4993   1.535   4.119   0.008 -0.0205  0.3627 -0.2004
  329TMC3     C 4994   1.730   4.224  17.410  0.2285 -0.2656 -0.5956
  329TMC3     O 4995   1.663   4.240  17.311 -0.1078  0.4113 -0.2877
  329TMC3     H 4996   1.499   4.160  17.423  1.1035 -0.0130  0.1663
  329TMC3    H1 4997   1.854   4.102  17.639  0.4865 -2.1167 -0.6589
  329TMC3    H2 4998   1.496   4.148   0.105  1.6039 -0.5840  0.7301
  329TMC3    C7 4999   1.740   4.106   0.135 -0.4429  0.4556  0.5079
  329TMC3    C8 5000   1.361   4.229  17.603 -0.2931  0.1559  0.6133
  329TMC3    O1 5001   1.860   4.138   0.135  0.5574 -0.6543 -0.0000
  329TMC3    O2 5002   1.277   4.204  17.515  0.2480  0.2967 -0.5055
  330TMC3    C1 5003   2.941   3.831   9.770 -0.8159  0.1316 -0.3671
  330TMC3    C2 5004   2.918   3.725   9.681 -0.4581 -0.1065 -0.3933
  330TMC3    C3 5005   3.021   3.641   9.648  0.4895 -0.1674  0.1786
  330TMC3    C4 5006   3.068   3.855   9.822 -0.0131 -0.1235  0.6093
  330TMC3    C5 5007   3.168   3.762   9.790 -0.0873 -0.5713  0.0509
  330TMC3    C6 5008   3.144   3.650   9.708  0.1675 -0.0329  0.1781
  330TMC3     C 5009   2.828   3.905   9.825  0.3429 -0.0273  0.5420
  330TMC3     O 5010   2.863   3.999   9.892 -0.2008 -0.4937  0.0010
  330TMC3     H 5011   2.822   3.729   9.631 -0.9620  1.7024  0.6999
  330TMC3    H1 5012   3.086   3.945   9.879  0.5408 -0.5862  1.1639
  330TMC3    H2 5013   3.233   3.593   9.687 -1.9826 -2.9591 -0.8356
  330TMC3    C7 5014   3.311   3.786   9.823 -0.2930 -0.7094  0.3246
  330TMC3    C8 5015   2.999   3.540   9.546  0.3377  0.1319  0.5940
  330TMC3    O1 5016   3.387   3.748   9.740  0.8984  0.6486  0.2470
  330TMC3    O2 5017   2.896   3.548   9.480  0.1591 -0.1486 -0.2933
  331MPD2     C 5018   1.428   2.763  12.973  0.1371  0.3174 -0.1435
  331MPD2    C1 5019   1.522   2.832  12.898  0.1080 -0.6363  0.2322
  331MPD2    C2 5020   1.613   2.755  12.828  0.6497  0.2222 -0.6060
  331MPD2    C3 5021   1.612   2.617  12.838 -0.6643  0.2043 -0.1657
  331MPD2    C4 5022   1.519   2.555  12.921 -0.0228  0.0748  0.3609
  331MPD2    C5 5023   1.422   2.628  12.985  0.3916 -0.7017 -0.3403
  331MPD2     H 5024   1.683   2.802  12.759  1.7122 -0.8926 -0.2830
  331MPD2    H1 5025   1.505   2.448  12.926 -1.4940  0.2966  0.8898
  331MPD2    H2 5026   1.357   2.815  13.036 -1.2523  1.0713 -2.3213
  331MPD2    H3 5027   1.338   2.582  13.036 -0.3611  2.1926  0.9847
  331MPD2     N 5028   1.703   2.544  12.756 -1.0422  0.3372 -0.2352
  331MPD2    H5 5029   1.757   2.595  12.686 -3.0040  0.5694 -1.5736
  331MPD2    N1 5030   1.516   2.973  12.886  0.2451  0.2610 -0.2852
  331MPD2    H7 5031   1.449   3.030  12.936 -1.1971  1.0540 -3.1217
  332TMC3    C1 5032   1.844   2.356  12.684 -0.0641  0.4813  0.2915
  332TMC3    C2 5033   1.915   2.440  12.610 -0.3950  0.1415  0.1154
  332TMC3    C3 5034   2.041   2.397  12.573 -0.4261  0.5031 -0.3530
  332TMC3    C4 5035   1.894   2.241  12.734  0.0467  0.0728  0.5315
  332TMC3    C5 5036   2.021   2.203  12.697  0.6179  0.0491 -0.8162
  332TMC3    C6 5037   2.100   2.281  12.614  0.1401  0.6272 -0.2857
  332TMC3     C 5038   1.724   2.406  12.761 -0.4298  0.5436 -0.1274
  332TMC3     O 5039   1.665   2.324  12.832  0.3552  0.3509 -0.0306
  332TMC3     H 5040   1.866   2.527  12.569 -2.1278 -0.8401  0.1049
  332TMC3    H1 5041   1.832   2.176  12.796 -1.1175  1.0728  0.4168
  332TMC3    H2 5042   2.199   2.256  12.578 -0.4775 -1.2117 -0.7271
  332TMC3    C7 5043   2.088   2.104  12.787 -0.1188  0.3442  0.2651
  332TMC3    C8 5044   2.118   2.491  12.500 -0.5826  0.6919 -0.3013
  332TMC3    O1 5045   2.021   2.011  12.825 -0.4333 -0.5456  0.2967
  332TMC3    O2 5046   2.068   2.600  12.482  0.3057 -0.0162 -0.5092
  333MPD2     C 5047   2.127   3.196  11.859  0.3984 -0.3530 -0.1964
  333MPD2    C1 5048   2.146   3.134  11.744  0.2006  0.0613  0.9849
  333MPD2    C2 5049   2.149   3.002  11.757 -0.0400 -0.1681  0.1468
  333MPD2    C3 5050   2.117   2.932  11.874  0.1126 -1.5275 -0.6969
  333MPD2    C4 5051   2.092   3.002  11.992 -0.2188 -0.0931 -0.6831
  333MPD2    C5 5052   2.104   3.136  11.982 -0.3723 -0.9268  0.1018
  333MPD2     H 5053   2.178   2.933  11.679  1.4991  0.1834  0.3981
  333MPD2    H1 5054   2.068   2.963  12.090 -1.3872  0.0315 -0.9177
  333MPD2    H2 5055   2.125   3.305  11.854 -0.9826 -0.3573  0.3579
  333MPD2    H3 5056   2.086   3.196  12.070 -1.6085 -1.3005  0.1063
  333MPD2     N 5057   2.115   2.793  11.874 -0.3347  0.2829 -0.8300
  333MPD2    H5 5058   2.135   2.749  11.784 -1.2083  1.3360 -1.5258
  333MPD2    N1 5059   2.187   3.201  11.627  0.7086 -0.1254  0.2710
  333MPD2    H7 5060   2.173   3.301  11.625  1.5340  0.0032  1.3140
  334TMC3    C1 5061   2.286   3.235  11.420  0.1905 -0.3590 -0.1348
  334TMC3    C2 5062   2.396   3.210  11.341 -0.1981  0.4279  0.3955
  334TMC3    C3 5063   2.408   3.272  11.222 -0.7017  0.8745  0.1936
  334TMC3    C4 5064   2.197   3.330  11.386 -0.1601 -0.3331  0.5297
  334TMC3    C5 5065   2.201   3.389  11.260 -0.2041  0.1413 -0.3173
  334TMC3    C6 5066   2.308   3.358  11.172  0.5899 -0.5235 -0.2264
  334TMC3     C 5067   2.253   3.144  11.521 -1.0923 -0.2535 -0.1862
  334TMC3     O 5068   2.300   3.035  11.501 -0.1628 -0.3612  0.3629
  334TMC3     H 5069   2.465   3.130  11.369 -1.2906 -0.3108  0.9778
  334TMC3    H1 5070   2.120   3.347  11.461 -1.7892 -0.0640 -1.2158
  334TMC3    H2 5071   2.313   3.400  11.073  0.2512 -0.1404 -0.0777
  334TMC3    C7 5072   2.112   3.486  11.207  0.2682 -0.0707  0.0888
  334TMC3    C8 5073   2.495   3.218  11.116 -0.2770 -0.1939 -0.0600
  334TMC3    O1 5074   2.153   3.562  11.118 -0.0494  0.2596  0.5464
  334TMC3    O2 5075   2.446   3.202  11.001 -0.2593 -0.1919 -0.0285
  335TMC3    C1 5076   2.460   4.460  17.630  0.7301 -0.0515  0.1536
  335TMC3    C2 5077   2.374   4.358  17.591  0.3713  0.0873 -0.7958
  335TMC3    C3 5078   2.440   4.247  17.551  0.0371  0.3025  0.4804
  335TMC3    C4 5079   2.600   4.441  17.639 -0.0587  0.4241 -0.2832
  335TMC3    C5 5080   2.656   4.326  17.587 -0.3949  0.4767  0.2481
  335TMC3    C6 5081   2.578   4.229  17.532  0.8403 -0.1317  0.7873
  335TMC3     C 5082   2.401   4.593  17.656  0.2604  0.3891 -0.5078
  335TMC3     O 5083   2.279   4.600  17.638 -0.0216  0.4641  0.4803
  335TMC3     H 5084   2.267   4.367  17.576  0.2834 -0.5442 -0.5595
  335TMC3    H1 5085   2.661   4.529  17.654  0.7675 -0.2293  0.2040
  335TMC3    H2 5086   2.624   4.144  17.484  2.1953  1.0225  0.0494
  335TMC3    C7 5087   2.796   4.297  17.605  0.1174  0.9907  0.1464
  335TMC3    C8 5088   2.366   4.181  17.450 -0.0259 -0.8157 -0.2786
  335TMC3    O1 5089   2.826   4.177  17.591 -0.0274  0.6227 -0.1622
  335TMC3    O2 5090   2.417   4.167  17.340 -0.4976 -0.1392  0.4287
  336MPD2     C 5091   1.919   2.179  15.951  0.1188 -0.0379 -0.4824
  336MPD2    C1 5092   1.855   2.095  15.865 -0.1575  0.6365  0.5315
  336MPD2    C2 5093   1.861   1.960  15.893 -0.4169 -0.0499  0.3683
  336MPD2    C3 5094   1.919   1.913  16.006 -0.6558  0.2179  0.4267
  336MPD2    C4 5095   1.997   1.995  16.080 -0.8456  0.5299 -0.2956
  336MPD2    C5 5096   2.000   2.125  16.049 -0.6793 -0.3699  0.4193
  336MPD2     H 5097   1.804   1.889  15.834 -3.1579 -0.4691  3.4754
  336MPD2    H1 5098   2.076   1.970  16.150 -1.8172  0.1634  0.6702
  336MPD2    H2 5099   1.916   2.287  15.944 -2.0749 -0.1846 -1.6722
  336MPD2    H3 5100   2.059   2.201  16.099 -1.4466  1.5131 -1.5413
  336MPD2     N 5101   1.915   1.775  16.031  0.0032  1.0040  0.1101
  336MPD2    H5 5102   1.949   1.743  16.122  0.7601  0.2793 -0.4297
  336MPD2    N1 5103   1.777   2.135  15.751  1.3365 -0.1982 -0.2965
  336MPD2    H7 5104   1.732   2.063  15.695 -1.2029  0.7625  0.4840
  337TMC3    C1 5105   1.687   2.261  15.592 -0.4311 -0.1764 -1.0126
  337TMC3    C2 5106   1.573   2.179  15.600 -0.4614 -0.5108 -0.4191
  337TMC3    C3 5107   1.479   2.181  15.502  0.5913  0.5172  0.0858
  337TMC3    C4 5108   1.700   2.351  15.490 -0.0828  0.7050 -0.1345
  337TMC3    C5 5109   1.599   2.361  15.399  0.0487  0.5383  0.5441
  337TMC3    C6 5110   1.492   2.277  15.403  0.9229 -0.6970  0.3900
  337TMC3     C 5111   1.771   2.260  15.701  0.3235 -0.0504  0.9425
  337TMC3     O 5112   1.824   2.359  15.748  0.2309  0.1948 -0.4493
  337TMC3     H 5113   1.547   2.125  15.690  0.5869 -0.5742 -0.1625
  337TMC3    H1 5114   1.782   2.420  15.505 -0.4620  0.8204  1.3511
  337TMC3    H2 5115   1.429   2.256  15.317 -0.7239 -0.8532  1.6372
  337TMC3    C7 5116   1.627   2.438  15.283 -0.4791 -0.2293  0.0964
  337TMC3    C8 5117   1.363   2.086  15.519  0.2169 -0.4763  0.1383
  337TMC3    O1 5118   1.748   2.456  15.257  0.0525 -0.0185 -0.1935
  337TMC3    O2 5119   1.379   2.000  15.609 -0.3337  0.0076 -0.7279
  338MPD2     C 5120   1.962   1.374   1.174 -0.3464 -0.5045 -0.4006
  338MPD2    C1 5121   1.930   1.430   1.051  0.3931 -0.5182  0.4190
  338MPD2    C2 5122   1.800   1.476   1.031  0.6739 -0.6232 -0.3341
  338MPD2    C3 5123   1.697   1.450   1.117  1.0016 -1.0335 -0.3613
  338MPD2    C4 5124   1.728   1.395   1.238  0.0404  0.6289 -0.0159
  338MPD2    C5 5125   1.856   1.362   1.267 -0.2283  0.1256 -0.6695
  338MPD2     H 5126   1.775   1.519   0.935 -0.1779  0.8216  0.5212
  338MPD2    H1 5127   1.652   1.369   1.311  0.1181 -1.2546 -0.6008
  338MPD2    H2 5128   2.063   1.346   1.202 -0.7211 -2.1723 -0.7396
  338MPD2    H3 5129   1.878   1.320   1.364 -0.6353 -0.5341 -0.8664
  338MPD2     N 5130   1.568   1.468   1.073  0.0114  0.2762 -0.7641
  338MPD2    H5 5131   1.553   1.515   0.984  1.1807  1.7283 -0.1987
  338MPD2    N1 5132   2.019   1.453   0.945  0.4853  0.5082 -0.0965
  338MPD2    H7 5133   1.989   1.485   0.854 -1.4256 -1.9217 -0.3119
  339TMC3    C1 5134   1.329   1.430   1.066  0.5585  1.1336  0.3634
  339TMC3    C2 5135   1.242   1.330   1.059  0.2476  0.0160 -0.2971
  339TMC3    C3 5136   1.119   1.359   1.002  0.4764  0.9673  0.2077
  339TMC3    C4 5137   1.313   1.555   1.012  0.4420  0.2404  0.7789
  339TMC3    C5 5138   1.184   1.578   0.959  0.1658  0.6765  0.4098
  339TMC3    C6 5139   1.087   1.489   0.964  0.2680 -0.2161 -0.3260
  339TMC3     C 5140   1.457   1.408   1.124  0.1355 -0.0137  0.1852
  339TMC3     O 5141   1.460   1.312   1.203 -0.2013 -0.3566  0.2236
  339TMC3     H 5142   1.273   1.236   1.102 -1.0657 -0.0213  0.5576
  339TMC3    H1 5143   1.387   1.634   1.016  1.4394 -0.7262  1.2748
  339TMC3    H2 5144   0.990   1.516   0.922 -0.0193 -1.3845 -0.4170
  339TMC3    C7 5145   1.164   1.710   0.912 -0.3457  0.4022 -0.0305
  339TMC3    C8 5146   1.010   1.261   0.993 -0.5847 -0.9026  0.2827
  339TMC3    O1 5147   1.270   1.755   0.874  0.0164 -0.2309 -0.0152
  339TMC3    O2 5148   0.897   1.306   0.992  0.1378 -0.1478  0.4346
  340MPD2     C 5149   1.113   2.983   9.669 -0.3002 -0.4295 -0.4457
  340MPD2    C1 5150   1.205   2.964   9.764 -0.1171 -0.3048 -0.4479
  340MPD2    C2 5151   1.222   3.075   9.853 -0.2605 -0.0030  0.1160
  340MPD2    C3 5152   1.151   3.187   9.844  0.6198  0.0184 -0.5970
  340MPD2    C4 5153   1.073   3.205   9.734 -0.0210  0.0600 -0.1195
  340MPD2    C5 5154   1.056   3.105   9.646 -0.3507 -0.3633 -0.1610
  340MPD2     H 5155   1.302   3.075   9.926  0.5457 -1.8612 -0.7813
  340MPD2    H1 5156   1.038   3.305   9.712 -1.4433  0.2291  2.9058
  340MPD2    H2 5157   1.089   2.903   9.601 -0.0530 -0.4768 -0.4781
  340MPD2    H3 5158   0.994   3.121   9.558  1.7516  0.2213 -1.5202
  340MPD2     N 5159   1.163   3.294   9.934 -0.3163 -1.0123  0.5318
  340MPD2    H5 5160   1.105   3.376   9.915  0.1502 -1.3223 -2.2386
  340MPD2    N1 5161   1.264   2.840   9.783  0.1204 -0.1769 -0.0831
  340MPD2    H7 5162   1.231   2.766   9.722 -0.2620 -2.2507  2.6293
  341TMC3    C1 5163   1.412   2.679   9.889 -0.2002 -0.1094 -0.3241
  341TMC3    C2 5164   1.335   2.578   9.847  0.4419 -0.3045  0.6813
  341TMC3    C3 5165   1.383   2.454   9.878 -0.0839 -0.9502 -0.0140
  341TMC3    C4 5166   1.541   2.658   9.938 -0.0182  0.4097 -0.4583
  341TMC3    C5 5167   1.584   2.529   9.960 -0.5316  0.1212 -0.0090
  341TMC3    C6 5168   1.503   2.423   9.932  0.7633  0.5238 -0.4094
  341TMC3     C 5169   1.367   2.811   9.872  0.9623  0.4396 -0.7540
  341TMC3     O 5170   1.416   2.883   9.959 -0.4165  0.6129  0.5040
  341TMC3     H 5171   1.231   2.590   9.818  1.0899  0.5598 -1.3092
  341TMC3    H1 5172   1.596   2.743   9.979 -0.4357  0.0755  0.7844
  341TMC3    H2 5173   1.529   2.326   9.972 -1.2700 -0.7117 -2.0839
  341TMC3    C7 5174   1.705   2.519  10.042 -0.1892 -0.0055  0.1819
  341TMC3    C8 5175   1.286   2.347   9.846  0.1705 -0.0012  0.0870
  341TMC3    O1 5176   1.744   2.617  10.113 -0.5178  0.1407  0.0831
  341TMC3    O2 5177   1.196   2.352   9.764  0.0341  0.4885 -0.4510
  342MPD2     C 5178   4.508   2.749  17.502 -0.8958  0.3763 -0.8792
  342MPD2    C1 5179   4.640   2.748  17.462 -0.1995 -0.1444  0.2423
  342MPD2    C2 5180   4.725   2.840  17.509  0.1745 -1.2732 -0.0702
  342MPD2    C3 5181   4.693   2.934  17.600  0.6317  0.1248  1.2559
  342MPD2    C4 5182   4.563   2.933  17.640  0.5344 -0.1386  0.2628
  342MPD2    C5 5183   4.474   2.841  17.592 -0.1731  0.1931 -0.2514
  342MPD2     H 5184   0.094   2.834  17.480 -0.0701  0.1369 -1.2687
  342MPD2    H1 5185   4.517   3.013  17.698  1.8472  0.8318 -0.0424
  342MPD2    H2 5186   4.431   2.693  17.451 -0.2388 -0.9244 -0.4400
  342MPD2    H3 5187   4.371   2.855  17.622 -0.0751  0.7819 -0.1885
  342MPD2     N 5188   0.053   3.021  17.659  0.1443 -0.2508 -0.0779
  342MPD2    H5 5189   0.010   3.068  17.738  0.3071 -1.0974  0.5179
  342MPD2    N1 5190   4.697   2.664  17.366  0.6715 -0.4413  0.6028
  342MPD2    H7 5191   0.051   2.688  17.325  0.4671 -0.7188 -0.0069
  343TMC3    C1 5192   0.001   2.472  17.229 -0.3474  0.3021  0.6878
  343TMC3    C2 5193   0.093   2.545  17.157 -0.4701  0.5442  0.0967
  343TMC3    C3 5194   0.178   2.470  17.071  0.7051 -0.3329 -1.1174
  343TMC3    C4 5195   4.725   2.337  17.218 -0.1321  0.3333  0.3713
  343TMC3    C5 5196   0.067   2.275  17.129  0.1098 -0.1109 -0.0998
  343TMC3    C6 5197   0.158   2.337  17.053 -0.2674 -0.8081  0.6527
  343TMC3     C 5198   4.655   2.537  17.338  0.1749 -0.6007 -0.1791
  343TMC3     O 5199   4.556   2.477  17.376 -0.4955 -0.3519  0.2568
  343TMC3     H 5200   0.115   2.649  17.174 -0.9006  0.8686 -1.4078
  343TMC3    H1 5201   4.643   2.292  17.272 -0.1179  0.3113  0.3743
  343TMC3    H2 5202   0.222   2.270  16.998  0.6754 -0.2892  1.1254
  343TMC3    C7 5203   0.057   2.129  17.132  0.4247  0.5265  0.9115
  343TMC3    C8 5204   0.296   2.538  17.029  0.1368  0.3379 -0.0240
  343TMC3    O1 5205   0.103   2.075  17.033  0.6473 -0.3899 -0.0238
  343TMC3    O2 5206   0.284   2.655  17.051 -0.2692  0.2526 -0.6442
  344MPD2     C 5207   0.341   1.839  10.741  0.4641  0.0062 -0.0639
  344MPD2    C1 5208   0.466   1.828  10.774  0.7388 -0.6890 -0.1952
  344MPD2    C2 5209   0.559   1.928  10.755  0.6389  1.1010 -0.1931
  344MPD2    C3 5210   0.519   2.041  10.688 -0.4628  0.4467 -0.1778
  344MPD2    C4 5211   0.393   2.049  10.644 -0.4039 -0.8139  0.1866
  344MPD2    C5 5212   0.303   1.952  10.671 -0.7431  1.1107  0.6195
  344MPD2     H 5213   0.663   1.917  10.783 -0.0304  0.5975  2.0346
  344MPD2    H1 5214   0.368   2.134  10.582 -0.1943 -0.4724  0.5712
  344MPD2    H2 5215   0.266   1.764  10.764 -0.3306  0.6496 -0.5567
  344MPD2    H3 5216   0.201   1.966  10.639  0.1835  0.5875 -2.5193
  344MPD2     N 5217   0.609   2.147  10.668  0.0795  0.2468 -0.0467
  344MPD2    H5 5218   0.567   2.226  10.620  2.0658  0.2051 -1.8894
  344MPD2    N1 5219   0.495   1.714  10.850  0.1820 -0.8453 -0.4436
  344MPD2    H7 5220   0.416   1.652  10.864 -0.8962  0.7920  0.8572
  345TMC3    C1 5221   0.782   2.292  10.711  0.0207 -0.1899 -0.1422
  345TMC3    C2 5222   0.878   2.328  10.802 -0.2602 -0.2976  0.0139
  345TMC3    C3 5223   0.951   2.439  10.773  0.5372 -0.0799  0.0044
  345TMC3    C4 5224   0.747   2.369  10.607  0.7215 -0.5051  0.6620
  345TMC3    C5 5225   0.815   2.482  10.586  0.0782  0.2118 -0.3242
  345TMC3    C6 5226   0.921   2.511  10.659 -0.7210 -0.0887 -0.2853
  345TMC3     C 5227   0.734   2.154  10.716 -0.5737 -0.1627 -0.1513
  345TMC3     O 5228   0.814   2.076  10.763 -0.3150  0.0585 -0.7271
  345TMC3     H 5229   0.877   2.265  10.890  0.0368 -1.1917 -0.6200
  345TMC3    H1 5230   0.663   2.340  10.544  1.5244  1.1691 -1.1792
  345TMC3    H2 5231   0.981   2.600  10.640  1.9775 -2.4273 -2.6905
  345TMC3    C7 5232   0.769   2.586  10.501  0.1095 -0.6829  0.0641
  345TMC3    C8 5233   0.973   2.530  10.885  0.2972 -0.4416  0.4598
  345TMC3    O1 5234   0.823   2.694  10.519  0.6674  0.2341 -0.6264
  345TMC3    O2 5235   0.994   2.648  10.860 -0.6783  0.0252  0.2883
  346MPD2     C 5236   1.131   3.677  14.770 -0.0943 -0.4425 -0.1994
  346MPD2    C1 5237   1.215   3.740  14.676  0.2343 -0.2647  0.2058
  346MPD2    C2 5238   1.317   3.817  14.731 -0.5994  0.4274  0.3402
  346MPD2    C3 5239   1.313   3.858  14.866 -0.1459 -0.0405 -0.1492
  346MPD2    C4 5240   1.227   3.792  14.956 -0.3220  0.6963 -0.5017
  346MPD2    C5 5241   1.144   3.696  14.908  0.1928 -0.3352  0.3493
  346MPD2     H 5242   1.392   3.866  14.670 -0.9557  0.4152 -0.1101
  346MPD2    H1 5243   1.234   3.793  15.065 -0.6132  0.8212 -0.4838
  346MPD2    H2 5244   1.052   3.606  14.745 -0.5015 -0.6448  1.7060
  346MPD2    H3 5245   1.075   3.644  14.973  0.2191 -0.5489  0.2049
  346MPD2     N 5246   1.411   3.944  14.913  0.1524 -0.4544  0.5361
  346MPD2    H5 5247   1.483   3.963  14.844  0.4452 -0.5103  0.8321
  346MPD2    N1 5248   1.213   3.714  14.533  0.1215 -0.1630 -0.2664
  346MPD2    H7 5249   1.286   3.751  14.473 -0.0747  0.9632  0.1837
  347TMC3    C1 5250   1.524   4.082  15.048  0.3911 -0.2796  0.6401
  347TMC3    C2 5251   1.574   4.126  14.927  0.1453 -0.3874  0.3527
  347TMC3    C3 5252   1.707   4.125  14.902 -0.4861 -0.2094  0.7088
  347TMC3    C4 5253   1.610   4.047  15.147 -0.3007 -0.4309  0.6973
  347TMC3    C5 5254   1.744   4.062  15.132 -0.3501  0.2683 -0.2721
  347TMC3    C6 5255   1.789   4.109  15.009 -0.4683 -0.5186 -0.2674
  347TMC3     C 5256   1.404   4.002  15.036  0.4170  0.5885  0.4454
  347TMC3     O 5257   1.339   3.987  15.138  0.0729 -0.1536 -0.4348
  347TMC3     H 5258   1.514   4.143  14.838  0.7833  1.7029  0.3319
  347TMC3    H1 5259   1.569   4.004  15.237 -1.1952  0.1705  0.5877
  347TMC3    H2 5260   1.897   4.099  14.997  0.0629  0.4902  3.7014
  347TMC3    C7 5261   1.828   4.000  15.229  0.0455  0.0941 -1.0481
  347TMC3    C8 5262   1.739   4.046  14.786  0.4424 -0.1184  0.1785
  347TMC3    O1 5263   1.932   4.058  15.259 -0.3396  0.2129 -0.2533
  347TMC3    O2 5264   1.677   3.936  14.780  0.1392  0.0854 -0.4085
  348MPD2     C 5265   4.462   3.364  12.483  0.3714  0.3273  0.8852
  348MPD2    C1 5266   4.369   3.303  12.410 -0.6126 -0.3517 -0.4959
  348MPD2    C2 5267   4.348   3.339  12.278  0.0236 -0.0469 -0.2514
  348MPD2    C3 5268   4.419   3.447  12.225  0.0068 -0.0002 -1.0201
  348MPD2    C4 5269   4.509   3.517  12.299  0.0354 -0.0207 -0.3226
  348MPD2    C5 5270   4.531   3.468  12.429  0.2045  0.3720 -0.3811
  348MPD2     H 5271   4.267   3.292  12.223 -0.7104  0.9939 -0.0789
  348MPD2    H1 5272   4.561   3.607  12.271 -1.7522  1.8192  2.3380
  348MPD2    H2 5273   4.498   3.335  12.581  1.2444  0.2742  0.5511
  348MPD2    H3 5274   4.607   3.515  12.489  2.2489 -1.6252 -1.4137
  348MPD2     N 5275   4.395   3.473  12.086  0.0615 -0.2724 -0.1871
  348MPD2    H5 5276   4.331   3.406  12.044  1.1415  0.7469 -3.5000
  348MPD2    N1 5277   4.286   3.192  12.453  0.2691  0.1631 -0.0656
  348MPD2    H7 5278   4.221   3.160  12.381 -1.0419 -2.5228  2.3286
  349TMC3    C1 5279   4.194   3.030  12.595  0.2241 -0.0840  0.4790
  349TMC3    C2 5280   4.228   2.912  12.656 -1.0189  0.3276 -0.2277
  349TMC3    C3 5281   4.148   2.802  12.638  0.1305  0.6585 -0.0274
  349TMC3    C4 5282   4.079   3.039  12.521 -0.2391 -0.5612  0.1461
  349TMC3    C5 5283   4.005   2.930  12.503 -0.0141  0.1420  0.5084
  349TMC3    C6 5284   4.033   2.813  12.562 -0.8509 -0.0277  0.8622
  349TMC3     C 5285   4.296   3.135  12.571  0.5705  0.2221  0.0865
  349TMC3     O 5286   4.380   3.141  12.659  0.2488  0.0523  0.3133
  349TMC3     H 5287   4.320   2.892  12.710 -0.8468  0.4400 -0.4796
  349TMC3    H1 5288   4.061   3.134  12.472 -0.2552 -0.7964 -0.3036
  349TMC3    H2 5289   3.971   2.730  12.532 -2.0803  0.5006  1.9444
  349TMC3    C7 5290   3.893   2.932  12.412  0.5501 -0.2881 -0.4308
  349TMC3    C8 5291   4.193   2.675  12.694 -0.5091 -0.7611 -0.2304
  349TMC3    O1 5292   3.793   2.865  12.448 -0.2633 -0.3262 -0.0195
  349TMC3    O2 5293   4.309   2.656  12.710  0.0601  0.7138  0.0483
  350MPD2     C 5294   2.870   1.159  10.383 -0.7326 -0.8547  0.1920
  350MPD2    C1 5295   2.850   1.129  10.517 -0.1677  0.3464  0.1757
  350MPD2    C2 5296   2.876   1.224  10.607 -0.2484 -0.9450  1.1106
  350MPD2    C3 5297   2.938   1.343  10.574 -0.8964 -0.1842 -0.3237
  350MPD2    C4 5298   2.964   1.373  10.446 -0.1580 -0.1216 -0.3178
  350MPD2    C5 5299   2.931   1.278  10.350  0.0362 -0.6132 -0.3197
  350MPD2     H 5300   2.845   1.211  10.710 -0.3903 -0.8092  1.0853
  350MPD2    H1 5301   2.996   1.471  10.414  0.7325 -0.3932 -0.2768
  350MPD2    H2 5302   2.854   1.090  10.301 -2.0294 -0.1288 -0.1611
  350MPD2    H3 5303   2.947   1.314  10.249 -0.5474 -1.6157 -0.7672
  350MPD2     N 5304   2.959   1.432  10.683  0.4093  0.4672  0.4359
  350MPD2    H5 5305   2.960   1.387  10.774 -0.8089  1.9380  1.1829
  350MPD2    N1 5306   2.798   1.007  10.557 -0.0845 -0.1190 -0.1388
  350MPD2    H7 5307   2.781   1.001  10.657 -1.0147  2.8445 -0.1148
  351TMC3    C1 5308   2.742   0.779  10.568 -0.6743 -0.1004  0.5085
  351TMC3    C2 5309   2.747   0.799  10.705 -0.0987 -0.0628 -0.3139
  351TMC3    C3 5310   2.723   0.690  10.784  0.1337  0.0752 -1.4141
  351TMC3    C4 5311   2.679   0.668  10.519 -0.7807 -0.2057 -0.2087
  351TMC3    C5 5312   2.639   0.568  10.613 -0.5764 -0.4379 -0.6097
  351TMC3    C6 5313   2.670   0.566  10.746 -0.7432  0.6517  0.4707
  351TMC3     C 5314   2.775   0.896  10.485  0.9223  0.6871  1.1916
  351TMC3     O 5315   2.794   0.878  10.367  0.1555 -0.3267  0.0432
  351TMC3     H 5316   2.803   0.879  10.750  0.1986 -0.7505  0.5437
  351TMC3    H1 5317   2.669   0.652  10.412  0.6718  1.3440 -0.5755
  351TMC3    H2 5318   2.625   0.496  10.816 -0.5019 -2.3298 -2.3862
  351TMC3    C7 5319   2.587   0.444  10.551 -0.1213 -0.6557 -1.1755
  351TMC3    C8 5320   2.809   0.683  10.904  0.3139 -0.6535 -0.2572
  351TMC3    O1 5321   2.552   0.449  10.432 -0.1307 -0.7115  0.2566
  351TMC3    O2 5322   2.902   0.761  10.904  0.1514  0.4119  0.1566
  352MPD2     C 5323   2.913   3.448   0.970  0.1438  0.3646  1.0513
  352MPD2    C1 5324   2.807   3.392   1.031  0.3571 -0.0751 -0.1828
  352MPD2    C2 5325   2.823   3.267   1.084 -0.1035 -0.2066 -1.1252
  352MPD2    C3 5326   2.946   3.201   1.078  0.1345  0.1547 -0.3835
  352MPD2    C4 5327   3.058   3.268   1.025 -0.0992 -0.0463  0.1773
  352MPD2    C5 5328   3.037   3.393   0.971 -0.1837  0.2148  0.0590
  352MPD2     H 5329   2.736   3.218   1.127  1.2258 -2.7132 -1.2899
  352MPD2    H1 5330   3.157   3.224   1.021  0.6063  1.3049  3.0615
  352MPD2    H2 5331   2.904   3.541   0.914  1.0924 -0.0882  0.1590
  352MPD2    H3 5332   3.121   3.454   0.937 -1.7118  2.6611  0.6505
  352MPD2     N 5333   2.962   3.072   1.130  0.3987  0.0180 -0.3212
  352MPD2    H5 5334   3.040   3.022   1.090  0.7068  1.5243 -1.5883
  352MPD2    N1 5335   2.692   3.476   1.038  0.4561  0.2802 -0.7035
  352MPD2    H7 5336   2.691   3.559   0.980 -0.2267 -0.2115 -1.3944
  353TMC3    C1 5337   2.867   2.868   1.162 -0.4141 -0.7700  0.0373
  353TMC3    C2 5338   2.974   2.798   1.115  0.6860 -0.1705 -0.5780
  353TMC3    C3 5339   2.947   2.679   1.053 -0.4495 -0.0534 -0.7172
  353TMC3    C4 5340   2.740   2.812   1.153 -0.0491  0.1618  0.1195
  353TMC3    C5 5341   2.717   2.696   1.083 -0.0159 -0.4477 -0.5482
  353TMC3    C6 5342   2.821   2.618   1.039 -0.2460 -0.3974 -0.0705
  353TMC3     C 5343   2.874   3.000   1.210  0.4092  0.6307  0.4879
  353TMC3     O 5344   2.789   3.039   1.290  0.0143  0.3322  0.2317
  353TMC3     H 5345   3.076   2.833   1.123  1.4486 -2.1879 -1.6145
  353TMC3    H1 5346   2.653   2.867   1.187  0.1318  0.1078  0.6630
  353TMC3    H2 5347   2.816   2.536   0.967  0.8381 -0.4084 -0.1333
  353TMC3    C7 5348   2.592   2.655   1.030  0.1865  0.0544  0.2772
  353TMC3    C8 5349   3.059   2.587   1.045  0.1814 -0.2184 -0.4600
  353TMC3    O1 5350   2.579   2.545   0.979  0.4167  0.5579  0.2144
  353TMC3    O2 5351   3.172   2.640   1.035 -0.3063  0.7762 -0.0265
  354TMC3    C1 5352   3.839   4.061  13.756  0.2098  0.2352  0.3424
  354TMC3    C2 5353   3.751   4.125  13.668  0.3364 -0.7105 -0.1083
  354TMC3    C3 5354   3.798   4.167  13.549 -0.5035  0.2276 -0.3103
  354TMC3    C4 5355   3.962   4.020  13.707  0.4568 -0.2059  0.5586
  354TMC3    C5 5356   3.993   4.048  13.577  0.5596 -0.1689 -0.2527
  354TMC3    C6 5357   3.917   4.125  13.502 -0.2254 -0.2565 -0.1720
  354TMC3     C 5358   3.784   3.992  13.869  0.1630 -0.4564  0.0454
  354TMC3     O 5359   3.672   3.952  13.850  0.6679  0.3018  0.1095
  354TMC3     H 5360   3.648   4.147  13.694  0.5777 -0.2406  0.4314
  354TMC3    H1 5361   4.025   3.949  13.759  0.0182  0.6234  2.2090
  354TMC3    H2 5362   3.933   4.134  13.395  1.2110  0.9146  0.1367
  354TMC3    C7 5363   4.133   4.031  13.539  0.4227  0.2434 -0.1141
  354TMC3    C8 5364   3.755   4.293  13.488 -0.3906 -0.4362  0.3261
  354TMC3    O1 5365   4.190   3.932  13.588 -0.0033  0.4623 -0.4722
  354TMC3    O2 5366   3.772   4.303  13.367 -0.0028 -0.1463  0.3363
  355MPD2     C 5367   3.668   0.501  12.347  0.5142 -0.3140 -0.9821
  355MPD2    C1 5368   3.747   0.501  12.230 -0.0837 -0.1891  0.1131
  355MPD2    C2 5369   3.880   0.456  12.245  0.0380 -0.7516 -0.7245
  355MPD2    C3 5370   3.935   0.415  12.365  0.2441  0.0066  0.6545
  355MPD2    C4 5371   3.854   0.420  12.474 -0.6856 -0.1542  0.9267
  355MPD2    C5 5372   3.721   0.452  12.465 -0.9436 -0.1298  0.3044
  355MPD2     H 5373   3.946   0.463  12.160  1.2084  0.5542  0.2941
  355MPD2    H1 5374   3.886   0.406  12.576  2.2083 -0.5186 -0.0488
  355MPD2    H2 5375   3.561   0.515  12.351  0.5014 -0.8993  0.5144
  355MPD2    H3 5376   3.655   0.435  12.550 -0.9948 -3.4316 -0.4173
  355MPD2     N 5377   4.072   0.388  12.392 -0.1085 -0.5072 -0.1868
  355MPD2    H5 5378   4.092   0.401  12.491 -0.2716 -0.4040 -0.1673
  355MPD2    N1 5379   3.690   0.547  12.108 -0.1401  0.0388  0.6279
  355MPD2    H7 5380   3.598   0.589  12.110 -0.5024 -0.6572 -2.2491
  356TMC3    C1 5381   4.300   0.433  12.364 -0.1897  0.0610  0.5367
  356TMC3    C2 5382   4.406   0.423  12.278  0.8155  0.3427 -0.2498
  356TMC3    C3 5383   4.504   0.513  12.298  0.1762  0.4603 -0.0927
  356TMC3    C4 5384   4.302   0.520  12.475  0.4273 -0.2234  0.5933
  356TMC3    C5 5385   4.407   0.600  12.487  0.8184 -0.4890 -0.4544
  356TMC3    C6 5386   4.516   0.594  12.402 -0.1688 -0.5975 -0.5959
  356TMC3     C 5387   4.174   0.405  12.302 -0.7707 -0.1815 -0.4417
  356TMC3     O 5388   4.170   0.395  12.177  0.2815 -0.1148  0.2715
  356TMC3     H 5389   4.395   0.362  12.190  1.0922 -0.3893  0.2285
  356TMC3    H1 5390   4.223   0.529  12.549  2.1319 -2.6424  2.7363
  356TMC3    H2 5391   4.610   0.644  12.421 -1.1580  0.8839  0.4372
  356TMC3    C7 5392   4.412   0.654  12.620 -0.5260  0.6730  0.1311
  356TMC3    C8 5393   4.550   0.562  12.169 -1.0846 -0.2308  0.1574
  356TMC3    O1 5394   4.361   0.591  12.710  0.6814 -0.5801 -0.6182
  356TMC3    O2 5395   4.550   0.480  12.077  0.7317 -0.1378 -0.6681
  357MPD2     C 5396   3.330   0.265   0.771 -0.3570 -0.2378 -0.0063
  357MPD2    C1 5397   3.392   0.177   0.850  0.1207 -0.2533 -0.4207
  357MPD2    C2 5398   3.322   0.125   0.953  0.2938 -0.8033 -0.6630
  357MPD2    C3 5399   3.185   0.144   0.970 -0.0972 -0.0953 -0.2451
  357MPD2    C4 5400   3.127   0.233   0.888  0.8299 -0.1270 -0.1121
  357MPD2    C5 5401   3.198   0.291   0.791 -0.3918  0.2639 -0.5427
  357MPD2     H 5402   3.371   0.047   1.010 -1.2007 -1.2155  0.0533
  357MPD2    H1 5403   3.019   0.246   0.882  0.6559 -1.6394 -0.2126
  357MPD2    H2 5404   3.386   0.314   0.692  1.7135 -1.0897  0.9248
  357MPD2    H3 5405   3.150   0.353   0.717  0.1748  0.1072 -1.0415
  357MPD2     N 5406   3.110   0.077   1.070  0.8795  0.6073  0.3694
  357MPD2    H5 5407   3.014   0.110   1.079  1.5355  1.8100  2.6178
  357MPD2    N1 5408   3.528   0.148   0.836 -0.5311 -0.0624 -0.0028
  357MPD2    H7 5409   3.576   0.173   0.749  1.2216  0.2159  1.0383
  358TMC3    C1 5410   3.716   0.011   0.864  0.0256 -0.1245  0.3079
  358TMC3    C2 5411   3.688   4.687   0.742  0.8437  0.0461 -0.8845
  358TMC3    C3 5412   3.749   4.569   0.701 -0.2022  0.2049 -0.0926
  358TMC3    C4 5413   3.807   4.695   0.948 -0.2178 -0.3380  0.2763
  358TMC3    C5 5414   3.867   4.576   0.910 -0.2212  0.1357  0.4907
  358TMC3    C6 5415   3.836   4.511   0.792  0.0735 -0.3906 -0.0412
  358TMC3     C 5416   3.607   0.081   0.927  0.3606  0.5891 -0.3163
  358TMC3     O 5417   3.591   0.074   1.048 -0.1094 -0.4513  0.1393
  358TMC3     H 5418   3.607   4.720   0.678  0.8276  2.2299  0.2991
  358TMC3    H1 5419   3.805   4.729   1.050 -1.0061  2.0024 -0.5264
  358TMC3    H2 5420   3.899   4.430   0.756  2.6206  2.1149 -1.1712
  358TMC3    C7 5421   3.963   4.511   0.996  0.1461  0.4321 -0.0343
  358TMC3    C8 5422   3.698   4.502   0.589 -0.3404 -0.1032 -0.8575
  358TMC3    O1 5423   3.965   4.390   1.003  0.4527  0.5261  0.3273
  358TMC3    O2 5424   3.663   4.568   0.492  1.0413  0.5219  0.7535
  359MPD2     C 5425   3.415   4.175  12.664 -0.1323 -0.0512  0.1653
  359MPD2    C1 5426   3.417   4.067  12.576  0.2119  0.3607  0.0011
  359MPD2    C2 5427   3.302   3.995  12.563 -0.4307  0.0378 -0.3149
  359MPD2    C3 5428   3.184   4.033  12.620 -1.3090 -0.2979 -0.0384
  359MPD2    C4 5429   3.184   4.149  12.700  0.1703  0.4690  0.3283
  359MPD2    C5 5430   3.299   4.216  12.731  0.7691 -0.0598 -0.2829
  359MPD2     H 5431   3.306   3.903  12.507  0.9925 -0.0062 -0.1256
  359MPD2    H1 5432   3.091   4.185  12.741  0.6618  0.5432  1.3736
  359MPD2    H2 5433   3.501   4.240  12.679 -0.8289  1.4057 -2.1780
  359MPD2    H3 5434   3.286   4.310  12.783  1.0393 -0.0728 -0.1949
  359MPD2     N 5435   3.063   3.967  12.617 -0.4653  0.0804 -0.0522
  359MPD2    H5 5436   2.990   4.008  12.674  0.9510  1.6388  0.6125
  359MPD2    N1 5437   3.531   4.019  12.503  0.9077 -0.0673 -0.5503
  359MPD2    H7 5438   3.535   3.931  12.452  0.8015  0.3360 -1.2425
  360TMC3    C1 5439   3.757   4.025  12.437  0.3080  0.0410  0.3891
  360TMC3    C2 5440   3.889   4.030  12.483 -0.0094  0.2019  0.4501
  360TMC3    C3 5441   3.985   4.011  12.399  0.6087 -0.1181  0.4374
  360TMC3    C4 5442   3.729   3.995  12.310 -0.4738  0.0950  0.6751
  360TMC3    C5 5443   3.833   3.968  12.223 -0.0522 -0.2604 -0.0285
  360TMC3    C6 5444   3.963   3.971  12.273  0.6636  0.4010 -0.1302
  360TMC3     C 5445   3.653   4.078  12.524 -0.0419 -0.1210  0.9985
  360TMC3     O 5446   3.693   4.160  12.608 -0.7321  0.1767 -0.4710
  360TMC3     H 5447   3.910   4.066  12.583  0.5950  0.9867  0.0362
  360TMC3    H1 5448   3.629   4.001  12.268 -0.0080 -3.0036 -0.9224
  360TMC3    H2 5449   4.042   3.944  12.204  1.6621  0.7528  0.8865
  360TMC3    C7 5450   3.811   3.921  12.091 -0.1551  0.3289  0.3101
  360TMC3    C8 5451   4.117   3.991  12.450  0.7834  0.6557 -0.6799
  360TMC3    O1 5452   3.907   3.907  12.019  0.0081  0.2388 -0.0689
  360TMC3    O2 5453   4.122   4.002  12.573 -0.0428 -0.3402  0.1094
  361MPD2     C 5454   1.304   3.502  17.444  0.1026  0.3277 -0.1490
  361MPD2    C1 5455   1.282   3.433  17.329  0.0208  0.0104 -0.2471
  361MPD2    C2 5456   1.328   3.298  17.324  0.1327 -0.2511  1.0626
  361MPD2    C3 5457   1.383   3.243  17.436  0.4007  0.1675 -0.3872
  361MPD2    C4 5458   1.416   3.321  17.554  0.0074  0.5424 -0.3670
  361MPD2    C5 5459   1.374   3.449  17.550 -0.5209 -0.1073  0.2589
  361MPD2     H 5460   1.313   3.236  17.236  1.4322  0.2680  0.4709
  361MPD2    H1 5461   1.473   3.287  17.639  1.7210  1.1399 -1.2793
  361MPD2    H2 5462   1.274   3.605  17.459  0.2536  0.4162 -0.4453
  361MPD2    H3 5463   1.394   3.502  17.643 -3.9254  1.4349  0.0844
  361MPD2     N 5464   1.426   3.109  17.447  0.1867 -1.1681 -0.0966
  361MPD2    H5 5465   1.501   3.089  17.513  1.2687  0.9171 -0.7191
  361MPD2    N1 5466   1.188   3.473  17.224  0.3103 -0.8201 -0.6387
  361MPD2    H7 5467   1.167   3.410  17.148  1.4709 -0.9521 -0.8420
  362TMC3    C1 5468   1.003   3.543  17.131  0.6309 -0.2990 -0.5858
  362TMC3    C2 5469   0.878   3.508  17.165 -0.7252  0.3573 -0.6655
  362TMC3    C3 5470   0.783   3.504  17.067  0.3107  0.6866  0.5498
  362TMC3    C4 5471   1.042   3.561  17.005 -0.1765 -0.7909 -0.2806
  362TMC3    C5 5472   0.955   3.546  16.904 -1.0340 -0.2014 -0.0697
  362TMC3    C6 5473   0.821   3.531  16.935  0.1484  0.1574 -0.3740
  362TMC3     C 5474   1.100   3.574  17.231 -0.0553 -0.7991 -0.2230
  362TMC3     O 5475   1.072   3.651  17.324 -0.3122 -0.2985 -0.2418
  362TMC3     H 5476   0.851   3.484  17.268 -1.5578 -2.4068 -1.5197
  362TMC3    H1 5477   1.143   3.594  16.980 -0.0211 -1.4289 -0.5087
  362TMC3    H2 5478   0.742   3.519  16.862 -0.2562 -0.1528  0.1249
  362TMC3    C7 5479   0.983   3.612  16.776 -0.3849  0.8503  0.2504
  362TMC3    C8 5480   0.657   3.446  17.099 -0.6410 -0.3481 -0.3880
  362TMC3    O1 5481   0.889   3.647  16.704 -0.4886 -0.0194 -0.1699
  362TMC3    O2 5482   0.614   3.359  17.024  0.2779 -0.0070  0.0204
  363TMC3    C1 5483   4.144   0.738  10.376  0.1288  0.6557 -0.0727
  363TMC3    C2 5484   4.047   0.648  10.413 -0.6184  0.1062 -0.1186
  363TMC3    C3 5485   3.942   0.695  10.493 -0.5538  0.2042 -1.3128
  363TMC3    C4 5486   4.134   0.870  10.406 -0.1279 -0.8197  0.0711
  363TMC3    C5 5487   4.032   0.913  10.483 -0.1556 -0.4385 -0.3131
  363TMC3    C6 5488   3.935   0.828  10.531  0.5477 -0.2036 -0.0295
  363TMC3     C 5489   4.239   0.697  10.273 -0.1054 -0.3744  0.0041
  363TMC3     O 5490   4.201   0.598  10.209  0.2358 -0.1093 -0.0370
  363TMC3     H 5491   4.067   0.542  10.402  3.4114  0.7749  0.8276
  363TMC3    H1 5492   4.197   0.942  10.355  0.7240 -1.5909  0.0358
  363TMC3    H2 5493   3.863   0.868  10.602  1.3713 -0.1739  0.8020
  363TMC3    C7 5494   4.005   1.054  10.487 -0.4383 -0.1978 -0.7286
  363TMC3    C8 5495   3.864   0.606  10.573 -0.5003 -0.3039  0.6182
  363TMC3    O1 5496   4.016   1.103  10.373  0.1580 -0.0796  0.5427
  363TMC3    O2 5497   3.797   0.648  10.663  0.0722  0.0185  0.2752
  364MPD2     C 5498   2.617   4.537  11.263  0.1426 -0.0916 -0.2758
  364MPD2    C1 5499   2.608   4.503  11.127 -0.2505  0.8379 -0.4976
  364MPD2    C2 5500   2.703   4.420  11.072  0.1057  0.1066  0.4639
  364MPD2    C3 5501   2.806   4.365  11.152  0.0009  0.3646  0.0125
  364MPD2    C4 5502   2.812   4.400  11.285  0.4986  0.7440 -0.3690
  364MPD2    C5 5503   2.718   4.489  11.340 -0.0165 -0.4177  0.5072
  364MPD2     H 5504   2.687   4.394  10.968 -1.8694  2.2244  0.2415
  364MPD2    H1 5505   2.891   4.371  11.353  1.3681  3.4693 -0.2346
  364MPD2    H2 5506   2.544   4.600  11.313 -1.0512 -0.3256 -1.6881
  364MPD2    H3 5507   2.732   4.515  11.444 -0.4754  0.4034  0.3569
  364MPD2     N 5508   2.903   4.265  11.113 -1.2097  0.0187  0.0193
  364MPD2    H5 5509   2.979   4.251  11.178 -2.0958  0.8887  1.2463
  364MPD2    N1 5510   2.509   4.557  11.040 -0.2749  0.7401  0.0612
  364MPD2    H7 5511   2.505   4.518  10.946  1.6317 -0.6685  0.5782
  365TMC3    C1 5512   2.394   0.001  10.949 -0.3676 -0.7382 -0.4376
  365TMC3    C2 5513   2.361   4.670  10.842 -0.5572 -0.5743  0.5291
  365TMC3    C3 5514   2.316   0.008  10.739  0.6551 -0.2476 -0.4034
  365TMC3    C4 5515   2.409   0.139  10.953 -0.3615  0.7385 -0.2918
  365TMC3    C5 5516   2.367   0.213  10.842  0.1795  0.0309 -0.1865
  365TMC3    C6 5517   2.319   0.148  10.737 -1.1309 -0.6459  0.5172
  365TMC3     C 5518   2.441   4.675  11.068  0.1760 -0.9507 -0.4746
  365TMC3     O 5519   2.463   0.011  11.167 -0.4142 -0.4205  0.7977
  365TMC3     H 5520   2.340   4.564  10.843 -0.0076 -0.6793  1.5126
  365TMC3    H1 5521   2.471   0.183  11.029 -1.9456 -3.3135  3.3820
  365TMC3    H2 5522   2.293   0.203  10.648 -0.1866 -2.2310 -0.7464
  365TMC3    C7 5523   2.368   0.356  10.848 -0.1616 -0.2883  0.1157
  365TMC3    C8 5524   2.248   4.688  10.621 -0.3083 -0.1036 -0.5642
  365TMC3    O1 5525   2.345   0.427  10.750 -0.2400  0.3845  0.3286
  365TMC3    O2 5526   2.184   0.029  10.554  0.9115  0.2596 -0.2082
  366MPD2     C 5527   1.305   1.116  15.494  0.0830  0.1649 -0.4242
  366MPD2    C1 5528   1.401   1.184  15.425  0.3847  0.0528 -0.3412
  366MPD2    C2 5529   1.518   1.118  15.397 -0.6989  0.2774 -0.2496
  366MPD2    C3 5530   1.544   0.989  15.437  0.0279  1.4287  0.1673
  366MPD2    C4 5531   1.441   0.928  15.507  0.3008 -0.0631  0.4750
  366MPD2    C5 5532   1.326   0.992  15.535 -0.0131 -0.4118  0.7354
  366MPD2     H 5533   1.604   1.164  15.350  0.5754 -1.4948  0.3364
  366MPD2    H1 5534   1.443   0.829  15.549 -0.8587 -0.6683 -0.8912
  366MPD2    H2 5535   1.209   1.162  15.514  0.2896  0.7676 -0.7910
  366MPD2    H3 5536   1.254   0.947  15.602  0.5577 -2.3386  0.0749
  366MPD2     N 5537   1.655   0.925  15.391  0.2062  0.5097 -0.1484
  366MPD2    H5 5538   1.698   0.974  15.313  0.4833  1.3281  0.5194
  366MPD2    N1 5539   1.389   1.321  15.392 -0.3698  0.1805 -0.4791
  366MPD2    H7 5540   1.475   1.363  15.357 -0.3792  0.2349 -0.4364
  367TMC3    C1 5541   1.310   1.541  15.400  1.0064  0.1331  0.1293
  367TMC3    C2 5542   1.429   1.589  15.439 -0.1562 -0.5991  0.3101
  367TMC3    C3 5543   1.467   1.706  15.380  0.3344  0.3002 -0.0747
  367TMC3    C4 5544   1.232   1.606  15.304  0.8977  0.8204 -0.5539
  367TMC3    C5 5545   1.285   1.715  15.246  0.5178  0.0745  0.6483
  367TMC3    C6 5546   1.402   1.771  15.282  0.4344 -0.9400 -0.4316
  367TMC3     C 5547   1.282   1.401  15.423  0.6148  0.2102  0.0198
  367TMC3     O 5548   1.167   1.373  15.446 -0.2010 -0.3571 -0.7429
  367TMC3     H 5549   1.483   1.543  15.522 -0.8979 -1.9828  0.0198
  367TMC3    H1 5550   1.138   1.561  15.274  2.0130 -0.8452 -1.5635
  367TMC3    H2 5551   1.431   1.862  15.230  1.3690 -0.6112  0.6686
  367TMC3    C7 5552   1.199   1.782  15.150  0.5190 -0.1630  0.0081
  367TMC3    C8 5553   1.574   1.775  15.450  0.5374  0.2611 -0.7755
  367TMC3    O1 5554   1.200   1.903  15.146  0.0873 -0.3806 -0.9278
  367TMC3    O2 5555   1.593   1.739  15.564  0.5315 -0.0028 -0.2903
  368MPD2     C 5556   2.905   3.126  13.582 -0.2275 -0.3729 -0.4363
  368MPD2    C1 5557   2.936   3.220  13.479  0.8740  1.0197  0.1759
  368MPD2    C2 5558   3.071   3.239  13.441 -0.0358  0.1963  0.3367
  368MPD2    C3 5559   3.174   3.175  13.499  0.2932  0.5937 -0.2771
  368MPD2    C4 5560   3.144   3.079  13.598  0.6342 -0.1538 -0.0218
  368MPD2    C5 5561   3.013   3.062  13.636 -0.4638 -0.4474 -0.1330
  368MPD2     H 5562   3.095   3.299  13.354 -0.6746 -0.9549 -0.6411
  368MPD2    H1 5563   3.220   3.015  13.641  1.5025  0.9205  0.0697
  368MPD2    H2 5564   2.804   3.113  13.619  0.0317  0.8298  0.7004
  368MPD2    H3 5565   2.982   3.002  13.722 -1.0814 -0.6380 -0.4881
  368MPD2     N 5566   3.309   3.187  13.462 -0.3053 -0.4474 -0.5326
  368MPD2    H5 5567   3.374   3.119  13.500  1.1887  2.2794  1.8576
  368MPD2    N1 5568   2.829   3.293  13.421 -0.2135 -0.3107  0.0165
  368MPD2    H7 5569   2.745   3.258  13.465 -0.1130  0.5296  0.8707
  369TMC3    C1 5570   2.717   3.436  13.265 -0.2127 -0.9925  0.8325
  369TMC3    C2 5571   2.715   3.557  13.194 -0.6138  0.1246 -0.0109
  369TMC3    C3 5572   2.594   3.585  13.133 -0.3311 -0.0789  0.8411
  369TMC3    C4 5573   2.606   3.353  13.276  0.6358  0.7184 -0.6966
  369TMC3    C5 5574   2.489   3.399  13.221 -0.4703 -0.2599  0.1975
  369TMC3    C6 5575   2.482   3.512  13.142  0.2939 -0.6509  0.0707
  369TMC3     C 5576   2.849   3.394  13.323  0.0141 -0.8551  0.3548
  369TMC3     O 5577   2.950   3.444  13.273 -0.0360 -0.0300 -0.0853
  369TMC3     H 5578   2.805   3.615  13.173 -0.9884  0.8375  0.3388
  369TMC3    H1 5579   2.615   3.260  13.330  1.0334  1.3073  0.2660
  369TMC3    H2 5580   2.391   3.561  13.109  0.5859 -0.2048 -0.0690
  369TMC3    C7 5581   2.389   3.300  13.238  0.0764 -0.7477 -0.1260
  369TMC3    C8 5582   2.579   3.712  13.064  0.0032 -0.2406 -0.3968
  369TMC3    O1 5583   2.394   3.219  13.330 -0.1549 -0.3234 -0.4525
  369TMC3    O2 5584   2.470   3.731  13.008 -0.5398 -0.4880  0.1239
  370TMC3    C1 5585   2.184   3.888  16.288  0.4740  0.2108  0.3576
  370TMC3    C2 5586   2.075   3.843  16.355 -0.2226 -0.3191 -0.3983
  370TMC3    C3 5587   2.012   3.723  16.331 -0.3286 -0.2063  0.0149
  370TMC3    C4 5588   2.236   3.818  16.185 -0.0956  0.0494  0.1065
  370TMC3    C5 5589   2.176   3.693  16.164  0.1837 -0.1659  0.5637
  370TMC3    C6 5590   2.071   3.640  16.235  0.5563 -0.0467 -0.8405
  370TMC3     C 5591   2.285   3.949  16.374  0.3208 -0.3430  0.0061
  370TMC3     O 5592   2.247   3.973  16.488 -0.7198 -0.0974 -0.3674
  370TMC3     H 5593   2.024   3.912  16.421  1.8182  1.5482 -0.7454
  370TMC3    H1 5594   2.316   3.854  16.122 -0.8685  0.9527 -0.3645
  370TMC3    H2 5595   2.019   3.548  16.209  0.9458 -0.3402 -0.5911
  370TMC3    C7 5596   2.205   3.639  16.029 -0.6791  0.0661  0.1525
  370TMC3    C8 5597   1.959   3.650  16.451  0.0508  0.2429  0.7255
  370TMC3    O1 5598   2.260   3.715  15.950  0.0652 -0.2661  0.1339
  370TMC3    O2 5599   1.938   3.528  16.446  0.0051  0.6167  0.0013
  371TMC3    C1 5600   3.232   1.723  15.791  0.0484  0.3657 -0.1865
  371TMC3    C2 5601   3.105   1.753  15.816  0.4507 -0.0753  0.0299
  371TMC3    C3 5602   3.051   1.876  15.788 -0.2996  0.0585  0.7634
  371TMC3    C4 5603   3.305   1.821  15.729  0.0260  0.7961  0.4227
  371TMC3    C5 5604   3.243   1.937  15.682  0.0820  0.0903  0.6631
  371TMC3    C6 5605   3.122   1.971  15.721 -0.4667  0.1893 -0.1651
  371TMC3     C 5606   3.311   1.622  15.862  0.3704  0.1778 -0.3245
  371TMC3     O 5607   3.421   1.658  15.909  0.0671 -0.4060  0.0274
  371TMC3     H 5608   3.048   1.687  15.881 -0.6442 -1.5504 -2.4484
  371TMC3    H1 5609   3.407   1.805  15.697 -0.0526  4.2855 -1.4910
  371TMC3    H2 5610   3.085   2.068  15.692 -0.9888 -0.2825 -1.0623
  371TMC3    C7 5611   3.315   2.037  15.601  0.1935  0.1262  0.0055
  371TMC3    C8 5612   2.909   1.901  15.824  0.1184  0.0812 -0.2006
  371TMC3    O1 5613   3.286   2.157  15.619 -0.8974  0.3589  0.0618
  371TMC3    O2 5614   2.833   1.806  15.832  0.5504  0.6050 -0.6200
  372MPD2     C 5615   2.649   3.409  13.848 -0.1167  0.0879  0.5200
  372MPD2    C1 5616   2.772   3.345  13.856 -0.7741  0.5036  0.3063
  372MPD2    C2 5617   2.788   3.215  13.903  0.3222 -0.2435  1.0307
  372MPD2    C3 5618   2.677   3.148  13.953  0.0509 -0.0954 -0.3879
  372MPD2    C4 5619   2.552   3.205  13.939  1.4054  0.2284 -0.2315
  372MPD2    C5 5620   2.539   3.333  13.890  0.8612  0.4288  1.1114
  372MPD2     H 5621   2.884   3.165  13.895  0.7104  0.9295 -1.6752
  372MPD2    H1 5622   2.463   3.156  13.978  0.9157  0.8546 -0.5570
  372MPD2    H2 5623   2.632   3.514  13.827 -1.1946 -0.2807 -0.4599
  372MPD2    H3 5624   2.443   3.381  13.900  0.5993  0.3694 -1.0811
  372MPD2     N 5625   2.701   3.019  14.003  1.0364 -0.1498 -0.2862
  372MPD2    H5 5626   2.795   2.981  14.003  1.2825  0.4587  2.8385
  372MPD2    N1 5627   2.890   3.399  13.802 -0.2288  0.2825  0.6467
  372MPD2    H7 5628   2.973   3.342  13.817  0.5102  0.7855 -1.5596
  373TMC3    C1 5629   2.636   2.803  14.097  0.0857 -0.1163  0.0174
  373TMC3    C2 5630   2.553   2.743  14.188 -0.0839 -0.5069  0.0308
  373TMC3    C3 5631   2.562   2.606  14.204 -0.0313  0.0541  0.2887
  373TMC3    C4 5632   2.728   2.737  14.029 -0.2307  1.1574  0.4533
  373TMC3    C5 5633   2.726   2.600  14.035 -0.2703  0.0027  0.5085
  373TMC3    C6 5634   2.635   2.536  14.113  0.6711 -0.1770  0.3113
  373TMC3     C 5635   2.607   2.943  14.066  0.2275  0.2679 -0.8137
  373TMC3     O 5636   2.489   2.967  14.098 -0.8562 -0.2302  0.0347
  373TMC3     H 5637   2.483   2.799  14.249 -0.8523 -0.5019 -0.8660
  373TMC3    H1 5638   2.787   2.783  13.951  0.7705 -0.3138  0.3518
  373TMC3    H2 5639   2.650   2.430  14.133 -3.7031 -0.8489  0.0422
  373TMC3    C7 5640   2.836   2.525  13.980  0.2472  0.4797 -0.0694
  373TMC3    C8 5641   2.460   2.533  14.277  0.0761 -0.6940 -0.0465
  373TMC3    O1 5642   2.951   2.562  14.005  0.0022  0.2334 -0.6127
  373TMC3    O2 5643   2.378   2.473  14.208 -0.2976  0.9561  0.2443
  374TMC3    C1 5644   2.927   3.209  10.212 -0.1333  0.2679  0.3818
  374TMC3    C2 5645   3.065   3.207  10.195 -0.4434  0.3163 -0.0717
  374TMC3    C3 5646   3.124   3.136  10.091  0.1347 -0.7500  0.6349
  374TMC3    C4 5647   2.854   3.143  10.123  0.6660  0.2758 -0.3338
  374TMC3    C5 5648   2.909   3.074  10.021  0.3516 -0.0826 -0.2047
  374TMC3    C6 5649   3.045   3.078   9.994 -0.2678  0.4665  0.3933
  374TMC3     C 5650   2.873   3.303  10.312  0.7842  0.2433 -0.8218
  374TMC3     O 5651   2.951   3.365  10.383  0.5785 -0.5634 -0.1759
  374TMC3     H 5652   3.123   3.277  10.254  1.0335 -0.1823 -0.9482
  374TMC3    H1 5653   2.751   3.115  10.140  0.6493  0.8185  0.4166
  374TMC3    H2 5654   3.083   3.019   9.912  0.5205  0.2542  0.8996
  374TMC3    C7 5655   2.841   2.993   9.924  0.3556 -0.0381  0.2200
  374TMC3    C8 5656   3.263   3.141  10.065  0.1399 -0.2798 -0.2552
  374TMC3    O1 5657   2.904   2.910   9.856 -0.2928 -0.1406 -0.4559
  374TMC3    O2 5658   3.295   3.124   9.947  0.4627  0.1946  0.3593
  375MPD2     C 5659   4.031   3.936  17.566 -0.2179  0.3474 -0.9020
  375MPD2    C1 5660   3.926   3.915  17.488  0.0962 -0.2295  0.5524
  375MPD2    C2 5661   3.948   3.897  17.351  0.5493 -0.3795 -0.0673
  375MPD2    C3 5662   4.070   3.917  17.298  0.6683  0.0226 -0.0304
  375MPD2    C4 5663   4.176   3.954  17.378  0.4402  0.3271  0.1254
  375MPD2    C5 5664   4.152   3.961  17.508 -0.3874 -0.1616  0.4260
  375MPD2     H 5665   3.871   3.860  17.284  1.0198 -1.6310  0.0875
  375MPD2    H1 5666   4.277   3.981  17.349  0.2583 -0.4850 -1.2649
  375MPD2    H2 5667   4.026   3.943  17.674  0.6687  0.2697 -0.8548
  375MPD2    H3 5668   4.227   3.986  17.582  0.7094  0.6882 -0.9686
  375MPD2     N 5669   4.107   3.902  17.159 -0.4178  0.1604 -1.0782
  375MPD2    H5 5670   4.207   3.901  17.145 -0.1885 -1.9184  0.7223
  375MPD2    N1 5671   3.793   3.885  17.536  0.3117  0.2618  0.2205
  375MPD2    H7 5672   3.725   3.877  17.461 -1.1833  1.0480  1.4897
  376TMC3    C1 5673   4.090   3.866  16.921 -0.9184  0.6367  0.2121
  376TMC3    C2 5674   4.217   3.823  16.912  0.6772  0.4414 -0.3532
  376TMC3    C3 5675   4.263   3.766  16.792  0.6229 -0.4616  0.0960
  376TMC3    C4 5676   4.003   3.853  16.812 -0.0001  0.2203 -0.2703
  376TMC3    C5 5677   4.055   3.792  16.697  0.3923 -0.1470  1.4203
  376TMC3    C6 5678   4.181   3.758  16.684 -0.5077  0.4778  0.0105
  376TMC3     C 5679   4.024   3.886  17.048 -0.3597 -0.7479 -0.1108
  376TMC3     O 5680   3.905   3.901  17.045  0.4428 -0.3984  0.0794
  376TMC3     H 5681   4.286   3.853  16.989  0.0668 -0.0057  0.3748
  376TMC3    H1 5682   3.897   3.873  16.823 -0.2362  0.2159 -2.4918
  376TMC3    H2 5683   4.228   3.729  16.590 -0.8445 -1.0803  0.3148
  376TMC3    C7 5684   3.984   3.780  16.576  0.1564 -0.0226  0.4608
  376TMC3    C8 5685   4.403   3.755  16.780  0.0210  0.4234 -0.5357
  376TMC3    O1 5686   3.932   3.879  16.530 -0.1134  0.1508 -0.2883
  376TMC3    O2 5687   4.464   3.786  16.678  0.0178  0.0669 -0.3392
  377MPD2     C 5688   1.844   3.367  13.411 -0.0480 -0.5404  0.0810
  377MPD2    C1 5689   1.738   3.408  13.329 -1.3779 -0.1654  0.0181
  377MPD2    C2 5690   1.611   3.366  13.357  0.1843  0.1424 -0.0740
  377MPD2    C3 5691   1.584   3.271  13.455 -0.3093  0.5082  0.6614
  377MPD2    C4 5692   1.695   3.208  13.509  0.3436 -0.4906 -0.7197
  377MPD2    C5 5693   1.823   3.261  13.494  0.2167 -0.0646 -0.5233
  377MPD2     H 5694   1.527   3.415  13.309  1.0035  1.5167 -0.1003
  377MPD2    H1 5695   1.668   3.124  13.573 -0.1051  0.0976 -0.1364
  377MPD2    H2 5696   1.939   3.420  13.408 -1.0645  1.3222  0.4639
  377MPD2    H3 5697   1.901   3.223  13.558  0.3385  0.8702 -0.1257
  377MPD2     N 5698   1.458   3.215  13.486  0.1530  0.1416 -0.3481
  377MPD2    H5 5699   1.454   3.125  13.533  1.8038  0.5572  0.5580
  377MPD2    N1 5700   1.771   3.497  13.227  0.4583 -0.4777 -0.3765
  377MPD2    H7 5701   1.867   3.530  13.225  0.4457 -0.3762  0.7379
  378TMC3    C1 5702   1.706   3.719  12.819 -0.3582  0.5562 -0.3681
  378TMC3    C2 5703   1.667   3.676  12.938 -0.2442 -0.6749  0.4085
  378TMC3    C3 5704   1.752   3.617  13.023 -0.4582 -0.4271 -0.4323
  378TMC3    C4 5705   1.835   3.702  12.773  0.4614  0.6904  0.2144
  378TMC3    C5 5706   1.918   3.636  12.861  0.4363  0.0448  0.0890
  378TMC3    C6 5707   1.875   3.583  12.983 -0.3343 -0.8129  0.6115
  378TMC3     C 5708   1.600   3.778  12.729 -0.6837  0.2851  0.3412
  378TMC3     O 5709   1.488   3.798  12.785  0.0189 -0.1912  0.3842
  378TMC3     H 5710   1.567   3.696  12.975 -1.5888 -1.7991 -2.6307
  378TMC3    H1 5711   1.868   3.743  12.678  3.3571  0.6500  1.2118
  378TMC3    H2 5712   1.940   3.528  13.050 -0.1986 -1.2585  0.1216
  378TMC3    C7 5713   2.056   3.606  12.827  0.9460 -0.6337 -0.0325
  378TMC3    C8 5714   1.688   3.539  13.134  0.7186  0.0027  0.4018
  378TMC3    O1 5715   2.127   3.556  12.915  0.2923  0.8797  0.2638
  378TMC3    O2 5716   1.571   3.513  13.115 -0.2960 -0.2281 -0.1265
  379MPD2     C 5717   2.614   2.012  16.164  0.3270  0.0932 -0.0958
  379MPD2    C1 5718   2.532   1.918  16.214 -0.0228 -0.2960  0.4262
  379MPD2    C2 5719   2.577   1.850  16.325 -0.3317 -0.3649  0.1957
  379MPD2    C3 5720   2.699   1.880  16.386 -0.1151 -0.5214  0.7199
  379MPD2    C4 5721   2.779   1.975  16.324  0.5267 -0.2971  0.3644
  379MPD2    C5 5722   2.735   2.044  16.214  0.0328 -0.2287  0.2392
  379MPD2     H 5723   2.510   1.776  16.366 -1.1656 -0.3537 -1.1443
  379MPD2    H1 5724   2.863   2.026  16.370  0.3521  0.4144 -0.1128
  379MPD2    H2 5725   2.580   2.066  16.076  0.6185  0.1624 -0.1653
  379MPD2    H3 5726   2.793   2.127  16.175  0.8882 -1.2699 -0.7321
  379MPD2     N 5727   2.755   1.812  16.493  0.6686  0.3748  0.1615
  379MPD2    H5 5728   2.856   1.815  16.506  0.7570 -0.6393 -0.2643
  379MPD2    N1 5729   2.434   1.871  16.119  0.6150  0.2035  0.2507
  379MPD2    H7 5730   2.424   1.920  16.031  0.8180  3.2786  1.9368
  380TMC3    C1 5731   2.302   1.726  15.997  0.0315  0.1417 -0.1026
  380TMC3    C2 5732   2.330   1.602  15.943 -0.4279 -0.0580  0.2408
  380TMC3    C3 5733   2.300   1.587  15.807 -0.0577  0.6989  0.6724
  380TMC3    C4 5734   2.250   1.832  15.921  0.3580  0.3105  0.4276
  380TMC3    C5 5735   2.221   1.812  15.785  0.5067 -0.9389 -0.6350
  380TMC3    C6 5736   2.246   1.687  15.727  0.2763 -0.3137  0.5331
  380TMC3     C 5737   2.377   1.753  16.117  0.0231 -0.2909  0.0527
  380TMC3     O 5738   2.392   1.661  16.197 -0.3812 -0.3099  0.3647
  380TMC3     H 5739   2.399   1.533  15.990 -0.6040 -1.3836 -1.4466
  380TMC3    H1 5740   2.219   1.925  15.966  0.6902 -0.2642  1.8430
  380TMC3    H2 5741   2.231   1.673  15.620  1.4802  1.5505  0.1176
  380TMC3    C7 5742   2.151   1.918  15.712  0.2389  0.2621 -0.4649
  380TMC3    C8 5743   2.390   1.498  15.735  0.5153 -0.0231 -0.5512
  380TMC3    O1 5744   2.176   2.040  15.721 -0.3959  1.4849 -0.4937
  380TMC3    O2 5745   2.508   1.502  15.757  0.4599 -0.0360 -0.6991
  381TMC3    C1 5746   1.804   3.076  16.419 -0.6721 -0.2599  0.4890
  381TMC3    C2 5747   1.903   3.145  16.344 -0.8383 -0.6485  0.0079
  381TMC3    C3 5748   2.017   3.157  16.409 -0.1317  0.0235 -0.4843
  381TMC3    C4 5749   1.813   3.052  16.550  0.0891 -0.1235 -0.3478
  381TMC3    C5 5750   1.923   3.081  16.611  0.1888 -0.6061 -0.7096
  381TMC3    C6 5751   2.036   3.127  16.544  0.3012  0.4976 -0.3117
  381TMC3     C 5752   1.667   3.060  16.375 -0.1338  0.8464 -0.1743
  381TMC3     O 5753   1.571   3.070  16.453  0.6633  0.0605 -1.1765
  381TMC3     H 5754   1.889   3.183  16.244 -1.3501 -0.2257  0.2381
  381TMC3    H1 5755   1.737   3.005  16.611 -1.5791  3.0103 -0.0457
  381TMC3    H2 5756   2.130   3.138  16.597  0.7542 -0.3689 -0.9338
  381TMC3    C7 5757   1.933   3.018  16.733  0.4498 -0.3134 -0.1896
  381TMC3    C8 5758   2.105   3.257  16.347 -0.5920  0.0544  0.4812
  381TMC3    O1 5759   2.016   2.934  16.754  0.0880 -0.0151  0.1198
  381TMC3    O2 5760   2.121   3.263  16.226 -0.2956 -0.6931  0.7943
  382MPD2     C 5761   1.697   0.981   0.451  0.4741 -0.1627  0.2507
  382MPD2    C1 5762   1.592   1.003   0.361 -0.9584  0.1170 -0.6295
  382MPD2    C2 5763   1.542   0.896   0.290  0.3070 -0.8504  0.3289
  382MPD2    C3 5764   1.583   0.763   0.320 -0.3164 -0.2948 -0.0003
  382MPD2    C4 5765   1.674   0.745   0.415  0.3793 -0.6086 -0.5405
  382MPD2    C5 5766   1.731   0.854   0.478 -0.4901  0.1511 -0.1410
  382MPD2     H 5767   1.463   0.917   0.219  2.2905  2.2549 -0.9876
  382MPD2    H1 5768   1.718   0.648   0.434 -0.6768 -1.2294 -1.3455
  382MPD2    H2 5769   1.733   1.062   0.513 -1.0547 -0.5045  1.6046
  382MPD2    H3 5770   1.806   0.834   0.554 -0.3565  1.7639  0.1397
  382MPD2     N 5771   1.531   0.649   0.264 -0.0817 -0.4868 -0.1606
  382MPD2    H5 5772   1.576   0.566   0.302 -0.7983 -0.2903  1.0922
  382MPD2    N1 5773   1.541   1.137   0.343  0.5144 -0.1806 -0.2827
  382MPD2    H7 5774   1.461   1.139   0.281 -0.4440 -0.9833  0.9304
  383TMC3    C1 5775   1.431   0.514   0.097  0.5944 -0.0128  0.3116
  383TMC3    C2 5776   1.350   0.509  17.723 -0.1664  0.4333  0.6739
  383TMC3    C3 5777   1.344   0.389  17.665  0.6766 -0.2115 -0.3517
  383TMC3    C4 5778   1.517   0.411   0.131  0.4507  0.4060  0.3703
  383TMC3    C5 5779   1.506   0.293   0.066  0.0396  0.5895  0.5877
  383TMC3    C6 5780   1.416   0.277  17.703  0.3021 -0.0183 -0.4370
  383TMC3     C 5781   1.440   0.652   0.164  0.2392  0.2618  0.2497
  383TMC3     O 5782   1.395   0.748   0.106  0.0180 -0.1794 -0.3606
  383TMC3     H 5783   1.302   0.596  17.678  0.3811 -0.2071 -1.1397
  383TMC3    H1 5784   1.589   0.420   0.212 -1.7613 -1.1515  2.4760
  383TMC3    H2 5785   1.390   0.175  17.675 -0.1752 -0.4653  1.6571
  383TMC3    C7 5786   1.592   0.183   0.111 -0.2279  0.4728  0.0422
  383TMC3    C8 5787   1.253   0.368  17.557  0.3902  0.2033  0.9923
  383TMC3    O1 5788   1.610   0.094   0.029 -0.1619 -0.5183 -0.1840
  383TMC3    O2 5789   1.135   0.407  17.566 -0.1765 -0.0734 -0.0276
  384MPD2     C 5790   2.940   1.750  12.190  0.1191 -0.7779 -0.0087
  384MPD2    C1 5791   3.030   1.754  12.296 -0.6511  0.2488 -0.0281
  384MPD2    C2 5792   3.149   1.681  12.278  0.5289  0.4041 -0.5599
  384MPD2    C3 5793   3.186   1.619  12.158  0.3205  0.0057  0.4670
  384MPD2    C4 5794   3.099   1.628  12.053  0.7675  0.3004  0.2516
  384MPD2    C5 5795   2.975   1.690  12.073  0.2146 -0.7818  0.2765
  384MPD2     H 5796   3.221   1.675  12.359 -0.9065  1.9748  0.8269
  384MPD2    H1 5797   3.126   1.584  11.957 -2.2439 -1.2147  0.1039
  384MPD2    H2 5798   2.846   1.803  12.183  1.2532  0.9681 -2.3266
  384MPD2    H3 5799   2.905   1.680  11.990  1.4153  2.0626 -1.0734
  384MPD2     N 5800   3.303   1.539  12.157 -0.5455  0.1510  0.2336
  384MPD2    H5 5801   3.348   1.533  12.248  1.6095  0.3275 -0.8397
  384MPD2    N1 5802   3.016   1.816  12.422  0.2068  0.2015 -0.3309
  384MPD2    H7 5803   3.084   1.782  12.490  0.5334  0.7512 -0.3847
  385TMC3    C1 5804   3.457   1.375  12.090 -0.4595  0.4661  0.4593
  385TMC3    C2 5805   3.409   1.243  12.086  0.4005 -0.6944 -0.2991
  385TMC3    C3 5806   3.425   1.155  12.192  0.4070 -0.3081 -0.7736
  385TMC3    C4 5807   3.528   1.417  12.202 -0.2255 -0.4106 -0.5413
  385TMC3    C5 5808   3.542   1.330  12.313 -0.5439  0.7712 -0.2712
  385TMC3    C6 5809   3.487   1.205  12.303 -0.3642  0.2676  0.4465
  385TMC3     C 5810   3.359   1.474  12.049  0.3818  1.0846 -1.1027
  385TMC3     O 5811   3.326   1.464  11.931 -0.4504 -0.0321  0.2819
  385TMC3     H 5812   3.362   1.207  11.995  0.4742  0.9963 -0.9979
  385TMC3    H1 5813   3.578   1.513  12.209  0.7372 -1.0268  1.0749
  385TMC3    H2 5814   3.492   1.133  12.384 -1.6267  0.8308  1.0173
  385TMC3    C7 5815   3.494   1.394  12.432 -0.0096 -0.2314  0.1535
  385TMC3    C8 5816   3.320   1.058  12.224  0.6869  0.4831 -0.1793
  385TMC3    O1 5817   3.466   1.509  12.410 -0.1724 -0.3671 -0.0569
  385TMC3    O2 5818   3.333   0.993  12.327 -0.2446 -0.2780  0.1216
  386TMC3    C1 5819   2.758   4.018  11.496  0.2556 -0.4349  0.1315
  386TMC3    C2 5820   2.705   4.059  11.377 -0.1930 -0.3339 -0.0143
  386TMC3    C3 5821   2.603   4.149  11.389 -0.1011  0.6564  0.6090
  386TMC3    C4 5822   2.707   4.039  11.623 -0.3739  0.4878  0.4091
  386TMC3    C5 5823   2.594   4.113  11.625  0.3646  0.3267 -0.7783
  386TMC3    C6 5824   2.546   4.175  11.515 -0.3388  0.1311 -0.2643
  386TMC3     C 5825   2.886   3.938  11.491 -0.3248 -1.3512  0.8207
  386TMC3     O 5826   2.940   3.936  11.385  0.3201 -0.1524 -0.0016
  386TMC3     H 5827   2.753   4.046  11.281 -1.3617 -0.3324 -0.6053
  386TMC3    H1 5828   2.757   4.017  11.717  0.1124  0.3777  0.1237
  386TMC3    H2 5829   2.471   4.251  11.531  0.5151  0.3412  2.6406
  386TMC3    C7 5830   2.515   4.118  11.746  0.3828 -0.4159 -0.0058
  386TMC3    C8 5831   2.521   4.178  11.266  0.1692  0.3700  0.3136
  386TMC3    O1 5832   2.573   4.110  11.853 -0.9955  0.0155 -0.4159
  386TMC3    O2 5833   2.420   4.249  11.285 -0.5298 -0.2578 -0.1152
  387MPD2     C 5834   0.118   4.007  10.219 -0.2393 -0.2035 -0.4905
  387MPD2    C1 5835   0.214   3.973  10.305  0.0830  0.1461 -1.0560
  387MPD2    C2 5836   0.249   3.845  10.324  0.3327 -0.5979 -0.1922
  387MPD2    C3 5837   0.191   3.744  10.250  0.7515 -0.0179 -0.2105
  387MPD2    C4 5838   0.091   3.768  10.158  0.2417  0.2661 -0.4611
  387MPD2    C5 5839   0.058   3.906  10.140  0.2665  0.0201 -0.4508
  387MPD2     H 5840   0.327   3.821  10.396 -0.4536  2.1911  1.5765
  387MPD2    H1 5841   0.034   3.696  10.100 -0.5194  0.6872 -0.2238
  387MPD2    H2 5842   0.073   4.105  10.208  1.3003  0.8750  2.9472
  387MPD2    H3 5843   4.708   3.936  10.079 -0.7349 -2.9854 -0.4960
  387MPD2     N 5844   0.250   3.621  10.283 -0.5315 -0.0215  0.4480
  387MPD2    H5 5845   0.335   3.624  10.338  0.3258 -3.4797 -0.7186
  387MPD2    N1 5846   0.285   4.068  10.386  0.2265 -0.4028  0.4696
  387MPD2    H7 5847   0.351   4.032  10.454 -1.2985  2.3669  3.3824
  388TMC3    C1 5848   0.411   4.258  10.439 -0.4724  0.8688 -0.1130
  388TMC3    C2 5849   0.402   4.384  10.486 -0.4659 -0.0863 -0.6573
  388TMC3    C3 5850   0.483   4.425  10.589  0.0719 -0.2379 -1.6252
  388TMC3    C4 5851   0.504   4.171  10.481 -0.1235  0.0419 -0.2328
  388TMC3    C5 5852   0.579   4.209  10.593 -0.8616  0.4332 -0.2356
  388TMC3    C6 5853   0.575   4.336  10.642  0.0699 -0.4046 -0.3707
  388TMC3     C 5854   0.303   4.202  10.353  0.1853  0.2549 -0.5777
  388TMC3     O 5855   0.230   4.273  10.283 -0.0506 -0.3790 -0.5649
  388TMC3     H 5856   0.333   4.453  10.439 -1.5472 -0.4245  0.4219
  388TMC3    H1 5857   0.526   4.080  10.426  1.2421  0.1882  0.0709
  388TMC3    H2 5858   0.625   4.365  10.734  1.1878  0.0509 -1.1151
  388TMC3    C7 5859   0.634   4.101  10.676 -0.0488  1.0404  0.8217
  388TMC3    C8 5860   0.489   4.559  10.638 -0.2879  0.0676  1.6295
  388TMC3    O1 5861   0.658   4.127  10.795  0.1784 -0.1625 -0.1379
  388TMC3    O2 5862   0.563   4.587  10.730 -0.1365 -0.2510  0.1383
  389MPD2     C 5863   4.089   2.035  11.178  0.7497 -0.0051  1.1644
  389MPD2    C1 5864   4.102   1.952  11.071  0.1341  0.4095  0.0547
  389MPD2    C2 5865   4.132   1.821  11.101  0.4208  0.2733 -0.4686
  389MPD2    C3 5866   4.147   1.780  11.235 -0.0776 -0.0660  0.0389
  389MPD2    C4 5867   4.118   1.866  11.340 -0.3481 -0.7425 -0.7359
  389MPD2    C5 5868   4.094   1.997  11.305  0.2238 -0.2918 -0.6911
  389MPD2     H 5869   4.152   1.749  11.024  2.3539 -0.0919  0.3733
  389MPD2    H1 5870   4.099   1.837  11.442 -1.6502 -0.7560 -0.9807
  389MPD2    H2 5871   4.062   2.138  11.158  1.4018 -0.0781 -0.0591
  389MPD2    H3 5872   4.077   2.067  11.386  2.8937  1.7571 -1.9155
  389MPD2     N 5873   4.162   1.647  11.276  0.1703  0.5690  0.4556
  389MPD2    H5 5874   4.162   1.625  11.375  0.9641  2.0353  0.7846
  389MPD2    N1 5875   4.101   1.997  10.939  0.2897  0.0433  0.1235
  389MPD2    H7 5876   4.085   2.096  10.923  1.3696  0.2941  0.6245
  390TMC3    C1 5877   4.186   1.421  11.271  0.1196  0.4125  0.0330
  390TMC3    C2 5878   4.085   1.397  11.366  0.6777 -0.2094 -0.1281
  390TMC3    C3 5879   4.090   1.285  11.437 -0.2791 -0.0404  0.1978
  390TMC3    C4 5880   4.291   1.335  11.253 -0.1404 -0.0506  0.3298
  390TMC3    C5 5881   4.298   1.217  11.331  0.1377  0.0335  0.1178
  390TMC3    C6 5882   4.196   1.199  11.424 -0.8819 -0.3935  0.1727
  390TMC3     C 5883   4.202   1.543  11.200  0.2252 -0.6965 -0.3035
  390TMC3     O 5884   4.251   1.548  11.092 -0.4575  0.0537 -0.7987
  390TMC3     H 5885   4.001   1.466  11.372 -1.1770 -2.3122 -1.9473
  390TMC3    H1 5886   4.353   1.343  11.165 -1.3368 -0.5449 -0.5591
  390TMC3    H2 5887   4.207   1.108  11.483  0.4747 -1.8667 -2.3450
  390TMC3    C7 5888   4.428   1.216  11.395 -0.1798  0.0351  0.3465
  390TMC3    C8 5889   3.976   1.223  11.495  0.3076 -0.4763  0.2135
  390TMC3    O1 5890   4.525   1.234  11.320 -0.1117  0.2289  0.5252
  390TMC3    O2 5891   3.991   1.107  11.533  0.4482  0.2883  1.1208
  391MPD2     C 5892   4.193   3.162  11.418 -0.1986 -0.3783 -0.2856
  391MPD2    C1 5893   4.127   3.284  11.424 -0.0353  0.8620 -0.3725
  391MPD2    C2 5894   4.039   3.318  11.317 -0.1341 -0.0649 -0.8389
  391MPD2    C3 5895   4.013   3.239  11.214  0.2537  0.0854  0.6444
  391MPD2    C4 5896   4.068   3.111  11.221  0.0677  0.3135  0.1697
  391MPD2    C5 5897   4.156   3.073  11.318 -0.5327 -0.2651 -0.5902
  391MPD2     H 5898   4.001   3.420  11.315 -1.0004 -0.3381  1.3153
  391MPD2    H1 5899   4.040   3.026  11.160 -1.2811  1.7493 -1.1889
  391MPD2    H2 5900   4.283   3.142  11.474  0.4631  0.2836 -1.1111
  391MPD2    H3 5901   4.198   2.974  11.302  1.5111  1.0610 -3.4692
  391MPD2     N 5902   3.922   3.282  11.115 -0.2989 -0.0997 -0.1555
  391MPD2    H5 5903   3.891   3.378  11.119 -1.0879 -0.4078  1.0956
  391MPD2    N1 5904   4.164   3.379  11.523  0.1541  0.7003  0.1744
  391MPD2    H7 5905   4.122   3.472  11.516 -0.4006  0.3599 -1.0463
  392TMC3    C1 5906   3.841   3.301  10.892  0.4597  0.3405  0.5494
  392TMC3    C2 5907   3.765   3.243  10.796 -0.8883  0.1813 -0.2001
  392TMC3    C3 5908   3.779   3.281  10.665 -0.3134  0.0207 -0.6929
  392TMC3    C4 5909   3.926   3.409  10.866 -0.0757  0.1576 -0.1384
  392TMC3    C5 5910   3.925   3.451  10.739 -0.1000 -0.6428 -0.1884
  392TMC3    C6 5911   3.843   3.398  10.639 -1.1935 -0.0967  0.0501
  392TMC3     C 5912   3.882   3.215  11.004  0.1527 -0.1756 -0.4924
  392TMC3     O 5913   3.865   3.092  10.990 -0.2875 -0.3632 -0.0241
  392TMC3     H 5914   3.713   3.152  10.824  0.1417 -0.1224  0.7092
  392TMC3    H1 5915   4.005   3.430  10.937 -0.1685  0.0732 -0.0101
  392TMC3    H2 5916   3.842   3.440  10.539  0.7621 -0.8974 -0.3034
  392TMC3    C7 5917   3.983   3.583  10.720  0.9049  0.2788 -0.4497
  392TMC3    C8 5918   3.704   3.211  10.566 -0.0377  0.0073  0.0802
  392TMC3    O1 5919   4.059   3.625  10.806  0.4533 -0.0314 -0.0424
  392TMC3    O2 5920   3.598   3.156  10.605  0.4368 -0.2949 -0.7534
  393TMC3    C1 5921   2.109   1.542  10.752  0.0947  0.3139 -0.6951
  393TMC3    C2 5922   2.011   1.458  10.699 -0.1404  0.4612 -0.2861
  393TMC3    C3 5923   1.983   1.344  10.773  0.0128  0.3889 -0.3938
  393TMC3    C4 5924   2.160   1.512  10.878 -0.3363 -0.0636  0.0244
  393TMC3    C5 5925   2.108   1.405  10.957 -0.4061  0.1970 -0.3995
  393TMC3    C6 5926   2.022   1.320  10.901  0.4915 -0.3616 -0.1381
  393TMC3     C 5927   2.134   1.667  10.684  0.4097  0.4292 -0.5009
  393TMC3     O 5928   2.124   1.658  10.562 -0.4390 -0.4893 -0.1247
  393TMC3     H 5929   1.970   1.472  10.599  1.0546  0.0502 -0.8372
  393TMC3    H1 5930   2.238   1.575  10.920 -0.1128 -0.1916 -0.1972
  393TMC3    H2 5931   1.975   1.234  10.947 -2.1965 -0.3370 -2.8542
  393TMC3    C7 5932   2.194   1.343  11.060  0.0595  0.9985  0.4035
  393TMC3    C8 5933   1.934   1.221  10.704  0.6264  0.1761 -0.0666
  393TMC3    O1 5934   2.149   1.251  11.132  0.5401 -0.3494  0.2428
  393TMC3    O2 5935   1.858   1.147  10.767  0.3964 -0.6066  0.0778
  394TMC3    C1 5936   4.096   2.008  10.702 -0.3610  0.6063  0.0227
  394TMC3    C2 5937   4.032   1.942  10.599 -0.6860  0.7624  0.1605
  394TMC3    C3 5938   4.079   1.965  10.475  0.0959  0.2546  0.0545
  394TMC3    C4 5939   4.201   2.094  10.690  0.7921  0.0490 -0.5456
  394TMC3    C5 5940   4.240   2.125  10.557 -0.4087  0.0231  0.3313
  394TMC3    C6 5941   4.181   2.056  10.453  0.4105 -0.0030  0.0305
  394TMC3     C 5942   4.106   1.926  10.822  0.0699 -0.1904  0.6622
  394TMC3     O 5943   4.109   1.804  10.804 -0.5042  0.2535  0.0494
  394TMC3     H 5944   3.953   1.872  10.626 -1.3263  2.0538  1.6170
  394TMC3    H1 5945   4.243   2.146  10.775  2.6190 -0.1555 -1.3062
  394TMC3    H2 5946   4.214   2.071  10.350 -0.3739  1.0852 -0.0578
  394TMC3    C7 5947   4.360   2.202  10.527 -0.1480  0.3181 -0.7361
  394TMC3    C8 5948   4.095   1.849  10.394  0.1032 -0.3155  0.1382
  394TMC3    O1 5949   4.371   2.284  10.432 -0.3743 -0.4400  0.5256
  394TMC3    O2 5950   4.094   1.864  10.269  0.2186  0.1087  0.0047
  395TMC3    C1 5951   4.643   3.583  15.169  0.2047  0.1938  0.4706
  395TMC3    C2 5952   4.542   3.628  15.081 -0.4006 -0.5546  0.4535
  395TMC3    C3 5953   4.569   3.739  15.006 -0.3281  1.0610  0.5349
  395TMC3    C4 5954   0.022   3.656  15.178  0.8666  0.0150 -0.9936
  395TMC3    C5 5955   0.046   3.763  15.095  0.1707  0.3358  0.0351
  395TMC3    C6 5956   4.685   3.812  15.013  0.0878  0.0597 -0.3438
  395TMC3     C 5957   4.614   3.504  15.289  0.2007 -0.2380  0.3071
  395TMC3     O 5958   4.689   3.509  15.385  0.2340 -0.6044 -0.0598
  395TMC3     H 5959   4.455   3.563  15.077 -2.4026  2.2355 -1.0938
  395TMC3    H1 5960   0.108   3.629  15.238  0.6058 -0.5009 -0.8488
  395TMC3    H2 5961   4.704   3.903  14.959  1.4484  0.4478  0.7858
  395TMC3    C7 5962   0.146   3.863  15.142  0.8663  0.2151 -0.4400
  395TMC3    C8 5963   4.463   3.797  14.926 -0.1468  0.5076 -0.1896
  395TMC3    O1 5964   0.129   3.980  15.114  0.1806 -1.3979  0.0383
  395TMC3    O2 5965   4.471   3.915  14.898 -0.4524  0.3313  0.2222
  396MPD2     C 5966   4.543   0.027  17.142 -0.4275  0.2675  0.5970
  396MPD2    C1 5967   4.615   0.133  17.174 -0.4213  0.8662  0.5295
  396MPD2    C2 5968   4.629   0.240  17.084  0.2837 -0.0445  0.1245
  396MPD2    C3 5969   4.570   0.231  16.956  0.6533  0.1554 -0.5189
  396MPD2    C4 5970   4.489   0.120  16.924  0.3089  0.1789  0.4326
  396MPD2    C5 5971   4.480   0.017  17.022  0.2786 -0.4192 -0.0114
  396MPD2     H 5972   4.682   0.331  17.108  0.7203 -0.3938  0.4644
  396MPD2    H1 5973   4.444   0.102  16.828  0.3826 -1.1967  0.6482
  396MPD2    H2 5974   4.528   4.676  17.206 -1.4113  1.0192  1.3723
  396MPD2    H3 5975   4.431   4.657  17.006  0.6683 -0.2632 -2.1921
  396MPD2     N 5976   4.593   0.342  16.870  0.0625 -0.5799  0.0824
  396MPD2    H5 5977   4.668   0.406  16.892  0.7742 -0.9861 -1.1748
  396MPD2    N1 5978   4.668   0.131  17.305 -0.1548 -0.3517  0.0698
  396MPD2    H7 5979   4.659   0.045  17.358  0.6258  0.9337  2.2613
  397TMC3    C1 5980   0.024   0.209  17.505 -0.3591  0.6037  0.0856
  397TMC3    C2 5981   0.162   0.226  17.529 -0.2187  0.4542 -0.1462
  397TMC3    C3 5982   0.240   0.117  17.557 -0.5469 -0.2246  0.7756
  397TMC3    C4 5983   4.705   0.088  17.537  0.5831 -0.1820  0.7364
  397TMC3    C5 5984   0.049   4.721  17.579  0.3025 -0.8341 -0.2560
  397TMC3    C6 5985   0.187   4.727  17.586 -0.0879  0.6425  0.4794
  397TMC3     C 5986   4.722   0.239  17.371  0.1201 -0.6271 -0.4256
  397TMC3     O 5987   0.013   0.349  17.324 -0.6010  0.8015  0.2897
  397TMC3     H 5988   0.207   0.318  17.493 -0.5583  0.3400 -0.8653
  397TMC3    H1 5989   4.599   0.068  17.522  0.8481 -1.9939  1.2653
  397TMC3    H2 5990   0.255   4.644  17.599 -0.1232  0.9103  2.4122
  397TMC3    C7 5991   4.708   4.596  17.595 -0.0876 -0.2241 -0.9077
  397TMC3    C8 5992   0.384   0.132  17.575  0.3470  0.5808  0.3951
  397TMC3    O1 5993   4.604   4.576  17.531 -0.1066  0.0080 -0.0517
  397TMC3    O2 5994   0.437   0.047  17.644  0.0627 -0.2438  0.1088
  398MPD2     C 5995   2.591   1.865   0.210 -0.0318 -0.5982 -0.7381
  398MPD2    C1 5996   2.688   1.769   0.229  0.1693 -0.0526 -0.4970
  398MPD2    C2 5997   2.815   1.799   0.197  0.6053 -0.0533  0.1831
  398MPD2    C3 5998   2.844   1.920   0.142  0.5855  0.5577  0.1845
  398MPD2    C4 5999   2.744   2.014   0.119  0.4734 -0.1556 -0.1154
  398MPD2    C5 6000   2.615   1.980   0.149  0.4894  0.3737  0.3835
  398MPD2     H 6001   2.898   1.730   0.203  0.5611 -0.0847  0.4149
  398MPD2    H1 6002   2.764   2.106   0.065  0.8564 -0.4745 -0.5141
  398MPD2    H2 6003   2.486   1.844   0.229 -0.6436  2.6543 -0.5138
  398MPD2    H3 6004   2.533   2.047   0.123  0.5923  0.0898 -0.7050
  398MPD2     N 6005   2.981   1.938   0.109  0.3165 -0.1875  0.1559
  398MPD2    H5 6006   3.049   1.865   0.126 -0.2638 -0.2665  2.1036
  398MPD2    N1 6007   2.658   1.648   0.292 -0.0175  0.2043  0.4827
  398MPD2    H7 6008   2.744   1.598   0.314 -0.2970 -1.3262 -1.8437
  399TMC3    C1 6009   2.545   1.454   0.366  0.2141 -0.2714 -0.2025
  399TMC3    C2 6010   2.658   1.424   0.433  0.6446  0.3976  0.1192
  399TMC3    C3 6011   2.698   1.292   0.442 -0.6088  0.3894 -0.2191
  399TMC3    C4 6012   2.461   1.353   0.321  0.2687 -0.5161  0.6208
  399TMC3    C5 6013   2.501   1.225   0.335  0.1057 -0.7905 -0.7738
  399TMC3    C6 6014   2.627   1.190   0.385  0.5380  0.6990  0.1360
  399TMC3     C 6015   2.535   1.582   0.312 -0.3186  0.0057 -0.4937
  399TMC3     O 6016   2.422   1.611   0.264 -0.4516 -0.1601 -0.3081
  399TMC3     H 6017   2.724   1.500   0.473  1.7350 -0.2482 -0.4482
  399TMC3    H1 6018   2.374   1.374   0.260  0.5671  0.1795  0.4327
  399TMC3    H2 6019   2.653   1.085   0.390  2.6740  1.1660 -0.9476
  399TMC3    C7 6020   2.424   1.112   0.286 -0.0085  0.3953  0.6415
  399TMC3    C8 6021   2.839   1.276   0.470 -1.0603  0.4565  0.8902
  399TMC3    O1 6022   2.480   1.008   0.255 -0.4568  0.9491 -0.2376
  399TMC3    O2 6023   2.912   1.372   0.461  0.6164 -0.4240 -0.7653
  400TMC3    C1 6024   1.651   0.067  17.065 -0.0245  0.2006  0.1131
  400TMC3    C2 6025   1.553   0.061  16.968 -0.0664 -0.5652 -0.0176
  400TMC3    C3 6026   1.486   0.172  16.936 -0.2499  0.2937 -0.8263
  400TMC3    C4 6027   1.666   0.172  17.144 -0.0750  0.5058 -0.1126
  400TMC3    C5 6028   1.578   0.276  17.130  0.0963  0.4846  0.2759
  400TMC3    C6 6029   1.494   0.286  17.023  0.3700 -0.2859  0.1478
  400TMC3     C 6030   1.717   4.672  17.099  0.8586  0.8017 -0.4834
  400TMC3     O 6031   1.657   4.571  17.075 -0.6692  0.3286  0.3968
  400TMC3     H 6032   1.540   4.703  16.914 -0.3104  0.2767 -1.4096
  400TMC3    H1 6033   1.740   0.176  17.224 -1.9296  0.0350  1.6388
  400TMC3    H2 6034   1.432   0.371  16.995  0.4680  0.1250  1.1801
  400TMC3    C7 6035   1.607   0.399  17.207  0.2762  0.2467  0.3863
  400TMC3    C8 6036   1.352   0.164  16.873 -0.2437 -0.0538 -0.5665
  400TMC3    O1 6037   1.713   0.404  17.268 -0.1661 -0.1423  0.4605
  400TMC3    O2 6038   1.271   0.252  16.883 -0.3229  0.2903  0.2432
  401MPD2     C 6039   4.440   3.523   1.475 -0.1893 -0.3731 -0.3955
  401MPD2    C1 6040   4.501   3.408   1.506  0.1189  0.1356 -0.0324
  401MPD2    C2 6041   4.429   3.289   1.490  0.3401  0.9023  0.5208
  401MPD2    C3 6042   4.300   3.289   1.443 -0.5202 -0.3701 -0.3366
  401MPD2    C4 6043   4.239   3.405   1.412  0.2888  0.7535  0.0252
  401MPD2    C5 6044   4.306   3.524   1.426  0.3733 -0.7714 -0.2858
  401MPD2     H 6045   4.474   3.192   1.505 -1.5977  0.2476  1.9976
  401MPD2    H1 6046   4.138   3.408   1.371  0.9497 -2.7338 -1.9044
  401MPD2    H2 6047   4.490   3.619   1.483  1.4142 -1.0477 -2.2438
  401MPD2    H3 6048   4.264   3.619   1.397 -1.2295 -1.6569 -0.8261
  401MPD2     N 6049   4.247   3.163   1.429 -0.3140 -0.0824  0.0670
  401MPD2    H5 6050   4.306   3.084   1.454 -0.8042 -0.4929 -0.0542
  401MPD2    N1 6051   4.640   3.400   1.523 -0.6032  0.1881 -0.2499
  401MPD2    H7 6052   4.673   3.305   1.538  2.5607  1.1847 -0.8051
  402TMC3    C1 6053   4.117   2.987   1.344 -0.5185 -0.0572  0.0250
  402TMC3    C2 6054   4.180   2.903   1.440  0.6377 -0.5070 -0.2505
  402TMC3    C3 6055   4.226   2.778   1.404 -0.5859 -0.2927  0.1715
  402TMC3    C4 6056   4.100   2.938   1.217 -0.5055 -0.2430 -0.0659
  402TMC3    C5 6057   4.140   2.811   1.185  0.6778  0.5345 -0.7704
  402TMC3    C6 6058   4.204   2.734   1.276 -0.7036 -0.0398  0.1428
  402TMC3     C 6059   4.132   3.127   1.363  0.6193  0.0180 -0.1833
  402TMC3     O 6060   4.050   3.194   1.300 -0.6914  0.5856 -0.1555
  402TMC3     H 6061   4.202   2.938   1.540  3.2603 -2.7005 -0.0638
  402TMC3    H1 6062   4.047   3.000   1.145 -0.3948  1.3625  1.2246
  402TMC3    H2 6063   4.224   2.631   1.248 -0.9017 -0.2363  0.7239
  402TMC3    C7 6064   4.143   2.783   1.041 -0.5601 -0.6679  0.6150
  402TMC3    C8 6065   4.325   2.703   1.477  0.1542  0.4532 -0.1148
  402TMC3    O1 6066   4.044   2.824   0.980 -0.7798 -0.0396 -0.5098
  402TMC3    O2 6067   4.441   2.696   1.429  0.1721 -0.2814 -0.6042
  403MPD2     C 6068   2.652   1.675  13.698 -0.3314 -0.3427  0.0590
  403MPD2    C1 6069   2.665   1.555  13.762 -0.3787  0.0482 -0.0136
  403MPD2    C2 6070   2.793   1.519  13.808 -0.3678 -0.0576  0.0929
  403MPD2    C3 6071   2.903   1.610  13.797  0.3951  0.6908  0.0928
  403MPD2    C4 6072   2.879   1.736  13.734  0.3113 -0.3240 -0.4011
  403MPD2    C5 6073   2.754   1.763  13.685 -0.1934  0.1550 -0.3033
  403MPD2     H 6074   2.813   1.423  13.855 -0.0195 -0.4118 -0.7710
  403MPD2    H1 6075   2.951   1.817  13.736  1.0744 -0.9921 -0.9586
  403MPD2    H2 6076   2.553   1.708  13.667  0.1812  1.3164  0.1498
  403MPD2    H3 6077   2.737   1.859  13.636 -2.1666 -0.6559 -1.1791
  403MPD2     N 6078   3.035   1.581  13.843  0.4166  0.8107  0.1224
  403MPD2    H5 6079   3.049   1.489  13.884  3.7511  0.5741 -1.4932
  403MPD2    N1 6080   2.547   1.468  13.773  0.0409 -0.0789 -0.2351
  403MPD2    H7 6081   2.463   1.480  13.717  0.0672 -0.4690 -0.3572
  404TMC3    C1 6082   2.439   1.267  13.817  0.2112 -0.4954  0.1729
  404TMC3    C2 6083   2.467   1.143  13.864 -0.2596  0.3242  0.6097
  404TMC3    C3 6084   2.452   1.033  13.791  0.4117 -0.2658  1.0705
  404TMC3    C4 6085   2.388   1.276  13.686 -0.0802  0.4408  0.3753
  404TMC3    C5 6086   2.372   1.166  13.610 -0.3644 -0.7031 -0.5748
  404TMC3    C6 6087   2.398   1.041  13.666 -0.1786 -0.2616 -0.1688
  404TMC3     C 6088   2.545   1.361  13.857  0.3874 -0.3252 -0.3778
  404TMC3     O 6089   2.620   1.345  13.955 -0.0796  0.6740 -0.0411
  404TMC3     H 6090   2.515   1.135  13.960  3.4444  0.7225 -1.2199
  404TMC3    H1 6091   2.348   1.370  13.651 -0.3320 -0.8913 -2.9284
  404TMC3    H2 6092   2.396   0.947  13.611  2.5419  0.2862 -1.1793
  404TMC3    C7 6093   2.374   1.193  13.470  0.5339  0.1756 -0.4275
  404TMC3    C8 6094   2.511   0.910  13.845 -0.5536  0.9187 -0.5775
  404TMC3    O1 6095   2.395   1.305  13.430  0.5537  0.3091 -0.2865
  404TMC3    O2 6096   2.610   0.869  13.783  0.2468 -0.4346 -0.3423
  405MPD2     C 6097   3.152   2.313  14.585  0.0266  0.0148 -0.8601
  405MPD2    C1 6098   3.214   2.202  14.525 -0.2958  0.3053 -0.2783
  405MPD2    C2 6099   3.146   2.157  14.414  0.5216  0.2073  0.3071
  405MPD2    C3 6100   3.036   2.218  14.361 -0.5183  0.2303 -0.0438
  405MPD2    C4 6101   2.979   2.330  14.431  0.8478  0.0481  0.0674
  405MPD2    C5 6102   3.041   2.382  14.540 -0.0695  0.1952  0.3520
  405MPD2     H 6103   3.188   2.076  14.357 -1.1721 -0.1142 -0.4935
  405MPD2    H1 6104   2.891   2.373  14.385 -0.0864 -0.9112  0.9867
  405MPD2    H2 6105   3.197   2.353  14.676  0.1411 -0.6246 -0.6397
  405MPD2    H3 6106   3.001   2.465  14.597 -1.2814  1.4329 -2.2799
  405MPD2     N 6107   2.985   2.158  14.244 -0.0568 -0.0890 -0.1073
  405MPD2    H5 6108   3.039   2.088  14.193  0.3758 -0.0971  0.3633
  405MPD2    N1 6109   3.335   2.145  14.579  0.6199  0.1158 -0.5073
  405MPD2    H7 6110   3.377   2.194  14.657  0.3129 -0.3136 -0.0756
  406TMC3    C1 6111   2.702   1.902  14.064  0.5333  0.0345 -0.0806
  406TMC3    C2 6112   2.811   1.821  14.039 -0.2413 -0.7452 -0.1297
  406TMC3    C3 6113   2.934   1.883  14.042 -0.0027  0.4608 -0.2232
  406TMC3    C4 6114   2.716   2.031  14.086 -0.2248  0.5087  0.0964
  406TMC3    C5 6115   2.837   2.088  14.081  0.4077 -0.3381 -0.2128
  406TMC3    C6 6116   2.951   2.021  14.051 -0.0439  0.0147 -0.0768
  406TMC3     C 6117   2.570   1.840  14.046 -0.1147  0.9000  0.1948
  406TMC3     O 6118   2.574   1.721  14.014 -0.5290  0.4024  0.1932
  406TMC3     H 6119   2.804   1.713  14.038 -1.7848 -0.6423  2.0557
  406TMC3    H1 6120   2.629   2.094  14.099  0.7622  1.7080  0.8819
  406TMC3    H2 6121   3.049   2.064  14.031 -1.3339  3.5197  1.1800
  406TMC3    C7 6122   2.856   2.171  14.201 -0.5342  0.1474  0.4164
  406TMC3    C8 6123   3.039   1.821  14.111 -0.1858 -0.5888  0.3249
  406TMC3    O1 6124   2.756   2.221  14.253  0.1267  0.1750  0.7555
  406TMC3    O2 6125   3.135   1.892  14.144 -1.0076  0.2939  0.5350
  407MPD2     C 6126   4.451   3.387   9.953  0.2764  0.3022 -0.1155
  407MPD2    C1 6127   4.570   3.376  10.022 -0.1511 -0.0871  0.2224
  407MPD2    C2 6128   4.583   3.437  10.145 -0.9618 -0.1341  0.0396
  407MPD2    C3 6129   4.479   3.497  10.206  0.1390  0.1329 -0.3678
  407MPD2    C4 6130   4.355   3.502  10.142  0.1011  0.2331 -0.4607
  407MPD2    C5 6131   4.352   3.460  10.012 -0.2713 -0.4247  0.2337
  407MPD2     H 6132   4.680   3.425  10.192 -0.8906 -0.4643 -0.1947
  407MPD2    H1 6133   4.274   3.563  10.180  0.6337 -0.4205  1.7173
  407MPD2    H2 6134   4.439   3.348   9.853  0.8940  0.5760 -0.2953
  407MPD2    H3 6135   4.269   3.474   9.943  0.0466  3.1430  0.5605
  407MPD2     N 6136   4.502   3.580  10.326 -0.1838 -0.1608  0.7273
  407MPD2    H5 6137   4.428   3.638  10.364 -0.1394  0.3585  0.0336
  407MPD2    N1 6138   4.689   3.317   9.973 -0.1243 -0.4961 -0.3338
  407MPD2    H7 6139   0.029   3.322  10.041 -0.8918  1.0677  0.4223
  408TMC3    C1 6140   0.115   3.214   9.837  0.8018 -0.0907 -0.3240
  408TMC3    C2 6141   0.145   3.091   9.777  0.5841 -0.0079 -0.4277
  408TMC3    C3 6142   0.270   3.067   9.739  0.5678  0.0069  0.3817
  408TMC3    C4 6143   0.214   3.301   9.860 -1.0981  0.1980  0.2284
  408TMC3    C5 6144   0.338   3.277   9.820  0.3463  0.2411  0.6887
  408TMC3    C6 6145   0.366   3.158   9.759  0.3266 -0.4873 -0.2301
  408TMC3     C 6146   4.705   3.259   9.852  0.6777  0.0462 -0.6625
  408TMC3     O 6147   4.620   3.228   9.774 -0.8894  0.0212  0.3700
  408TMC3     H 6148   0.064   3.022   9.757 -0.2061  1.1089 -1.1097
  408TMC3    H1 6149   0.181   3.402   9.881  1.5631  0.5381  2.7402
  408TMC3    H2 6150   0.468   3.146   9.724  0.8641  0.5965  0.9557
  408TMC3    C7 6151   0.447   3.375   9.840 -0.7750  0.4652  0.3793
  408TMC3    C8 6152   0.313   2.925   9.740  0.5184  0.1213  0.3910
  408TMC3    O1 6153   0.559   3.342   9.803 -0.3671  0.1268  0.4144
  408TMC3    O2 6154   0.252   2.833   9.687 -0.3552 -0.5869 -0.2994
  409MPD2     C 6155   0.039   4.266  17.323  0.1547 -0.6648  0.3867
  409MPD2    C1 6156   0.153   4.265  17.402  0.6063 -0.3050 -0.4996
  409MPD2    C2 6157   0.244   4.374  17.393  0.0798  0.2258 -0.1339
  409MPD2    C3 6158   0.221   4.478  17.299 -0.6796 -0.5317  0.4466
  409MPD2    C4 6159   0.105   4.480  17.225  0.1549 -0.0830  0.6269
  409MPD2    C5 6160   0.015   4.371  17.236 -0.2460  0.5515  0.2673
  409MPD2     H 6161   0.343   4.364  17.436  0.3045 -0.9299 -0.9264
  409MPD2    H1 6162   0.095   4.551  17.144 -1.1014  2.2543  2.8150
  409MPD2    H2 6163   4.694   4.194  17.325 -1.8233  1.5969  1.1263
  409MPD2    H3 6164   4.671   4.351  17.165 -0.2464 -0.4479  0.5528
  409MPD2     N 6165   0.312   4.585  17.274 -0.7346  0.2411  0.4625
  409MPD2    H5 6166   0.288   4.651  17.201 -2.7182 -0.8873  0.0909
  409MPD2    N1 6167   0.181   4.164  17.496  0.0881  0.8332 -0.4827
  409MPD2    H7 6168   0.262   4.173  17.557  0.1100  0.9089 -0.5234
  410TMC3    C1 6169   0.527   4.685  17.251 -0.1632 -0.1036 -0.0680
  410TMC3    C2 6170   0.629   0.022  17.307 -0.3019 -0.1057  0.3917
  410TMC3    C3 6171   0.704   0.097  17.225 -0.2802 -0.3625  0.0077
  410TMC3    C4 6172   0.496   4.694  17.119  0.0360 -0.6626  0.9779
  410TMC3    C5 6173   0.568   0.044  17.039 -0.6521  0.7752 -0.8015
  410TMC3    C6 6174   0.677   0.114  17.086  0.3081 -0.2331  0.0359
  410TMC3     C 6175   0.437   4.603  17.339  0.2473  0.5921  0.3957
  410TMC3     O 6176   0.472   4.564  17.445  0.0387  0.3791 -0.4159
  410TMC3     H 6177   0.664   4.731  17.407  0.1223 -1.1065 -0.0205
  410TMC3    H1 6178   0.432   4.623  17.069  2.2926 -1.2339 -1.0703
  410TMC3    H2 6179   0.738   0.179  17.024  2.2456 -2.2734 -0.1889
  410TMC3    C7 6180   0.548   0.033  16.892  0.0348 -0.3884 -0.3246
  410TMC3    C8 6181   0.826   0.157  17.271 -0.0261  0.2939  0.3366
  410TMC3    O1 6182   0.468   4.685  16.856  0.4881  0.0281 -0.4481
  410TMC3    O2 6183   0.817   0.198  17.383  0.7621  0.1251  0.2648
  411MPD2     C 6184   0.752   4.693  15.001 -0.4543 -0.0970 -0.1736
  411MPD2    C1 6185   0.618   4.667  14.981  0.1742 -0.3009 -0.3109
  411MPD2    C2 6186   0.584   4.537  14.976  0.0816 -0.4752 -0.2948
  411MPD2    C3 6187   0.673   4.433  15.013 -0.6973  0.0758 -0.1526
  411MPD2    C4 6188   0.806   4.466  15.042  0.0593  0.0632  0.8572
  411MPD2    C5 6189   0.848   4.599  15.030 -0.2943  0.2395 -0.3536
  411MPD2     H 6190   0.484   4.519  14.940  0.4107 -1.5613 -0.6632
  411MPD2    H1 6191   0.880   4.389  15.058  1.8308  1.5944  0.0837
  411MPD2    H2 6192   0.789   0.059  14.991  2.2551 -0.8063  2.6118
  411MPD2    H3 6193   0.952   4.629  15.036 -0.6534  1.2736  0.6135
  411MPD2     N 6194   0.635   4.295  15.007  0.4153 -0.3990 -0.0519
  411MPD2    H5 6195   0.698   4.216  15.012 -0.3483 -1.0574 -0.9500
  411MPD2    N1 6196   0.520   0.030  14.941  0.4546  0.4314  0.7002
  411MPD2    H7 6197   0.434   4.725  14.906  0.1614  2.0504 -0.4125
  412TMC3    C1 6198   0.487   4.129  14.927 -0.2079 -0.4563  0.0633
  412TMC3    C2 6199   0.356   4.093  14.929 -0.8235 -0.3707  0.1020
  412TMC3    C3 6200   0.314   4.019  14.824  0.9138  0.4745 -0.5725
  412TMC3    C4 6201   0.572   4.099  14.824  0.7624 -0.4738  0.2733
  412TMC3    C5 6202   0.527   4.027  14.720 -1.3557  0.1411  0.2376
  412TMC3    C6 6203   0.402   3.981  14.723  0.5469 -0.6753 -0.4465
  412TMC3     C 6204   0.507   4.262  14.977  0.3556  0.2571 -0.0793
  412TMC3     O 6205   0.400   4.320  14.980  0.3695 -0.2506  0.1697
  412TMC3     H 6206   0.296   4.117  15.016 -1.2455  2.9792 -1.1142
  412TMC3    H1 6207   0.664   4.156  14.818  1.5053 -1.8971 -1.8121
  412TMC3    H2 6208   0.364   3.928  14.636 -0.0338  4.1292 -3.1269
  412TMC3    C7 6209   0.559   4.092  14.595  0.4752  0.3333  0.2480
  412TMC3    C8 6210   0.188   4.066  14.782 -0.6464  0.2336  1.1937
  412TMC3    O1 6211   0.675   4.094  14.568  0.0243 -0.3490  0.5888
  412TMC3    O2 6212   0.166   4.062  14.660  0.6064  0.1054 -0.3846
  413MPD2     C 6213   2.009   3.014  15.482 -0.0111  0.1420 -0.2571
  413MPD2    C1 6214   1.975   2.961  15.361 -0.2164  0.4234  0.8357
  413MPD2    C2 6215   2.045   2.858  15.314 -0.6150  0.0099  0.4312
  413MPD2    C3 6216   2.151   2.800  15.381  0.7249  0.0013 -0.0026
  413MPD2    C4 6217   2.194   2.862  15.494 -0.0288 -0.4070 -0.1979
  413MPD2    C5 6218   2.121   2.970  15.545 -0.7908 -0.2872  0.1904
  413MPD2     H 6219   2.021   2.802  15.224 -1.1022 -0.4334  0.8359
  413MPD2    H1 6220   2.276   2.836  15.561  0.1649  1.5653  0.3201
  413MPD2    H2 6221   1.952   3.097  15.523  1.7849  1.9684 -1.4672
  413MPD2    H3 6222   2.167   3.022  15.628 -1.8624  0.0795  0.5455
  413MPD2     N 6223   2.199   2.674  15.331  0.0888  0.5722  0.1077
  413MPD2    H5 6224   2.133   2.619  15.278 -0.0221 -0.8805  1.7409
  413MPD2    N1 6225   1.860   3.017  15.302 -0.2578 -0.0535  0.4195
  413MPD2    H7 6226   1.804   3.082  15.356  1.5467  0.5870  1.5243
  414TMC3    C1 6227   2.311   2.468  15.359  0.4817  1.3896  0.5755
  414TMC3    C2 6228   2.367   2.383  15.453  0.2196 -0.4699  0.2727
  414TMC3    C3 6229   2.344   2.251  15.426  0.2376 -0.1743 -0.0885
  414TMC3    C4 6230   2.264   2.420  15.238  0.0741  0.4170 -0.4149
  414TMC3    C5 6231   2.267   2.288  15.209  0.3710 -0.0411 -0.5835
  414TMC3    C6 6232   2.291   2.202  15.310  0.4626 -0.3461 -0.2490
  414TMC3     C 6233   2.314   2.615  15.378 -0.0323 -0.3390 -0.2119
  414TMC3     O 6234   2.404   2.661  15.445 -0.2375  0.4597 -0.3365
  414TMC3     H 6235   2.393   2.431  15.546  2.1390 -1.0893  0.0634
  414TMC3    H1 6236   2.241   2.490  15.159  3.2663 -1.3324 -2.9181
  414TMC3    H2 6237   2.280   2.096  15.291 -1.6464 -0.2594  0.4859
  414TMC3    C7 6238   2.378   2.279  15.122  0.3293 -0.2309  0.4826
  414TMC3    C8 6239   2.445   2.170  15.476 -0.1900  0.5946  0.1736
  414TMC3    O1 6240   2.438   2.380  15.087  0.4007 -0.0255  0.2993
  414TMC3    O2 6241   2.440   2.050  15.451 -0.0254 -0.5039 -0.2846
  415TMC3    C1 6242   1.873   0.402  10.224 -0.3499  0.1448  0.8345
  415TMC3    C2 6243   1.995   0.407  10.171  0.1387  0.0119  0.0800
  415TMC3    C3 6244   2.009   0.361  10.046  0.3906  0.0030  1.6285
  415TMC3    C4 6245   1.766   0.348  10.163  0.2358  0.9571  0.2264
  415TMC3    C5 6246   1.790   0.303  10.036  0.3297  0.8388 -0.6086
  415TMC3    C6 6247   1.910   0.304   9.973  0.4083  0.1383 -0.6637
  415TMC3     C 6248   1.862   0.440  10.362  0.0295  0.0424 -0.3173
  415TMC3     O 6249   1.791   0.364  10.428 -1.0969 -0.3070  0.1846
  415TMC3     H 6250   2.079   0.417  10.239  2.5992 -1.9548 -2.6862
  415TMC3    H1 6251   1.668   0.349  10.208  0.3111  0.8187  0.3903
  415TMC3    H2 6252   1.921   0.279   9.868 -2.6748 -0.0943 -0.9443
  415TMC3    C7 6253   1.693   0.222   9.971  0.1052 -0.0775 -0.0773
  415TMC3    C8 6254   2.138   0.366   9.978  0.0865 -0.4510  0.5930
  415TMC3    O1 6255   1.719   0.199   9.852  0.1781 -0.2990 -0.0828
  415TMC3    O2 6256   2.126   0.334   9.863  0.2800  0.4746  0.3671
  416MPD2     C 6257   4.171   4.706  11.511 -0.4069 -0.4544  0.4473
  416MPD2    C1 6258   4.089   4.629  11.593  0.0742  0.2891 -0.2378
  416MPD2    C2 6259   4.073   4.497  11.569  0.0815 -0.4866 -0.5908
  416MPD2    C3 6260   4.136   4.439  11.461  0.4855  0.0907 -0.1060
  416MPD2    C4 6261   4.219   4.518  11.378  0.2505 -0.0720  0.2741
  416MPD2    C5 6262   4.233   4.652  11.402  0.0228 -0.6166 -0.0932
  416MPD2     H 6263   4.003   4.436  11.625  1.8434 -1.5115  0.4994
  416MPD2    H1 6264   4.244   4.486  11.278 -1.6380  0.2359 -0.2997
  416MPD2    H2 6265   4.169   0.079  11.513 -0.0767 -0.4323 -1.0089
  416MPD2    H3 6266   4.280   4.717  11.330 -0.2162  0.1578  0.4458
  416MPD2     N 6267   4.090   4.307  11.442 -0.1941  0.1254  0.8883
  416MPD2    H5 6268   4.035   4.266  11.516  0.4715 -2.1031  0.1582
  416MPD2    N1 6269   4.011   4.701  11.691  0.2578  0.7017  0.0429
  416MPD2    H7 6270   4.010   0.065  11.706 -1.5870  0.6301  0.4203
  417TMC3    C1 6271   3.867   4.726  11.879  0.5737  0.0419  0.5920
  417TMC3    C2 6272   3.854   4.687  12.012 -0.1707  0.1947 -0.2617
  417TMC3    C3 6273   3.767   0.022  12.087 -0.2045  0.0531 -0.1454
  417TMC3    C4 6274   3.780   0.084  11.824  0.0947  0.1672 -0.0095
  417TMC3    C5 6275   3.687   0.145  11.903 -0.4312  0.3084  0.2704
  417TMC3    C6 6276   3.682   0.122  12.038 -0.1459 -0.3098  0.1592
  417TMC3     C 6277   3.947   4.638  11.791  0.1225 -0.0620 -0.4193
  417TMC3     O 6278   3.959   4.520  11.819 -0.9228 -0.1542  0.7739
  417TMC3     H 6279   3.900   4.596  12.048  1.5158  0.2145 -2.3671
  417TMC3    H1 6280   3.785   0.089  11.716 -1.0911  3.9501  0.1205
  417TMC3    H2 6281   3.615   0.162  12.113  0.5325  1.5737 -0.2365
  417TMC3    C7 6282   3.586   0.225  11.836 -0.2833 -0.1566 -0.1547
  417TMC3    C8 6283   3.785   0.021  12.233 -0.3110  0.6282  0.4259
  417TMC3    O1 6284   3.619   0.269  11.725  0.5634 -0.1799 -0.9824
  417TMC3    O2 6285   3.690   0.058  12.303 -0.5160 -0.3720  0.3132
  418TMC3    C1 6286   3.356   2.029  17.661  0.6148 -0.2862 -0.5499
  418TMC3    C2 6287   3.231   2.082  17.679 -0.1371 -0.1154 -0.4584
  418TMC3    C3 6288   3.173   2.042   0.055  0.6914  0.4082 -0.1349
  418TMC3    C4 6289   3.436   1.978   0.025 -0.3717 -0.1961 -0.0562
  418TMC3    C5 6290   3.379   1.972   0.148 -0.5420 -0.0868 -0.6168
  418TMC3    C6 6291   3.242   1.994   0.166  0.8942  0.3307 -0.6067
  418TMC3     C 6292   3.396   2.001  17.529 -0.3159  0.7398  0.0411
  418TMC3     O 6293   3.373   2.083  17.445 -0.0616 -0.1985 -0.2558
  418TMC3     H 6294   3.170   2.103  17.592  0.4069  1.9523 -0.3529
  418TMC3    H1 6295   3.536   1.938   0.013 -0.3219  0.1314 -0.7333
  418TMC3    H2 6296   3.197   1.980   0.263  1.3709  0.6399 -0.3409
  418TMC3    C7 6297   3.438   1.882   0.249 -0.1409  0.7140 -0.0427
  418TMC3    C8 6298   3.032   2.055   0.061 -0.6951 -0.5781  0.0691
  418TMC3    O1 6299   3.468   1.770   0.209 -0.2806  1.0495 -0.3286
  418TMC3    O2 6300   2.981   2.161   0.026  0.2988 -0.5026 -0.6027
  419MPD2     C 6301   1.587   4.246  12.274  0.1252  0.1896  0.4377
  419MPD2    C1 6302   1.537   4.374  12.303 -0.1976 -0.0247  0.6963
  419MPD2    C2 6303   1.510   4.407  12.438 -0.0016  0.1021  0.2048
  419MPD2    C3 6304   1.525   4.315  12.540 -0.4210  0.3086 -0.4348
  419MPD2    C4 6305   1.576   4.188  12.514 -0.7648 -0.2952 -0.0434
  419MPD2    C5 6306   1.619   4.161  12.383  0.1658  0.5033 -0.2597
  419MPD2     H 6307   1.471   4.502  12.473  2.1323  1.1560 -0.2902
  419MPD2    H1 6308   1.608   4.118  12.590  2.0059  0.5017 -0.5075
  419MPD2    H2 6309   1.624   4.213  12.178 -0.5080  1.9732 -0.4001
  419MPD2    H3 6310   1.663   4.067  12.352 -0.2699  0.1637  0.1492
  419MPD2     N 6311   1.495   4.368  12.663 -0.4325  0.4166 -0.1232
  419MPD2    H5 6312   1.452   4.460  12.667  0.8918  1.0894 -1.2414
  419MPD2    N1 6313   1.508   4.480  12.216 -0.6931  0.1093  0.2392
  419MPD2    H7 6314   1.469   4.565  12.255 -1.0692  0.1248 -0.1718
  420TMC3    C1 6315   1.407   4.367  12.882  0.2123 -0.1928 -0.1463
  420TMC3    C2 6316   1.287   4.422  12.842  0.5561  0.0838 -0.3195
  420TMC3    C3 6317   1.198   4.474  12.929  0.7416 -0.3952  0.6753
  420TMC3    C4 6318   1.442   4.357  13.016  0.0113 -0.3344  0.2140
  420TMC3    C5 6319   1.356   4.425  13.098  0.2344  0.1989 -0.1223
  420TMC3    C6 6320   1.235   4.479  13.062 -0.6110  0.1966  0.8015
  420TMC3     C 6321   1.502   4.308  12.789  0.2687  0.1521  0.3376
  420TMC3     O 6322   1.562   4.208  12.825 -0.2398  0.5692 -0.0490
  420TMC3     H 6323   1.262   4.409  12.737 -1.0458  2.0985 -0.1793
  420TMC3    H1 6324   1.541   4.326  13.047  0.0664  0.8222  1.1879
  420TMC3    H2 6325   1.174   4.530  13.137  0.7648  0.9423  1.4038
  420TMC3    C7 6326   1.402   4.458  13.231 -0.2504  0.5606 -0.8140
  420TMC3    C8 6327   1.095   4.579  12.886 -0.1672  0.2843  0.3248
  420TMC3    O1 6328   1.481   4.382  13.286  0.4491 -0.2042  0.2036
  420TMC3    O2 6329   1.088   4.620  12.771  0.1625  0.1249 -0.3329
  421TMC3    C1 6330   3.274   1.622  13.901  0.0101 -0.1766  0.0018
  421TMC3    C2 6331   3.355   1.723  13.945 -0.5163 -1.1928  0.1199
  421TMC3    C3 6332   3.438   1.682  14.040 -0.1012  0.1203 -0.0915
  421TMC3    C4 6333   3.284   1.488  13.943 -0.4288 -0.3632 -0.5749
  421TMC3    C5 6334   3.381   1.460  14.036  0.4414 -0.3032 -0.2070
  421TMC3    C6 6335   3.457   1.557  14.090  0.0395  0.3523 -0.3175
  421TMC3     C 6336   3.149   1.665  13.833 -0.6761 -0.9082 -0.3099
  421TMC3     O 6337   3.158   1.778  13.786 -0.3619 -0.3655  0.1976
  421TMC3     H 6338   3.353   1.818  13.892 -0.0412 -0.8805  0.6606
  421TMC3    H1 6339   3.230   1.409  13.892  1.6795 -1.5088 -1.0028
  421TMC3    H2 6340   3.532   1.529  14.163 -0.0810 -0.6951 -0.5980
  421TMC3    C7 6341   3.419   1.320  14.065 -0.2975 -0.4223 -0.7934
  421TMC3    C8 6342   3.508   1.779  14.116 -0.3907 -0.2274  0.3248
  421TMC3    O1 6343   3.530   1.303  14.106  0.1726  0.0795  0.5774
  421TMC3    O2 6344   3.595   1.740  14.191  0.2145 -0.0127  0.0846
  422TMC3    C1 6345   0.546   2.538  13.036 -0.3851 -0.1210  0.2083
  422TMC3    C2 6346   0.497   2.659  13.006  0.2748 -0.7808  0.1412
  422TMC3    C3 6347   0.378   2.698  13.056 -1.3126  0.2617  0.4464
  422TMC3    C4 6348   0.462   2.451  13.104  0.8043 -0.5816 -0.1567
  422TMC3    C5 6349   0.337   2.492  13.135 -0.2011  0.2956  0.1471
  422TMC3    C6 6350   0.297   2.623  13.129 -0.1615  0.0487 -0.0437
  422TMC3     C 6351   0.604   2.458  12.936 -0.2711 -0.3656  0.2770
  422TMC3     O 6352   0.545   2.465  12.827 -0.1060 -0.2132  0.4192
  422TMC3     H 6353   0.551   2.723  12.938  1.2433  1.0200  2.6056
  422TMC3    H1 6354   0.479   2.346  13.124  2.6112 -0.3602 -0.5780
  422TMC3    H2 6355   0.211   2.653  13.188  0.0114  0.7864 -0.1630
  422TMC3    C7 6356   0.251   2.392  13.205  0.0482  0.1461  0.7817
  422TMC3    C8 6357   0.339   2.838  13.030 -0.1385 -0.1467 -0.6978
  422TMC3    O1 6358   0.298   2.334  13.303 -0.1229 -0.1811  0.2937
  422TMC3    O2 6359   0.425   2.920  13.010  0.3817 -0.0754 -0.1935
  423MPD2     C 6360   2.408   3.985   0.671  0.2239  0.3533  0.2493
  423MPD2    C1 6361   2.393   3.852   0.687 -0.0523 -0.7640  0.1055
  423MPD2    C2 6362   2.378   3.770   0.580  0.1975  0.0393  0.7380
  423MPD2    C3 6363   2.382   3.811   0.451 -0.6264  0.0721 -0.3869
  423MPD2    C4 6364   2.425   3.941   0.433 -0.2324  0.4116  0.1661
  423MPD2    C5 6365   2.429   4.030   0.542  0.3936  0.1417  0.7242
  423MPD2     H 6366   2.362   3.668   0.612 -0.9105  0.2087  0.7231
  423MPD2    H1 6367   2.430   4.001   0.342  1.8140  0.0937  0.0580
  423MPD2    H2 6368   2.418   4.060   0.749 -0.1730  1.7641 -1.0471
  423MPD2    H3 6369   2.442   4.137   0.527  1.1111  0.4948  3.8987
  423MPD2     N 6370   2.363   3.728   0.340  0.2579 -0.1873 -0.0328
  423MPD2    H5 6371   2.372   3.781   0.254 -1.9852 -0.6143 -0.5294
  423MPD2    N1 6372   2.382   3.797   0.816 -0.3884 -0.0944  0.4088
  423MPD2    H7 6373   2.354   3.700   0.827 -1.0724 -0.0028 -0.5887
  424TMC3    C1 6374   2.436   3.766   1.050  0.2155  0.2298 -0.3168
  424TMC3    C2 6375   2.515   3.658   1.028  0.0643 -0.8834  0.1825
  424TMC3    C3 6376   2.478   3.535   1.085  0.0651 -0.4054  0.0533
  424TMC3    C4 6377   2.324   3.755   1.129 -0.1656  0.5878  0.7661
  424TMC3    C5 6378   2.293   3.636   1.174 -0.6540 -0.2978 -1.3562
  424TMC3    C6 6379   2.363   3.520   1.148 -0.6144  0.5043 -0.1563
  424TMC3     C 6380   2.423   3.855   0.934 -0.2067  0.0711 -0.3119
  424TMC3     O 6381   2.454   3.972   0.954 -0.1534  0.0150  0.8583
  424TMC3     H 6382   2.606   3.678   0.972  0.9284  0.8887  2.2510
  424TMC3    H1 6383   2.250   3.833   1.142 -1.2854 -0.4313  0.5366
  424TMC3    H2 6384   2.336   3.420   1.180  3.0886 -0.6113 -0.5431
  424TMC3    C7 6385   2.160   3.613   1.229 -0.3926  0.2215  0.2193
  424TMC3    C8 6386   2.585   3.443   1.113 -1.0394  1.1045  0.0203
  424TMC3    O1 6387   2.107   3.506   1.200  0.3266 -0.1689 -0.0118
  424TMC3    O2 6388   2.569   3.353   1.190 -0.2238 -0.1126 -0.1442
  425MPD2     C 6389   1.003   3.200  17.403  0.6282  0.2009 -0.1494
  425MPD2    C1 6390   0.917   3.101  17.377 -0.3340 -0.0826  0.5734
  425MPD2    C2 6391   0.786   3.128  17.409  0.3426 -0.0569  0.5340
  425MPD2    C3 6392   0.747   3.232  17.497  0.9413 -0.1658 -0.9776
  425MPD2    C4 6393   0.840   3.330  17.527  0.4152  0.5292 -0.6622
  425MPD2    C5 6394   0.969   3.313  17.475 -0.0627 -0.6769  0.2501
  425MPD2     H 6395   0.708   3.056  17.386 -0.1871  0.8912 -0.6388
  425MPD2    H1 6396   0.821   3.420  17.583  0.5540  0.1925 -0.0734
  425MPD2    H2 6397   1.109   3.184  17.384  1.1494  2.3836  0.9215
  425MPD2    H3 6398   1.051   3.383  17.487 -2.2265  1.6537  1.3943
  425MPD2     N 6399   0.610   3.248  17.537 -0.5791 -0.6095 -0.2584
  425MPD2    H5 6400   0.541   3.187  17.493  1.1463 -0.9296 -2.5092
  425MPD2    N1 6401   0.960   2.980  17.321 -0.0590 -0.3295  0.6290
  425MPD2    H7 6402   1.057   2.970  17.292 -0.5234 -1.0711 -0.6651
  426TMC3    C1 6403   0.951   2.751  17.247 -0.4314 -0.2738 -0.3300
  426TMC3    C2 6404   1.060   2.771  17.169 -0.1664 -0.2569 -0.3068
  426TMC3    C3 6405   1.090   2.669  17.084  0.5436 -0.1284  0.2752
  426TMC3    C4 6406   0.889   2.630  17.260  0.4028 -0.2572  0.8632
  426TMC3    C5 6407   0.918   2.536  17.169  0.9201 -0.6742  0.2301
  426TMC3    C6 6408   1.013   2.558  17.077  0.2792  0.9097 -0.0007
  426TMC3     C 6409   0.887   2.864  17.314  0.1006 -0.7578 -0.6974
  426TMC3     O 6410   0.775   2.838  17.358  0.1031 -0.2659  0.3382
  426TMC3     H 6411   1.109   2.867  17.166  0.0475 -0.3118  1.8167
  426TMC3    H1 6412   0.821   2.629  17.344 -1.2362  1.1120 -0.4398
  426TMC3    H2 6413   1.035   2.481  17.004 -3.2405 -3.5821  3.6491
  426TMC3    C7 6414   0.816   2.432  17.149 -0.0775 -0.4838 -0.7533
  426TMC3    C8 6415   1.163   2.714  16.966 -0.0941 -0.0156  0.0340
  426TMC3    O1 6416   0.852   2.336  17.085  0.1223 -0.2739  0.4405
  426TMC3    O2 6417   1.215   2.824  16.979 -0.4440  0.3990  0.1829
  427MPD2     C 6418   4.375   4.627  15.003 -0.1314 -0.7433 -0.7915
  427MPD2    C1 6419   4.336   4.641  15.135  0.9214 -0.1808  0.1098
  427MPD2    C2 6420   4.207   4.670  15.165  0.1135 -0.8785  0.4973
  427MPD2    C3 6421   4.114   4.703  15.068  0.7663  0.1630 -0.7457
  427MPD2    C4 6422   4.152   4.679  14.931  0.1123  0.2760 -0.0248
  427MPD2    C5 6423   4.283   4.645  14.904 -0.2466 -0.0739  0.2520
  427MPD2     H 6424   4.187   4.679  15.271  2.1448 -0.6062  0.8471
  427MPD2    H1 6425   4.084   4.677  14.847 -1.3327  1.8407  1.1153
  427MPD2    H2 6426   4.472   4.588  14.973 -0.5935  0.2553 -3.6357
  427MPD2    H3 6427   4.320   4.643  14.802 -1.2629  2.9151 -0.2043
  427MPD2     N 6428   3.981   0.015  15.083  0.1753  0.1311 -0.1781
  427MPD2    H5 6429   3.927   0.029  14.998 -1.0096  0.4419  0.6197
  427MPD2    N1 6430   4.414   4.613  15.249  0.8168 -0.5036  0.7572
  427MPD2    H7 6431   4.362   4.604  15.336  0.3048  0.1753  0.5188
  428TMC3    C1 6432   4.617   4.587  15.364  0.0782  0.7941  0.9167
  428TMC3    C2 6433   4.571   4.478  15.439 -0.1246  0.7103 -0.0430
  428TMC3    C3 6434   4.654   4.448  15.536  0.5342 -0.4041 -0.5885
  428TMC3    C4 6435   0.004   4.653  15.384  0.8633 -0.0331 -0.1123
  428TMC3    C5 6436   0.080   4.606  15.489 -0.3585  0.8725 -0.5256
  428TMC3    C6 6437   0.037   4.501  15.567 -0.4586 -0.9078 -0.4598
  428TMC3     C 6438   4.552   4.609  15.242 -0.0453  0.6540  0.1490
  428TMC3     O 6439   4.620   4.651  15.147  0.0542 -0.4555 -0.0908
  428TMC3     H 6440   4.475   4.428  15.428  1.0566 -1.3148 -1.0715
  428TMC3    H1 6441   0.020   0.011  15.331  0.1155 -0.6013 -1.3445
  428TMC3    H2 6442   0.106   4.451  15.635  0.1172 -3.2296 -2.7327
  428TMC3    C7 6443   0.163   4.710  15.554 -0.3963 -0.4902 -0.2223
  428TMC3    C8 6444   4.591   4.354  15.624 -0.6630 -0.1557  0.1114
  428TMC3    O1 6445   0.141   4.728  15.672 -0.1060 -0.3318 -0.1119
  428TMC3    O2 6446   4.528   4.257  15.587  0.6176 -0.8862 -0.2680
  429MPD2     C 6447   0.456   0.468   0.119  0.0075 -0.0155  0.6309
  429MPD2    C1 6448   0.574   0.418   0.070  0.3656 -0.1747  0.5161
  429MPD2    C2 6449   0.661   0.500  17.740  0.0589 -0.4209 -0.8059
  429MPD2    C3 6450   0.633   0.630  17.706  0.2583  0.2620 -0.2073
  429MPD2    C4 6451   0.511   0.678   0.003  0.0764 -0.2367 -0.4172
  429MPD2    C5 6452   0.428   0.594   0.080 -0.5023  1.2007  0.1532
  429MPD2     H 6453   0.749   0.455  17.695 -0.1916 -0.8969 -0.8248
  429MPD2    H1 6454   0.469   0.776  17.726  1.7694  0.8078  1.3466
  429MPD2    H2 6455   0.373   0.414   0.164  0.0472 -3.0447 -2.9177
  429MPD2    H3 6456   0.329   0.632   0.104 -1.3932 -1.0639  0.0191
  429MPD2     N 6457   0.716   0.696  17.616  0.3224  0.1265 -0.0697
  429MPD2    H5 6458   0.792   0.645  17.573  0.4137 -0.1680  0.4298
  429MPD2    N1 6459   0.619   0.283   0.078 -0.4357  0.1520 -0.5039
  429MPD2    H7 6460   0.708   0.254   0.040 -0.9705 -0.5301 -1.2483
  430TMC3    C1 6461   0.770   0.842  17.447  0.6408  0.3980  0.1356
  430TMC3    C2 6462   0.723   0.927  17.343 -0.3025 -0.2591  0.9126
  430TMC3    C3 6463   0.812   0.972  17.258  0.1055 -0.1161  0.2677
  430TMC3    C4 6464   0.903   0.822  17.472  0.3138 -0.4985 -0.2310
  430TMC3    C5 6465   0.991   0.868  17.382  0.1365 -0.1560  0.1174
  430TMC3    C6 6466   0.949   0.946  17.277  0.0137 -0.0402  0.2842
  430TMC3     C 6467   0.678   0.812  17.554 -0.2582  0.3035  0.1679
  430TMC3     O 6468   0.585   0.893  17.566 -0.0284  0.5089 -0.0032
  430TMC3     H 6469   0.616   0.932  17.329 -0.3061 -0.6968  0.7733
  430TMC3    H1 6470   0.933   0.757  17.553  2.8406  0.4354 -0.4315
  430TMC3    H2 6471   1.021   0.961  17.197  1.1046  0.2637  1.3111
  430TMC3    C7 6472   1.106   0.788  17.338 -0.1273 -0.2463  0.1059
  430TMC3    C8 6473   0.771   0.993  17.125 -0.2920  0.2331  0.1405
  430TMC3    O1 6474   1.108   0.746  17.220  0.0608  0.6701 -0.7536
  430TMC3    O2 6475   0.676   0.924  17.089  0.2994  0.0014  0.4971
  431MPD2     C 6476   1.597   0.352  12.716  0.2943  0.3662  0.3286
  431MPD2    C1 6477   1.670   0.403  12.612  0.3659 -0.4078  0.6213
  431MPD2    C2 6478   1.654   0.349  12.482  0.1938  0.1849 -0.4206
  431MPD2    C3 6479   1.557   0.253  12.459  0.2075 -0.3930  0.2427
  431MPD2    C4 6480   1.481   0.215  12.567  0.4497  0.2985  0.3232
  431MPD2    C5 6481   1.499   0.253  12.693 -0.2353 -0.2233 -0.5437
  431MPD2     H 6482   1.707   0.402  12.404  1.9191 -0.2472  0.4527
  431MPD2    H1 6483   1.415   0.130  12.551  1.2973 -0.2599 -0.1964
  431MPD2    H2 6484   1.606   0.394  12.816 -0.1149 -0.9814  0.9346
  431MPD2    H3 6485   1.430   0.214  12.767  0.5745  0.5654  0.6296
  431MPD2     N 6486   1.530   0.183  12.339  0.0845  0.1282 -0.1203
  431MPD2    H5 6487   1.470   0.102  12.343  0.3458 -0.1311 -1.4884
  431MPD2    N1 6488   1.768   0.506  12.627 -0.2798 -0.7358  0.1366
  431MPD2    H7 6489   1.821   0.522  12.543 -0.7435 -0.9293 -0.1984
  432TMC3    C1 6490   1.557   0.129  12.108 -0.5560  0.0991 -0.2400
  432TMC3    C2 6491   1.568   0.162  11.970  0.2731  0.0050  0.4440
  432TMC3    C3 6492   1.576   0.060  11.880 -0.0631  0.2224  0.1589
  432TMC3    C4 6493   1.541   4.732  12.140  0.4658 -0.1626  0.1505
  432TMC3    C5 6494   1.534   4.633  12.045 -1.0308 -0.5835 -0.5935
  432TMC3    C6 6495   1.559   4.667  11.916  0.2887  0.2556  0.1400
  432TMC3     C 6496   1.584   0.222  12.214  0.4412  0.0869 -0.1592
  432TMC3     O 6497   1.639   0.327  12.180  0.0201  0.4269 -0.3563
  432TMC3     H 6498   1.579   0.266  11.944  1.1951 -0.2042  0.0029
  432TMC3    H1 6499   1.548   4.705  12.245  0.1501 -0.0806  0.1922
  432TMC3    H2 6500   1.558   4.593  11.836 -1.8459  1.0697 -0.5731
  432TMC3    C7 6501   1.535   4.491  12.086  0.2850 -0.2375  0.4582
  432TMC3    C8 6502   1.702   0.070  11.803 -0.0204 -0.0161  0.3722
  432TMC3    O1 6503   1.566   4.399  12.009 -0.4597 -0.7276 -0.2120
  432TMC3    O2 6504   1.711   0.046  11.685 -0.5908  0.2516  0.4651
  433MPD2     C 6505   4.650   3.840  11.204  0.5823 -0.6571 -0.1305
  433MPD2    C1 6506   4.602   3.761  11.311 -0.2881  0.5129  0.8419
  433MPD2    C2 6507   4.632   3.808  11.435 -0.0995 -0.0788 -0.3598
  433MPD2    C3 6508   4.724   3.907  11.458 -0.8247  0.6828  0.3922
  433MPD2    C4 6509   0.041   3.975  11.355  0.1425  0.1530 -0.1599
  433MPD2    C5 6510   0.010   3.945  11.224 -0.2247 -0.5232 -0.0438
  433MPD2     H 6511   4.579   3.771  11.522  1.4858  0.4960  0.8669
  433MPD2    H1 6512   0.112   4.055  11.374  0.3538  0.1091 -0.7575
  433MPD2    H2 6513   4.623   3.822  11.100  1.3136  1.1534 -0.6233
  433MPD2    H3 6514   0.055   4.002  11.143 -2.4883  0.6929 -0.4392
  433MPD2     N 6515   0.022   3.926  11.594 -0.0301 -0.6877 -0.1058
  433MPD2    H5 6516   4.708   3.876  11.667 -3.1065 -0.2155 -1.8588
  433MPD2    N1 6517   4.516   3.652  11.285  0.2828  0.8306  0.4875
  433MPD2    H7 6518   4.522   3.616  11.190 -0.5063  0.8384  0.4326
  434TMC3    C1 6519   4.440   3.435  11.332  0.3725 -0.4564  0.2260
  434TMC3    C2 6520   4.513   3.337  11.391 -0.6294 -0.5457  0.6782
  434TMC3    C3 6521   4.555   3.231  11.320  0.1719  0.0078  0.2067
  434TMC3    C4 6522   4.417   3.422  11.198  0.1604 -1.0808 -0.5499
  434TMC3    C5 6523   4.459   3.312  11.128  0.0869 -0.7790  0.3247
  434TMC3    C6 6524   4.533   3.219  11.190  0.0844  0.1168  0.1797
  434TMC3     C 6525   4.470   3.567  11.381  0.1156  0.2590  0.1585
  434TMC3     O 6526   4.475   3.578  11.504  0.2114 -0.0092 -0.7002
  434TMC3     H 6527   4.547   3.351  11.493  1.0405  2.4728 -0.2829
  434TMC3    H1 6528   4.377   3.502  11.137  1.8848 -1.2798 -1.9306
  434TMC3    H2 6529   4.550   3.121  11.146 -0.3265 -0.6835  1.8032
  434TMC3    C7 6530   4.385   3.286  11.004 -0.2373 -0.7020 -0.3877
  434TMC3    C8 6531   4.671   3.177  11.383  0.5519 -0.0771  0.3013
  434TMC3    O1 6532   4.350   3.388  10.944 -0.0419 -0.8240  0.4830
  434TMC3    O2 6533   4.677   3.183  11.503  0.1877 -0.5400  0.2585
  435MPD2     C 6534   2.416   3.855  15.522 -0.1400  0.3780  0.0066
  435MPD2    C1 6535   2.405   3.846  15.657  0.1409  0.7361  0.3115
  435MPD2    C2 6536   2.479   3.754  15.726 -0.2430 -0.0761 -0.2442
  435MPD2    C3 6537   2.553   3.658  15.656 -0.2760 -0.4514  0.5702
  435MPD2    C4 6538   2.570   3.672  15.521 -0.7418  0.5243 -0.9312
  435MPD2    C5 6539   2.498   3.768  15.452 -0.8052 -0.2045 -0.0415
  435MPD2     H 6540   2.478   3.751  15.835 -0.7517 -2.0368 -0.3104
  435MPD2    H1 6541   2.625   3.599  15.463  0.4977  0.4698  0.2961
  435MPD2    H2 6542   2.377   3.945  15.476 -0.0181 -1.7230 -4.1387
  435MPD2    H3 6543   2.515   3.775  15.345 -0.4252  1.3216  0.1176
  435MPD2     N 6544   2.615   3.559  15.734 -0.2707  0.0054  0.3248
  435MPD2    H5 6545   2.612   3.570  15.835  2.6260  0.7766  0.3208
  435MPD2    N1 6546   2.320   3.933  15.735 -0.0532 -0.4041  0.2146
  435MPD2    H7 6547   2.323   3.914  15.835 -0.7322  0.0491  0.3203
  436TMC3    C1 6548   2.179   4.208  16.010  0.2955  0.4918  0.4710
  436TMC3    C2 6549   2.207   4.106  15.922 -0.1665 -0.2143  0.0124
  436TMC3    C3 6550   2.168   4.109  15.790 -0.3649 -0.1380 -0.5028
  436TMC3    C4 6551   2.121   4.321  15.963 -0.0895  0.1303 -0.8026
  436TMC3    C5 6552   2.076   4.317  15.836  0.2679 -0.1859  0.2972
  436TMC3    C6 6553   2.089   4.211  15.750  0.2505 -0.1444  0.2572
  436TMC3     C 6554   2.263   4.206  16.129  0.2294  0.8095 -0.9636
  436TMC3     O 6555   2.357   4.129  16.128  0.4065 -0.9717 -0.1562
  436TMC3     H 6556   2.265   4.018  15.948  0.6124  0.1134 -0.5915
  436TMC3    H1 6557   2.100   4.406  16.027 -1.9882 -0.4378 -0.6865
  436TMC3    H2 6558   2.057   4.213  15.646 -0.9723  1.1858  0.6601
  436TMC3    C7 6559   2.050   4.447  15.771  0.0038 -0.6408 -0.0706
  436TMC3    C8 6560   2.224   4.022  15.690 -0.3488 -0.2016 -0.0448
  436TMC3    O1 6561   2.099   4.547  15.820  0.1227  0.2966  0.8506
  436TMC3    O2 6562   2.185   4.043  15.576  0.1087  0.0005  0.0056
  437TMC3    C1 6563   1.235   1.006  12.591 -0.7749  0.5461 -0.4941
  437TMC3    C2 6564   1.165   0.971  12.481 -0.3706 -0.0341  0.0049
  437TMC3    C3 6565   1.230   0.999  12.365  0.4033 -0.5219 -0.6960
  437TMC3    C4 6566   1.361   1.066  12.594  0.2276  0.0152  0.5383
  437TMC3    C5 6567   1.422   1.078  12.476  0.7029  0.5942  0.2689
  437TMC3    C6 6568   1.362   1.042  12.357  0.5535 -0.2511 -0.0845
  437TMC3     C 6569   1.176   0.950  12.710  0.8104 -0.0507 -0.0845
  437TMC3     O 6570   1.056   0.936  12.703  0.1244  0.2817 -0.6601
  437TMC3     H 6571   1.063   0.934  12.476 -0.1809 -0.4940 -0.3969
  437TMC3    H1 6572   1.406   1.087  12.691  1.5137  0.4384 -0.1510
  437TMC3    H2 6573   1.400   1.068  12.259 -0.6205 -2.4794 -1.1090
  437TMC3    C7 6574   1.550   1.139  12.455  0.5872 -0.1188 -0.0964
  437TMC3    C8 6575   1.154   1.020  12.245  0.2074 -0.8477  0.0425
  437TMC3    O1 6576   1.578   1.172  12.342 -0.3966  0.4698  0.3678
  437TMC3    O2 6577   1.198   1.085  12.153 -0.8004  0.2218 -0.5899
  438MPD2     C 6578   3.217   1.847  16.476 -0.7032 -0.5805  0.5600
  438MPD2    C1 6579   3.300   1.756  16.533 -0.0421 -0.2983  0.0516
  438MPD2    C2 6580   3.299   1.731  16.666 -1.4194  0.1308  0.4767
  438MPD2    C3 6581   3.205   1.784  16.743  1.0750  0.1872 -0.0222
  438MPD2    C4 6582   3.117   1.874  16.693  0.8612  0.1524  0.4362
  438MPD2    C5 6583   3.127   1.901  16.561  0.8372  0.2150  0.1758
  438MPD2     H 6584   3.380   1.672  16.708 -1.9374 -1.0679 -0.1921
  438MPD2    H1 6585   3.031   1.910  16.748  0.4249  3.1128 -2.1809
  438MPD2    H2 6586   3.214   1.867  16.369  0.1977 -0.8309  0.4862
  438MPD2    H3 6587   3.059   1.971  16.513  3.2720  1.5766 -1.2542
  438MPD2     N 6588   3.192   1.750  16.884  0.1818  0.2424  0.0191
  438MPD2    H5 6589   3.119   1.798  16.935  0.5759  0.7482  0.1089
  438MPD2    N1 6590   3.412   1.699  16.465  0.2108  0.1703  0.0597
  438MPD2    H7 6591   3.460   1.626  16.517 -1.4669 -1.2181 -0.3414
  439TMC3    C1 6592   3.598   1.675  16.320  0.5759  0.0527 -0.9580
  439TMC3    C2 6593   3.633   1.642  16.196 -0.0567 -0.2968 -0.2027
  439TMC3    C3 6594   3.740   1.551  16.190 -0.2332 -0.1085 -0.5471
  439TMC3    C4 6595   3.666   1.634  16.434  0.4811  0.5941  0.0404
  439TMC3    C5 6596   3.770   1.544  16.429 -0.3817  0.5960  1.1368
  439TMC3    C6 6597   3.806   1.503  16.306  0.2788 -0.1285  0.4727
  439TMC3     C 6598   3.470   1.735  16.344 -0.2127  0.6332  0.6495
  439TMC3     O 6599   3.427   1.818  16.264 -0.7195  0.2284  0.4456
  439TMC3     H 6600   3.558   1.649  16.118 -0.3540 -1.0202  0.0166
  439TMC3    H1 6601   3.632   1.670  16.531  0.9333 -0.6428  0.6527
  439TMC3    H2 6602   3.887   1.432  16.300  0.9285  0.5201  1.6220
  439TMC3    C7 6603   3.811   1.492  16.555 -0.4488  0.4614  0.2409
  439TMC3    C8 6604   3.771   1.488  16.062  0.7037 -0.3315 -0.8329
  439TMC3    O1 6605   3.743   1.518  16.651 -0.3163 -0.0674 -0.5407
  439TMC3    O2 6606   3.818   1.376  16.077  0.0493  0.3472 -0.2452
  440MPD2     C 6607   2.932   1.778  14.532  0.0432 -0.5940  0.3053
  440MPD2    C1 6608   2.842   1.726  14.616  0.0722  0.3417  0.6221
  440MPD2    C2 6609   2.878   1.692  14.741 -0.1098  0.5784 -0.5165
  440MPD2    C3 6610   2.998   1.733  14.802  0.7462 -0.4006  0.5876
  440MPD2    C4 6611   3.090   1.784  14.714  0.3361 -0.1601  0.0557
  440MPD2    C5 6612   3.056   1.810  14.580 -0.0263 -0.8193  0.2400
  440MPD2     H 6613   2.800   1.648  14.802  1.3012 -0.7097  0.3641
  440MPD2    H1 6614   3.193   1.813  14.734  0.2224 -1.4670  2.4936
  440MPD2    H2 6615   2.911   1.788  14.427 -1.9847 -2.7689  0.5036
  440MPD2    H3 6616   3.126   1.854  14.511 -0.9867  0.1592 -0.1011
  440MPD2     N 6617   3.030   1.700  14.931 -0.1446  0.0983 -0.1322
  440MPD2    H5 6618   3.113   1.740  14.973 -0.2238  0.6363 -0.4834
  440MPD2    N1 6619   2.710   1.684  14.578 -0.1434 -0.5509  0.8824
  440MPD2    H7 6620   2.655   1.628  14.643 -1.0086 -1.3964 -0.5801
  441TMC3    C1 6621   2.988   1.613  15.142 -0.5041 -0.7754  0.4155
  441TMC3    C2 6622   3.008   1.737  15.199 -0.0007  0.3474  0.4474
  441TMC3    C3 6623   3.016   1.741  15.330  0.0329 -0.1677  0.1702
  441TMC3    C4 6624   2.937   1.511  15.220 -0.0553 -0.5214 -0.2002
  441TMC3    C5 6625   2.924   1.523  15.354  0.3629 -0.3945  0.0455
  441TMC3    C6 6626   2.965   1.644  15.411  0.2488  0.0185 -0.7269
  441TMC3     C 6627   2.961   1.603  15.003 -0.3371 -0.3646 -0.1585
  441TMC3     O 6628   2.897   1.505  14.964 -0.0858 -0.5991 -0.3045
  441TMC3     H 6629   3.023   1.831  15.146 -0.5428 -0.4522 -1.1059
  441TMC3    H1 6630   2.911   1.415  15.176  0.1109  0.1926 -1.8513
  441TMC3    H2 6631   2.961   1.655  15.518  0.7558 -1.0586 -0.5888
  441TMC3    C7 6632   2.828   1.444  15.433  0.0696 -0.2820  0.1959
  441TMC3    C8 6633   3.033   1.872  15.390 -0.2879 -0.0422  0.1276
  441TMC3    O1 6634   2.816   1.481  15.548 -0.3287  0.2078  0.3791
  441TMC3    O2 6635   3.142   1.924  15.383  0.0231  0.3962  0.8934
  442MPD2     C 6636   0.661   2.685  16.533 -0.2737  0.3946 -0.2659
  442MPD2    C1 6637   0.526   2.658  16.527  0.1409  0.0911 -0.4490
  442MPD2    C2 6638   0.490   2.530  16.475  0.6423  0.0487  0.0393
  442MPD2    C3 6639   0.582   2.442  16.425  0.6160  0.3122  0.8148
  442MPD2    C4 6640   0.707   2.479  16.421  0.2029  0.2869  0.8811
  442MPD2    C5 6641   0.752   2.601  16.472  0.6849  0.6996 -0.5984
  442MPD2     H 6642   0.386   2.503  16.492  0.8556  0.1314  1.5019
  442MPD2    H1 6643   0.783   2.408  16.388  0.1730 -0.4175  2.3361
  442MPD2    H2 6644   0.690   2.779  16.580 -0.2760 -0.2496  1.0059
  442MPD2    H3 6645   0.859   2.618  16.473  0.8403 -0.2883 -0.3470
  442MPD2     N 6646   0.550   2.318  16.365 -0.3531 -0.0864 -0.0306
  442MPD2    H5 6647   0.624   2.273  16.312  1.0356  4.0637 -1.5542
  442MPD2    N1 6648   0.425   2.741  16.580  0.1164 -0.2421  0.3216
  442MPD2    H7 6649   0.329   2.712  16.563  0.4063 -1.3099  0.5179
  443TMC3    C1 6650   0.308   2.898  16.694 -0.0913  0.2314 -0.4159
  443TMC3    C2 6651   0.266   3.015  16.653 -1.1054 -0.0590  0.1070
  443TMC3    C3 6652   0.137   3.049  16.675 -0.2611 -0.2385 -0.4672
  443TMC3    C4 6653   0.236   2.806  16.761 -1.1554  0.2883 -0.0520
  443TMC3    C5 6654   0.105   2.842  16.771  0.0142  0.2624  1.2334
  443TMC3    C6 6655   0.049   2.954  16.726 -0.1344  0.0788  0.3763
  443TMC3     C 6656   0.434   2.856  16.649 -0.1811 -0.1828  0.0831
  443TMC3     O 6657   0.524   2.942  16.657  0.2111  0.1619 -0.5071
  443TMC3     H 6658   0.341   3.082  16.612 -1.4223 -0.9006 -1.8676
  443TMC3    H1 6659   0.281   2.713  16.793  1.2666  1.7480  0.8551
  443TMC3    H2 6660   4.677   2.963  16.728 -0.2257 -0.3847 -2.4944
  443TMC3    C7 6661   0.015   2.746  16.841 -1.0328 -0.2783  0.0210
  443TMC3    C8 6662   0.087   3.129  16.564 -0.4023  0.6261 -0.6060
  443TMC3    O1 6663   0.010   2.627  16.803  0.1861 -0.4936  0.4062
  443TMC3    O2 6664   0.146   3.234  16.540 -0.4718 -0.8185 -0.6445
  444MPD2     C 6665   0.554   2.624  16.929 -0.6397 -0.2902 -0.3084
  444MPD2    C1 6666   0.511   2.491  16.925  0.8298 -0.7452 -0.1778
  444MPD2    C2 6667   0.596   2.392  16.875  0.4182 -0.0140  0.0536
  444MPD2    C3 6668   0.724   2.420  16.829  0.6003 -0.7250  0.1923
  444MPD2    C4 6669   0.769   2.551  16.845  0.1477  0.9068  0.1086
  444MPD2    C5 6670   0.685   2.650  16.889 -0.1511  0.1093 -0.4689
  444MPD2     H 6671   0.545   2.301  16.846  0.0569 -0.4185  1.9979
  444MPD2    H1 6672   0.861   2.589  16.802  0.6554  1.9874  2.1913
  444MPD2    H2 6673   0.492   2.706  16.963  0.5649  0.8571 -0.9034
  444MPD2    H3 6674   0.728   2.749  16.883 -0.4399  0.3939  1.9128
  444MPD2     N 6675   0.803   2.310  16.785  0.3627 -0.5579  0.3030
  444MPD2    H5 6676   0.770   2.215  16.781  0.9340 -0.7859  0.9435
  444MPD2    N1 6677   0.388   2.455  16.975 -0.9297  0.4470  0.3228
  444MPD2    H7 6678   0.355   2.364  16.944 -2.5018  0.1835  2.7859
  445TMC3    C1 6679   0.980   2.176  16.720 -0.8906  1.0540  0.0085
  445TMC3    C2 6680   0.901   2.120  16.625 -0.5152 -0.1941 -0.4221
  445TMC3    C3 6681   0.952   2.019  16.549 -0.1312  0.4949  0.1013
  445TMC3    C4 6682   1.109   2.144  16.724  0.3565  0.3297  0.3640
  445TMC3    C5 6683   1.158   2.040  16.654  0.1028 -0.2254 -0.1477
  445TMC3    C6 6684   1.077   1.974  16.568  0.4082  0.3129  0.2038
  445TMC3     C 6685   0.937   2.304  16.776  0.8615  0.5732 -0.3668
  445TMC3     O 6686   1.022   2.386  16.804  0.2162  0.1636 -0.3129
  445TMC3     H 6687   0.796   2.149  16.614  0.0770  2.3216  0.3909
  445TMC3    H1 6688   1.174   2.203  16.788  0.7504 -1.4553  1.5919
  445TMC3    H2 6689   1.119   1.889  16.515 -1.1985  0.4328 -1.2577
  445TMC3    C7 6690   1.290   1.994  16.687 -0.2290 -0.3028 -0.1291
  445TMC3    C8 6691   0.847   1.935  16.490 -0.0606 -0.3478 -0.0940
  445TMC3    O1 6692   1.333   2.020  16.796 -0.0547 -0.5792 -0.3518
  445TMC3    O2 6693   0.731   1.982  16.482  0.2068 -0.0460  0.7502
  446MPD2     C 6694   4.478   3.082  12.026 -0.3040  0.5313 -0.7711
  446MPD2    C1 6695   4.467   3.056  11.888  0.4672 -0.1471  0.3108
  446MPD2    C2 6696   4.528   3.142  11.797 -0.4557 -0.2709 -0.7481
  446MPD2    C3 6697   4.611   3.245  11.833  0.0707 -0.7461 -0.6967
  446MPD2    C4 6698   4.631   3.264  11.967  0.1381 -0.3911 -0.1302
  446MPD2    C5 6699   4.570   3.184  12.058 -0.1052 -0.2390  0.3276
  446MPD2     H 6700   4.501   3.129  11.693  4.0672  0.7971 -2.0495
  446MPD2    H1 6701   4.680   3.354  12.003  1.2110 -0.6013 -1.0914
  446MPD2    H2 6702   4.426   3.031  12.106 -0.1822  0.3659 -0.7951
  446MPD2    H3 6703   4.586   3.202  12.164  0.3889  0.0679  0.2015
  446MPD2     N 6704   4.684   3.317  11.737  0.9509  0.4528 -0.0754
  446MPD2    H5 6705   4.668   3.279  11.644  0.4420  1.4493 -0.3952
  446MPD2    N1 6706   4.377   2.960  11.838 -0.9331 -0.3993  0.0442
  446MPD2    H7 6707   4.369   2.945  11.738 -0.6550 -1.4383  0.1756
  447TMC3    C1 6708   0.127   3.446  11.647 -0.4281  1.2295 -0.7630
  447TMC3    C2 6709   0.088   3.449  11.518 -0.7331 -0.6440 -1.3145
  447TMC3    C3 6710   0.187   3.460  11.430  0.2961 -0.3882  0.6530
  447TMC3    C4 6711   0.263   3.445  11.687 -0.0248  0.1840  0.3023
  447TMC3    C5 6712   0.354   3.464  11.586 -0.0360 -0.3348 -0.0094
  447TMC3    C6 6713   0.321   3.465  11.456  0.2810  0.1907  0.0933
  447TMC3     C 6714   0.033   3.424  11.758 -0.0063 -0.2615  0.3935
  447TMC3     O 6715   0.059   3.485  11.860  0.4520 -0.2618  0.5547
  447TMC3     H 6716   4.721   3.468  11.489 -0.5343 -0.0394 -1.6140
  447TMC3    H1 6717   0.305   3.438  11.787  1.8544 -0.6466 -0.5521
  447TMC3    H2 6718   0.402   3.472  11.384 -2.0730  0.8116 -2.5252
  447TMC3    C7 6719   0.495   3.421  11.616 -0.1715  0.4330 -0.0711
  447TMC3    C8 6720   0.147   3.508  11.295 -0.4061 -0.3133 -0.4817
  447TMC3    O1 6721   0.570   3.367  11.536 -0.0206  0.4604  0.1552
  447TMC3    O2 6722   0.046   3.475  11.234 -0.5242 -0.1049 -0.3071
  448TMC3    C1 6723   3.205   3.099  16.748 -0.0928 -0.4074 -0.1879
  448TMC3    C2 6724   3.139   3.002  16.680 -0.0935  0.5448 -0.6389
  448TMC3    C3 6725   3.164   2.871  16.725 -0.2295 -0.3457  0.0685
  448TMC3    C4 6726   3.300   3.070  16.840  0.2348 -1.0581 -0.0224
  448TMC3    C5 6727   3.316   2.943  16.881  0.4145  0.6081  0.1851
  448TMC3    C6 6728   3.241   2.839  16.838 -0.6165 -0.1965 -0.1643
  448TMC3     C 6729   3.184   3.235  16.705  0.1449  0.1728 -0.2741
  448TMC3     O 6730   3.076   3.261  16.653  0.4178  0.2022 -0.2833
  448TMC3     H 6731   3.070   3.021  16.599  1.8030  1.8804 -1.9557
  448TMC3    H1 6732   3.370   3.141  16.884 -0.9154  0.8225 -1.2210
  448TMC3    H2 6733   3.250   2.735  16.869  1.8192 -0.3670 -1.4710
  448TMC3    C7 6734   3.424   2.916  16.977  0.2774 -0.0073 -0.3045
  448TMC3    C8 6735   3.132   2.758  16.638 -0.8355 -0.3610  0.1070
  448TMC3    O1 6736   3.521   2.995  16.968  0.1736  0.1828 -0.6532
  448TMC3    O2 6737   3.127   2.650  16.696  0.4707 -0.8741  0.3270
  449MPD2     C 6738   4.520   0.938  14.031 -0.0701  0.5549 -0.0444
  449MPD2    C1 6739   4.517   0.954  13.889  0.3061  0.4811  0.0485
  449MPD2    C2 6740   4.442   0.869  13.810  0.6736 -0.0852 -0.2397
  449MPD2    C3 6741   4.375   0.759  13.859 -1.1345  0.3449  1.0222
  449MPD2    C4 6742   4.383   0.746  13.996 -0.5931 -0.6613  0.3156
  449MPD2    C5 6743   4.458   0.824  14.080  0.1654 -0.8011 -0.0753
  449MPD2     H 6744   4.434   0.880  13.703  3.4751 -1.7841 -0.6452
  449MPD2    H1 6745   4.332   0.664  14.044 -1.9589 -1.7054 -2.9242
  449MPD2    H2 6746   4.562   1.014  14.096  0.1412  1.5106 -1.2996
  449MPD2    H3 6747   4.448   0.810  14.187  0.4747 -2.1449 -0.2299
  449MPD2     N 6748   4.299   0.684  13.775 -0.4267 -0.5791 -0.3022
  449MPD2    H5 6749   4.303   0.713  13.677  0.6434 -1.6160 -0.5724
  449MPD2    N1 6750   4.569   1.063  13.817 -0.1153 -0.0691  0.0150
  449MPD2    H7 6751   4.547   1.075  13.719  0.7358  2.9115  0.1746
  450TMC3    C1 6752   4.624   1.292  13.794  0.1413  0.3080 -0.0560
  450TMC3    C2 6753   0.005   1.336  13.734  0.1606 -0.5101 -0.1295
  450TMC3    C3 6754   4.725   1.392  13.614 -0.0335 -0.5396 -0.7260
  450TMC3    C4 6755   4.503   1.297  13.732  0.1630  0.3252  0.2675
  450TMC3    C5 6756   4.498   1.333  13.601 -0.0861  0.0265 -0.0191
  450TMC3    C6 6757   4.608   1.391  13.538  0.3846  0.1356  0.4738
  450TMC3     C 6758   4.632   1.170  13.872 -0.7484  0.4474 -0.4573
  450TMC3     O 6759   4.689   1.178  13.982  0.2307  0.1037 -0.0296
  450TMC3     H 6760   0.095   1.334  13.795 -0.9705 -1.8784  1.4945
  450TMC3    H1 6761   4.420   1.241  13.772 -0.1195 -1.0086 -2.1999
  450TMC3    H2 6762   4.614   1.414  13.432  0.8725  1.8372  0.8652
  450TMC3    C7 6763   4.436   1.227  13.530 -0.6197  0.4335 -0.3336
  450TMC3    C8 6764   0.107   1.426  13.540 -0.2157 -0.2500  0.0642
  450TMC3    O1 6765   4.462   1.114  13.569  0.0555 -0.8101 -0.0231
  450TMC3    O2 6766   0.102   1.506  13.449 -0.1420 -0.5272  0.3205
  451MPD2     C 6767   1.408   4.608   1.340  0.1907  0.8316 -0.0408
  451MPD2    C1 6768   1.412   4.687   1.222 -0.1818  0.6081 -0.4940
  451MPD2    C2 6769   1.543   4.718   1.171  0.2495  0.1607  0.7149
  451MPD2    C3 6770   1.660   4.673   1.232 -0.1352  0.4793  0.6525
  451MPD2    C4 6771   1.641   4.600   1.342 -0.0751 -0.3749  0.1410
  451MPD2    C5 6772   1.523   4.557   1.395 -0.1787  0.0930 -0.5738
  451MPD2     H 6773   1.558   0.036   1.079 -2.4858  0.4211  0.4170
  451MPD2    H1 6774   1.724   4.557   1.397 -0.8152 -0.9480  0.8185
  451MPD2    H2 6775   1.311   4.591   1.385  0.2745 -0.9739 -0.5250
  451MPD2    H3 6776   1.517   4.493   1.483  2.5033  0.6162 -0.0030
  451MPD2     N 6777   1.794   4.692   1.188  0.9494  0.1246 -0.3346
  451MPD2    H5 6778   1.871   4.640   1.230 -0.0860 -1.0535  0.1381
  451MPD2    N1 6779   1.294   0.003   1.163 -0.0205 -0.1126 -0.1041
  451MPD2    H7 6780   1.210   4.707   1.209 -0.1485 -0.6149 -0.6785
  452TMC3    C1 6781   1.947   4.684   1.008 -0.1929  0.3620  0.1037
  452TMC3    C2 6782   1.953   4.549   1.001 -0.2120  0.4387  0.6393
  452TMC3    C3 6783   2.025   4.494   0.896  0.7717  0.7639  0.0479
  452TMC3    C4 6784   2.010   0.030   0.914  0.0380 -0.6087  0.0006
  452TMC3    C5 6785   2.082   4.701   0.815  0.0760  0.4253  0.1848
  452TMC3    C6 6786   2.098   4.563   0.810  0.0843 -0.3304  0.6701
  452TMC3     C 6787   1.825   4.735   1.060 -0.4937 -0.0861  0.0103
  452TMC3     O 6788   1.759   0.057   0.973 -0.0984 -0.1922 -0.0766
  452TMC3     H 6789   1.912   4.495   1.085 -0.3039  0.9270  0.9093
  452TMC3    H1 6790   1.978   0.134   0.912  0.3773 -0.5008  0.0691
  452TMC3    H2 6791   2.150   4.520   0.725 -2.0360 -0.2670 -0.6518
  452TMC3    C7 6792   2.169   0.041   0.724 -0.3989  0.4989  0.3568
  452TMC3    C8 6793   2.033   4.353   0.880  0.5060 -0.0122 -0.5721
  452TMC3    O1 6794   2.129   0.155   0.701 -0.7376  0.0890  0.0117
  452TMC3    O2 6795   2.104   4.319   0.786  0.1186  0.4624 -0.1950
  453TMC3    C1 6796   2.441   1.884  11.909  0.3808 -0.6241  0.1514
  453TMC3    C2 6797   2.376   1.761  11.902  0.1011 -0.4333 -0.3728
  453TMC3    C3 6798   2.344   1.717  11.781 -0.1970  0.6382 -0.3173
  453TMC3    C4 6799   2.472   1.963  11.806 -0.6691 -0.0489 -0.3261
  453TMC3    C5 6800   2.427   1.918  11.681 -0.2419 -0.7776  0.0702
  453TMC3    C6 6801   2.368   1.794  11.664  0.1211 -0.4964 -0.0104
  453TMC3     C 6802   2.483   1.944  12.036 -0.1119  0.2085  0.5132
  453TMC3     O 6803   2.565   2.035  12.032  0.1005 -0.0222  0.3144
  453TMC3     H 6804   2.377   1.706  11.996  0.4539  0.2599  0.0287
  453TMC3    H1 6805   2.511   2.062  11.824  4.2977 -1.8345 -1.2886
  453TMC3    H2 6806   2.326   1.770  11.566 -0.9292 -0.8163  0.5181
  453TMC3    C7 6807   2.487   1.973  11.560 -0.3765 -0.1441  0.0353
  453TMC3    C8 6808   2.304   1.580  11.756 -1.1392  0.1092 -0.3262
  453TMC3    O1 6809   2.439   1.937  11.451  0.3540 -0.5533 -0.3027
  453TMC3    O2 6810   2.267   1.561  11.641 -0.2090  0.1843  0.9364
  454MPD2     C 6811   1.592   1.906  16.061  0.6334  0.0370  0.1504
  454MPD2    C1 6812   1.520   1.930  15.949 -0.2102  0.0234  0.3969
  454MPD2    C2 6813   1.466   2.055  15.929 -0.2961  0.5748 -0.3551
  454MPD2    C3 6814   1.475   2.154  16.023  0.0202 -0.3282  0.7188
  454MPD2    C4 6815   1.558   2.133  16.126  0.2872 -0.0600 -0.0859
  454MPD2    C5 6816   1.610   2.010  16.144 -0.3945  0.4938 -0.2430
  454MPD2     H 6817   1.402   2.071  15.843 -0.6366 -3.2139 -0.8127
  454MPD2    H1 6818   1.557   2.213  16.199 -0.2394  0.4963 -0.7074
  454MPD2    H2 6819   1.636   1.808  16.076 -1.3427 -1.1100 -1.6390
  454MPD2    H3 6820   1.672   2.000  16.233 -0.4063 -2.7179 -0.6063
  454MPD2     N 6821   1.393   2.268  16.035  0.2272  0.3801  0.1659
  454MPD2    H5 6822   1.411   2.330  16.114 -1.8033  0.6539  0.4081
  454MPD2    N1 6823   1.495   1.836  15.848  0.0266  0.1541 -0.0861
  454MPD2    H7 6824   1.451   1.873  15.765 -0.0369 -0.6968 -0.4268
  455TMC3    C1 6825   1.177   2.337  16.025  0.4022 -0.8088 -0.0516
  455TMC3    C2 6826   1.189   2.410  16.139  0.9256  0.6401 -0.1111
  455TMC3    C3 6827   1.106   2.373  16.245  0.0505 -0.4171  0.5424
  455TMC3    C4 6828   1.090   2.237  16.015  0.3072  0.8487  0.5583
  455TMC3    C5 6829   1.000   2.204  16.115  0.1840 -0.3897  0.7679
  455TMC3    C6 6830   1.013   2.276  16.231 -0.2127 -0.7118  0.0604
  455TMC3     C 6831   1.295   2.306  15.945  0.4759  0.0324 -0.2149
  455TMC3     O 6832   1.275   2.253  15.837  0.2005  0.0771  0.0266
  455TMC3     H 6833   1.271   2.479  16.160  1.4080 -0.1710  0.6646
  455TMC3    H1 6834   1.095   2.160  15.939 -0.1557  0.6359  0.7404
  455TMC3    H2 6835   0.950   2.240  16.311 -0.0569 -1.0061  0.0497
  455TMC3    C7 6836   0.986   2.067  16.153 -0.1947  0.5236  0.5858
  455TMC3    C8 6837   1.127   2.441  16.364 -0.4118  0.2867 -0.1508
  455TMC3    O1 6838   0.873   2.025  16.180  0.4894  0.9595 -0.5458
  455TMC3    O2 6839   1.118   2.364  16.460 -0.5526  0.7140 -0.4904
  456MPD2     C 6840   3.972   1.926  15.845  0.3230  0.1154  0.6514
  456MPD2    C1 6841   3.984   1.847  15.957  0.6048  0.5371  0.1732
  456MPD2    C2 6842   3.910   1.883  16.069  0.4656 -0.1883 -0.3344
  456MPD2    C3 6843   3.808   1.983  16.067  0.3963  0.2959 -0.2823
  456MPD2    C4 6844   3.803   2.062  15.954 -0.2295 -0.0834 -0.0164
  456MPD2    C5 6845   3.890   2.041  15.854  0.1692  0.2444 -1.0033
  456MPD2     H 6846   3.903   1.825  16.160 -0.0412  0.5030  0.0677
  456MPD2    H1 6847   3.747   2.154  15.942 -1.0770 -0.4781  0.9057
  456MPD2    H2 6848   4.028   1.909  15.754 -1.5297 -1.5229 -0.1757
  456MPD2    H3 6849   3.892   2.115  15.775  2.0538  1.2491 -0.0221
  456MPD2     N 6850   3.731   2.003  16.181  0.2725  0.0268 -0.0905
  456MPD2    H5 6851   3.755   1.944  16.259 -1.8915  0.4167  0.8781
  456MPD2    N1 6852   4.060   1.727  15.952  0.6527 -0.5327 -0.9677
  456MPD2    H7 6853   4.099   1.705  15.861  2.0936  1.3020 -0.8012
  457TMC3    C1 6854   3.549   2.084  16.308  0.3001 -0.9376  0.0755
  457TMC3    C2 6855   3.427   2.143  16.308 -0.6543 -0.0634  0.0418
  457TMC3    C3 6856   3.362   2.170  16.426 -0.2231  0.1119 -0.9775
  457TMC3    C4 6857   3.626   2.080  16.423  0.2301  0.1100  0.3045
  457TMC3    C5 6858   3.558   2.110  16.539 -0.3763 -0.5253 -0.0293
  457TMC3    C6 6859   3.427   2.152  16.544  0.2087  0.1311 -0.0922
  457TMC3     C 6860   3.617   2.082  16.186 -1.2088 -0.9925  0.4031
  457TMC3     O 6861   3.575   2.163  16.106 -0.1699 -0.0319  0.1817
  457TMC3     H 6862   3.365   2.145  16.218  1.0768 -0.3976 -1.1635
  457TMC3    H1 6863   3.731   2.051  16.421  0.0984 -0.0960 -2.4612
  457TMC3    H2 6864   3.366   2.162  16.633  1.2263 -1.2152  0.7435
  457TMC3    C7 6865   3.617   2.077  16.667  0.3639  0.1105 -0.4777
  457TMC3    C8 6866   3.274   2.285  16.430 -0.7190 -0.5359  0.5064
  457TMC3    O1 6867   3.706   1.994  16.655 -0.0471 -0.1599 -0.0722
  457TMC3    O2 6868   3.219   2.311  16.533 -0.1294 -0.9149  0.3973
  458MPD2     C 6869   1.985   1.346  12.610  0.1719  0.2712 -0.2673
  458MPD2    C1 6870   1.916   1.299  12.717 -0.9635 -0.0885  0.2721
  458MPD2    C2 6871   1.797   1.233  12.705  0.1776  0.6171 -1.3935
  458MPD2    C3 6872   1.745   1.213  12.578  0.6325 -0.5747 -0.0559
  458MPD2    C4 6873   1.815   1.261  12.464 -0.2028  0.5417  0.1415
  458MPD2    C5 6874   1.926   1.331  12.480 -0.4176  0.1361  0.2527
  458MPD2     H 6875   1.742   1.187  12.786 -0.1723  0.3199 -1.7969
  458MPD2    H1 6876   1.784   1.262  12.360  0.1984  1.1711  0.0369
  458MPD2    H2 6877   2.087   1.380  12.625  0.1500 -0.3726  1.3175
  458MPD2    H3 6878   1.975   1.381  12.398  0.1753 -0.2335  0.3798
  458MPD2     N 6879   1.620   1.153  12.571  0.3437  0.6917  0.2502
  458MPD2    H5 6880   1.585   1.112  12.657 -0.3941 -0.3508 -0.5380
  458MPD2    N1 6881   1.989   1.296  12.842  0.3132  1.0679  0.3231
  458MPD2    H7 6882   2.078   1.342  12.831  0.6815 -0.4761 -3.0983
  459TMC3    C1 6883   2.027   1.289  13.071 -0.3987  0.1480 -0.0543
  459TMC3    C2 6884   2.130   1.381  13.042  0.0981 -0.6058 -0.4966
  459TMC3    C3 6885   2.191   1.433  13.151  0.0881 -0.7176  0.0615
  459TMC3    C4 6886   1.974   1.274  13.192  0.3126 -0.2029  0.3083
  459TMC3    C5 6887   2.036   1.334  13.301  0.1971  0.3994 -0.5541
  459TMC3    C6 6888   2.145   1.417  13.278  0.2348 -0.6905 -1.2209
  459TMC3     C 6889   1.944   1.245  12.962  1.1064  0.1524  0.5960
  459TMC3     O 6890   1.843   1.169  12.979 -0.3414 -0.2388  0.7454
  459TMC3     H 6891   2.171   1.395  12.943  1.0018  3.0991  0.4108
  459TMC3    H1 6892   1.886   1.213  13.213 -0.2791  0.6565  0.3160
  459TMC3    H2 6893   2.193   1.475  13.357  1.2930 -0.9800 -1.6577
  459TMC3    C7 6894   2.006   1.285  13.431 -0.3118  0.5874  0.7023
  459TMC3    C8 6895   2.292   1.528  13.124  0.2619 -0.9972  0.1562
  459TMC3    O1 6896   1.940   1.181  13.422  0.1372 -0.1895  0.0751
  459TMC3    O2 6897   2.279   1.588  13.018 -0.1287  0.0149 -1.1495
  460MPD2     C 6898   0.375   3.744  11.144  0.7710 -0.3006  0.7362
  460MPD2    C1 6899   0.258   3.670  11.150 -0.1920  0.7963 -0.3414
  460MPD2    C2 6900   0.168   3.682  11.047 -0.8277 -0.0610 -0.5152
  460MPD2    C3 6901   0.206   3.766  10.937 -0.5627 -0.3384  0.3438
  460MPD2    C4 6902   0.324   3.835  10.930 -0.3610  0.4631  0.0157
  460MPD2    C5 6903   0.406   3.830  11.045  0.5941 -0.4549  0.2205
  460MPD2     H 6904   0.082   3.616  11.055 -2.2628  2.0455  1.1524
  460MPD2    H1 6905   0.351   3.895  10.844  1.4640  2.4436  2.0006
  460MPD2    H2 6906   0.447   3.735  11.224  0.2793 -0.4473  1.1604
  460MPD2    H3 6907   0.499   3.885  11.045  1.6261 -2.1987  2.1256
  460MPD2     N 6908   0.114   3.779  10.829  0.3095  0.2920  0.1647
  460MPD2    H5 6909   0.028   3.727  10.840  1.0229 -0.7640  0.7671
  460MPD2    N1 6910   0.241   3.594  11.261  0.8709 -0.1886 -0.0624
  460MPD2    H7 6911   0.310   3.613  11.333 -0.3837 -2.6782  1.7638
  461TMC3    C1 6912   0.013   3.832  10.626  0.2901  0.5506 -0.0558
  461TMC3    C2 6913   4.721   3.709  10.576 -0.1746  0.1863  0.3212
  461TMC3    C3 6914   4.623   3.702  10.479 -0.0042  0.3764 -0.0067
  461TMC3    C4 6915   4.697   3.946  10.572  1.4785 -0.6661  0.3303
  461TMC3    C5 6916   4.592   3.927  10.485  0.0772  0.6133  1.0290
  461TMC3    C6 6917   4.544   3.808  10.436  0.1713  0.1256  1.0600
  461TMC3     C 6918   0.128   3.844  10.705 -0.0920 -0.0689 -0.3764
  461TMC3     O 6919   0.217   3.921  10.666 -0.4442 -0.1983  0.6122
  461TMC3     H 6920   0.039   3.625  10.621  0.5575 -0.0186 -0.9079
  461TMC3    H1 6921   4.719   4.047  10.606 -1.0889  0.8857 -2.5940
  461TMC3    H2 6922   4.466   3.803  10.362  1.8085  1.5153 -0.7602
  461TMC3    C7 6923   4.523   4.049  10.436  0.0251 -0.0159 -0.1763
  461TMC3    C8 6924   4.617   3.576  10.404  0.3464  0.3714  0.5627
  461TMC3    O1 6925   4.403   4.032  10.411 -0.9396 -0.7848  0.4329
  461TMC3    O2 6926   4.705   3.492  10.406 -0.8524 -0.3481 -0.1625
  462TMC3    C1 6927   1.036   0.397   0.341 -0.1898  0.6020 -0.8662
  462TMC3    C2 6928   1.116   0.342   0.246  0.1983  0.3497 -0.5988
  462TMC3    C3 6929   1.163   0.216   0.259  0.3229 -0.5988  0.1903
  462TMC3    C4 6930   0.982   0.327   0.444 -0.3409 -0.0569  0.2481
  462TMC3    C5 6931   1.016   0.191   0.440  0.5191 -0.0127 -0.2003
  462TMC3    C6 6932   1.115   0.142   0.359  0.0166 -0.6585 -0.0626
  462TMC3     C 6933   0.989   0.531   0.301  1.4830  1.2723  1.0659
  462TMC3     O 6934   1.075   0.603   0.252  0.3263 -0.0160  0.1286
  462TMC3     H 6935   1.154   0.400   0.163  0.1133  0.6719 -0.4118
  462TMC3    H1 6936   0.918   0.369   0.520 -2.1869 -1.2946 -0.6432
  462TMC3    H2 6937   1.133   0.036   0.348 -1.4885 -1.0652  1.3504
  462TMC3    C7 6938   0.962   0.093   0.531 -0.5222 -0.0132 -0.1515
  462TMC3    C8 6939   1.162   0.154   0.132 -0.1538  0.3514  0.0572
  462TMC3    O1 6940   1.032   4.728   0.561 -0.4246  0.0219  0.4713
  462TMC3    O2 6941   1.116   0.230   0.049 -0.3323  0.3611 -1.0035
  463MPD2     C 6942   2.614   2.350   1.255  0.5024 -0.2542  0.5276
  463MPD2    C1 6943   2.566   2.454   1.327  0.4383 -0.0065  0.1412
  463MPD2    C2 6944   2.650   2.540   1.392  0.3940 -0.0997  0.0415
  463MPD2    C3 6945   2.790   2.515   1.393 -0.1022 -0.2723  0.1161
  463MPD2    C4 6946   2.836   2.405   1.323 -0.8807 -0.8593  0.7652
  463MPD2    C5 6947   2.746   2.321   1.257  0.2080  0.1228 -0.2478
  463MPD2     H 6948   2.609   2.620   1.452 -2.7770 -0.7187 -1.3008
  463MPD2    H1 6949   2.942   2.385   1.322 -1.2178 -2.6466  0.8797
  463MPD2    H2 6950   2.550   2.282   1.200  2.6032  0.5195 -2.8238
  463MPD2    H3 6951   2.778   2.232   1.204  0.1576 -2.1770  3.6077
  463MPD2     N 6952   2.882   2.589   1.468 -0.1249  0.4500  0.0447
  463MPD2    H5 6953   2.978   2.559   1.458 -1.0765 -2.1769 -1.2039
  463MPD2    N1 6954   2.429   2.489   1.325  0.2369 -0.2472 -0.1626
  463MPD2    H7 6955   2.405   2.581   1.361 -0.4245  0.5276 -2.6353
  464TMC3    C1 6956   2.208   2.492   1.269  0.3610  0.4936  0.3426
  464TMC3    C2 6957   2.197   2.616   1.326  0.2472  0.1609 -0.0310
  464TMC3    C3 6958   2.081   2.678   1.326  0.1294  0.5460 -0.3397
  464TMC3    C4 6959   2.095   2.426   1.223 -0.6284 -0.1346  0.0832
  464TMC3    C5 6960   1.977   2.484   1.241 -0.1953  0.1122 -0.2134
  464TMC3    C6 6961   1.969   2.615   1.277  0.4244 -0.0189  0.1745
  464TMC3     C 6962   2.327   2.409   1.282  0.3129  0.5319 -0.5309
  464TMC3     O 6963   2.328   2.291   1.249  0.2844  0.6512  0.6228
  464TMC3     H 6964   2.278   2.663   1.382  1.8039 -0.5047 -1.7024
  464TMC3    H1 6965   2.101   2.322   1.195  1.3674  0.2471 -0.9189
  464TMC3    H2 6966   1.877   2.670   1.264 -0.2837 -1.4847 -0.9412
  464TMC3    C7 6967   1.859   2.408   1.242 -0.0459  0.1557 -0.0844
  464TMC3    C8 6968   2.054   2.804   1.397  0.3046  0.1367 -0.4291
  464TMC3    O1 6969   1.881   2.295   1.278  0.0521 -0.2102 -0.1868
  464TMC3    O2 6970   1.935   2.825   1.409  0.2975 -0.7554 -0.3378
  465MPD2     C 6971   2.889   2.090  16.862 -0.7920 -0.8401  0.8631
  465MPD2    C1 6972   2.767   2.025  16.872 -0.4966 -0.0952  0.6504
  465MPD2    C2 6973   2.672   2.063  16.776 -0.4258  0.6780 -0.3171
  465MPD2    C3 6974   2.695   2.147  16.674  1.5936 -0.3037 -0.5908
  465MPD2    C4 6975   2.827   2.209  16.666  0.6442 -0.6853  0.8229
  465MPD2    C5 6976   2.921   2.169  16.757  0.4657 -0.1488  0.8518
  465MPD2     H 6977   2.577   2.011  16.780  0.2621 -0.6971 -1.6078
  465MPD2    H1 6978   2.858   2.273  16.584 -0.8312 -1.1941 -0.1310
  465MPD2    H2 6979   2.967   2.082  16.937  0.0230 -4.5565 -0.3735
  465MPD2    H3 6980   3.018   2.216  16.761 -0.8924  2.8502 -1.3370
  465MPD2     N 6981   2.592   2.168  16.582 -0.7417 -0.5606  0.0204
  465MPD2    H5 6982   2.504   2.124  16.606 -2.4548  2.9388  0.1670
  465MPD2    N1 6983   2.735   1.934  16.971  0.1564 -0.4194  0.4109
  465MPD2    H7 6984   2.635   1.918  16.975  0.2174 -0.6198  1.1142
  466TMC3    C1 6985   2.258   2.192  16.371  0.2177  0.1034 -0.4709
  466TMC3    C2 6986   2.237   2.301  16.289  0.0686 -0.2423  0.3502
  466TMC3    C3 6987   2.346   2.381  16.269  0.3493 -0.4139  0.0272
  466TMC3    C4 6988   2.382   2.164  16.423  0.4820 -0.3729 -1.1159
  466TMC3    C5 6989   2.484   2.256  16.402 -0.5981 -0.0722  0.2362
  466TMC3    C6 6990   2.471   2.363  16.322 -0.1787 -0.3902  0.5834
  466TMC3     C 6991   2.146   2.113  16.415  0.2292 -0.9119 -0.6877
  466TMC3     O 6992   2.173   2.035  16.504 -0.2451  0.0393 -0.3922
  466TMC3     H 6993   2.140   2.339  16.259  0.9862  3.0752  1.5165
  466TMC3    H1 6994   2.397   2.067  16.468  0.8215 -0.1160 -0.6697
  466TMC3    H2 6995   2.541   2.443  16.307  0.0761 -0.6854  0.2027
  466TMC3    C7 6996   2.605   2.249  16.474 -0.3266  0.8511 -0.0947
  466TMC3    C8 6997   2.318   2.519  16.249  0.0691  0.0408 -0.0768
  466TMC3    O1 6998   2.708   2.291  16.423  0.0646  0.3006 -0.1157
  466TMC3    O2 6999   2.262   2.559  16.150  0.2050  0.4374 -0.6708
  467TMC3    C1 7000   3.817   0.177  13.935 -0.0827  0.4660 -0.4409
  467TMC3    C2 7001   3.743   0.237  13.845 -0.1532 -0.2120  0.1057
  467TMC3    C3 7002   3.619   0.283  13.881 -0.2896 -0.3898  0.6639
  467TMC3    C4 7003   3.764   0.156  14.060 -0.3814 -0.2878  0.5666
  467TMC3    C5 7004   3.641   0.198  14.099  0.1896 -0.0449 -0.0087
  467TMC3    C6 7005   3.562   0.265  14.005 -0.2415  0.0603 -0.1960
  467TMC3     C 7006   3.959   0.207  13.931  0.6117 -0.7403  0.1594
  467TMC3     O 7007   4.004   0.255  14.037 -0.4942 -0.5836 -0.0579
  467TMC3     H 7008   3.797   0.253  13.752  0.7186 -0.5034  0.5596
  467TMC3    H1 7009   3.828   0.094  14.122  0.2196  1.1913  1.4475
  467TMC3    H2 7010   3.474   0.318  14.040 -0.2833 -0.4903  0.5550
  467TMC3    C7 7011   3.593   0.172  14.237  0.3913  0.4883  0.6886
  467TMC3    C8 7012   3.569   0.396  13.813 -0.8313 -0.2897  0.0485
  467TMC3    O1 7013   3.663   0.099  14.305  0.2857 -0.2149  0.2598
  467TMC3    O2 7014   3.655   0.467  13.756  0.3608 -0.5373 -0.5145
  468MPD2     C 7015   1.648   3.701  11.182 -0.1099 -0.4590 -0.1098
  468MPD2    C1 7016   1.760   3.734  11.116  0.2657  0.5604 -0.1357
  468MPD2    C2 7017   1.875   3.652  11.140  0.5634 -0.0557 -0.1149
  468MPD2    C3 7018   1.876   3.546  11.231 -0.4656  0.4713  0.3947
  468MPD2    C4 7019   1.766   3.530  11.305  0.1672 -0.3765 -0.3732
  468MPD2    C5 7020   1.656   3.602  11.276  0.2650 -0.0718 -0.0356
  468MPD2     H 7021   1.961   3.665  11.075 -0.3778  1.7699 -0.9797
  468MPD2    H1 7022   1.760   3.454  11.383 -0.9231  0.3701  0.2683
  468MPD2    H2 7023   1.551   3.749  11.169 -0.3874 -1.0582 -0.2628
  468MPD2    H3 7024   1.566   3.583  11.334 -1.2413  5.2528 -0.6040
  468MPD2     N 7025   1.986   3.470  11.267 -0.6171  0.2638 -0.5556
  468MPD2    H5 7026   1.980   3.396  11.336  4.0581  0.4061  0.0373
  468MPD2    N1 7027   1.770   3.839  11.020  0.5402 -0.4909  0.8238
  468MPD2    H7 7028   1.863   3.863  10.986  0.7366  0.6550  2.1469
  469TMC3    C1 7029   1.717   4.058  10.935 -0.5805  0.2542 -0.4592
  469TMC3    C2 7030   1.838   4.055  10.863  0.0351  1.0271 -0.2420
  469TMC3    C3 7031   1.931   4.150  10.891 -0.2051 -0.0613 -0.5091
  469TMC3    C4 7032   1.682   4.168  11.008  0.3812  0.3982 -0.0101
  469TMC3    C5 7033   1.783   4.249  11.037  0.5829  0.5291  0.1066
  469TMC3    C6 7034   1.909   4.247  10.985  0.6523  0.1167  0.3469
  469TMC3     C 7035   1.673   3.935  10.994 -0.4299 -0.0081  0.3206
  469TMC3     O 7036   1.556   3.940  11.028 -0.2203 -0.1404 -0.1066
  469TMC3     H 7037   1.856   3.970  10.798 -0.6023 -0.5353  1.6217
  469TMC3    H1 7038   1.590   4.164  11.066  0.1680  1.2692 -0.2851
  469TMC3    H2 7039   1.974   4.333  10.998  0.6050  0.4706 -1.7650
  469TMC3    C7 7040   1.746   4.353  11.135  0.2567  0.5043 -0.5261
  469TMC3    C8 7041   2.058   4.137  10.819  0.8382 -0.5766 -0.0180
  469TMC3    O1 7042   1.629   4.380  11.137 -0.2669 -0.5995  0.4237
  469TMC3    O2 7043   2.068   4.079  10.717 -0.9554 -0.2386  0.3323
  470TMC3    C1 7044   0.071   4.326   0.846  0.3649 -0.2810 -0.0829
  470TMC3    C2 7045   0.034   4.451   0.813  0.1028 -0.5337 -0.5857
  470TMC3    C3 7046   0.133   4.545   0.817 -0.0759 -0.4172  0.5438
  470TMC3    C4 7047   0.188   4.294   0.909 -0.5095  0.3755 -0.7433
  470TMC3    C5 7048   0.271   4.401   0.933 -0.3112 -0.0854  0.1127
  470TMC3    C6 7049   0.252   4.521   0.880 -1.2512 -0.2599  0.2549
  470TMC3     C 7050   4.710   4.214   0.835  0.7974  0.9106 -0.3456
  470TMC3     O 7051   4.733   4.112   0.906 -0.0783  0.2087 -0.3317
  470TMC3     H 7052   4.670   4.474   0.777  0.2225  0.6497 -0.1557
  470TMC3    H1 7053   0.218   4.196   0.942 -1.5497 -0.0223 -0.9597
  470TMC3    H2 7054   0.315   4.608   0.894 -2.8057  0.7010  1.2397
  470TMC3    C7 7055   0.394   4.374   1.019 -0.1204 -0.3669 -0.3179
  470TMC3    C8 7056   0.105   4.682   0.783  0.2644 -1.1088 -0.4133
  470TMC3    O1 7057   0.490   4.448   1.008  0.0740 -0.2598 -0.0000
  470TMC3    O2 7058   0.185   0.033   0.807  0.6366 -0.3251  0.0348
  471MPD2     C 7059   0.871   1.157  16.640  0.2533 -0.4120  0.5899
  471MPD2    C1 7060   0.788   1.058  16.687  0.7322  0.9553  0.6648
  471MPD2    C2 7061   0.780   1.035  16.820  1.1965  0.2922  0.0155
  471MPD2    C3 7062   0.849   1.112  16.916  0.1369  0.1294 -0.5134
  471MPD2    C4 7063   0.925   1.225  16.867  0.0388 -0.3830 -0.5490
  471MPD2    C5 7064   0.932   1.241  16.731 -0.3669 -0.8102 -0.1386
  471MPD2     H 7065   0.725   0.950  16.859  0.9413  0.2295 -0.4773
  471MPD2    H1 7066   0.976   1.297  16.931  0.2569 -0.6654 -0.4065
  471MPD2    H2 7067   0.885   1.186  16.537  2.0992  0.9958  1.2408
  471MPD2    H3 7068   0.981   1.324  16.682 -0.4653  0.6138  2.1882
  471MPD2     N 7069   0.848   1.084  17.055  0.5484 -0.6354 -0.1511
  471MPD2    H5 7070   0.915   1.128  17.118  0.3879 -0.1971 -0.2909
  471MPD2    N1 7071   0.747   0.961  16.593 -0.0370 -0.2553  0.7041
  471MPD2    H7 7072   0.715   0.871  16.627 -1.6458 -0.0781 -0.3674
  472TMC3    C1 7073   0.729   0.842  16.392  0.5195 -0.4597 -0.2926
  472TMC3    C2 7074   0.649   0.836  16.283  0.2987 -0.1691 -0.7073
  472TMC3    C3 7075   0.649   0.719  16.215 -0.0021  0.2989 -0.8628
  472TMC3    C4 7076   0.796   0.732  16.446 -0.2397 -0.1481 -0.2422
  472TMC3    C5 7077   0.795   0.609  16.379 -0.3443 -0.2644  0.3500
  472TMC3    C6 7078   0.721   0.609  16.259 -0.2334  0.1676  0.9103
  472TMC3     C 7079   0.742   0.970  16.458  0.2043  0.2467  0.4314
  472TMC3     O 7080   0.755   1.072  16.393 -0.2368 -0.2912 -0.0585
  472TMC3     H 7081   0.595   0.920  16.242  2.8678  1.0874 -1.5407
  472TMC3    H1 7082   0.851   0.739  16.539 -1.5476  0.3980  0.4754
  472TMC3    H2 7083   0.710   0.512  16.211  2.3271 -0.5823  1.7959
  472TMC3    C7 7084   0.792   0.496  16.473  0.9711 -0.2051 -0.1189
  472TMC3    C8 7085   0.519   0.687  16.157  0.5655 -0.3383  0.0487
  472TMC3    O1 7086   0.828   0.519  16.586 -0.1428  0.8716 -0.1203
  472TMC3    O2 7087   0.474   0.750  16.059  0.2208  0.0119 -0.0014
  473MPD2     C 7088   0.598   2.585  14.002 -0.1391 -0.3483 -0.1507
  473MPD2    C1 7089   0.540   2.710  13.996 -0.2047  0.3038 -0.2610
  473MPD2    C2 7090   0.593   2.815  14.068 -0.1008  1.1267  0.3910
  473MPD2    C3 7091   0.710   2.808  14.139 -0.1461  0.2253  0.4518
  473MPD2    C4 7092   0.778   2.688  14.128  0.5734 -0.6466 -1.0488
  473MPD2    C5 7093   0.723   2.577  14.060  0.4062 -0.2572  0.1192
  473MPD2     H 7094   0.546   2.912  14.060  0.4668  1.5036  1.5516
  473MPD2    H1 7095   0.872   2.665  14.177  0.3963 -1.2384 -0.9887
  473MPD2    H2 7096   0.566   2.505  13.936  2.3255 -1.2264 -0.2629
  473MPD2    H3 7097   0.781   2.487  14.046  3.0172  1.3383  0.6173
  473MPD2     N 7098   0.761   2.909  14.219  0.1614 -0.1201  0.1610
  473MPD2    H5 7099   0.853   2.880  14.251  1.0883 -0.0711 -2.4682
  473MPD2    N1 7100   0.420   2.730  13.911  0.0256  0.0284  0.3650
  473MPD2    H7 7101   0.389   2.826  13.903 -1.5092 -0.3614  1.5720
  474TMC3    C1 7102   0.756   3.117  14.345 -0.6001  0.0466  0.4477
  474TMC3    C2 7103   0.681   3.184  14.437 -0.4038  0.1211  0.1693
  474TMC3    C3 7104   0.747   3.271  14.528  0.2114 -0.2036  0.4263
  474TMC3    C4 7105   0.890   3.122  14.335  0.2708  0.5730  0.1333
  474TMC3    C5 7106   0.954   3.207  14.430 -0.0077 -0.2785 -0.3395
  474TMC3    C6 7107   0.886   3.275  14.527 -0.4167 -0.4062 -0.5808
  474TMC3     C 7108   0.687   3.024  14.258  0.2306  0.5652  0.4027
  474TMC3     O 7109   0.572   3.051  14.236 -0.0685 -0.0288  0.7454
  474TMC3     H 7110   0.574   3.173  14.448 -0.1634 -2.3521 -0.0882
  474TMC3    H1 7111   0.945   3.085  14.249 -0.4397 -1.2226  0.4512
  474TMC3    H2 7112   0.937   3.328  14.606  0.9306 -1.2278 -0.8927
  474TMC3    C7 7113   1.102   3.227  14.410 -0.5640  0.7255  0.5566
  474TMC3    C8 7114   0.664   3.363  14.610  0.4288 -0.5686 -0.4192
  474TMC3    O1 7115   1.147   3.184  14.310 -0.3550  0.0701  0.5168
  474TMC3    O2 7116   0.545   3.346  14.614 -0.1093 -0.2054  0.0480
  475MPD2     C 7117   2.680   1.224  11.133 -0.0977  0.5253  1.0370
  475MPD2    C1 7118   2.672   1.357  11.117 -0.1297  0.2772 -0.6565
  475MPD2    C2 7119   2.551   1.413  11.092 -0.2818  0.8193 -0.6736
  475MPD2    C3 7120   2.439   1.335  11.092 -0.1935 -0.2753 -0.6626
  475MPD2    C4 7121   2.451   1.200  11.119 -0.5438 -0.1419 -0.0365
  475MPD2    C5 7122   2.572   1.151  11.145  0.1669 -0.0729  0.1707
  475MPD2     H 7123   2.544   1.519  11.068  0.8309  1.2676  0.9754
  475MPD2    H1 7124   2.360   1.141  11.133  0.1623 -0.9373  1.2007
  475MPD2    H2 7125   2.776   1.179  11.153  0.5539  1.1736 -0.5991
  475MPD2    H3 7126   2.584   1.049  11.181  2.1178 -0.5829 -1.8345
  475MPD2     N 7127   2.316   1.396  11.057 -0.2885 -0.3852  0.6138
  475MPD2    H5 7128   2.326   1.479  10.998 -0.3552  0.1101  1.3018
  475MPD2    N1 7129   2.787   1.432  11.085 -0.1559  0.1139  0.3336
  475MPD2    H7 7130   2.869   1.383  11.050 -1.0168 -0.8434 -0.3444
  476TMC3    C1 7131   2.894   1.630  11.023 -0.3464 -0.3046  0.2563
  476TMC3    C2 7132   2.903   1.578  10.892 -0.5080  0.1090  0.3517
  476TMC3    C3 7133   3.000   1.629  10.812 -0.2767  0.4207  0.2813
  476TMC3    C4 7134   2.989   1.717  11.075  0.6951 -0.3369  0.1749
  476TMC3    C5 7135   3.086   1.764  10.990  0.0058 -0.5722 -0.3378
  476TMC3    C6 7136   3.090   1.725  10.854 -0.0454 -0.1696  0.5287
  476TMC3     C 7137   2.786   1.574  11.100  0.5875 -0.7706  0.0764
  476TMC3     O 7138   2.706   1.648  11.156  0.0458  0.5906  0.0954
  476TMC3     H 7139   2.810   1.537  10.856  0.1306 -0.8102 -0.2342
  476TMC3    H1 7140   2.981   1.737  11.181  0.0174 -0.3869  0.1370
  476TMC3    H2 7141   3.173   1.744  10.788  0.8068 -0.7960  1.4236
  476TMC3    C7 7142   3.195   1.843  11.041 -0.6211  0.0209  0.6596
  476TMC3    C8 7143   3.018   1.563  10.683 -0.5410  0.5355 -0.0198
  476TMC3    O1 7144   3.286   1.854  10.964 -0.1649  0.3386 -0.1350
  476TMC3    O2 7145   3.044   1.635  10.586  0.8382  0.3297  0.1891
  477MPD2     C 7146   0.758   2.359  11.921 -0.1880 -0.6918 -0.5697
  477MPD2    C1 7147   0.773   2.475  11.994 -0.5787  0.1635  0.3708
  477MPD2    C2 7148   0.874   2.475  12.091  0.4601  0.4205 -0.1978
  477MPD2    C3 7149   0.947   2.361  12.123  0.1332 -0.1652 -0.8158
  477MPD2    C4 7150   0.911   2.246  12.059  0.0164  0.2405 -0.2479
  477MPD2    C5 7151   0.830   2.249  11.951  0.0643 -0.5050 -0.5671
  477MPD2     H 7152   0.901   2.571  12.131  0.4340  0.1078  0.5802
  477MPD2    H1 7153   0.941   2.148  12.095 -2.9360 -1.2851 -1.9345
  477MPD2    H2 7154   0.700   2.356  11.829 -0.5945 -0.0211 -0.3300
  477MPD2    H3 7155   0.809   2.158  11.896  4.1808 -1.0123 -1.3242
  477MPD2     N 7156   1.048   2.354  12.223 -0.0730  0.1712  0.1333
  477MPD2    H5 7157   1.053   2.435  12.284 -2.6815  0.7955 -0.4754
  477MPD2    N1 7158   0.690   2.582  11.965 -0.0623  0.3925 -1.0424
  477MPD2    H7 7159   0.627   2.559  11.888 -0.6053  0.7734 -0.7150
  478TMC3    C1 7160   0.606   2.805  11.973 -0.0717 -0.1005  0.5704
  478TMC3    C2 7161   0.599   2.915  12.048  0.1219  0.4575  0.1685
  478TMC3    C3 7162   0.550   3.032  11.996 -0.1587  0.1342 -0.3205
  478TMC3    C4 7163   0.560   2.808  11.844  0.0294  0.2616 -0.6398
  478TMC3    C5 7164   0.504   2.927  11.799 -0.6225  0.0367  0.0602
  478TMC3    C6 7165   0.511   3.047  11.866 -0.8645 -0.0786  0.7646
  478TMC3     C 7166   0.703   2.707  12.021  0.6080 -0.4550 -0.1698
  478TMC3     O 7167   0.770   2.738  12.121  0.0025  0.0212 -0.2990
  478TMC3     H 7168   0.628   2.910  12.152 -0.3452  1.7210  0.3531
  478TMC3    H1 7169   0.553   2.716  11.788 -1.0968  0.1081 -0.2298
  478TMC3    H2 7170   0.478   3.140  11.821  1.7138 -0.1014 -1.1413
  478TMC3    C7 7171   0.475   2.932  11.664 -0.3586  0.1659 -0.5632
  478TMC3    C8 7172   0.563   3.140  12.091 -0.1445  0.1660 -0.0297
  478TMC3    O1 7173   0.530   2.852  11.590 -0.0152  0.1140 -0.0900
  478TMC3    O2 7174   0.632   3.125  12.193  0.0464  0.2594 -0.3738
  479MPD2     C 7175   0.412   0.206  15.407 -0.2786  0.9619  0.0529
  479MPD2    C1 7176   0.359   0.127  15.508  0.1003 -0.0454  0.0143
  479MPD2    C2 7177   0.385   0.158  15.640 -0.4868  0.9936 -0.0963
  479MPD2    C3 7178   0.481   0.260  15.673 -0.1415 -0.6741  0.4309
  479MPD2    C4 7179   0.541   0.326  15.568 -0.3859  0.5362  0.1564
  479MPD2    C5 7180   0.507   0.303  15.434 -0.4980  1.2225 -0.7135
  479MPD2     H 7181   0.340   0.087  15.707  0.6766  0.4815  0.1455
  479MPD2    H1 7182   0.602   0.415  15.579  0.0880  0.4958 -2.0686
  479MPD2    H2 7183   0.369   0.187  15.309 -1.8249 -1.7782  1.2646
  479MPD2    H3 7184   0.542   0.356  15.346  3.0077  0.4930  0.2362
  479MPD2     N 7185   0.530   0.296  15.801 -0.2229  0.5369 -0.1833
  479MPD2    H5 7186   0.611   0.358  15.801 -0.5021  0.9079  0.5150
  479MPD2    N1 7187   0.261   0.033  15.469  0.3587 -0.1097  0.1017
  479MPD2    H7 7188   0.256   0.006  15.371 -0.1098 -1.2558  0.4337
  480TMC3    C1 7189   0.212   0.088  16.084  0.3833  0.3030  0.1535
  480TMC3    C2 7190   0.108   0.142  16.008 -0.6943 -0.2123 -0.0399
  480TMC3    C3 7191   0.127   0.240  15.908  0.4477  0.1459 -1.0062
  480TMC3    C4 7192   0.339   0.117  16.042 -0.0127 -0.3620  0.5181
  480TMC3    C5 7193   0.356   0.201  15.936 -0.0431  0.4339 -0.0582
  480TMC3    C6 7194   0.257   0.278  15.882  0.3248  0.5152  1.0442
  480TMC3     C 7195   0.195   4.720  16.187  0.0868 -0.5740  0.2908
  480TMC3     O 7196   0.297   4.682  16.238 -0.8916 -0.4796  0.4942
  480TMC3     H 7197   0.006   0.119  16.036 -0.9789 -0.9136 -1.6185
  480TMC3    H1 7198   0.425   0.061  16.077  0.2862 -0.4616 -0.3728
  480TMC3    H2 7199   0.274   0.347  15.800  0.2341  1.3043  1.6889
  480TMC3    C7 7200   0.487   0.263  15.926  0.3004  0.5632  0.1382
  480TMC3    C8 7201   0.014   0.279  15.817  0.1548 -0.0018 -0.1371
  480TMC3    O1 7202   0.555   0.263  16.030 -0.1097 -0.2274 -0.3082
  480TMC3    O2 7203   4.637   0.266  15.861  0.4182  0.6564  0.3902
  481MPD2     C 7204   2.099   4.630  14.147  0.2642 -0.3368 -0.3367
  481MPD2    C1 7205   2.003   4.577  14.230 -0.6863  0.3959  0.5103
  481MPD2    C2 7206   2.044   4.502  14.335  0.5236 -0.7805  0.5913
  481MPD2    C3 7207   2.180   4.485  14.369 -0.4215  0.1048  0.5486
  481MPD2    C4 7208   2.275   4.535  14.288  0.4387 -0.0315  0.0021
  481MPD2    C5 7209   2.231   4.605  14.176  0.0654 -0.0429  0.7418
  481MPD2     H 7210   1.969   4.443  14.387 -1.7863  0.1164 -1.7194
  481MPD2    H1 7211   2.380   4.524  14.309  0.1026 -1.9621  0.6913
  481MPD2    H2 7212   2.069   4.685  14.059 -1.8555  0.4391  0.8866
  481MPD2    H3 7213   2.308   4.652  14.116 -0.7531  0.7183  0.2807
  481MPD2     N 7214   2.222   4.409  14.479  0.1923  0.4644  0.3655
  481MPD2    H5 7215   2.320   4.401  14.500  0.1207 -0.5677  0.3207
  481MPD2    N1 7216   1.867   4.591  14.191  0.3658 -0.3142  0.1051
  481MPD2    H7 7217   1.857   4.651  14.110  2.1885  1.5258  1.2453
  482TMC3    C1 7218   1.627   4.533  14.176 -0.6385 -0.0415  0.6557
  482TMC3    C2 7219   1.533   4.438  14.202  0.8724 -0.0991 -0.5517
  482TMC3    C3 7220   1.440   4.418  14.104 -0.0263 -0.1699  0.1948
  482TMC3    C4 7221   1.624   4.610  14.060 -1.0468 -0.1560  0.0838
  482TMC3    C5 7222   1.530   4.587  13.965  0.1247 -0.1561 -0.4657
  482TMC3    C6 7223   1.433   4.493  13.989  0.9308 -0.0242 -0.2286
  482TMC3     C 7224   1.750   4.536  14.254 -0.1624  0.1724 -0.2429
  482TMC3     O 7225   1.740   4.482  14.361 -0.5872 -0.0695 -0.8444
  482TMC3     H 7226   1.536   4.370  14.286 -0.6523  0.5926  0.0556
  482TMC3    H1 7227   1.700   4.687  14.049 -0.2087 -0.8165  1.2939
  482TMC3    H2 7228   1.358   4.462  13.916  0.9556  1.8822 -1.0758
  482TMC3    C7 7229   1.532   4.663  13.841 -0.5606  0.5190 -0.4341
  482TMC3    C8 7230   1.337   4.317  14.127 -0.1375  0.1709  0.3799
  482TMC3    O1 7231   1.608   0.026  13.844  0.2657  0.0150  0.3104
  482TMC3    O2 7232   1.379   4.225  14.193  0.2917  0.5527  0.8500
  483TMC3    C1 7233   0.134   3.473   1.541 -0.9208 -0.3087  1.2887
  483TMC3    C2 7234   0.216   3.550   1.463  0.8319  0.2888  0.1219
  483TMC3    C3 7235   0.344   3.505   1.434 -0.0099  0.1161 -0.3461
  483TMC3    C4 7236   0.172   3.347   1.577 -0.1136  0.0530  0.1163
  483TMC3    C5 7237   0.298   3.306   1.546  0.5567  0.0085 -0.9568
  483TMC3    C6 7238   0.391   3.386   1.483 -1.0210 -0.3570 -0.0395
  483TMC3     C 7239   4.725   3.509   1.529 -0.0401 -0.9451 -0.0243
  483TMC3     O 7240   4.714   3.624   1.482  0.1971 -0.1328 -0.4500
  483TMC3     H 7241   0.176   3.641   1.421 -2.1413  0.3153  2.9747
  483TMC3    H1 7242   0.105   3.286   1.636 -1.3283  1.3219  0.0439
  483TMC3    H2 7243   0.479   3.339   1.439  0.1753 -0.0071  1.9834
  483TMC3    C7 7244   0.299   3.172   1.492 -0.6834 -0.2653  0.1465
  483TMC3    C8 7245   0.433   3.594   1.355  0.0183 -0.0497  0.3674
  483TMC3    O1 7246   0.345   3.156   1.377 -0.0913  0.4322  0.6362
  483TMC3    O2 7247   0.369   3.669   1.283  0.5380  0.4668  0.1838
  484MPD2     C 7248   2.589   1.565  13.335 -0.1807 -0.2741 -0.3623
  484MPD2    C1 7249   2.518   1.583  13.221 -0.9700  0.6637  0.4638
  484MPD2    C2 7250   2.580   1.642  13.108 -0.1987  0.4300 -0.3428
  484MPD2    C3 7251   2.716   1.677  13.109  0.1592 -0.1118 -0.3607
  484MPD2    C4 7252   2.777   1.665  13.232 -0.2144 -0.0255  0.8537
  484MPD2    C5 7253   2.710   1.616  13.339 -0.2149  0.1665 -0.6465
  484MPD2     H 7254   2.526   1.643  13.014 -1.4446  0.1534  0.3643
  484MPD2    H1 7255   2.880   1.691  13.251  0.5112  0.6783 -4.1945
  484MPD2    H2 7256   2.543   1.515  13.419 -1.3330 -0.3988 -1.0784
  484MPD2    H3 7257   2.758   1.612  13.437  0.2699 -1.2223 -0.9339
  484MPD2     N 7258   2.781   1.723  12.995 -0.9484 -0.1169  0.0155
  484MPD2    H5 7259   2.882   1.730  12.998 -0.9545 -0.0717  0.1390
  484MPD2    N1 7260   2.387   1.524  13.225 -0.4987 -0.0892 -0.3626
  484MPD2    H7 7261   2.369   1.462  13.304 -0.5024  0.0534 -0.2516
  485TMC3    C1 7262   2.835   1.799  12.791  0.2579 -0.2411 -0.3407
  485TMC3    C2 7263   2.961   1.741  12.814 -0.3696  0.6222  0.1361
  485TMC3    C3 7264   3.072   1.792  12.755 -0.6151  0.1496 -0.3632
  485TMC3    C4 7265   2.819   1.869  12.679  0.4078  0.2084 -0.4897
  485TMC3    C5 7266   2.932   1.910  12.608  0.0692  0.0019  0.6069
  485TMC3    C6 7267   3.062   1.878  12.648  0.3411  0.3335 -0.7082
  485TMC3     C 7268   2.727   1.764  12.873  0.0465 -0.1619  0.1677
  485TMC3     O 7269   2.612   1.770  12.831 -0.3050 -0.2681 -0.0613
  485TMC3     H 7270   2.973   1.664  12.890  2.1007  1.3192  0.4569
  485TMC3    H1 7271   2.718   1.882  12.643  0.2481 -0.6775 -0.3629
  485TMC3    H2 7272   3.148   1.926  12.602  0.1376 -0.2240 -1.6665
  485TMC3    C7 7273   2.925   1.900  12.467 -0.0250  0.0643  0.0077
  485TMC3    C8 7274   3.174   1.689  12.724  0.4521  0.2202  0.2878
  485TMC3    O1 7275   2.820   1.931  12.414 -0.0372  0.4118  0.3421
  485TMC3    O2 7276   3.210   1.696  12.605  0.0746 -0.3842 -0.2267
  486MPD2     C 7277   4.142   0.235  13.410  0.0092  0.7501 -0.3599
  486MPD2    C1 7278   4.219   0.246  13.299 -0.3022  0.4321  0.3737
  486MPD2    C2 7279   4.181   0.341  13.201 -0.0588  0.3397  0.1047
  486MPD2    C3 7280   4.064   0.418  13.217 -0.5301  0.2788  0.4665
  486MPD2    C4 7281   3.991   0.398  13.338  0.9419  1.1422  0.5899
  486MPD2    C5 7282   4.033   0.309  13.432 -0.4399 -0.6581 -0.5024
  486MPD2     H 7283   4.237   0.346  13.108 -2.0560 -0.6571 -1.1520
  486MPD2    H1 7284   3.896   0.446  13.357 -0.0121 -0.1224 -0.9802
  486MPD2    H2 7285   4.169   0.164  13.487 -0.3539  0.1750 -0.7578
  486MPD2    H3 7286   3.960   0.293  13.511 -0.0241  1.0238  0.2280
  486MPD2     N 7287   4.034   0.516  13.120 -0.6422 -0.3109  0.1993
  486MPD2    H5 7288   4.081   0.513  13.030 -1.7842 -1.4774 -0.3644
  486MPD2    N1 7289   4.330   0.160  13.282  0.2580  0.0187 -0.1225
  486MPD2    H7 7290   4.345   0.098  13.360 -0.1631  0.6074  0.4191
  487TMC3    C1 7291   4.487   0.028  13.172 -0.7401  0.4735  0.3557
  487TMC3    C2 7292   4.463   4.659  13.087 -0.0470 -0.3528 -0.6089
  487TMC3    C3 7293   4.528   4.538  13.100  0.0755 -0.2708 -0.4131
  487TMC3    C4 7294   4.553   0.013  13.285 -0.7172  0.2880  0.4377
  487TMC3    C5 7295   4.617   4.631  13.301 -0.2180 -0.2872 -0.5605
  487TMC3    C6 7296   4.603   4.525  13.216 -0.2677  0.3160  0.8058
  487TMC3     C 7297   4.391   0.133  13.163 -0.3428  0.9660 -0.1299
  487TMC3     O 7298   4.348   0.151  13.050  0.9487 -0.0103  0.3724
  487TMC3     H 7299   4.398   4.685  13.003 -1.0297 -0.6930  0.0477
  487TMC3    H1 7300   4.565   0.092  13.358 -1.0900 -1.1243  2.0636
  487TMC3    H2 7301   4.678   4.448  13.205 -1.5182 -0.5591 -1.5429
  487TMC3    C7 7302   4.633   4.598  13.442  0.0986  0.9401 -0.0761
  487TMC3    C8 7303   4.432   4.429  13.110  0.4144 -0.0172  0.1578
  487TMC3    O1 7304   4.626   4.692  13.523 -0.1045  0.2772  0.0566
  487TMC3    O2 7305   4.323   4.470  13.141  0.5030 -0.1420 -0.7164
  488MPD2     C 7306   4.330   2.076  16.106  0.6455 -0.5979  0.2018
  488MPD2    C1 7307   4.370   2.191  16.165  0.0935 -0.0574 -0.0953
  488MPD2    C2 7308   4.361   2.209  16.299 -0.8187  0.6314 -0.0685
  488MPD2    C3 7309   4.302   2.107  16.379 -0.1334  1.0017 -0.1242
  488MPD2    C4 7310   4.241   1.996  16.315 -0.1547 -0.2784 -0.3205
  488MPD2    C5 7311   4.256   1.982  16.179 -0.0888  1.1248 -0.4235
  488MPD2     H 7312   4.406   2.297  16.342  2.7999 -1.9317  1.3968
  488MPD2    H1 7313   4.206   1.909  16.369 -1.3932  0.5044  0.1273
  488MPD2    H2 7314   4.366   2.060  16.006  0.6517  0.0381  0.1005
  488MPD2    H3 7315   4.210   1.897  16.130  0.5827  0.5372 -0.0522
  488MPD2     N 7316   4.313   2.121  16.520  0.2526  0.3754  0.0614
  488MPD2    H5 7317   4.336   2.215  16.550 -0.4697  0.0640  1.5965
  488MPD2    N1 7318   4.440   2.294  16.102 -0.0607 -0.3033  0.4400
  488MPD2    H7 7319   4.482   2.362  16.165  1.0833 -0.4626 -0.1492
  489TMC3    C1 7320   4.320   2.072  16.752  0.1934  0.2146  0.1149
  489TMC3    C2 7321   4.299   2.201  16.786  0.6151  0.5491 -0.1423
  489TMC3    C3 7322   4.317   2.241  16.911 -0.0521  0.2579 -0.0810
  489TMC3    C4 7323   4.341   1.970  16.840  0.1893 -0.6056  0.4605
  489TMC3    C5 7324   4.355   2.015  16.971  0.5828 -0.2359  0.1681
  489TMC3    C6 7325   4.354   2.148  17.006  0.1461 -0.0766  0.5400
  489TMC3     C 7326   4.297   2.018  16.616 -0.6904  0.2040  0.1801
  489TMC3     O 7327   4.275   1.895  16.603 -0.0034 -0.0170 -0.5960
  489TMC3     H 7328   4.250   2.268  16.716 -2.2747 -1.8407 -0.4085
  489TMC3    H1 7329   4.354   1.867  16.811  0.0086  0.1086 -2.1099
  489TMC3    H2 7330   4.379   2.183  17.105  0.9793  0.7890  0.0272
  489TMC3    C7 7331   4.383   1.915  17.078  0.6963 -0.0743 -0.1621
  489TMC3    C8 7332   4.397   2.364  16.912  0.2677  0.7584  0.0877
  489TMC3    O1 7333   4.450   1.951  17.172 -0.4286 -0.4074 -0.8817
  489TMC3    O2 7334   4.469   2.395  16.819  0.3225 -0.0732  0.5040
  490MPD2     C 7335   0.626   1.843  16.794  0.2950 -0.1933 -0.2859
  490MPD2    C1 7336   0.722   1.771  16.865  0.0701 -0.6607 -0.2363
  490MPD2    C2 7337   0.813   1.840  16.944  0.3093  0.0762  0.5189
  490MPD2    C3 7338   0.807   1.979  16.957 -0.1112 -0.6287  0.3745
  490MPD2    C4 7339   0.696   2.043  16.906 -0.5398 -0.5150  0.6013
  490MPD2    C5 7340   0.610   1.977  16.824 -0.0799 -0.2215 -0.4488
  490MPD2     H 7341   0.888   1.780  16.993 -1.0115 -1.0406  1.1543
  490MPD2    H1 7342   0.677   2.148  16.926 -5.3058 -0.8293 -2.2143
  490MPD2    H2 7343   0.567   1.797  16.716 -1.5220  0.4323  0.7389
  490MPD2    H3 7344   0.539   2.037  16.769  0.2133 -0.3297 -0.9446
  490MPD2     N 7345   0.895   2.060  17.034 -0.4441 -0.2644  0.1988
  490MPD2    H5 7346   0.872   2.155  17.063  2.0313  1.1868 -2.5370
  490MPD2    N1 7347   0.711   1.631  16.881  0.4284  0.5067 -0.5268
  490MPD2    H7 7348   0.773   1.589  16.949 -0.9893 -0.5668  0.0926
  491TMC3    C1 7349   0.595   1.424  16.874  0.6249 -0.0417 -0.5382
  491TMC3    C2 7350   0.614   1.408  17.009 -0.0246  0.4149 -0.0372
  491TMC3    C3 7351   0.595   1.280  17.055  0.1349 -0.2169  0.0129
  491TMC3    C4 7352   0.546   1.331  16.786 -0.5313  0.5635 -0.1336
  491TMC3    C5 7353   0.506   1.212  16.841  0.4507 -0.0608  0.5441
  491TMC3    C6 7354   0.528   1.181  16.978  0.3072 -0.0142 -0.6671
  491TMC3     C 7355   0.613   1.552  16.820  0.2652 -0.6724  0.1588
  491TMC3     O 7356   0.523   1.587  16.748  0.2481  0.7224  0.3333
  491TMC3     H 7357   0.646   1.484  17.080  0.6152  0.4059 -0.3161
  491TMC3    H1 7358   0.518   1.367  16.688  0.7230 -0.0621 -0.7147
  491TMC3    H2 7359   0.483   1.091  17.019 -2.4705  1.4164 -0.5522
  491TMC3    C7 7360   0.443   1.114  16.755 -0.2442  0.9510  0.4324
  491TMC3    C8 7361   0.581   1.269  17.203 -0.2971 -0.2175 -0.0357
  491TMC3    O1 7362   0.442   1.008  16.815  0.0125  0.1090 -0.1486
  491TMC3    O2 7363   0.492   1.197  17.242 -0.7496  0.0051  0.0620
  492MPD2     C 7364   0.910   1.604  11.541 -0.5771  0.2658  0.4652
  492MPD2    C1 7365   0.794   1.542  11.516  0.8080 -0.1408  0.1540
  492MPD2    C2 7366   0.715   1.503  11.623 -0.3995 -0.2757 -0.6290
  492MPD2    C3 7367   0.767   1.521  11.755  0.6931  0.0194 -0.6458
  492MPD2    C4 7368   0.884   1.588  11.774 -0.2145  0.1783 -0.1681
  492MPD2    C5 7369   0.962   1.626  11.662  0.1453 -0.2371  0.2618
  492MPD2     H 7370   0.620   1.460  11.593 -1.0301 -0.4311  1.6280
  492MPD2    H1 7371   0.918   1.601  11.876  0.8614 -1.9906 -0.2493
  492MPD2    H2 7372   0.973   1.633  11.458 -0.1078 -0.4790  0.5596
  492MPD2    H3 7373   1.056   1.678  11.675  1.0075 -1.8096  0.2806
  492MPD2     N 7374   0.696   1.488  11.869  0.2934  0.0070  0.3419
  492MPD2    H5 7375   0.735   1.529  11.953  2.4524  1.2993 -1.3017
  492MPD2    N1 7376   0.769   1.522  11.377 -0.1115 -0.3634  0.4376
  492MPD2    H7 7377   0.836   1.560  11.311  0.1697 -2.1613 -0.3110
  493TMC3    C1 7378   0.678   1.438  11.173 -0.2948 -0.2165  0.3153
  493TMC3    C2 7379   0.671   1.556  11.112  0.0650  0.1835  0.7225
  493TMC3    C3 7380   0.603   1.566  10.996 -0.1566  0.2524 -0.0670
  493TMC3    C4 7381   0.609   1.333  11.127 -0.3320 -0.3832 -0.2753
  493TMC3    C5 7382   0.528   1.352  11.018  0.4826 -0.7568 -0.7247
  493TMC3    C6 7383   0.519   1.471  10.949 -0.8992  0.0374  0.5656
  493TMC3     C 7384   0.677   1.433  11.321 -0.1553  0.3034 -0.2619
  493TMC3     O 7385   0.603   1.348  11.371 -0.2487 -0.1541  0.0303
  493TMC3     H 7386   0.729   1.641  11.145  0.2703  0.4804 -0.4071
  493TMC3    H1 7387   0.616   1.236  11.176 -0.3608 -1.1558 -1.7901
  493TMC3    H2 7388   0.470   1.482  10.853  1.4634  0.8428 -0.5582
  493TMC3    C7 7389   0.425   1.256  10.996 -0.0731 -0.2889  0.4771
  493TMC3    C8 7390   0.607   1.691  10.926 -0.0170  0.0725  0.1303
  493TMC3    O1 7391   0.339   1.301  10.925 -0.0396  0.7046  0.3580
  493TMC3    O2 7392   0.702   1.765  10.944 -1.0402  0.2442 -0.3180
  494TMC3    C1 7393   1.328   3.058   0.774 -0.0102  0.5409 -0.2313
  494TMC3    C2 7394   1.240   2.975   0.707 -0.3031  0.7874  0.0915
  494TMC3    C3 7395   1.280   2.917   0.587  0.1883 -0.5620  0.5858
  494TMC3    C4 7396   1.441   3.104   0.710 -0.6388  0.0232  1.2220
  494TMC3    C5 7397   1.462   3.071   0.576 -0.9230 -0.7517  0.8630
  494TMC3    C6 7398   1.383   2.971   0.515  0.6261 -0.0463 -0.4130
  494TMC3     C 7399   1.325   3.066   0.915  0.0333  0.2245  0.4081
  494TMC3     O 7400   1.422   3.114   0.968  0.2317 -0.2333 -0.0171
  494TMC3     H 7401   1.147   2.945   0.753 -1.1974  1.8305 -1.0323
  494TMC3    H1 7402   1.502   3.183   0.754 -2.0402  0.1034  3.0036
  494TMC3    H2 7403   1.397   2.931   0.415  1.4705  0.0977 -0.3485
  494TMC3    C7 7404   1.542   3.153   0.486 -0.1384  1.3316 -0.4797
  494TMC3    C8 7405   1.295   2.771   0.585  0.6362  0.0333  0.1174
  494TMC3    O1 7406   1.501   3.174   0.375  0.0990 -0.2483  0.1485
  494TMC3    O2 7407   1.397   2.736   0.528  0.3957 -0.3606  0.1206
  495TMC3    C1 7408   0.411   0.235  14.943 -0.1015 -0.0313 -0.1610
  495TMC3    C2 7409   0.336   0.196  14.829 -0.0178 -0.2037  0.4586
  495TMC3    C3 7410   0.210   0.231  14.833  0.2020 -0.0870  0.4329
  495TMC3    C4 7411   0.351   0.285  15.056 -0.3074  0.1954 -0.2072
  495TMC3    C5 7412   0.217   0.289  15.053  0.3023 -0.0625  0.0120
  495TMC3    C6 7413   0.142   0.260  14.946  0.0246 -0.0278 -0.2690
  495TMC3     C 7414   0.528   0.157  14.977  0.1020 -0.3470  0.2410
  495TMC3     O 7415   0.612   0.215  15.049  0.3365 -0.5745  0.8072
  495TMC3     H 7416   0.376   0.148  14.741 -0.1043  1.6165 -0.5685
  495TMC3    H1 7417   0.413   0.314  15.139  0.4876 -1.3579 -0.2443
  495TMC3    H2 7418   0.034   0.257  14.948  0.0338 -1.4531 -2.6255
  495TMC3    C7 7419   0.161   0.332  15.180 -0.0091 -0.1475 -0.2389
  495TMC3    C8 7420   0.128   0.195  14.717 -0.2553 -0.7711 -0.2224
  495TMC3    O1 7421   0.247   0.395  15.242 -0.3616 -0.2049 -0.3080
  495TMC3    O2 7422   0.014   0.157  14.734 -0.7792 -0.2701 -0.5431
  496MPD2     C 7423   2.388   0.448  16.112 -0.6412  0.3647 -0.0036
  496MPD2    C1 7424   2.291   0.435  16.023  0.4872 -0.1508  0.2553
  496MPD2    C2 7425   2.191   0.529  16.030  0.0075  0.9431 -0.7231
  496MPD2    C3 7426   2.188   0.629  16.137 -1.1465 -0.2502 -0.9079
  496MPD2    C4 7427   2.294   0.637  16.225  0.3195 -0.2656  0.3442
  496MPD2    C5 7428   2.393   0.550  16.199  0.2345 -0.0470  0.1976
  496MPD2     H 7429   2.121   0.537  15.947  2.0549  0.0418 -2.5153
  496MPD2    H1 7430   2.308   0.702  16.310 -0.8300 -0.0180  0.3343
  496MPD2    H2 7431   2.476   0.385  16.106  1.0389  2.6987  0.0510
  496MPD2    H3 7432   2.472   0.562  16.273 -1.6684  3.1554  1.7126
  496MPD2     N 7433   2.091   0.731  16.152  0.4080  0.2478 -0.9167
  496MPD2    H5 7434   2.101   0.811  16.214  0.6970 -0.9160  0.5412
  496MPD2    N1 7435   2.295   0.326  15.932  0.2346  0.2676  0.3120
  496MPD2    H7 7436   2.361   0.250  15.947  0.8403  0.4883 -1.2120
  497TMC3    C1 7437   1.901   0.870  16.127 -0.1775 -0.0339 -1.2245
  497TMC3    C2 7438   1.817   0.930  16.038  0.3164  0.4243 -0.6513
  497TMC3    C3 7439   1.747   1.036  16.091 -0.9265 -0.2990  0.1656
  497TMC3    C4 7440   1.920   0.911  16.258  0.0430 -0.4777 -0.2889
  497TMC3    C5 7441   1.853   1.022  16.298  0.1423  0.6837  0.2757
  497TMC3    C6 7442   1.760   1.079  16.222  0.5454  0.5564 -0.4832
  497TMC3     C 7443   1.968   0.748  16.087  0.4383  0.7792  0.4201
  497TMC3     O 7444   1.912   0.672  16.006 -0.4570 -0.2103 -0.6545
  497TMC3     H 7445   1.830   0.898  15.935  0.0919 -0.4227 -0.4160
  497TMC3    H1 7446   1.964   0.845  16.331  0.6349  0.6817  0.4030
  497TMC3    H2 7447   1.699   1.161  16.257 -1.5818 -1.4533  0.5114
  497TMC3    C7 7448   1.852   1.064  16.435 -0.9305  0.3515  0.2044
  497TMC3    C8 7449   1.726   1.146  15.999  0.5253 -0.4531  0.4247
  497TMC3    O1 7450   1.749   1.114  16.476  0.6709 -0.6030  0.1556
  497TMC3    O2 7451   1.692   1.250  16.053  0.3938 -0.3032  0.0010
  498MPD2     C 7452   2.634   0.433   9.947 -0.3609  0.4760 -0.4196
  498MPD2    C1 7453   2.610   0.417  10.078  0.6863  0.0687 -0.5593
  498MPD2    C2 7454   2.478   0.393  10.112  0.2658 -0.3848  0.0824
  498MPD2    C3 7455   2.377   0.383  10.019  0.0783 -0.5003 -0.5187
  498MPD2    C4 7456   2.407   0.403   9.886  0.6182 -0.2972  0.4952
  498MPD2    C5 7457   2.533   0.430   9.852 -0.3461 -0.4181 -0.3541
  498MPD2     H 7458   2.462   0.381  10.218  2.8957 -0.1210  0.5127
  498MPD2    H1 7459   2.327   0.404   9.813  1.6134  1.1519 -0.5501
  498MPD2    H2 7460   2.736   0.449   9.912 -0.1664 -2.1713 -1.0927
  498MPD2    H3 7461   2.557   0.437   9.746  0.7574 -2.5764 -0.2460
  498MPD2     N 7462   2.246   0.368  10.064  0.6149 -0.3567  0.5095
  498MPD2    H5 7463   2.233   0.361  10.164 -3.6339 -1.1287 -0.1216
  498MPD2    N1 7464   2.703   0.437  10.178 -0.3516  0.6085 -0.5732
  498MPD2    H7 7465   2.665   0.432  10.272  0.1013  1.2411 -0.3574
  499TMC3    C1 7466   2.904   0.490  10.290  0.7335 -0.4925 -0.3119
  499TMC3    C2 7467   2.894   0.404  10.390  0.4557 -0.0924 -0.1913
  499TMC3    C3 7468   2.960   0.429  10.509 -0.2007 -0.1672 -0.5680
  499TMC3    C4 7469   2.980   0.602  10.312  0.2784 -0.2201 -0.2507
  499TMC3    C5 7470   3.055   0.618  10.424 -0.9452 -0.1124 -0.4956
  499TMC3    C6 7471   3.038   0.542  10.537  0.8733  0.1828 -0.2189
  499TMC3     C 7472   2.832   0.485  10.166  0.4488 -0.4708 -0.2539
  499TMC3     O 7473   2.894   0.531  10.071 -0.3562  0.1151 -0.2227
  499TMC3     H 7474   2.834   0.314  10.383  0.5101 -0.0039 -1.6282
  499TMC3    H1 7475   2.981   0.676  10.232  0.2090  0.2746  0.2120
  499TMC3    H2 7476   3.092   0.544  10.631 -1.9852  0.5662  1.4401
  499TMC3    C7 7477   3.117   0.752  10.443  0.5390 -0.1406  0.1673
  499TMC3    C8 7478   2.962   0.332  10.614  0.3749  0.1038  0.3940
  499TMC3    O1 7479   3.131   0.819  10.341  0.1353  0.0769  0.0070
  499TMC3    O2 7480   2.889   0.366  10.706  0.6684  0.2637  0.0800
  500MPD2     C 7481   3.869   2.389  11.243 -0.3631  0.2667  0.1939
  500MPD2    C1 7482   3.867   2.411  11.109 -0.7768 -0.4832 -0.1608
  500MPD2    C2 7483   3.744   2.421  11.044  0.0711  0.2182 -0.2220
  500MPD2    C3 7484   3.628   2.416  11.115 -0.3312  0.3731  0.0874
  500MPD2    C4 7485   3.632   2.393  11.249 -0.4508 -0.4954 -0.8541
  500MPD2    C5 7486   3.754   2.381  11.316  0.1506  0.3301  0.4855
  500MPD2     H 7487   3.737   2.406  10.937 -1.5887 -2.2093  0.2240
  500MPD2    H1 7488   3.542   2.378  11.308  1.2595  0.8863  2.1467
  500MPD2    H2 7489   3.960   2.392  11.302  1.2180 -0.6338 -2.1986
  500MPD2    H3 7490   3.762   2.366  11.423 -1.2226 -1.2982  0.3590
  500MPD2     N 7491   3.493   2.427  11.064  0.9159  0.0859  0.3804
  500MPD2    H5 7492   3.420   2.410  11.132  0.8618  0.6586  0.4700
  500MPD2    N1 7493   3.982   2.423  11.029 -0.7977  0.3301  0.6519
  500MPD2    H7 7494   3.965   2.449  10.933  2.0739 -0.4716 -0.0998
  501TMC3    C1 7495   4.192   2.402  10.960 -0.3930 -0.6030 -0.4700
  501TMC3    C2 7496   4.179   2.507  10.870 -0.7667 -0.2375  0.7254
  501TMC3    C3 7497   4.291   2.534  10.789 -0.2401  0.2561 -0.5658
  501TMC3    C4 7498   4.310   2.330  10.969 -0.4627 -0.4779 -0.5859
  501TMC3    C5 7499   4.417   2.358  10.892 -0.6512  0.1598 -0.4590
  501TMC3    C6 7500   4.407   2.468  10.808 -0.4739 -0.5476  0.2471
  501TMC3     C 7501   4.103   2.389  11.070  0.8367  0.4569 -0.1696
  501TMC3     O 7502   4.160   2.353  11.172  0.0980 -0.1380 -0.2827
  501TMC3     H 7503   4.099   2.579  10.883  0.5711  1.2130  0.9408
  501TMC3    H1 7504   4.329   2.259  11.049 -0.4097 -2.2995 -2.1999
  501TMC3    H2 7505   4.488   2.514  10.753 -1.4008 -1.8140 -2.2034
  501TMC3    C7 7506   4.547   2.343  10.955 -0.2283 -0.7328 -0.2648
  501TMC3    C8 7507   4.319   2.679  10.804  0.6336 -0.3406  0.2101
  501TMC3    O1 7508   4.565   2.241  11.022 -0.5303 -0.0631  0.3709
  501TMC3    O2 7509   4.437   2.696  10.836 -0.0140 -0.7515  0.6321
  502TMC3    C1 7510   4.695   1.073  14.919 -0.0493 -0.5266 -0.8048
  502TMC3    C2 7511   4.677   1.204  14.903 -0.3188  0.0282 -0.8714
  502TMC3    C3 7512   4.548   1.249  14.862  0.7018 -0.4201 -0.0622
  502TMC3    C4 7513   4.594   0.984  14.894  0.5962  0.5402 -0.7768
  502TMC3    C5 7514   4.471   1.028  14.857 -0.4313 -1.2597 -0.5777
  502TMC3    C6 7515   4.444   1.164  14.846 -0.5968 -0.3813  0.9361
  502TMC3     C 7516   0.039   1.060  15.040 -0.2686 -0.4409  0.9217
  502TMC3     O 7517   0.153   1.107  15.049  0.7438 -0.2302  0.0389
  502TMC3     H 7518   0.016   1.276  14.937 -1.0812 -0.1557  1.2272
  502TMC3    H1 7519   4.608   0.879  14.914 -1.0618  0.4890  0.1120
  502TMC3    H2 7520   4.345   1.197  14.821  0.4646  1.3734 -0.9249
  502TMC3    C7 7521   4.368   0.935  14.889 -0.2127 -0.9611  0.3889
  502TMC3    C8 7522   4.521   1.394  14.882  0.1327 -0.2161  0.1305
  502TMC3    O1 7523   4.396   0.817  14.861 -0.0606  0.1993 -0.3384
  502TMC3    O2 7524   4.607   1.466  14.933 -0.3589 -0.2975  0.4391
  503MPD2     C 7525   1.503   2.285  17.068  0.5970 -0.1522 -0.9595
  503MPD2    C1 7526   1.543   2.302  17.205  0.1512 -0.0079 -0.6401
  503MPD2    C2 7527   1.612   2.199  17.266 -0.1235 -0.3651 -0.3874
  503MPD2    C3 7528   1.634   2.079  17.194 -0.2975  0.0812 -0.0594
  503MPD2    C4 7529   1.594   2.070  17.062 -0.3003 -0.3528 -0.0055
  503MPD2    C5 7530   1.531   2.170  17.002 -0.1045  0.8124  0.2444
  503MPD2     H 7531   1.645   2.202  17.369  1.1204 -0.3215 -0.7819
  503MPD2    H1 7532   1.603   1.982  17.001 -2.6390  1.7100 -3.3083
  503MPD2    H2 7533   1.438   2.360  17.025 -2.0424 -0.2228  2.9013
  503MPD2    H3 7534   1.491   2.166  16.901  0.8435 -1.1161 -0.0552
  503MPD2     N 7535   1.712   1.976  17.254 -0.3369 -0.6823 -0.0781
  503MPD2    H5 7536   1.741   1.995  17.349  0.5916 -1.1409 -0.2697
  503MPD2    N1 7537   1.509   2.419  17.289  0.2851  0.1367 -0.1843
  503MPD2    H7 7538   1.556   2.422  17.379 -0.1655  0.7561  0.0262
  504TMC3    C1 7539   1.847   1.782  17.278 -1.0119 -0.0194  0.6455
  504TMC3    C2 7540   1.805   1.758  17.411  0.3428  0.8364 -0.3095
  504TMC3    C3 7541   1.898   1.707  17.499 -0.1239 -0.2014 -0.1877
  504TMC3    C4 7542   1.973   1.766  17.239  0.0232  0.1451  0.3742
  504TMC3    C5 7543   2.061   1.733  17.341 -0.0742  0.0658 -0.1911
  504TMC3    C6 7544   2.033   1.697  17.469  0.0185 -0.7739  0.5836
  504TMC3     C 7545   1.770   1.867  17.190 -0.1207  0.6524  0.2729
  504TMC3     O 7546   1.780   1.837  17.071  0.0933  0.1506  0.4037
  504TMC3     H 7547   1.701   1.778  17.435  0.7569  2.0464  0.5044
  504TMC3    H1 7548   2.008   1.801  17.142  2.4890  1.7823  1.8471
  504TMC3    H2 7549   2.101   1.674  17.550  0.1144  1.2947  1.0655
  504TMC3    C7 7550   2.188   1.696  17.279 -0.1521 -0.6433 -0.0987
  504TMC3    C8 7551   1.867   1.729  17.637 -0.3010 -0.8417  0.2089
  504TMC3    O1 7552   2.222   1.753  17.180  0.1531  0.1167 -0.7826
  504TMC3    O2 7553   1.778   1.813  17.651 -0.0342 -0.2349  0.2076
  505MPD2     C 7554   1.222   0.258  10.730  0.1162  0.0995 -0.5291
  505MPD2    C1 7555   1.316   0.153  10.711 -0.2660  0.1994  0.6782
  505MPD2    C2 7556   1.429   0.148  10.794  0.7347  0.1493  0.3901
  505MPD2    C3 7557   1.456   0.244  10.888  0.5450 -0.2333 -0.1331
  505MPD2    C4 7558   1.377   0.361  10.884  0.1209 -0.3586  0.3559
  505MPD2    C5 7559   1.261   0.359  10.817  0.2271 -0.0937  0.4477
  505MPD2     H 7560   1.494   0.066  10.766 -1.0101 -0.4265 -1.9755
  505MPD2    H1 7561   1.402   0.445  10.947 -0.8193 -0.7564  1.2603
  505MPD2    H2 7562   1.127   0.262  10.679 -0.3551  0.5307  0.3823
  505MPD2    H3 7563   1.194   0.445  10.823 -0.2369 -0.2738 -2.2698
  505MPD2     N 7564   1.570   0.241  10.972 -0.6445  0.1851  0.9163
  505MPD2    H5 7565   1.613   0.328  11.004 -1.6426  0.5859  1.1420
  505MPD2    N1 7566   1.297   0.044  10.623  0.5087  0.0092  0.0927
  505MPD2    H7 7567   1.379   4.722  10.607 -0.8299 -1.3087 -2.1414
  506TMC3    C1 7568   1.176   4.615  10.519 -0.1560 -1.4446  0.4154
  506TMC3    C2 7569   1.132   4.590  10.395 -1.1809  0.0400  0.2447
  506TMC3    C3 7570   1.145   4.472  10.339  0.7853  0.2937  0.0599
  506TMC3    C4 7571   1.255   4.527  10.586 -0.0444  0.4887  0.6512
  506TMC3    C5 7572   1.281   4.402  10.523 -0.1070  0.1132  0.2131
  506TMC3    C6 7573   1.227   4.380  10.401 -0.1518 -0.0386 -0.3080
  506TMC3     C 7574   1.177   0.014  10.556  0.5120 -0.5164 -0.0681
  506TMC3     O 7575   1.080   0.085  10.538  0.1623 -0.0738  0.0378
  506TMC3     H 7576   1.067   4.663  10.348  2.1066  2.8042  0.0413
  506TMC3    H1 7577   1.278   4.537  10.692  1.0242  0.9721  0.3772
  506TMC3    H2 7578   1.256   4.295  10.340  0.5885 -1.7607  2.4707
  506TMC3    C7 7579   1.409   4.346  10.538  0.7233 -0.5362 -0.0314
  506TMC3    C8 7580   1.180   4.490  10.200 -0.4006  0.7029 -0.5141
  506TMC3    O1 7581   1.443   4.261  10.458  0.0200 -0.1186 -0.1506
  506TMC3    O2 7582   1.127   4.430  10.111 -0.1773 -0.0295 -0.0452
  507TMC3    C1 7583   3.528   1.849  14.795  0.5427  0.0934  0.0293
  507TMC3    C2 7584   3.568   1.742  14.720 -0.0151  0.0790 -0.2193
  507TMC3    C3 7585   3.571   1.755  14.582  0.7169 -0.3219  0.4383
  507TMC3    C4 7586   3.480   1.962  14.738 -0.6169  0.6187 -0.9216
  507TMC3    C5 7587   3.504   1.983  14.606  0.6304  1.0188 -0.2331
  507TMC3    C6 7588   3.553   1.883  14.525 -0.0053  0.2316 -0.0613
  507TMC3     C 7589   3.464   1.813  14.925 -0.5953 -0.6303 -0.0210
  507TMC3     O 7590   3.431   1.901  14.998 -0.1972  0.0967 -0.2551
  507TMC3     H 7591   3.602   1.650  14.767  0.6633  0.9398  0.9637
  507TMC3    H1 7592   3.421   2.031  14.798  0.4989 -0.2214  1.1372
  507TMC3    H2 7593   3.572   1.895  14.419  2.8170  1.2062  0.5562
  507TMC3    C7 7594   3.391   2.029  14.537 -0.2278 -0.3854  0.1126
  507TMC3    C8 7595   3.506   1.642  14.522 -0.3325  0.2339 -0.2717
  507TMC3    O1 7596   3.346   1.953  14.456  0.0778  0.4614 -0.1884
  507TMC3    O2 7597   3.518   1.541  14.585 -0.2075 -0.5521 -0.5572
  508MPD2     C 7598   3.954   3.462  16.395  0.1086 -0.1859 -0.2796
  508MPD2    C1 7599   3.941   3.599  16.413 -0.2345  0.4408 -0.5496
  508MPD2    C2 7600   3.926   3.686  16.303 -0.6772  0.8210  0.2761
  508MPD2    C3 7601   3.906   3.632  16.175 -0.9306  0.1058  0.5685
  508MPD2    C4 7602   3.913   3.498  16.162 -0.5105 -0.0425  0.4292
  508MPD2    C5 7603   3.938   3.414  16.270  0.0560  0.1723  0.1102
  508MPD2     H 7604   3.919   3.793  16.319  1.8313  1.0888 -0.3942
  508MPD2    H1 7605   3.899   3.451  16.066 -1.0020 -2.6625  1.7830
  508MPD2    H2 7606   3.977   3.397  16.478 -1.7921  0.0785  0.4640
  508MPD2    H3 7607   3.958   3.313  16.236  0.0055  0.5664 -1.0912
  508MPD2     N 7608   3.895   3.731  16.073 -0.4454 -0.0749 -0.5941
  508MPD2    H5 7609   3.916   3.828  16.093 -3.8019  0.4430  0.3332
  508MPD2    N1 7610   3.988   3.648  16.538 -0.4066  0.4778  0.6486
  508MPD2    H7 7611   4.023   3.578  16.603  1.1665  0.1833 -0.5089
  509TMC3    C1 7612   3.798   3.968  15.721 -0.0699  0.0495 -0.7351
  509TMC3    C2 7613   3.885   4.067  15.763  0.2095 -0.5953 -0.0675
  509TMC3    C3 7614   3.988   4.034  15.848 -0.7123 -0.2502 -0.1324
  509TMC3    C4 7615   3.793   3.843  15.774  0.0659  0.3483  0.3597
  509TMC3    C5 7616   3.897   3.816  15.858  0.3885 -0.7773 -0.8016
  509TMC3    C6 7617   3.999   3.903  15.890 -0.2714  0.5877  0.1671
  509TMC3     C 7618   3.677   4.010  15.652 -0.1038  0.1858 -0.1290
  509TMC3     O 7619   3.587   3.930  15.665  0.5220 -0.5597  0.9886
  509TMC3     H 7620   3.889   4.167  15.721 -0.3927  0.4201  2.2699
  509TMC3    H1 7621   3.720   3.767  15.749  1.3508 -0.7848  0.0363
  509TMC3    H2 7622   4.089   3.874  15.944  1.7727 -0.7232 -3.9800
  509TMC3    C7 7623   3.887   3.692  15.940  0.0684  0.0628 -0.8405
  509TMC3    C8 7624   4.070   4.121  15.938  1.0926  0.1786  0.0908
  509TMC3    O1 7625   3.837   3.587  15.893 -0.2039  0.0280  0.1759
  509TMC3    O2 7626   4.143   4.066  16.024  0.4865  0.5655 -0.0065
  510MPD2     C 7627   1.531   0.808  14.900  0.6713  0.0442 -0.6195
  510MPD2    C1 7628   1.582   0.704  14.978  0.4129 -0.3240  0.6168
  510MPD2    C2 7629   1.711   0.662  14.945  0.3880  0.1172  0.2406
  510MPD2    C3 7630   1.780   0.714  14.834  0.1464  0.6562 -0.0418
  510MPD2    C4 7631   1.720   0.818  14.765  0.0047 -0.0540  0.0511
  510MPD2    C5 7632   1.596   0.866  14.803  0.9287 -0.7796  0.0443
  510MPD2     H 7633   1.764   0.596  15.013  0.4574  1.1610  1.1877
  510MPD2    H1 7634   1.763   0.860  14.675  0.2827  0.2734  0.3354
  510MPD2    H2 7635   1.437   0.860  14.917 -0.6982 -2.6347 -0.0580
  510MPD2    H3 7636   1.551   0.947  14.747 -0.6834 -1.1664  0.7741
  510MPD2     N 7637   1.913   0.671  14.821  0.3852 -0.0787  0.6022
  510MPD2    H5 7638   1.941   0.606  14.894  0.0487 -1.9185 -0.9161
  510MPD2    N1 7639   1.502   0.655  15.084 -0.1085 -0.0641  0.5500
  510MPD2    H7 7640   1.412   0.698  15.105  0.4315  1.6276 -0.6399
  511TMC3    C1 7641   1.419   0.486  15.237  0.2969 -0.5400  0.2926
  511TMC3    C2 7642   1.365   0.564  15.335 -0.0981 -0.1481 -0.2279
  511TMC3    C3 7643   1.274   0.508  15.420 -0.6044  0.2993  0.4355
  511TMC3    C4 7644   1.396   0.353  15.232  0.5531  0.6945 -0.0690
  511TMC3    C5 7645   1.316   0.292  15.319  0.3114 -0.0943 -0.1905
  511TMC3    C6 7646   1.244   0.370  15.404 -0.0019 -0.2243 -0.5956
  511TMC3     C 7647   1.522   0.534  15.154  0.5261  0.2689 -0.3729
  511TMC3     O 7648   1.601   0.447  15.119 -0.2463 -0.1040 -0.3059
  511TMC3     H 7649   1.386   0.670  15.340 -1.9155  0.1847  0.4303
  511TMC3    H1 7650   1.442   0.299  15.151 -1.1506  1.8657 -1.8172
  511TMC3    H2 7651   1.154   0.336  15.453 -0.3762 -0.7498 -1.6479
  511TMC3    C7 7652   1.288   0.152  15.310 -0.2247  0.2234  0.0621
  511TMC3    C8 7653   1.192   0.597  15.502  0.5605  1.2418  0.2705
  511TMC3    O1 7654   1.344   0.087  15.225  0.6386  0.6486  0.5208
  511TMC3    O2 7655   1.201   0.718  15.477  0.5151 -0.2221 -0.1804
  512TMC3    C1 7656   0.281   0.122  13.715  1.0774 -0.4417 -0.3069
  512TMC3    C2 7657   0.385   0.096  13.797  0.4241  0.9485  0.1145
  512TMC3    C3 7658   0.432   4.697  13.794  0.1038  0.1598  0.2002
  512TMC3    C4 7659   0.227   0.026  13.632  0.2515 -0.7969 -0.2300
  512TMC3    C5 7660   0.275   4.639  13.629 -0.1289 -0.1470  0.0700
  512TMC3    C6 7661   0.382   4.604  13.710 -0.7927  0.5020 -1.0578
  512TMC3     C 7662   0.278   0.259  13.671 -0.1850  0.9593 -0.4180
  512TMC3     O 7663   0.298   0.346  13.758  0.1410  0.0243 -0.1600
  512TMC3     H 7664   0.428   0.173  13.860 -0.0554  1.5209 -0.2584
  512TMC3    H1 7665   0.135   0.059  13.584  0.0687  0.0599  0.6952
  512TMC3    H2 7666   0.436   4.511  13.696 -0.6288  0.3417  0.6036
  512TMC3    C7 7667   0.267   4.591  13.492 -0.3789 -0.2287 -0.1160
  512TMC3    C8 7668   0.540   4.656  13.887  0.5663  0.0547  0.7709
  512TMC3    O1 7669   0.236   4.680  13.412 -0.2152 -0.0223 -0.0328
  512TMC3    O2 7670   0.571   4.537  13.883 -0.1416 -0.1903  0.0660
  513MPD2     C 7671   2.232   0.112  13.731  0.1274 -0.1403 -0.2164
  513MPD2    C1 7672   2.306   0.038  13.642 -0.3873 -0.5554  0.5486
  513MPD2    C2 7673   2.442   0.055  13.625  0.0334 -0.1170  0.2687
  513MPD2    C3 7674   2.503   0.149  13.712 -0.2107  0.2342  0.5223
  513MPD2    C4 7675   2.439   0.208  13.813 -0.2056  0.0809 -0.3424
  513MPD2    C5 7676   2.302   0.187  13.824  0.1339  0.3687  0.1494
  513MPD2     H 7677   2.495   0.002  13.547  0.6784  0.0922  0.5611
  513MPD2    H1 7678   2.488   0.259  13.895 -1.0904  0.6730 -0.1872
  513MPD2    H2 7679   2.126   0.099  13.751  0.2492  1.6163  1.5178
  513MPD2    H3 7680   2.246   0.221  13.911 -1.5557 -0.6319 -0.5341
  513MPD2     N 7681   2.649   0.154  13.700  0.0210  0.7344 -0.0665
  513MPD2    H5 7682   2.689   0.091  13.632  0.0908  0.3010  0.3821
  513MPD2    N1 7683   2.247   4.689  13.547 -0.1675 -0.1498  0.4277
  513MPD2    H7 7684   2.314   4.633  13.494  0.0058  0.0820  0.3981
  514TMC3    C1 7685   2.118   4.619  13.364 -0.7782 -0.1057 -0.2744
  514TMC3    C2 7686   2.053   4.679  13.258  0.6978  1.1264 -0.2222
  514TMC3    C3 7687   2.116   4.685  13.138  0.1421  0.0221  0.1204
  514TMC3    C4 7688   2.223   4.540  13.339  0.1233 -0.4224 -0.0087
  514TMC3    C5 7689   2.292   4.554  13.220  0.0747  0.2883  0.4014
  514TMC3    C6 7690   2.235   4.618  13.114 -0.2368  0.4361  0.0068
  514TMC3     C 7691   2.123   4.690  13.491 -0.4244  0.0713 -0.2451
  514TMC3     O 7692   2.042   0.045  13.496  0.3468 -0.3333 -0.3113
  514TMC3     H 7693   1.965   0.006  13.268  0.1109 -0.2060  2.7902
  514TMC3    H1 7694   2.259   4.477  13.419  1.0548 -0.3351 -0.3607
  514TMC3    H2 7695   2.270   4.590  13.015  1.8892 -1.9085  1.3954
  514TMC3    C7 7696   2.439   4.556  13.238 -0.4504 -0.0213 -0.3201
  514TMC3    C8 7697   2.049   0.002  13.022  0.1101 -0.3119  0.0102
  514TMC3    O1 7698   2.471   4.547  13.357 -0.5825 -0.2141 -0.3037
  514TMC3    O2 7699   1.929   0.006  13.036  0.3050  0.5075  0.1574
  515MPD2     C 7700   0.723   1.491  15.072 -0.1611 -0.5717  0.4921
  515MPD2    C1 7701   0.614   1.520  14.986 -0.0029  0.2425 -0.0990
  515MPD2    C2 7702   0.554   1.647  14.991 -0.1466 -0.5360 -0.3101
  515MPD2    C3 7703   0.608   1.745  15.074 -1.0032 -0.8120 -0.2461
  515MPD2    C4 7704   0.715   1.713  15.160 -0.1489  0.0826  0.1017
  515MPD2    C5 7705   0.772   1.584  15.161 -0.0486 -0.0844  0.1559
  515MPD2     H 7706   0.471   1.670  14.926  1.0672 -1.6269 -2.2303
  515MPD2    H1 7707   0.744   1.794  15.226 -0.8621  0.3447  0.0934
  515MPD2    H2 7708   0.771   1.393  15.066  1.5922  0.1214  3.0639
  515MPD2    H3 7709   0.850   1.556  15.231  1.0416 -1.7664 -1.6991
  515MPD2     N 7710   0.563   1.879  15.083  0.1979  0.2473 -0.3862
  515MPD2    H5 7711   0.602   1.932  15.160 -2.2056  0.5145  0.6470
  515MPD2    N1 7712   0.558   1.429  14.894  0.6556  0.4634  0.3071
  515MPD2    H7 7713   0.471   1.462  14.853  1.4986 -0.9988 -2.5842
  516TMC3    C1 7714   0.528   1.234  14.758 -0.9046 -0.2175  0.3739
  516TMC3    C2 7715   0.451   1.297  14.666  0.1866 -0.4585 -0.3051
  516TMC3    C3 7716   0.380   1.225  14.577 -0.1843 -0.0423  0.8245
  516TMC3    C4 7717   0.529   1.096  14.771 -0.5339  0.1018 -0.0092
  516TMC3    C5 7718   0.437   1.029  14.689  0.4790  0.2592  0.5082
  516TMC3    C6 7719   0.371   1.091  14.587  0.4430 -0.2170  0.3248
  516TMC3     C 7720   0.605   1.305  14.854  0.1749  0.8867 -0.2047
  516TMC3     O 7721   0.694   1.238  14.902  0.6166 -0.0741  0.5299
  516TMC3     H 7722   0.464   1.405  14.660  0.1919 -0.4017  0.6970
  516TMC3    H1 7723   0.592   1.049  14.845 -1.7809  1.0233  1.6409
  516TMC3    H2 7724   0.300   1.038  14.524 -0.0255 -0.2112  0.8464
  516TMC3    C7 7725   0.375   0.918  14.763  0.3151  0.3373  1.1746
  516TMC3    C8 7726   0.322   1.286  14.458  0.6437  0.4385 -0.0091
  516TMC3    O1 7727   0.433   0.887  14.864  0.1047 -0.0945  0.3662
  516TMC3    O2 7728   0.230   1.228  14.399  0.4845  0.4882  0.0688
  517MPD2     C 7729   0.088   3.715   0.280  0.8528 -0.2918  0.3637
  517MPD2    C1 7730   0.211   3.652   0.297 -0.2642 -0.7531  0.0222
  517MPD2    C2 7731   0.307   3.715   0.382 -0.1592  0.5282 -0.0419
  517MPD2    C3 7732   0.280   3.832   0.447  0.6297 -0.1744  0.5912
  517MPD2    C4 7733   0.156   3.891   0.429 -0.7194  0.5716 -0.4464
  517MPD2    C5 7734   0.063   3.836   0.340  0.7043 -0.1551  0.5759
  517MPD2     H 7735   0.405   3.669   0.388 -0.5347 -0.3335 -0.5331
  517MPD2    H1 7736   0.129   3.991   0.460  1.1878  1.3994 -1.4626
  517MPD2    H2 7737   0.015   3.673   0.212  0.6103  0.0449  0.4174
  517MPD2    H3 7738   4.704   3.884   0.319  0.0556 -1.2393  1.0302
  517MPD2     N 7739   0.368   3.903   0.529 -0.2622  0.2746  0.3628
  517MPD2    H5 7740   0.334   3.990   0.569 -0.1509  0.0096  1.0362
  517MPD2    N1 7741   0.265   3.537   0.232 -0.2031  0.7292  0.2448
  517MPD2    H7 7742   0.360   3.505   0.252  0.5405  2.6137 -0.3161
  518TMC3    C1 7743   0.268   3.345   0.099 -0.4581  0.3602  0.1738
  518TMC3    C2 7744   0.196   3.237   0.054 -0.1176 -0.5779 -0.7551
  518TMC3    C3 7745   0.252   3.155  17.699  0.4107 -0.5490 -0.1860
  518TMC3    C4 7746   0.394   3.373   0.055 -0.1604  0.2426  0.7209
  518TMC3    C5 7747   0.442   3.298  17.692  0.5096 -0.3728  1.0947
  518TMC3    C6 7748   0.373   3.193  17.644  0.0224  0.0119  0.1048
  518TMC3     C 7749   0.189   3.457   0.152 -0.6288  0.6749 -0.0357
  518TMC3     O 7750   0.070   3.458   0.133 -0.9064  0.3041  0.3320
  518TMC3     H 7751   0.089   3.241   0.068  0.0351 -1.9479  0.8039
  518TMC3    H1 7752   0.451   3.457   0.093 -0.8742  0.6940  0.8099
  518TMC3    H2 7753   0.409   3.136  17.559  1.5668 -1.2625  1.6020
  518TMC3    C7 7754   0.581   3.317  17.657 -0.0010  0.4470  0.0182
  518TMC3    C8 7755   0.177   3.063  17.617  0.3115 -0.3535 -0.5206
  518TMC3    O1 7756   0.659   3.371  17.730 -0.5327 -0.4942 -0.1976
  518TMC3    O2 7757   0.231   3.017  17.517 -0.4125  0.3110 -0.2704
  519MPD2     C 7758   1.637   1.642  14.638  0.2829 -0.1477 -0.2554
  519MPD2    C1 7759   1.616   1.624  14.506 -0.2996 -0.0401 -0.0638
  519MPD2    C2 7760   1.710   1.548  14.434  0.5930  0.1602 -0.2448
  519MPD2    C3 7761   1.828   1.495  14.491  0.3919  0.7632 -0.4776
  519MPD2    C4 7762   1.858   1.528  14.623 -0.1758 -0.0942  0.0694
  519MPD2    C5 7763   1.762   1.602  14.691  0.5441 -0.2971 -1.0505
  519MPD2     H 7764   1.690   1.533  14.328 -3.7184  2.4998  0.1998
  519MPD2    H1 7765   1.942   1.496  14.683 -1.4942 -0.8367  1.5050
  519MPD2    H2 7766   1.567   1.701  14.694  0.0054 -1.9807  1.3410
  519MPD2    H3 7767   1.780   1.626  14.796  0.6205  0.5871 -1.2704
  519MPD2     N 7768   1.919   1.410  14.429 -0.2223  0.0629  0.1566
  519MPD2    H5 7769   1.987   1.366  14.491  0.1071  0.7302  0.2613
  519MPD2    N1 7770   1.499   1.667  14.451  0.0135 -0.0811  0.0525
  519MPD2    H7 7771   1.423   1.705  14.506  0.6488 -0.1406  0.9728
  520TMC3    C1 7772   1.957   1.242  14.277  0.0376  0.1378  0.0090
  520TMC3    C2 7773   1.869   1.168  14.208  0.0521 -0.3440 -0.1949
  520TMC3    C3 7774   1.889   1.033  14.222  0.2708  0.7613  0.6585
  520TMC3    C4 7775   2.078   1.203  14.337  0.0009  0.5356 -0.4345
  520TMC3    C5 7776   2.092   1.068  14.334  0.2732 -0.1559 -0.7437
  520TMC3    C6 7777   1.998   0.984  14.286  0.9104 -0.2923 -0.2545
  520TMC3     C 7778   1.915   1.376  14.298 -1.0274  0.0992  0.8601
  520TMC3     O 7779   1.852   1.426  14.210 -0.2993 -0.1790  0.7508
  520TMC3     H 7780   1.789   1.221  14.158  1.2239 -0.1473 -1.8808
  520TMC3    H1 7781   2.157   1.257  14.389  2.3218 -1.9021 -1.4373
  520TMC3    H2 7782   2.022   0.879  14.279  0.3053 -0.3972 -0.6703
  520TMC3    C7 7783   2.221   1.012  14.347 -0.5371  0.0051 -0.1952
  520TMC3    C8 7784   1.810   0.944  14.145 -0.4446  0.6283 -0.3663
  520TMC3    O1 7785   2.229   0.900  14.396  0.0907  0.3553 -0.0220
  520TMC3    O2 7786   1.858   0.833  14.129  0.1639  0.1285 -0.3071
  521MPD2     C 7787   3.092   4.508  17.632 -0.2036  0.2716  0.3098
  521MPD2    C1 7788   3.018   4.395  17.642 -0.6138 -0.4140  0.3937
  521MPD2    C2 7789   3.085   4.281  17.680 -0.5489 -0.2205  0.2870
  521MPD2    C3 7790   3.215   4.281  17.718 -0.1440 -0.6448  0.0704
  521MPD2    C4 7791   3.290   4.398  17.711 -0.0294  0.1978 -0.6384
  521MPD2    C5 7792   3.218   4.511  17.677 -0.4654 -0.2070  0.5497
  521MPD2     H 7793   3.031   4.187  17.688  1.8570 -1.7136 -1.0772
  521MPD2    H1 7794   3.392   4.403   0.006  0.1215  1.4739 -1.2407
  521MPD2    H2 7795   3.048   4.602  17.599 -1.3608 -0.4569 -0.2433
  521MPD2    H3 7796   3.278   4.602  17.676  0.3299 -0.7875 -3.2455
  521MPD2     N 7797   3.269   4.153   0.019 -0.2226 -0.4341 -0.1965
  521MPD2    H5 7798   3.204   4.076   0.015 -0.9176  0.1378  0.1644
  521MPD2    N1 7799   2.880   4.406  17.617 -0.4262 -0.1104  0.5207
  521MPD2    H7 7800   2.847   4.496  17.586  0.5158  0.3714  0.9279
  522TMC3    C1 7801   3.429   3.981   0.016  0.5078  0.4869  0.0981
  522TMC3    C2 7802   3.562   3.947   0.042  0.1286 -0.0753 -0.3363
  522TMC3    C3 7803   3.621   3.860  17.704 -0.9946  0.3773 -0.2779
  522TMC3    C4 7804   3.348   3.907  17.675 -0.3117 -0.2490  0.2965
  522TMC3    C5 7805   3.411   3.806  17.609  0.4855  0.2543  0.3355
  522TMC3    C6 7806   3.544   3.778  17.622  0.2138 -0.1004  0.2764
  522TMC3     C 7807   3.403   4.121   0.034 -0.1507 -0.4259 -0.4615
  522TMC3     O 7808   3.501   4.186   0.040  0.7295 -0.1301 -0.2945
  522TMC3     H 7809   3.620   4.007   0.112  0.8915 -0.8827 -0.2799
  522TMC3    H1 7810   3.241   3.921  17.664  0.1279  1.8985 -1.3115
  522TMC3    H2 7811   3.588   3.705  17.555 -1.6655 -2.4119  1.5508
  522TMC3    C7 7812   3.352   3.764  17.488 -0.7524  0.0396 -1.0665
  522TMC3    C8 7813   3.756   3.902  17.672  0.1713 -0.9251 -0.2845
  522TMC3    O1 7814   3.373   3.651  17.447 -0.2815 -0.3081 -0.1230
  522TMC3    O2 7815   3.824   3.940   0.024 -0.3437 -0.2887  0.9451
  523MPD2     C 7816   4.660   4.377  10.345 -0.1256 -0.1182  0.1122
  523MPD2    C1 7817   4.564   4.282  10.379  0.7455 -0.0071 -0.6907
  523MPD2    C2 7818   4.427   4.313  10.373 -0.6405 -0.2616  0.4362
  523MPD2    C3 7819   4.389   4.434  10.326 -0.9674  0.0006 -0.1117
  523MPD2    C4 7820   4.484   4.509  10.268  0.0531  0.6932 -0.2531
  523MPD2    C5 7821   4.619   4.483  10.270  0.5049 -0.5242 -0.4530
  523MPD2     H 7822   4.346   4.251  10.410 -2.8707  1.2437 -1.9038
  523MPD2    H1 7823   4.465   4.609  10.231  1.6110  0.9764 -0.2714
  523MPD2    H2 7824   0.031   4.361  10.360 -0.1673 -0.4949  0.0027
  523MPD2    H3 7825   4.694   4.543  10.222 -0.4618 -1.2254 -2.8315
  523MPD2     N 7826   4.259   4.485  10.328 -0.2328 -0.5864 -0.7039
  523MPD2    H5 7827   4.240   4.570  10.276  0.6477 -0.7934 -1.3745
  523MPD2    N1 7828   4.611   4.151  10.416 -0.0888  0.5198 -0.6898
  523MPD2    H7 7829   4.711   4.133  10.419  0.1485  1.8028 -0.9215
  524TMC3    C1 7830   4.037   4.485  10.374 -0.6124  0.3384 -0.3444
  524TMC3    C2 7831   4.025   4.530  10.244 -0.3950  0.3536  0.1223
  524TMC3    C3 7832   3.898   4.571  10.211  0.0771  1.0256 -0.0369
  524TMC3    C4 7833   3.931   4.467  10.458 -0.0399  0.4784  1.0560
  524TMC3    C5 7834   3.814   4.527  10.424 -0.3555 -0.2515  0.6109
  524TMC3    C6 7835   3.795   4.579  10.301  0.2310 -0.0039 -0.3627
  524TMC3     C 7836   4.162   4.435  10.412 -0.2327 -0.6600  1.0969
  524TMC3     O 7837   4.172   4.345  10.497 -0.1148 -0.3429 -0.2815
  524TMC3     H 7838   4.091   4.509  10.161  0.4745  0.7160  0.7240
  524TMC3    H1 7839   3.944   4.432  10.560  2.1184 -2.4677 -0.2506
  524TMC3    H2 7840   3.700   4.617  10.265 -0.4400  0.7940  2.2372
  524TMC3    C7 7841   3.777   4.611  10.535 -0.8503 -0.0593 -0.4661
  524TMC3    C8 7842   3.861   4.607  10.073  0.6194 -0.9343 -0.0304
  524TMC3    O1 7843   3.755   4.556  10.640 -0.4854  0.2102  0.5172
  524TMC3    O2 7844   3.742   4.591  10.041  0.2023  0.1168 -0.1990
  525MPD2     C 7845   3.468   0.929  14.541  0.0756  0.1681  0.4909
  525MPD2    C1 7846   3.588   0.924  14.610  0.0672 -0.4297  0.4635
  525MPD2    C2 7847   3.686   1.009  14.575  0.5320 -0.1377  0.2304
  525MPD2    C3 7848   3.672   1.104  14.477 -0.1209  0.8033 -0.1173
  525MPD2    C4 7849   3.547   1.116  14.410 -0.1260  0.3110 -0.7063
  525MPD2    C5 7850   3.450   1.027  14.449  0.9803 -0.5392  0.1563
  525MPD2     H 7851   3.776   1.015  14.636 -0.1875 -1.5624  1.4478
  525MPD2    H1 7852   3.527   1.189  14.332 -1.2895 -0.0769 -0.7742
  525MPD2    H2 7853   3.389   0.856  14.555 -1.3219  1.8809  1.5316
  525MPD2    H3 7854   3.357   1.033  14.394 -0.4953  2.5008  2.9794
  525MPD2     N 7855   3.776   1.195  14.444  0.0689 -0.0835  0.1553
  525MPD2    H5 7856   3.742   1.265  14.380 -0.1656  0.3796  0.7856
  525MPD2    N1 7857   3.604   0.832  14.719 -0.6709 -0.2105 -0.1211
  525MPD2    H7 7858   3.700   0.815  14.747 -0.3027 -2.5093 -2.7156
  526TMC3    C1 7859   3.535   0.704  14.906  0.6761 -1.1109 -0.2901
  526TMC3    C2 7860   3.451   0.700  15.010  0.0320 -0.5143 -0.0538
  526TMC3    C3 7861   3.480   0.617  15.110  0.3015  0.2763 -0.3979
  526TMC3    C4 7862   3.645   0.626  14.899  0.1510  0.2771  0.0779
  526TMC3    C5 7863   3.674   0.545  15.008 -0.1297 -0.1584 -0.3943
  526TMC3    C6 7864   3.599   0.551  15.115 -0.0021 -0.2525  0.1605
  526TMC3     C 7865   3.498   0.786  14.794  0.3587 -0.8657 -0.2531
  526TMC3     O 7866   3.377   0.795  14.780  0.0566  0.3762  0.4251
  526TMC3     H 7867   3.360   0.759  15.016  1.6608  2.0928 -1.2467
  526TMC3    H1 7868   3.707   0.615  14.812  0.8807 -1.2566  0.7928
  526TMC3    H2 7869   3.607   0.483  15.199 -2.2129  0.5789  1.0605
  526TMC3    C7 7870   3.791   0.460  15.016 -0.8132 -0.3206 -0.1909
  526TMC3    C8 7871   3.382   0.598  15.211  0.7001  0.0321  0.6915
  526TMC3    O1 7872   3.833   0.417  15.123 -0.0615 -0.2644 -0.4575
  526TMC3    O2 7873   3.423   0.561  15.318  0.2222  0.0413 -0.0911
  527MPD2     C 7874   1.750   3.768   1.520  0.3126 -0.2561 -0.2219
  527MPD2    C1 7875   1.763   3.681   1.413 -0.7387 -0.3546 -0.0427
  527MPD2    C2 7876   1.883   3.657   1.345 -0.2150  1.1543  0.6988
  527MPD2    C3 7877   1.995   3.721   1.388  0.4178 -0.1623 -0.3285
  527MPD2    C4 7878   1.978   3.830   1.472  0.0573 -0.6784  1.0593
  527MPD2    C5 7879   1.863   3.842   1.545  0.4009 -0.5529  0.0819
  527MPD2     H 7880   1.893   3.600   1.253  0.4201 -0.6221  1.8757
  527MPD2    H1 7881   2.060   3.890   1.510  1.3913 -2.1387  0.4841
  527MPD2    H2 7882   1.665   3.782   1.585 -1.0096 -2.0534 -1.5724
  527MPD2    H3 7883   1.863   3.916   1.625 -2.5507 -0.2605 -0.2080
  527MPD2     N 7884   2.118   3.713   1.318 -0.6946  0.0898  1.0180
  527MPD2    H5 7885   2.185   3.785   1.344 -0.4259 -0.4488  1.8206
  527MPD2    N1 7886   1.652   3.612   1.365 -0.0256 -0.1493  0.2164
  527MPD2    H7 7887   1.676   3.536   1.302  0.6719  3.0529 -3.3679
  528TMC3    C1 7888   1.432   3.548   1.312  0.2018 -0.4403 -0.1249
  528TMC3    C2 7889   1.475   3.534   1.184  0.2099 -0.1153 -0.2395
  528TMC3    C3 7890   1.380   3.477   1.106  0.4749  0.8075  0.2766
  528TMC3    C4 7891   1.303   3.514   1.355 -0.0369  0.1275  0.4246
  528TMC3    C5 7892   1.216   3.452   1.264  0.1020  0.3243 -0.7041
  528TMC3    C6 7893   1.251   3.429   1.135  0.2031  0.8132  0.6226
  528TMC3     C 7894   1.519   3.619   1.406 -0.0224 -0.8574 -0.6139
  528TMC3     O 7895   1.475   3.673   1.504 -0.0904  0.1690  0.1058
  528TMC3     H 7896   1.570   3.563   1.141  0.3601 -0.0047  0.1684
  528TMC3    H1 7897   1.280   3.519   1.461  0.1988 -0.3807  0.5026
  528TMC3    H2 7898   1.194   3.374   1.061 -1.6783 -1.2133  3.5748
  528TMC3    C7 7899   1.081   3.418   1.306  0.0631 -0.9834 -0.2577
  528TMC3    C8 7900   1.429   3.460   0.972  0.1202 -0.2336 -0.8377
  528TMC3    O1 7901   1.064   3.390   1.425 -0.3138  0.3812 -0.0487
  528TMC3    O2 7902   1.551   3.448   0.955 -0.5505 -0.0636  0.6368
  529MPD2     C 7903   3.564   2.335   0.725 -1.0516 -0.2462 -0.4797
  529MPD2    C1 7904   3.625   2.254   0.629 -0.0821 -0.4275 -0.7166
  529MPD2    C2 7905   3.583   2.260   0.501 -0.2734 -0.5102 -0.0405
  529MPD2    C3 7906   3.491   2.353   0.460  0.3478  0.5651  0.0441
  529MPD2    C4 7907   3.444   2.446   0.546 -0.7002  0.4444 -0.0854
  529MPD2    C5 7908   3.469   2.426   0.681 -0.3961  0.1801  0.5247
  529MPD2     H 7909   3.632   2.183   0.441  3.7795  1.3751  0.9034
  529MPD2    H1 7910   3.378   2.526   0.513 -1.7266 -1.5124 -2.6925
  529MPD2    H2 7911   3.596   2.343   0.828  0.7025 -0.8092 -0.9913
  529MPD2    H3 7912   3.433   2.498   0.754  0.6143  0.2396  0.9643
  529MPD2     N 7913   3.459   2.366   0.324  0.6346  0.3123  0.2508
  529MPD2    H5 7914   3.395   2.442   0.303 -0.2873 -0.0156  1.8278
  529MPD2    N1 7915   3.720   2.154   0.670 -0.1828 -0.3073 -0.1660
  529MPD2    H7 7916   3.743   2.090   0.595 -2.1072 -0.7397 -0.3770
  530TMC3    C1 7917   3.868   2.021   0.812  0.4240 -0.7071 -1.3606
  530TMC3    C2 7918   3.957   2.029   0.913 -0.1910  0.6091  0.7918
  530TMC3    C3 7919   3.997   1.908   0.972 -0.5757 -0.8659 -0.9038
  530TMC3    C4 7920   3.842   1.907   0.745  0.2649 -0.0703 -0.6045
  530TMC3    C5 7921   3.889   1.791   0.800  0.1121  0.7280  0.1784
  530TMC3    C6 7922   3.971   1.786   0.909 -0.3210  0.0193 -0.1776
  530TMC3     C 7923   3.791   2.146   0.791 -0.5479  0.2133 -0.0431
  530TMC3     O 7924   3.790   2.232   0.880 -0.2542 -0.2929 -0.1385
  530TMC3     H 7925   3.983   2.121   0.963  2.3373  0.6251 -0.5432
  530TMC3    H1 7926   3.769   1.899   0.665 -3.8115 -0.3858  3.1382
  530TMC3    H2 7927   4.007   1.686   0.931  2.7312  0.9795 -0.8876
  530TMC3    C7 7928   3.852   1.666   0.729  0.4851  0.4947  0.4700
  530TMC3    C8 7929   4.121   1.909   1.045 -0.9218  0.4476 -0.1227
  530TMC3    O1 7930   3.849   1.669   0.606 -0.3274 -0.2853  0.2646
  530TMC3    O2 7931   4.197   1.811   1.033 -0.1291 -0.1227  0.3901
  531MPD2     C 7932   2.915   4.726  13.115  0.6355  0.4406 -0.3198
  531MPD2    C1 7933   2.853   4.704  13.238 -0.4362 -0.0028  0.2136
  531MPD2    C2 7934   2.727   4.646  13.247  0.6728 -0.3083 -0.7838
  531MPD2    C3 7935   2.658   4.623  13.132 -0.6640  0.2626 -0.0921
  531MPD2    C4 7936   2.720   4.645  13.005  0.8624 -1.4546 -0.4213
  531MPD2    C5 7937   2.848   4.689  13.004  0.3440 -0.0292  0.1232
  531MPD2     H 7938   2.692   4.637  13.349  0.5515 -2.6545 -1.0227
  531MPD2    H1 7939   2.671   4.623  12.911 -0.6682 -0.6273  0.1969
  531MPD2    H2 7940   3.014   0.034  13.103  0.9934 -0.3441 -0.2201
  531MPD2    H3 7941   2.891   4.699  12.905 -0.4232  0.4679 -0.1582
  531MPD2     N 7942   2.519   4.588  13.126  0.3078  0.0929 -0.5046
  531MPD2    H5 7943   2.479   4.600  13.034 -2.3521  1.7999  0.8842
  531MPD2    N1 7944   2.898   0.028  13.359  0.8825 -0.3669  0.1980
  531MPD2    H7 7945   2.854   4.725  13.442 -0.6430  0.9845  0.0295
  532TMC3    C1 7946   2.991   0.182  13.511  0.6347  0.1944  0.5526
  532TMC3    C2 7947   2.862   0.202  13.563 -0.4358  0.0433 -0.0245
  532TMC3    C3 7948   2.862   0.222  13.700 -0.5447  0.3233 -0.9621
  532TMC3    C4 7949   3.105   0.185  13.581 -0.0746  0.6406  0.2446
  532TMC3    C5 7950   3.098   0.211  13.719 -0.5342 -0.4059  0.4268
  532TMC3    C6 7951   2.973   0.221  13.781 -0.1697  0.2197  0.1060
  532TMC3     C 7952   2.987   0.128  13.379 -0.6110  0.0919 -0.3648
  532TMC3     O 7953   3.064   0.175  13.295 -0.0371  0.5445 -0.1036
  532TMC3     H 7954   2.774   0.176  13.506 -0.8383  1.2182  0.0658
  532TMC3    H1 7955   3.191   0.139  13.535  0.3242  1.7133 -0.0739
  532TMC3    H2 7956   2.972   0.241  13.888  0.5668  0.4636  0.0669
  532TMC3    C7 7957   3.205   0.152  13.800 -0.8949  0.0628  0.1291
  532TMC3    C8 7958   2.731   0.247  13.759 -0.0895 -0.0007 -0.0525
  532TMC3    O1 7959   3.245   0.215  13.900  0.9082 -0.2185  0.0922
  532TMC3    O2 7960   2.722   0.311  13.863  0.2898  0.2457 -0.2447
  533TMC3    C1 7961   3.966   1.322  14.490 -0.0975 -0.0330  0.1599
  533TMC3    C2 7962   4.088   1.357  14.435  0.4806 -0.1216 -0.5963
  533TMC3    C3 7963   4.127   1.491  14.437  0.3181  0.6245 -0.0260
  533TMC3    C4 7964   3.891   1.414  14.551  0.3822  0.1761 -0.7474
  533TMC3    C5 7965   3.941   1.543  14.564 -0.7184  0.0234 -0.2884
  533TMC3    C6 7966   4.056   1.583  14.505 -0.3324 -0.1290  0.4946
  533TMC3     C 7967   3.907   1.191  14.477 -0.1192 -0.5468  0.0677
  533TMC3     O 7968   3.972   1.102  14.529  0.5004 -0.4355  0.0916
  533TMC3     H 7969   4.137   1.286  14.369  2.8492  0.4013  0.5850
  533TMC3    H1 7970   3.791   1.387  14.581  0.5994  0.8599  0.5835
  533TMC3    H2 7971   4.089   1.686  14.508 -0.5106  0.0177 -2.3529
  533TMC3    C7 7972   3.896   1.614  14.680 -0.3694 -0.5401  0.4032
  533TMC3    C8 7973   4.257   1.526  14.377 -0.0185  0.3199 -0.3431
  533TMC3    O1 7974   3.931   1.731  14.689  0.6718  0.0936  0.5664
  533TMC3    O2 7975   4.264   1.626  14.306 -0.0891 -0.5493 -0.2110
  534MPD2     C 7976   1.603   2.265   1.226  0.0164 -0.3537 -0.1174
  534MPD2    C1 7977   1.620   2.398   1.194 -0.4920  0.8475 -0.4820
  534MPD2    C2 7978   1.516   2.480   1.166  0.0208 -0.0258 -0.2292
  534MPD2    C3 7979   1.386   2.437   1.163 -0.2298 -0.7383  0.4699
  534MPD2    C4 7980   1.362   2.303   1.195 -0.0525 -0.0130 -0.6072
  534MPD2    C5 7981   1.469   2.224   1.230  0.3677 -0.0999  0.2269
  534MPD2     H 7982   1.537   2.583   1.140  3.3082 -0.3266  1.2701
  534MPD2    H1 7983   1.261   2.262   1.195  0.5440 -1.4645  0.9717
  534MPD2    H2 7984   1.684   2.198   1.252  0.3535  0.8975  2.1338
  534MPD2    H3 7985   1.428   2.127   1.258  2.9707 -0.5236  2.5262
  534MPD2     N 7986   1.276   2.523   1.138 -0.3812  0.0533 -0.1014
  534MPD2    H5 7987   1.184   2.484   1.158  0.5778 -1.3593  1.5098
  534MPD2    N1 7988   1.746   2.467   1.200 -0.3424  0.4185  0.6992
  534MPD2    H7 7989   1.750   2.565   1.173 -0.8165  0.3671  0.4414
  535TMC3    C1 7990   1.150   2.717   1.101  0.1540  0.8300 -0.0368
  535TMC3    C2 7991   1.080   2.705   1.222 -0.3163 -0.2403  0.9359
  535TMC3    C3 7992   0.941   2.723   1.211  0.3263 -0.8750  0.2247
  535TMC3    C4 7993   1.095   2.742   0.978  0.2837  0.3944 -0.0338
  535TMC3    C5 7994   0.958   2.765   0.978  0.4175 -0.2551 -1.0373
  535TMC3    C6 7995   0.878   2.762   1.090 -0.1727 -0.5553  0.0708
  535TMC3     C 7996   1.279   2.651   1.094  0.0899  0.6995 -0.8958
  535TMC3     O 7997   1.364   2.718   1.038 -0.2692  0.7042  0.5795
  535TMC3     H 7998   1.125   2.680   1.318 -1.4126  1.4542  1.8857
  535TMC3    H1 7999   1.153   2.735   0.887  0.9506  0.5665  0.3728
  535TMC3    H2 8000   0.770   2.756   1.090 -0.1200 -1.5533  0.1169
  535TMC3    C7 8001   0.895   2.788   0.851 -0.2583 -0.4288  0.3246
  535TMC3    C8 8002   0.852   2.705   1.328 -0.2204 -0.0192 -1.2712
  535TMC3    O1 8003   0.968   2.783   0.753 -0.6804 -0.5235  0.2272
  535TMC3    O2 8004   0.729   2.725   1.318 -0.0899  0.4582  0.0841
  536MPD2     C 8005   4.022   0.628  16.386 -0.1095  0.0020  0.7328
  536MPD2    C1 8006   4.152   0.660  16.341  0.3623  0.1390  0.2961
  536MPD2    C2 8007   4.169   0.714  16.214  0.1181  0.4446  0.3887
  536MPD2    C3 8008   4.067   0.729  16.124  0.1913  0.5401  0.3500
  536MPD2    C4 8009   3.939   0.701  16.177 -0.3252  0.1935 -0.3892
  536MPD2    C5 8010   3.919   0.641  16.298 -0.0903  1.4978  0.3367
  536MPD2     H 8011   4.271   0.746  16.198 -0.2740  0.6880 -1.6712
  536MPD2    H1 8012   3.847   0.725  16.125 -0.8635 -1.0073  0.0186
  536MPD2    H2 8013   4.000   0.596  16.487  0.7187 -0.4266  0.7762
  536MPD2    H3 8014   3.817   0.627  16.331  0.3016  1.0312  1.3653
  536MPD2     N 8015   4.069   0.795  15.999 -0.6593  0.4407 -1.0139
  536MPD2    H5 8016   3.978   0.820  15.961 -1.3013  1.2203  0.9955
  536MPD2    N1 8017   4.266   0.640  16.433 -0.4407  0.1070  0.1721
  536MPD2    H7 8018   4.246   0.620  16.530 -2.6106 -1.8812 -0.6863
  537TMC3    C1 8019   4.479   0.657  16.533  0.3104 -0.8102 -0.0546
  537TMC3    C2 8020   4.610   0.692  16.516  0.1243  0.3364  0.1702
  537TMC3    C3 8021   4.710   0.627  16.590 -0.4498 -0.3700  0.3777
  537TMC3    C4 8022   4.456   0.555  16.617 -0.3026  0.0553 -0.3301
  537TMC3    C5 8023   4.554   0.501  16.698  0.7061  0.4321 -0.7127
  537TMC3    C6 8024   4.685   0.543  16.688  0.7330 -0.2949 -0.1222
  537TMC3     C 8025   4.400   0.678  16.411 -0.3329 -0.0592  0.1210
  537TMC3     O 8026   4.457   0.705  16.309  0.4827 -0.0854 -0.1690
  537TMC3     H 8027   4.630   0.773  16.447 -0.5834  1.1126  0.8679
  537TMC3    H1 8028   4.358   0.511  16.632 -0.3109  0.6681  1.4451
  537TMC3    H2 8029   0.035   0.495  16.734  1.6051  0.5412 -0.8707
  537TMC3    C7 8030   4.516   0.378  16.771 -1.1757  0.2911 -0.5847
  537TMC3    C8 8031   0.105   0.691  16.603  0.7728  0.0328 -0.6234
  537TMC3    O1 8032   4.409   0.327  16.748 -0.0909 -0.1546  0.3420
  537TMC3    O2 8033   0.150   0.705  16.717  0.2997 -0.4897 -0.2981
  538TMC3    C1 8034   0.479   4.215  11.578 -0.1218  0.1709 -0.3920
  538TMC3    C2 8035   0.563   4.108  11.561  0.1066  0.9541 -0.7020
  538TMC3    C3 8036   0.568   4.053  11.436 -0.2359 -0.3976 -0.1112
  538TMC3    C4 8037   0.403   4.270  11.475  0.1045  0.0955  0.1292
  538TMC3    C5 8038   0.411   4.213  11.356 -0.1765  0.1941 -0.1445
  538TMC3    C6 8039   0.489   4.103  11.332  0.3563 -0.5166 -0.2683
  538TMC3     C 8040   0.440   4.261  11.710 -0.2297 -0.0031  0.5089
  538TMC3     O 8041   0.365   4.355  11.717  0.2270  0.1727  0.5304
  538TMC3     H 8042   0.617   4.063  11.644  3.2562  2.0279 -2.1649
  538TMC3    H1 8043   0.336   4.355  11.488  1.4937  1.1290  0.5403
  538TMC3    H2 8044   0.496   4.036  11.247  1.0226 -0.8088  0.0216
  538TMC3    C7 8045   0.303   4.228  11.257 -0.0843  0.7788 -0.3216
  538TMC3    C8 8046   0.655   3.941  11.417  0.4490 -0.1908  0.0834
  538TMC3    O1 8047   0.200   4.287  11.295  0.0142 -0.0737  0.0796
  538TMC3    O2 8048   0.673   3.861  11.510  0.6632  0.3374  0.4913
  539MPD2     C 8049   0.562   3.395  12.250  0.0039 -0.0412 -0.6801
  539MPD2    C1 8050   0.493   3.377  12.129  0.1254  0.1132  0.4256
  539MPD2    C2 8051   0.435   3.486  12.078 -0.4298  0.3151 -0.2589
  539MPD2    C3 8052   0.442   3.609  12.142  0.9651  0.2757  0.4799
  539MPD2    C4 8053   0.504   3.621  12.259 -0.4588  0.4242  0.6554
  539MPD2    C5 8054   0.572   3.516  12.312 -0.6974  0.1222  0.1130
  539MPD2     H 8055   0.379   3.483  11.985 -0.4419 -0.8751 -0.2080
  539MPD2    H1 8056   0.505   3.724  12.292 -0.3322  0.9433 -0.9775
  539MPD2    H2 8057   0.604   3.316  12.311 -3.3984 -1.4485 -0.1495
  539MPD2    H3 8058   0.628   3.524  12.404  0.4540  0.7977 -0.6479
  539MPD2     N 8059   0.376   3.724  12.095  0.0825 -0.9465 -0.1254
  539MPD2    H5 8060   0.364   3.802  12.159 -2.0626 -1.3535 -0.0506
  539MPD2    N1 8061   0.496   3.257  12.056  0.2682 -0.0666 -0.2108
  539MPD2    H7 8062   0.449   3.255  11.966 -0.2914  2.3262  0.0405
  540TMC3    C1 8063   0.262   3.866  11.944  0.2407  1.1357 -0.4253
  540TMC3    C2 8064   0.253   3.899  11.811  0.4083  0.7241 -0.5374
  540TMC3    C3 8065   0.149   3.984  11.773  0.2379 -0.5721 -0.5368
  540TMC3    C4 8066   0.166   3.903  12.035  0.0465 -0.1590  0.0418
  540TMC3    C5 8067   0.069   3.992  11.991  0.0838  0.1468  1.2240
  540TMC3    C6 8068   0.056   4.033  11.859  0.5206 -0.0507  0.8495
  540TMC3     C 8069   0.337   3.744  11.963  0.1986 -0.2648  0.4695
  540TMC3     O 8070   0.376   3.685  11.860  0.8280 -0.3440  0.5238
  540TMC3     H 8071   0.338   3.869  11.751 -0.2653 -1.2426 -0.5203
  540TMC3    H1 8072   0.159   3.860  12.135 -1.4122 -1.2850 -0.5461
  540TMC3    H2 8073   4.709   4.100  11.838 -0.6254 -1.7860 -0.1764
  540TMC3    C7 8074   4.677   3.991  12.068 -0.5577 -0.4147  0.4331
  540TMC3    C8 8075   0.135   3.992  11.632 -0.3163  0.2633 -0.5734
  540TMC3    O1 8076   4.581   4.044  12.008 -0.0834 -0.0664 -0.3783
  540TMC3    O2 8077   0.233   4.018  11.562  0.3324 -0.0706  0.1756
  541MPD2     C 8078   3.566   4.561  13.651  0.3602  0.0278 -0.0634
  541MPD2    C1 8079   3.627   4.496  13.546  0.3801 -0.4426 -0.1655
  541MPD2    C2 8080   3.668   4.567  13.433 -0.9410  0.4454  0.9903
  541MPD2    C3 8081   3.625   4.698  13.425 -0.2863 -0.2435  0.4665
  541MPD2    C4 8082   3.560   0.024  13.533  0.2523 -0.8511  0.1319
  541MPD2    C5 8083   3.534   4.694  13.646  0.0216 -0.2366 -0.0536
  541MPD2     H 8084   3.727   4.523  13.354 -1.5997  1.1420  0.1105
  541MPD2    H1 8085   3.538   0.130  13.531  1.1798 -0.6288  1.8679
  541MPD2    H2 8086   3.548   4.511  13.746  0.8583 -1.1906 -0.5990
  541MPD2    H3 8087   3.486   0.005  13.732  0.1696  0.3252 -0.2777
  541MPD2     N 8088   3.654   0.050  13.322  0.6362 -0.2699  0.2666
  541MPD2    H5 8089   3.626   0.148  13.326 -1.9558 -1.0771  2.0789
  541MPD2    N1 8090   3.669   4.366  13.571 -0.3597  0.3221  0.0347
  541MPD2    H7 8091   3.662   4.336  13.668 -0.2712  1.5723  0.4215
  542TMC3    C1 8092   3.733   0.118  13.111  0.3025  0.9681 -0.2327
  542TMC3    C2 8093   3.790   0.079  12.998 -0.3423  0.3013  0.0555
  542TMC3    C3 8094   3.775   0.174  12.898 -0.7249 -0.7049  0.6071
  542TMC3    C4 8095   3.671   0.242  13.135  0.0669  0.3003 -0.0654
  542TMC3    C5 8096   3.686   0.337  13.041  0.2622  0.3184  0.7186
  542TMC3    C6 8097   3.727   0.300  12.916 -0.1966 -0.3902  0.3246
  542TMC3     C 8098   3.713   0.014  13.206 -0.6427  0.7767  0.1098
  542TMC3     O 8099   3.755   4.640  13.173  0.4652 -0.1503 -0.1626
  542TMC3     H 8100   3.821   4.712  12.981 -1.8415 -0.1691  0.1322
  542TMC3    H1 8101   3.649   0.269  13.238 -0.9684 -1.0489  0.0715
  542TMC3    H2 8102   3.734   0.368  12.832 -0.4442  1.1338  1.5281
  542TMC3    C7 8103   3.617   0.469  13.054 -0.5943 -0.4202 -0.5430
  542TMC3    C8 8104   3.794   0.136  12.762 -0.5976 -0.0978 -0.5345
  542TMC3    O1 8105   3.609   0.519  13.165 -0.4301 -0.3824  1.1486
  542TMC3    O2 8106   3.737   0.203  12.674  0.3629  0.1179 -0.0639
  543TMC3    C1 8107   3.229   1.645  17.097  0.7975 -0.9155 -0.4284
  543TMC3    C2 8108   3.254   1.525  17.156 -0.7664 -0.4912 -0.5374
  543TMC3    C3 8109   3.241   1.531  17.295 -0.4248 -0.2122  0.4614
  543TMC3    C4 8110   3.207   1.764  17.161  0.0988 -0.0998  0.8326
  543TMC3    C5 8111   3.198   1.764  17.300  0.1071 -0.1633  0.6610
  543TMC3    C6 8112   3.209   1.642  17.364 -0.9131  0.5143 -0.1969
  543TMC3     C 8113   3.254   1.651  16.952  0.5885 -0.1615  0.0175
  543TMC3     O 8114   3.333   1.563  16.911  0.3325 -0.2793 -0.1627
  543TMC3     H 8115   3.285   1.439  17.098  1.2103  0.3182 -0.6746
  543TMC3    H1 8116   3.198   1.852  17.099 -0.9340 -2.1530 -1.9426
  543TMC3    H2 8117   3.193   1.642  17.471  0.1652 -0.0576 -0.0357
  543TMC3    C7 8118   3.109   1.862  17.361  0.9470  0.1282  0.6037
  543TMC3    C8 8119   3.303   1.415  17.355  0.4739  0.1192 -0.1115
  543TMC3    O1 8120   3.074   1.833  17.474 -0.5381 -0.4751 -0.2330
  543TMC3    O2 8121   3.337   1.320  17.284 -0.3506 -0.3128  0.0376
  544MPD2     C 8122   3.372   1.122   0.026 -0.5070  0.2491 -0.1327
  544MPD2    C1 8123   3.366   1.081  17.639 -0.5304  0.0617  0.2859
  544MPD2    C2 8124   3.358   1.181  17.545 -0.5335 -0.0025  0.2892
  544MPD2    C3 8125   3.326   1.317  17.576 -0.4693 -0.3373 -0.1661
  544MPD2    C4 8126   3.305   1.348  17.710  0.3187 -0.4182 -0.3335
  544MPD2    C5 8127   3.325   1.252   0.058  0.5408  0.4978  0.2749
  544MPD2     H 8128   3.365   1.152  17.441 -1.3920 -0.5593  0.3888
  544MPD2    H1 8129   3.264   1.443   0.003  0.2695 -0.8747  0.8996
  544MPD2    H2 8130   3.380   1.051   0.108  1.4246  1.5303  0.7829
  544MPD2    H3 8131   3.309   1.276   0.162  1.9283  2.8032 -0.0581
  544MPD2     N 8132   3.298   1.419  17.488  0.4322 -0.2579  1.2051
  544MPD2    H5 8133   3.274   1.510  17.527  3.1726  1.4339 -0.9751
  544MPD2    N1 8134   3.390   0.945  17.612  0.1124  0.4492  0.2788
  544MPD2    H7 8135   3.405   0.890  17.696  2.3019  0.6151 -0.0069
  545TMC3    C1 8136   3.421   0.740  17.501 -0.0773  0.8820  0.3003
  545TMC3    C2 8137   3.514   0.697  17.591 -0.0573 -0.3808 -0.4438
  545TMC3    C3 8138   3.522   0.562  17.617 -0.2223 -0.9144  0.3069
  545TMC3    C4 8139   3.325   0.655  17.447  0.2415 -0.1236 -0.5500
  545TMC3    C5 8140   3.327   0.522  17.494  0.1000 -0.1849 -0.1265
  545TMC3    C6 8141   3.429   0.471  17.574 -0.2466  0.2519  0.2619
  545TMC3     C 8142   3.393   0.881  17.492  0.3085  0.4201 -0.2219
  545TMC3     O 8143   3.372   0.931  17.385 -0.8396 -0.8005 -0.2574
  545TMC3     H 8144   3.580   0.771  17.635  0.1099 -1.0042  0.3609
  545TMC3    H1 8145   3.241   0.692  17.389 -1.1224 -2.2400  0.0705
  545TMC3    H2 8146   3.431   0.366  17.602 -0.3401  0.0658 -0.4236
  545TMC3    C7 8147   3.203   0.452  17.481 -0.0986 -0.1089  0.1391
  545TMC3    C8 8148   3.626   0.497  17.693  0.8859  0.1742  0.0084
  545TMC3    O1 8149   3.115   0.487  17.401 -0.2242 -0.1166  0.0331
  545TMC3    O2 8150   3.600   0.385  17.734  0.5950 -0.4349  0.3792
  546MPD2     C 8151   0.030   1.679  17.378 -0.4694  0.2035  0.5479
  546MPD2    C1 8152   0.020   1.705  17.242  0.1691  0.6625  1.1775
  546MPD2    C2 8153   0.024   1.833  17.204  0.3026 -0.2884 -0.1004
  546MPD2    C3 8154   0.038   1.944  17.295  0.1417  0.3737  0.5474
  546MPD2    C4 8155   0.042   1.908  17.430 -0.0631  0.6883  0.0704
  546MPD2    C5 8156   0.030   1.776  17.471 -0.1754 -0.3237 -0.5080
  546MPD2     H 8157   0.006   1.859  17.100  3.3276  1.2893 -0.2273
  546MPD2    H1 8158   0.047   1.978  17.512  0.6966 -1.1915  1.6405
  546MPD2    H2 8159   0.020   1.577  17.414 -0.4010  0.1524  0.4215
  546MPD2    H3 8160   0.040   1.738  17.572 -1.5809  2.3816  0.6700
  546MPD2     N 8161   0.035   2.080  17.256  0.6127 -0.0457  0.1470
  546MPD2    H5 8162   0.046   2.149  17.329 -1.9962 -0.1610  0.6613
  546MPD2    N1 8163   4.730   1.597  17.154 -0.5582  0.5345 -0.4904
  546MPD2    H7 8164   4.735   1.508  17.202  1.1293  0.2276 -1.2352
  547TMC3    C1 8165   4.667   1.459  16.973  1.0605 -0.1816 -0.1942
  547TMC3    C2 8166   4.587   1.448  16.863 -0.2331 -0.7852 -0.6258
  547TMC3    C3 8167   4.518   1.330  16.841 -0.3954  0.0880 -0.2001
  547TMC3    C4 8168   4.683   1.349  17.053 -0.2735  0.6456 -0.1056
  547TMC3    C5 8169   4.614   1.231  17.027  0.3823 -0.1414  0.3806
  547TMC3    C6 8170   4.537   1.218  16.919  0.4656 -0.9955 -0.0446
  547TMC3     C 8171   4.717   1.592  17.018  0.7168 -0.2416  0.3139
  547TMC3     O 8172   4.710   1.691  16.944  0.3487  0.0777  0.2416
  547TMC3     H 8173   4.572   1.532  16.797  0.0632  1.0241  1.6255
  547TMC3    H1 8174   0.010   1.343  17.141 -2.1668 -0.5678  1.1633
  547TMC3    H2 8175   4.482   1.128  16.895 -0.7662 -0.2775  0.0542
  547TMC3    C7 8176   4.628   1.123  17.125  0.0441 -0.0506  0.2504
  547TMC3    C8 8177   4.400   1.337  16.761 -0.1258  0.4316  0.7217
  547TMC3    O1 8178   4.633   1.158  17.244  1.1091 -0.2117 -0.7552
  547TMC3    O2 8179   4.395   1.430  16.688  0.3344  0.3011  0.7592
  548MPD2     C 8180   4.098   1.975  12.585 -0.1890  0.3563 -0.6995
  548MPD2    C1 8181   4.072   1.886  12.687  0.2653 -0.5100 -0.5749
  548MPD2    C2 8182   4.177   1.818  12.744 -0.2747 -0.8269  0.0081
  548MPD2    C3 8183   4.305   1.841  12.690 -0.1782  0.2171  0.5026
  548MPD2    C4 8184   4.332   1.925  12.587  0.9286 -1.0128  0.4542
  548MPD2    C5 8185   4.226   1.998  12.535 -0.6986  0.4074  0.3254
  548MPD2     H 8186   4.172   1.747  12.826 -2.5881  1.7924  2.1129
  548MPD2    H1 8187   4.432   1.933  12.548  0.4259  0.8692 -0.4490
  548MPD2    H2 8188   4.015   2.026  12.538 -2.9428 -2.6992  0.8805
  548MPD2    H3 8189   4.237   2.065  12.450 -1.0347 -2.0677 -1.6804
  548MPD2     N 8190   4.403   1.749  12.742  0.9253  0.5930  0.4134
  548MPD2    H5 8191   4.369   1.679  12.807 -0.6140  0.3289 -0.6899
  548MPD2    N1 8192   3.938   1.888  12.745  0.0978  0.7753  0.2531
  548MPD2    H7 8193   3.870   1.948  12.698  0.4105  0.9067 -0.0325
  549TMC3    C1 8194   3.750   1.803  12.877  0.0261 -0.3228  0.0072
  549TMC3    C2 8195   3.668   1.882  12.801 -0.1746 -0.7149  0.3278
  549TMC3    C3 8196   3.531   1.892  12.843  1.1204 -0.5383  0.3907
  549TMC3    C4 8197   3.705   1.732  12.981  0.0030 -0.1146 -0.0466
  549TMC3    C5 8198   3.574   1.746  13.017 -0.3422  0.0171  0.0864
  549TMC3    C6 8199   3.489   1.830  12.954 -0.4749 -0.1982  0.2876
  549TMC3     C 8200   3.894   1.806  12.850 -0.6134 -0.0966  0.4871
  549TMC3     O 8201   3.961   1.731  12.921 -0.2188 -0.4734  0.2535
  549TMC3     H 8202   3.698   1.923  12.705 -2.0499  0.6779  0.3331
  549TMC3    H1 8203   3.772   1.669  13.038  0.2942  0.0731 -0.1812
  549TMC3    H2 8204   3.384   1.834  12.981 -0.2173 -1.1683  1.4432
  549TMC3    C7 8205   3.512   1.634  13.079 -0.1106 -0.2369 -0.2819
  549TMC3    C8 8206   3.437   1.988  12.783 -0.3325  0.1108 -1.1513
  549TMC3    O1 8207   3.417   1.656  13.158  0.0716  0.1956  0.4801
  549TMC3    O2 8208   3.319   1.980  12.803 -0.8173 -1.1382 -0.2615
  550TMC3    C1 8209   3.217   0.446  13.093 -0.0842  0.3392 -0.2553
  550TMC3    C2 8210   3.120   0.461  13.191  0.2176 -0.7132 -0.1415
  550TMC3    C3 8211   3.029   0.564  13.169  0.5930  0.1307  0.4546
  550TMC3    C4 8212   3.211   0.502  12.968  0.2782  0.5287  0.1256
  550TMC3    C5 8213   3.116   0.598  12.951  0.7106 -0.4910 -0.0379
  550TMC3    C6 8214   3.028   0.633  13.051  0.2200  0.5951 -0.6377
  550TMC3     C 8215   3.260   0.308  13.082 -0.2187 -0.0481  0.0923
  550TMC3     O 8216   3.366   0.267  13.132  0.2043  0.8473  0.0875
  550TMC3     H 8217   3.131   0.402  13.281 -2.9891 -2.7729 -1.0701
  550TMC3    H1 8218   3.293   0.479  12.900  0.3301 -0.5601  0.5634
  550TMC3    H2 8219   2.940   0.686  13.017 -1.6016 -2.0037 -0.0335
  550TMC3    C7 8220   3.054   0.585  12.820 -0.0780  0.3264 -0.6359
  550TMC3    C8 8221   2.906   0.559  13.243  0.2491 -0.9576 -0.1357
  550TMC3    O1 8222   2.940   0.616  12.808  0.2752  0.0199  0.3291
  550TMC3    O2 8223   2.849   0.668  13.259  0.2339 -0.1121 -0.4458
  551TMC3    C1 8224   0.753   2.135  13.330 -0.4631 -0.0357 -0.8985
  551TMC3    C2 8225   0.874   2.116  13.269 -0.0837  0.1659 -0.0416
  551TMC3    C3 8226   0.987   2.134  13.342  0.0112 -0.0877 -0.1544
  551TMC3    C4 8227   0.745   2.173  13.465 -0.1596 -0.2302  0.7334
  551TMC3    C5 8228   0.856   2.167  13.534  0.6517 -0.4463  0.0439
  551TMC3    C6 8229   0.976   2.152  13.476 -0.1552  0.4443 -0.0205
  551TMC3     C 8230   0.621   2.094  13.272  0.3403  0.2924  0.0743
  551TMC3     O 8231   0.526   2.090  13.349 -0.5539  0.2466 -0.1362
  551TMC3     H 8232   0.882   2.121  13.161 -0.7784 -1.4160 -0.1612
  551TMC3    H1 8233   0.648   2.182  13.513 -0.8805 -0.9026 -0.6018
  551TMC3    H2 8234   1.063   2.142  13.540 -0.1626 -0.7548 -0.2140
  551TMC3    C7 8235   0.870   2.279  13.621 -0.0363 -0.2250 -0.5594
  551TMC3    C8 8236   1.091   2.206  13.283 -0.4857 -0.1314  0.5185
  551TMC3    O1 8237   0.967   2.276  13.689  0.8403  0.3577  0.0773
  551TMC3    O2 8238   1.181   2.149  13.219  0.2870 -0.0794  0.2368
  552MPD2     C 8239   2.937   4.683  14.204 -0.9112  0.1484 -0.1089
  552MPD2    C1 8240   2.881   4.555  14.202 -0.2606  0.6066 -0.2691
  552MPD2    C2 8241   2.951   4.448  14.259  0.2399 -0.0064 -0.0031
  552MPD2    C3 8242   3.080   4.469  14.301  0.0972 -0.1980  0.0624
  552MPD2    C4 8243   3.129   4.595  14.310 -0.1260  0.5054  0.6377
  552MPD2    C5 8244   3.057   4.696  14.263  0.0550  0.7414  0.4094
  552MPD2     H 8245   2.913   4.346  14.263 -0.3314  0.2458  1.1715
  552MPD2    H1 8246   3.222   4.617  14.361  0.2902 -0.3787  0.2491
  552MPD2    H2 8247   2.883   0.038  14.179 -2.1458 -0.0231  2.0092
  552MPD2    H3 8248   3.089   0.061  14.287 -0.9122  1.1269  0.0906
  552MPD2     N 8249   3.154   4.373  14.364 -0.3640 -0.1434  0.2174
  552MPD2    H5 8250   3.250   4.403  14.378  0.3421 -3.0252  1.6943
  552MPD2    N1 8251   2.745   4.528  14.163  0.1365  0.0715  0.0894
  552MPD2    H7 8252   2.705   4.437  14.183 -1.6736  1.8598  4.6165
  553TMC3    C1 8253   2.553   4.565  14.036 -0.2529  0.1640 -0.1434
  553TMC3    C2 8254   2.504   4.608  13.918  0.2814  0.4432 -0.3653
  553TMC3    C3 8255   2.422   4.526  13.841 -0.3024 -0.1417  0.4152
  553TMC3    C4 8256   2.505   4.445  14.090  0.4371 -0.1596 -0.8036
  553TMC3    C5 8257   2.420   4.369  14.015  0.9628 -0.0295 -0.1042
  553TMC3    C6 8258   2.359   4.413  13.895 -0.2068 -0.7501  0.2859
  553TMC3     C 8259   2.667   4.620  14.098 -1.1829  0.8137 -0.6820
  553TMC3     O 8260   2.698   4.728  14.045 -0.2544  0.4013 -0.0140
  553TMC3     H 8261   2.562   4.684  13.869  2.0454 -0.9769 -0.4716
  553TMC3    H1 8262   2.537   4.402  14.184 -1.3772  0.5440  0.1357
  553TMC3    H2 8263   2.295   4.348  13.836 -0.5981  1.4464 -1.7380
  553TMC3    C7 8264   2.403   4.222  14.038 -0.2542  0.7536  0.6190
  553TMC3    C8 8265   2.501   4.476  13.728 -0.9367 -0.1121  0.6182
  553TMC3    O1 8266   2.286   4.190  14.045 -0.1058 -0.1162  0.5693
  553TMC3    O2 8267   2.622   4.498  13.734  0.1502  0.4133 -0.1111
  554TMC3    C1 8268   4.402   3.571  11.879  0.4954  0.2647 -0.1232
  554TMC3    C2 8269   4.341   3.463  11.826  0.5428 -0.6709 -0.0741
  554TMC3    C3 8270   4.257   3.477  11.720 -0.1151  0.1168  0.6571
  554TMC3    C4 8271   4.374   3.701  11.838 -0.5630  0.9401  0.1923
  554TMC3    C5 8272   4.294   3.713  11.729  0.3003 -0.4608 -0.0066
  554TMC3    C6 8273   4.224   3.602  11.675 -0.5791  0.1654  0.9326
  554TMC3     C 8274   4.451   3.572  12.009  0.1148  0.1732 -0.2340
  554TMC3     O 8275   4.520   3.672  12.044  0.2218 -0.5799 -0.2104
  554TMC3     H 8276   4.364   3.363  11.863 -0.0659 -0.2894  1.3570
  554TMC3    H1 8277   4.425   3.782  11.889 -2.0728  1.2487  1.2097
  554TMC3    H2 8278   4.167   3.621  11.584  0.9102 -3.3335 -0.7463
  554TMC3    C7 8279   4.317   3.826  11.641  0.2515  0.6240 -0.4876
  554TMC3    C8 8280   4.239   3.359  11.633 -0.1897 -0.6295  0.3546
  554TMC3    O1 8281   4.261   3.817  11.532 -0.0983 -0.3161 -0.5784
  554TMC3    O2 8282   4.281   3.250  11.672  0.1398  0.2481  0.2408
  555TMC3    C1 8283   3.641   2.763  15.174  0.1583  0.2429  0.4570
  555TMC3    C2 8284   3.584   2.857  15.255  0.4764  0.1528 -0.3396
  555TMC3    C3 8285   3.560   2.824  15.384 -0.3170 -0.4099  0.2552
  555TMC3    C4 8286   3.666   2.641  15.224 -0.2365 -0.8223 -0.4041
  555TMC3    C5 8287   3.649   2.608  15.359  0.2724 -0.0727 -0.4066
  555TMC3    C6 8288   3.600   2.705  15.444 -0.3432  0.2304 -0.5298
  555TMC3     C 8289   3.645   2.775  15.029 -0.0423  0.3258 -0.1122
  555TMC3     O 8290   3.720   2.700  14.975  0.7292  0.6449 -0.3095
  555TMC3     H 8291   3.573   2.955  15.210 -1.4294  0.7748  1.4767
  555TMC3    H1 8292   3.690   2.570  15.145  1.3367  0.8494 -1.4115
  555TMC3    H2 8293   3.564   2.677  15.543  0.0124  1.3484 -0.0894
  555TMC3    C7 8294   3.591   2.477  15.394  0.6724  0.3632  0.4648
  555TMC3    C8 8295   3.531   2.934  15.478 -0.2819 -0.8952 -0.1554
  555TMC3    O1 8296   3.497   2.483  15.470  0.5298 -0.0563  0.1340
  555TMC3    O2 8297   3.487   3.033  15.423  0.0259  0.3057  0.2486
  556MPD2     C 8298   0.983   4.605  10.805 -0.0239  0.4273  0.0861
  556MPD2    C1 8299   1.068   4.516  10.880 -0.2301 -0.4356  0.4149
  556MPD2    C2 8300   1.077   4.384  10.851  0.0923  0.1353  0.1962
  556MPD2    C3 8301   1.009   4.339  10.742 -0.0526 -0.3280 -0.2885
  556MPD2    C4 8302   0.916   4.422  10.678 -0.1364 -0.3000  0.2486
  556MPD2    C5 8303   0.911   4.554  10.701 -0.0341 -0.0536 -1.0288
  556MPD2     H 8304   1.149   4.320  10.900  0.2030  2.9819  3.6747
  556MPD2    H1 8305   0.858   4.393  10.591 -0.4113  1.1999 -0.0717
  556MPD2    H2 8306   0.984   4.712  10.815  0.6237  0.5122 -0.8987
  556MPD2    H3 8307   0.856   4.614  10.630  0.4763  1.0075 -0.5324
  556MPD2     N 8308   1.031   4.201  10.707  0.1831 -0.0040 -0.4376
  556MPD2    H5 8309   1.092   4.144  10.765  0.4986 -1.7189 -2.4336
  556MPD2    N1 8310   1.145   4.568  10.982 -0.3167 -0.1165  1.1167
  556MPD2    H7 8311   1.205   4.497  11.020  3.2196  1.9427 -0.6461
  557TMC3    C1 8312   1.014   3.997  10.587 -0.3267  0.0453  0.3658
  557TMC3    C2 8313   0.957   3.929  10.485  1.0280  0.2435  0.3396
  557TMC3    C3 8314   0.957   3.790  10.485  0.4644  0.4968 -0.9479
  557TMC3    C4 8315   1.045   3.934  10.707  0.0843  0.4031 -0.1325
  557TMC3    C5 8316   1.036   3.797  10.704 -0.5192  0.2639 -0.2205
  557TMC3    C6 8317   1.001   3.721  10.592  0.1764 -0.1447 -1.1456
  557TMC3     C 8318   0.996   4.143  10.584 -0.1442 -0.1575 -0.2897
  557TMC3     O 8319   0.954   4.193  10.481  0.5488  0.3789 -0.1517
  557TMC3     H 8320   0.925   3.978  10.393  3.2052  2.7456  0.9095
  557TMC3    H1 8321   1.077   3.988  10.795 -0.6996  0.8365 -0.1160
  557TMC3    H2 8322   0.995   3.613  10.598 -1.3013 -0.0692 -1.2753
  557TMC3    C7 8323   1.028   3.723  10.830 -0.8193  0.6264 -0.2369
  557TMC3    C8 8324   0.911   3.721  10.362  0.2461 -0.1745 -0.3700
  557TMC3    O1 8325   1.050   3.604  10.833  0.2935  0.0549  0.9041
  557TMC3    O2 8326   0.875   3.792  10.269 -0.4884  0.0952  0.0566
  558TMC3    C1 8327   3.314   2.471  10.905  1.3368  0.8039  0.2225
  558TMC3    C2 8328   3.232   2.508  11.009  0.8278 -0.1047  0.3532
  558TMC3    C3 8329   3.095   2.499  10.989 -1.0002 -0.6285 -0.2079
  558TMC3    C4 8330   3.267   2.439  10.781 -0.5303  0.4135 -0.2196
  558TMC3    C5 8331   3.130   2.431  10.765 -0.2905 -0.0042 -0.0115
  558TMC3    C6 8332   3.045   2.473  10.864 -0.1528 -0.4668  0.1183
  558TMC3     C 8333   3.458   2.449  10.931  0.3270  0.2743  0.1861
  558TMC3     O 8334   3.528   2.471  10.833 -0.2005 -0.5051 -0.2098
  558TMC3     H 8335   3.270   2.530  11.108 -0.0970 -0.0547  0.7000
  558TMC3    H1 8336   3.331   2.405  10.700 -0.5123 -1.0370  0.3905
  558TMC3    H2 8337   2.939   2.481  10.846  0.0350  0.3495 -0.6299
  558TMC3    C7 8338   3.080   2.344  10.660  0.7026 -0.0926  0.3234
  558TMC3    C8 8339   3.004   2.529  11.096 -0.0041 -0.8228 -0.1171
  558TMC3    O1 8340   2.959   2.354  10.641  0.1512 -0.5612  0.4500
  558TMC3    O2 8341   2.890   2.564  11.064 -0.1524 -0.2397  0.2568
  559MPD2     C 8342   3.966   2.802  11.079 -0.2208 -0.7083  0.4466
  559MPD2    C1 8343   3.865   2.795  11.179  0.3129  0.6625  0.7304
  559MPD2    C2 8344   3.897   2.757  11.305  0.3482 -0.2632 -0.5416
  559MPD2    C3 8345   4.029   2.725  11.331 -0.4323 -0.2514  0.1150
  559MPD2    C4 8346   4.131   2.720  11.229  0.4076  0.0813 -0.0850
  559MPD2    C5 8347   4.098   2.768  11.108  0.8662 -0.4271  0.5834
  559MPD2     H 8348   3.828   2.756  11.389  1.2987 -0.4831  0.2316
  559MPD2    H1 8349   4.236   2.698  11.244  0.4990 -0.3188 -1.3540
  559MPD2    H2 8350   3.947   2.834  10.977  0.3768 -1.4061  0.1172
  559MPD2    H3 8351   4.186   2.792  11.049  0.5591 -0.0260  0.2850
  559MPD2     N 8352   4.061   2.693  11.463 -0.0189 -0.3712  0.3527
  559MPD2    H5 8353   3.985   2.690  11.530 -0.7772 -0.2619 -0.5021
  559MPD2    N1 8354   3.729   2.834  11.143  0.3212 -0.4760  0.1077
  559MPD2    H7 8355   3.722   2.875  11.050  2.2083  1.8983  1.0127
  560TMC3    C1 8356   4.179   2.658  11.661  0.3648  0.1140 -0.7327
  560TMC3    C2 8357   4.060   2.611  11.715  0.3073  0.0119 -0.0495
  560TMC3    C3 8358   4.036   2.634  11.848 -0.2304 -0.5102 -0.0709
  560TMC3    C4 8359   4.264   2.739  11.720 -0.1872 -0.6268  0.1660
  560TMC3    C5 8360   4.222   2.788  11.838  0.0214 -0.6870  0.6356
  560TMC3    C6 8361   4.114   2.726  11.910 -0.8369  0.6808  0.0152
  560TMC3     C 8362   4.184   2.667  11.517 -0.4052 -0.1644 -0.4774
  560TMC3     O 8363   4.289   2.628  11.463 -0.6578  0.4305  0.5807
  560TMC3     H 8364   4.006   2.536  11.659 -3.1625  0.9161  2.0466
  560TMC3    H1 8365   4.340   2.790  11.664  2.0182 -2.7185  1.2274
  560TMC3    H2 8366   4.092   2.755  12.012  1.8111 -0.7719  0.9935
  560TMC3    C7 8367   4.304   2.878  11.914  0.7404  0.0751  0.0404
  560TMC3    C8 8368   3.903   2.596  11.900 -0.2619  0.9933  0.1845
  560TMC3    O1 8369   4.293   2.866  12.035  0.2298  0.3304  0.1894
  560TMC3    O2 8370   3.822   2.543  11.827 -0.2489 -0.0433 -0.2257
  561TMC3    C1 8371   2.262   2.419  11.863 -0.8340  0.3503  0.2442
  561TMC3    C2 8372   2.240   2.336  11.964  0.1782 -0.3831  1.3526
  561TMC3    C3 8373   2.147   2.361  12.052 -0.2205 -0.1190 -0.5305
  561TMC3    C4 8374   2.199   2.534  11.853 -0.4032 -0.7740 -0.2238
  561TMC3    C5 8375   2.120   2.576  11.956  0.2636 -0.7721  0.3083
  561TMC3    C6 8376   2.091   2.487  12.056 -0.2945 -0.1495 -0.4443
  561TMC3     C 8377   2.348   2.377  11.757  0.0290 -0.8736  0.8609
  561TMC3     O 8378   2.450   2.316  11.795  0.0365 -0.8441  0.1178
  561TMC3     H 8379   2.287   2.239  11.956  3.2408  0.9099  3.7353
  561TMC3    H1 8380   2.238   2.602  11.778 -0.5420  0.5304  0.8813
  561TMC3    H2 8381   2.018   2.512  12.132 -0.3683  0.9362 -0.8741
  561TMC3    C7 8382   2.086   2.713  11.980  0.3563 -0.2877 -0.1189
  561TMC3    C8 8383   2.093   2.255  12.130 -0.0097 -0.9591  0.1645
  561TMC3    O1 8384   2.029   2.740  12.086  0.2804 -0.3471 -0.5616
  561TMC3    O2 8385   2.150   2.150  12.130  0.1616 -0.5982 -0.0432
  562TMC3    C1 8386   3.563   3.521  16.559 -0.0576  0.0913 -0.8028
  562TMC3    C2 8387   3.510   3.624  16.491  0.4058  1.0285 -0.7118
  562TMC3    C3 8388   3.416   3.595  16.392 -0.3863  0.2938  0.0703
  562TMC3    C4 8389   3.527   3.389  16.526 -0.1975 -0.3085  0.1404
  562TMC3    C5 8390   3.436   3.367  16.431  0.0905  0.5543  0.3061
  562TMC3    C6 8391   3.367   3.470  16.369 -0.2158  0.3345  0.5142
  562TMC3     C 8392   3.646   3.551  16.675 -0.3813  0.1210 -0.3481
  562TMC3     O 8393   3.666   3.668  16.703  0.8631 -0.4689  0.0687
  562TMC3     H 8394   3.534   3.727  16.514 -0.0971  0.4748  2.3227
  562TMC3    H1 8395   3.584   3.305  16.566  0.8734  0.3448  0.0008
  562TMC3    H2 8396   3.295   3.457  16.290  0.1084  2.9186 -0.1936
  562TMC3    C7 8397   3.405   3.232  16.388 -0.8481  0.9407 -0.5095
  562TMC3    C8 8398   3.380   3.697  16.299 -0.1918  0.3706 -0.4585
  562TMC3    O1 8399   3.314   3.216  16.309 -0.0605 -0.4481  0.0064
  562TMC3    O2 8400   3.379   3.810  16.347 -0.1152  0.0810 -0.3521
  563MPD2     C 8401   1.821   0.190  15.855 -0.3276  1.0162  0.7833
  563MPD2    C1 8402   1.825   0.295  15.943 -0.8742  0.7225 -0.0600
  563MPD2    C2 8403   1.924   0.302  16.040 -0.1909  0.5342 -0.6826
  563MPD2    C3 8404   2.003   0.197  16.074 -0.1710  0.1874 -0.1790
  563MPD2    C4 8405   1.984   0.079  15.997 -0.0490  0.3803 -0.7079
  563MPD2    C5 8406   1.904   0.090  15.885  0.6799 -0.4584 -0.8244
  563MPD2     H 8407   1.938   0.389  16.103 -0.6324 -0.0189  0.1911
  563MPD2    H1 8408   2.060   0.002  16.001 -2.5102 -2.0781 -0.6798
  563MPD2    H2 8409   1.754   0.180  15.770  2.0259  1.0210 -1.0674
  563MPD2    H3 8410   1.906   0.013  15.809 -0.0801 -1.0852 -0.2043
  563MPD2     N 8411   2.093   0.216  16.179  1.0153  0.1328  0.4001
  563MPD2    H5 8412   2.087   0.306  16.226  1.5205  0.8346 -0.8573
  563MPD2    N1 8413   1.746   0.404  15.936  0.2279  0.5035 -0.1106
  563MPD2    H7 8414   1.770   0.476  16.003 -0.4077 -0.2818  0.9596
  564TMC3    C1 8415   1.547   0.509  15.900 -0.4461 -0.2618 -0.4458
  564TMC3    C2 8416   1.424   0.447  15.881 -0.1338  0.0702 -0.0185
  564TMC3    C3 8417   1.347   0.415  15.996  0.0610  0.2511  0.3044
  564TMC3    C4 8418   1.583   0.565  16.026  0.1697 -1.0461 -0.1042
  564TMC3    C5 8419   1.502   0.528  16.130  0.6687 -0.6123 -0.1704
  564TMC3    C6 8420   1.387   0.461  16.119 -0.1601 -0.1261  0.3594
  564TMC3     C 8421   1.641   0.417  15.851  0.0885  0.0353 -0.1849
  564TMC3     O 8422   1.598   0.333  15.772 -0.3315 -0.0858 -0.2487
  564TMC3     H 8423   1.397   0.407  15.784 -0.2082 -2.1454  0.9239
  564TMC3    H1 8424   1.674   0.620  16.047 -0.3815 -0.0148 -0.3835
  564TMC3    H2 8425   1.328   0.438  16.207  0.8200  0.9789  1.3017
  564TMC3    C7 8426   1.585   0.499  16.251 -0.1744  0.0613  0.5278
  564TMC3    C8 8427   1.306   0.278  16.001 -0.0930  0.1592 -0.2277
  564TMC3    O1 8428   1.703   0.505  16.244 -0.0357  0.5059  0.7483
  564TMC3    O2 8429   1.208   0.244  16.063  0.4364  0.1038 -0.2372
  565TMC3    C1 8430   1.037   1.082  10.578 -0.3611  0.1239  0.4326
  565TMC3    C2 8431   1.030   0.968  10.648 -0.3331  0.1433 -0.1405
  565TMC3    C3 8432   0.942   0.871  10.607 -0.2613  0.4651  0.0371
  565TMC3    C4 8433   0.964   1.107  10.469 -0.0969  0.4123  0.7727
  565TMC3    C5 8434   0.866   1.018  10.446  0.2055 -0.3276  0.5787
  565TMC3    C6 8435   0.853   0.894  10.506 -0.0269 -0.4248  0.5661
  565TMC3     C 8436   1.100   1.193  10.639  0.6187 -1.3073 -0.1853
  565TMC3     O 8437   1.142   1.279  10.561 -0.6156 -0.2962 -0.1353
  565TMC3     H 8438   1.107   0.948  10.722  0.8549  0.6013 -1.2460
  565TMC3    H1 8439   0.947   1.206  10.428  1.3074 -0.1335 -1.1144
  565TMC3    H2 8440   0.759   0.839  10.510 -0.2144  0.0038  2.3275
  565TMC3    C7 8441   0.794   1.052  10.325 -0.2325  0.5174  0.4954
  565TMC3    C8 8442   0.931   0.753  10.694 -0.8164  0.1814  0.3408
  565TMC3    O1 8443   0.779   1.172  10.293 -0.2783  0.2238 -0.1562
  565TMC3    O2 8444   0.990   0.771  10.801 -0.2777  0.4566  0.0436
  566MPD2     C 8445   2.738   2.707  14.701  0.3047  0.3363  0.1360
  566MPD2    C1 8446   2.776   2.692  14.565  0.5048  0.5985  0.3568
  566MPD2    C2 8447   2.692   2.630  14.474  0.0118  0.3524 -0.5040
  566MPD2    C3 8448   2.566   2.592  14.505  0.0368 -0.2124  0.0297
  566MPD2    C4 8449   2.534   2.598  14.638  0.3501  0.8665  0.1897
  566MPD2    C5 8450   2.621   2.641  14.733 -0.2385 -1.0935 -0.0731
  566MPD2     H 8451   2.733   2.609  14.376 -1.7145  2.4084 -1.6600
  566MPD2    H1 8452   2.433   2.570  14.667  1.0446  0.9319  2.6858
  566MPD2    H2 8453   2.797   2.765  14.771 -0.1955  2.4687 -1.2002
  566MPD2    H3 8454   2.579   2.639  14.833  1.1415  1.5325  0.5774
  566MPD2     N 8455   2.464   2.544  14.414 -0.6117  0.0255 -0.2797
  566MPD2    H5 8456   2.387   2.499  14.463  0.7497 -1.5961  0.3737
  566MPD2    N1 8457   2.910   2.737  14.538  0.7426 -0.5497  0.4850
  566MPD2    H7 8458   2.977   2.729  14.614 -2.1393 -0.3846  3.0860
  567TMC3    C1 8459   3.087   2.782  14.382  0.3393 -0.3450  0.2532
  567TMC3    C2 8460   3.116   2.847  14.263  0.3817 -0.4041  0.4744
  567TMC3    C3 8461   3.254   2.851  14.240  0.2675 -0.1289 -0.6398
  567TMC3    C4 8462   3.177   2.704  14.454 -0.2572 -0.0909 -0.2236
  567TMC3    C5 8463   3.310   2.711  14.414  0.2782 -0.0423  0.3290
  567TMC3    C6 8464   3.354   2.785  14.307  0.5498  0.0289 -0.6417
  567TMC3     C 8465   2.943   2.771  14.408  0.7744 -0.4544  0.4360
  567TMC3     O 8466   2.872   2.800  14.312  0.1813 -0.3479 -0.4431
  567TMC3     H 8467   3.048   2.913  14.211 -0.1074  0.2346  1.9559
  567TMC3    H1 8468   3.142   2.634  14.529  0.1717  0.3776  0.4114
  567TMC3    H2 8469   3.459   2.796  14.283  0.9197 -1.5636  0.2452
  567TMC3    C7 8470   3.390   2.605  14.463 -0.2654 -0.2020 -0.2794
  567TMC3    C8 8471   3.297   2.949  14.140 -0.8530 -1.4180 -0.1613
  567TMC3    O1 8472   3.484   2.579  14.393 -0.8546  0.3940  0.4009
  567TMC3    O2 8473   3.208   2.987  14.062  0.2295  0.1789  0.1060
  568MPD2     C 8474   1.315   3.619  16.604 -0.2217 -0.1485 -0.2357
  568MPD2    C1 8475   1.183   3.666  16.643  0.4193  0.4460  0.8932
  568MPD2    C2 8476   1.120   3.762  16.558 -0.3488 -0.2158  0.1013
  568MPD2    C3 8477   1.193   3.814  16.460 -0.0084 -0.3610 -0.2753
  568MPD2    C4 8478   1.322   3.774  16.429 -0.3861 -0.0819 -0.7895
  568MPD2    C5 8479   1.383   3.673  16.501  0.3046 -0.8059 -0.3255
  568MPD2     H 8480   1.014   3.781  16.573  0.2878  2.0397  1.7853
  568MPD2    H1 8481   1.377   3.798  16.339 -1.5552 -0.0386 -1.4879
  568MPD2    H2 8482   1.367   3.539  16.655 -0.1651  0.0154 -0.0347
  568MPD2    H3 8483   1.489   3.658  16.486 -0.1317 -1.7607 -2.4506
  568MPD2     N 8484   1.134   3.922  16.397  0.5387  0.2252 -0.1708
  568MPD2    H5 8485   1.050   3.964  16.437 -1.4566 -2.9367 -1.0738
  568MPD2    N1 8486   1.120   3.599  16.748  0.4048 -0.0118 -0.3031
  568MPD2    H7 8487   1.170   3.535  16.810 -0.4926 -0.1276  0.3062
  569TMC3    C1 8488   1.116   4.111  16.254  0.8638  0.2092  0.8487
  569TMC3    C2 8489   1.054   4.184  16.356  0.3710 -0.4406 -0.1884
  569TMC3    C3 8490   1.050   4.324  16.345 -0.2184  0.1792  0.5468
  569TMC3    C4 8491   1.153   4.177  16.133 -0.3026  0.3151 -0.5822
  569TMC3    C5 8492   1.122   4.313  16.121  0.1762  0.1478  0.0716
  569TMC3    C6 8493   1.076   4.392  16.228  0.5764  0.5126  0.2833
  569TMC3     C 8494   1.182   3.987  16.284 -0.1771  0.1206  0.5512
  569TMC3     O 8495   1.288   3.967  16.221  0.9160  0.5534 -0.5892
  569TMC3     H 8496   1.017   4.138  16.446  0.3269 -0.9192 -0.4524
  569TMC3    H1 8497   1.208   4.127  16.054 -0.4582 -2.4810  1.0741
  569TMC3    H2 8498   1.056   4.497  16.207  1.9425  0.3501 -1.9060
  569TMC3    C7 8499   1.170   4.378  16.007 -0.4087 -0.8167 -0.1435
  569TMC3    C8 8500   1.015   4.397  16.465  0.9059 -0.0603 -0.1102
  569TMC3    O1 8501   1.186   4.308  15.908 -0.0753  0.1413  0.0943
  569TMC3    O2 8502   0.939   4.347  16.547  0.4248  0.1289 -0.2845
  570TMC3    C1 8503   4.556   2.426  15.946 -0.2497  0.2260 -0.0944
  570TMC3    C2 8504   4.652   2.416  15.857  0.0694 -0.2748  0.3099
  570TMC3    C3 8505   4.718   2.529  15.829  0.5147  0.6709  0.1385
  570TMC3    C4 8506   4.531   2.539  16.016  0.1675 -0.3296 -0.4005
  570TMC3    C5 8507   4.609   2.653  15.992  0.2922 -0.3084 -0.6042
  570TMC3    C6 8508   4.697   2.647  15.893  0.0858 -0.4147 -0.0743
  570TMC3     C 8509   4.469   2.310  15.966  0.9800  0.0841  0.0617
  570TMC3     O 8510   4.461   2.229  15.875  0.8158 -0.2387  0.3512
  570TMC3     H 8511   4.658   2.319  15.809 -1.7320 -0.3414  0.2423
  570TMC3    H1 8512   4.471   2.537  16.107  3.5314 -1.6893  1.7925
  570TMC3    H2 8513   0.037   2.723  15.877 -0.2327  0.1060  0.9034
  570TMC3    C7 8514   4.617   2.756  16.088 -0.5634 -0.0351  0.7852
  570TMC3    C8 8515   0.128   2.513  15.784 -0.4309 -0.2851  0.8274
  570TMC3    O1 8516   4.575   2.720  16.197  0.1886  0.6135 -0.3129
  570TMC3    O2 8517   0.207   2.609  15.790 -0.1599  0.4660  0.4850
  571MPD2     C 8518   2.323   0.073   1.077  0.5668  0.1474  0.0560
  571MPD2    C1 8519   2.400   4.690   1.075 -0.1112  0.3926  0.0692
  571MPD2    C2 8520   2.523   4.698   1.011 -0.4738 -0.2326  0.0039
  571MPD2    C3 8521   2.559   0.066   0.928  0.3234 -0.6903 -1.1414
  571MPD2    C4 8522   2.475   0.175   0.938  0.4513 -0.0584 -0.1541
  571MPD2    C5 8523   2.361   0.187   1.014  0.4975  0.3558  0.0069
  571MPD2     H 8524   2.586   4.610   1.016 -0.8908 -0.3894  2.6377
  571MPD2    H1 8525   2.500   0.263   0.879  2.1661 -0.1564  0.4176
  571MPD2    H2 8526   2.231   0.085   1.134  1.9752  2.2814  1.9260
  571MPD2    H3 8527   2.298   0.275   1.015  0.2792  0.1790  3.4439
  571MPD2     N 8528   2.672   0.074   0.846 -0.1960 -0.2265 -0.3058
  571MPD2    H5 8529   2.673   0.156   0.787 -2.0052 -0.9711 -1.3664
  571MPD2    N1 8530   2.343   4.581   1.140 -0.4816  0.7696  0.3733
  571MPD2    H7 8531   2.249   4.601   1.172 -0.4452  1.4461  0.0651
  572TMC3    C1 8532   2.892   0.008   0.772 -0.0363  0.0409  0.6545
  572TMC3    C2 8533   3.002   4.662   0.792  0.2867 -0.2453 -0.4703
  572TMC3    C3 8534   3.102   4.659   0.702  0.0977  0.2074  0.0204
  572TMC3    C4 8535   2.888   0.087   0.661 -0.0227  0.0211  0.4893
  572TMC3    C5 8536   2.996   0.090   0.576  0.0119  0.2753 -0.3492
  572TMC3    C6 8537   3.106   0.009   0.594 -0.0965  0.4541 -0.0718
  572TMC3     C 8538   2.778   4.722   0.860  0.6175 -0.4363 -0.3879
  572TMC3     O 8539   2.797   4.636   0.946  0.1859  0.0532  0.0388
  572TMC3     H 8540   3.008   4.605   0.884  2.1699  0.8253  0.0638
  572TMC3    H1 8541   2.809   0.159   0.645 -1.0531 -0.8414  1.7252
  572TMC3    H2 8542   3.189   4.732   0.525 -2.1076 -0.3050 -2.3154
  572TMC3    C7 8543   3.001   0.188   0.475 -0.2369  0.3602  0.2113
  572TMC3    C8 8544   3.220   4.581   0.729 -0.3864  0.8103  0.0279
  572TMC3    O1 8545   2.906   0.267   0.471 -0.6710 -0.7692 -0.2870
  572TMC3    O2 8546   3.321   4.607   0.661 -0.1858  0.4840 -0.1082
  573MPD2     C 8547   3.632   4.143   0.523  1.0649 -0.1543 -0.1764
  573MPD2    C1 8548   3.607   4.280   0.528 -0.5152  0.3920  0.2279
  573MPD2    C2 8549   3.492   4.326   0.461  0.7404  0.4083  0.9965
  573MPD2    C3 8550   3.401   4.243   0.399 -0.4267  0.0454 -0.0274
  573MPD2    C4 8551   3.431   4.108   0.391  0.2859 -0.2014 -0.1518
  573MPD2    C5 8552   3.547   4.059   0.456 -0.4224 -0.0489 -0.1131
  573MPD2     H 8553   3.462   4.429   0.478  2.9824  1.2100  0.1331
  573MPD2    H1 8554   3.364   4.039   0.341  0.7654  0.6056 -1.8967
  573MPD2    H2 8555   3.720   4.097   0.566  1.4333  1.5035  0.8425
  573MPD2    H3 8556   3.571   3.954   0.440 -1.8634 -0.4570  0.4186
  573MPD2     N 8557   3.271   4.284   0.357  0.1689  0.0580  0.5368
  573MPD2    H5 8558   3.207   4.206   0.341 -0.6049  0.1760  3.1479
  573MPD2    N1 8559   3.698   4.365   0.595 -0.2879  0.4672  0.1552
  573MPD2    H7 8560   3.749   4.316   0.668  0.7766 -1.8793 -2.1553
  574TMC3    C1 8561   3.083   4.416   0.306  0.0125 -0.0034 -0.3176
  574TMC3    C2 8562   3.036   4.539   0.276 -0.6756 -0.2385 -0.1392
  574TMC3    C3 8563   2.915   4.539   0.205  0.1810 -0.2751 -0.1254
  574TMC3    C4 8564   3.008   4.305   0.306 -0.2606  0.0941 -0.3067
  574TMC3    C5 8565   2.879   4.312   0.255 -0.7821 -0.5414 -0.8850
  574TMC3    C6 8566   2.837   4.427   0.195 -0.7234  0.1497  0.0414
  574TMC3     C 8567   3.229   4.412   0.341  0.1159 -0.3058  0.4382
  574TMC3     O 8568   3.300   4.510   0.331  0.2447 -0.3422  0.0393
  574TMC3     H 8569   3.099   4.626   0.287  0.3437 -0.9386 -0.4184
  574TMC3    H1 8570   3.039   4.211   0.351 -1.0226 -0.4946 -1.0120
  574TMC3    H2 8571   2.744   4.435   0.141  0.3872  1.3209 -1.7185
  574TMC3    C7 8572   2.826   4.185   0.216  0.9774  0.1026 -0.0696
  574TMC3    C8 8573   2.872   4.653   0.131 -0.3732  0.1594 -0.8049
  574TMC3    O1 8574   2.911   4.096   0.213 -0.0377 -0.4667 -0.1380
  574TMC3    O2 8575   2.755   4.656   0.099  0.5185 -0.6440  0.1316
  575TMC3    C1 8576   1.059   0.361  11.420 -0.8333  0.3752 -0.2017
  575TMC3    C2 8577   1.008   0.241  11.451 -0.7975  1.1030  0.3793
  575TMC3    C3 8578   0.943   0.164  11.359 -0.3672 -0.2345 -0.7548
  575TMC3    C4 8579   1.044   0.410  11.291 -0.6896  0.4765  0.3285
  575TMC3    C5 8580   0.985   0.332  11.203 -0.4006  0.2595 -0.4076
  575TMC3    C6 8581   0.934   0.213  11.231  0.6203 -0.4764  0.3806
  575TMC3     C 8582   1.154   0.419  11.519 -0.9393 -0.2943 -0.1386
  575TMC3     O 8583   1.152   0.376  11.632 -0.0595 -0.2184 -0.1359
  575TMC3     H 8584   1.028   0.205  11.551 -0.9022  0.1602  0.0688
  575TMC3    H1 8585   1.072   0.514  11.277  2.2768 -0.3151  0.4130
  575TMC3    H2 8586   0.869   0.167  11.157  1.6866 -1.6680  0.1802
  575TMC3    C7 8587   0.931   0.404  11.092 -0.1491 -0.3806  0.2682
  575TMC3    C8 8588   0.937   0.025  11.386 -0.5116 -0.4273  0.9927
  575TMC3    O1 8589   0.917   0.524  11.113 -0.2192 -0.0274  0.0683
  575TMC3    O2 8590   0.965   0.001  11.502 -0.2949 -0.1231 -0.6407
  576MPD2     C 8591   1.048   2.608  12.877  0.2501  0.3029  0.1812
  576MPD2    C1 8592   1.017   2.592  12.746 -0.1354 -0.4972 -0.1432
  576MPD2    C2 8593   0.921   2.677  12.683 -0.0318  0.5376 -0.0220
  576MPD2    C3 8594   0.866   2.781  12.755  0.2952  0.2156 -0.0358
  576MPD2    C4 8595   0.899   2.795  12.888  0.0792 -0.6348  0.4235
  576MPD2    C5 8596   0.985   2.710  12.946 -0.0244  0.0465 -0.6923
  576MPD2     H 8597   0.899   2.662  12.578 -0.5013  2.1550 -0.1599
  576MPD2    H1 8598   0.855   2.866  12.958  0.1243 -0.8363  0.6575
  576MPD2    H2 8599   1.117   2.544  12.930  0.0193  0.2300  0.3980
  576MPD2    H3 8600   1.007   2.724  13.051  0.7096 -0.8982 -0.7182
  576MPD2     N 8601   0.766   2.851  12.693 -0.1187  0.2433  0.3040
  576MPD2    H5 8602   0.733   2.812  12.605  0.9905  0.9619 -0.4295
  576MPD2    N1 8603   1.081   2.496  12.665  0.4843  0.1512 -0.4106
  576MPD2    H7 8604   1.066   2.494  12.564 -0.6327  1.6713 -0.2711
  577TMC3    C1 8605   1.204   2.311  12.596 -0.1215 -0.0395  0.1706
  577TMC3    C2 8606   1.317   2.237  12.617 -0.4146  0.3844 -0.0126
  577TMC3    C3 8607   1.376   2.177  12.508 -0.5817  0.7256 -0.1409
  577TMC3    C4 8608   1.145   2.316  12.473  0.6423  0.1296 -0.7105
  577TMC3    C5 8609   1.214   2.261  12.364 -0.2329  0.4696 -0.6822
  577TMC3    C6 8610   1.327   2.190  12.383 -0.3312  0.5591  0.3618
  577TMC3     C 8611   1.171   2.401  12.705 -0.4566  0.8982  0.2911
  577TMC3     O 8612   1.227   2.395  12.811  0.5296  0.1217 -0.1907
  577TMC3     H 8613   1.388   2.247  12.698  0.2597 -0.2502 -0.5194
  577TMC3    H1 8614   1.058   2.380  12.464 -0.3330 -0.9651  0.9287
  577TMC3    H2 8615   1.378   2.144  12.299  0.6104 -0.6576  1.5990
  577TMC3    C7 8616   1.142   2.257  12.240 -0.0105  0.3838  0.3998
  577TMC3    C8 8617   1.502   2.122  12.529 -0.0790  0.3141 -0.0937
  577TMC3    O1 8618   1.179   2.183  12.151 -0.4254 -0.3182 -0.1461
  577TMC3    O2 8619   1.525   2.043  12.620  0.1864 -0.3147  0.6085
  578MPD2     C 8620   4.284   2.556   1.818  0.4419 -0.1171 -0.2972
  578MPD2    C1 8621   4.338   2.568   1.687  0.2461 -0.8388 -0.3734
  578MPD2    C2 8622   4.458   2.502   1.656 -0.7211  0.9453  0.2843
  578MPD2    C3 8623   4.522   2.429   1.754 -0.6910 -0.2014  0.2487
  578MPD2    C4 8624   4.460   2.408   1.881  0.1968 -0.0063 -0.7612
  578MPD2    C5 8625   4.345   2.477   1.912  0.7539  0.0467 -0.5556
  578MPD2     H 8626   4.511   2.513   1.562  0.3425  0.3097  0.8042
  578MPD2    H1 8627   4.505   2.344   1.957  0.7515  0.4257 -0.7246
  578MPD2    H2 8628   4.197   2.609   1.854  0.2612  0.3429 -1.3990
  578MPD2    H3 8629   4.294   2.463   2.006  1.2121 -1.1393 -0.4855
  578MPD2     N 8630   4.657   2.394   1.729  0.3759 -0.1109  0.3223
  578MPD2    H5 8631   4.693   2.411   1.635  1.7587  3.3432  1.4766
  578MPD2    N1 8632   4.272   2.653   1.597 -0.0291 -0.4326  0.2924
  578MPD2    H7 8633   4.179   2.687   1.621 -0.8173 -2.0416 -0.4530
  579TMC3    C1 8634   0.137   2.313   1.743  0.2804 -0.3927  0.3320
  579TMC3    C2 8635   0.256   2.363   1.803  0.4154 -0.0533  0.7806
  579TMC3    C3 8636   0.372   2.348   1.737  0.1170 -0.1109 -0.5427
  579TMC3    C4 8637   0.135   2.266   1.606  0.9250  0.2749 -0.7085
  579TMC3    C5 8638   0.254   2.264   1.548  0.3002 -0.0624  0.6438
  579TMC3    C6 8639   0.376   2.302   1.607 -0.6653 -0.9870  0.4885
  579TMC3     C 8640   0.009   2.320   1.809 -1.1033  0.2847 -0.7083
  579TMC3     O 8641   0.010   2.317   1.930 -0.5984  0.6968 -0.2346
  579TMC3     H 8642   0.259   2.388   1.909  0.2542  2.9306  0.0762
  579TMC3    H1 8643   0.042   2.226   1.567  1.8809 -3.0181  0.3763
  579TMC3    H2 8644   0.470   2.277   1.558 -0.4415 -0.6937  0.7621
  579TMC3    C7 8645   0.271   2.197   1.418  0.4589  0.9729 -0.1712
  579TMC3    C8 8646   0.488   2.413   1.795 -0.2208 -0.4814 -0.2990
  579TMC3    O1 8647   0.385   2.156   1.386 -0.2864 -0.1092  0.1039
  579TMC3    O2 8648   0.499   2.405   1.915 -0.0044  0.5496  0.5387
  580TMC3    C1 8649   4.319   1.584  12.376 -0.2983  0.4393 -0.1763
  580TMC3    C2 8650   4.377   1.603  12.253 -0.0953  0.2744  1.0428
  580TMC3    C3 8651   4.404   1.490  12.181  0.1469 -0.3477  0.3706
  580TMC3    C4 8652   4.317   1.462  12.431  0.6820  0.9292 -0.2676
  580TMC3    C5 8653   4.361   1.357  12.355 -0.8428  0.4547  0.1398
  580TMC3    C6 8654   4.408   1.362  12.231  0.1443  0.0575 -0.4604
  580TMC3     C 8655   4.188   1.646  12.373  0.1237  0.0964  0.2563
  580TMC3     O 8656   4.162   1.725  12.285 -0.4396  0.3106  0.0649
  580TMC3     H 8657   4.386   1.705  12.217 -1.2607  0.1040  0.2469
  580TMC3    H1 8658   4.299   1.447  12.537 -0.0527 -2.2563 -0.8398
  580TMC3    H2 8659   4.455   1.280  12.178  0.8156 -1.4452  2.4588
  580TMC3    C7 8660   4.309   1.235  12.409 -0.4561  0.0643  0.0318
  580TMC3    C8 8661   4.477   1.508  12.056  0.4679  0.4796 -0.8459
  580TMC3    O1 8662   4.287   1.231  12.529  0.7686  0.1060 -0.7523
  580TMC3    O2 8663   4.581   1.573  12.061  0.0808 -0.1433 -0.5632
  581MPD2     C 8664   1.953   1.085  14.757 -0.4951 -0.6490  0.4659
  581MPD2    C1 8665   1.882   1.098  14.877 -0.2541  0.8728 -0.0947
  581MPD2    C2 8666   1.761   1.167  14.869  0.3000  0.2553 -0.1454
  581MPD2    C3 8667   1.703   1.202  14.751 -0.3882  0.0326 -0.1539
  581MPD2    C4 8668   1.776   1.185  14.636  0.3979  0.0928  0.5950
  581MPD2    C5 8669   1.901   1.138  14.640  0.3807 -0.6268  0.0533
  581MPD2     H 8670   1.699   1.195  14.954 -0.0521  0.8171 -0.5858
  581MPD2    H1 8671   1.732   1.213  14.541  0.1804 -0.4325  0.5436
  581MPD2    H2 8672   2.046   1.031  14.749 -0.0645  0.4650 -1.8516
  581MPD2    H3 8673   1.950   1.118  14.546 -0.9880  0.8123 -0.9650
  581MPD2     N 8674   1.575   1.263  14.753 -0.5066 -0.2717  0.2858
  581MPD2    H5 8675   1.526   1.291  14.837  1.2190  3.0011  0.1951
  581MPD2    N1 8676   1.941   1.037  14.995  0.0744 -0.2629 -0.8044
  581MPD2    H7 8677   2.026   0.982  14.988 -0.0416 -0.6302  0.7411
  582TMC3    C1 8678   1.928   0.911  15.190  0.0693  0.1396 -0.4751
  582TMC3    C2 8679   2.029   0.948  15.275 -0.8912  0.3878 -0.2405
  582TMC3    C3 8680   2.033   0.889  15.393 -0.0018  0.1124 -0.9864
  582TMC3    C4 8681   1.827   0.835  15.219 -0.2650 -0.6007  0.1638
  582TMC3    C5 8682   1.825   0.776  15.346  0.1055  0.4409 -0.3372
  582TMC3    C6 8683   1.932   0.801  15.429  0.4937  0.1939 -0.0398
  582TMC3     C 8684   1.873   1.025  15.117  0.0528 -1.0505 -0.2790
  582TMC3     O 8685   1.759   1.055  15.146 -0.2117 -0.0163 -0.0500
  582TMC3     H 8686   2.089   1.036  15.257  1.3451 -0.9003  0.9023
  582TMC3    H1 8687   1.747   0.823  15.147 -0.6984 -0.5940  0.6461
  582TMC3    H2 8688   1.930   0.759  15.529 -0.1998  0.1459 -0.0749
  582TMC3    C7 8689   1.700   0.795  15.409  0.4048  0.0516 -0.1882
  582TMC3    C8 8690   2.096   0.965  15.500  0.9103 -0.3782  0.1468
  582TMC3    O1 8691   1.659   0.720  15.498  0.8903 -0.3185 -0.7142
  582TMC3    O2 8692   2.099   1.085  15.488  0.1893 -0.2110  0.5738
  583MPD2     C 8693   1.859   2.940  17.004  0.1989 -0.2796  0.8093
  583MPD2    C1 8694   1.855   3.071  16.966 -0.0672  0.3510 -0.5628
  583MPD2    C2 8695   1.824   3.171  17.053  0.7224 -0.7653 -0.0798
  583MPD2    C3 8696   1.800   3.143  17.188  0.5275  0.3519  0.1730
  583MPD2    C4 8697   1.808   3.011  17.223 -0.1190 -0.7867  0.2921
  583MPD2    C5 8698   1.828   2.911  17.130  0.1231  0.0975 -0.2965
  583MPD2     H 8699   1.829   3.275  17.023  1.7892 -0.4437  1.2088
  583MPD2    H1 8700   1.789   2.970  17.321 -0.6489  1.1477  0.9967
  583MPD2    H2 8701   1.878   2.859  16.935 -1.3178  0.4662 -0.4754
  583MPD2    H3 8702   1.829   2.807  17.159  1.4710 -0.2096 -1.4671
  583MPD2     N 8703   1.770   3.252  17.275 -0.6704 -0.4500 -0.0225
  583MPD2    H5 8704   1.779   3.345  17.234 -1.5429 -0.4961 -0.3227
  583MPD2    N1 8705   1.874   3.102  16.824 -0.1631 -0.2783  0.3643
  583MPD2    H7 8706   1.827   3.185  16.788  0.2248 -0.7517 -1.2371
  584TMC3    C1 8707   1.749   3.359  17.482 -0.6158 -0.6015 -0.1207
  584TMC3    C2 8708   1.759   3.478  17.416  0.2901 -0.0397  0.2853
  584TMC3    C3 8709   1.842   3.574  17.476  0.0083  0.0068  0.1623
  584TMC3    C4 8710   1.784   3.345  17.614 -0.8867  0.7770  0.4359
  584TMC3    C5 8711   1.867   3.443  17.667 -0.4249  0.0358  0.1932
  584TMC3    C6 8712   1.904   3.551  17.591  0.5639 -0.8776  0.0672
  584TMC3     C 8713   1.732   3.237  17.409 -0.3863  0.2770  0.0870
  584TMC3     O 8714   1.724   3.137  17.480 -0.0285  0.3639 -0.4644
  584TMC3     H 8715   1.718   3.495  17.317  0.4236  1.6339  0.5027
  584TMC3    H1 8716   1.762   3.260  17.678 -1.7418  0.9989  0.4325
  584TMC3    H2 8717   1.984   3.614  17.627  1.2895 -2.8176  1.8631
  584TMC3    C7 8718   1.924   3.425   0.062  0.0141  0.3338  0.7360
  584TMC3    C8 8719   1.862   3.689  17.399  0.0581 -0.8442 -0.2038
  584TMC3    O1 8720   2.026   3.486   0.091 -0.4718 -0.3639 -0.4513
  584TMC3    O2 8721   1.827   3.677  17.283 -0.5398 -0.1027 -0.2537
  585MPD2     C 8722   0.611   2.481  17.690  0.1103  0.2487  0.4439
  585MPD2    C1 8723   0.731   2.550  17.655 -0.1481 -0.1003 -1.4620
  585MPD2    C2 8724   0.829   2.480  17.591 -0.4377  0.5831  0.4956
  585MPD2    C3 8725   0.807   2.352  17.550  0.2145 -0.4063 -0.2974
  585MPD2    C4 8726   0.687   2.291  17.579 -0.0880 -0.0235  0.2421
  585MPD2    C5 8727   0.588   2.357  17.642  0.6804 -0.0711 -0.5729
  585MPD2     H 8728   0.925   2.526  17.568 -0.1358 -0.9208 -1.2740
  585MPD2    H1 8729   0.675   2.194  17.531  0.4484  0.1728 -0.2940
  585MPD2    H2 8730   0.546   2.531   0.020  1.4603  1.3037  0.9393
  585MPD2    H3 8731   0.494   2.308  17.667  1.2755  0.5838  3.0004
  585MPD2     N 8732   0.895   2.270  17.478 -0.3330 -0.0089 -0.2830
  585MPD2    H5 8733   0.869   2.178  17.442  0.0426  0.1011 -0.8422
  585MPD2    N1 8734   0.747   2.684  17.700  0.0863 -0.4337 -0.7009
  585MPD2    H7 8735   0.660   2.722  17.735 -1.1542 -0.7061 -3.4554
  586TMC3    C1 8736   1.089   2.188  17.384  0.8168  0.2873  0.0639
  586TMC3    C2 8737   1.221   2.168  17.400  0.0050  0.1321 -0.5187
  586TMC3    C3 8738   1.285   2.089  17.301 -0.3128 -0.1010  1.1451
  586TMC3    C4 8739   1.016   2.136  17.281  0.0573  0.0545 -0.1202
  586TMC3    C5 8740   1.083   2.095  17.174 -0.0977  0.3518  0.1185
  586TMC3    C6 8741   1.215   2.062  17.183 -0.3209 -0.4116  0.1527
  586TMC3     C 8742   1.030   2.295  17.456 -0.3048  0.1426  0.3510
  586TMC3     O 8743   1.104   2.384  17.497  0.1281 -0.3733 -0.1073
  586TMC3     H 8744   1.268   2.203  17.491  1.1041 -0.5343 -0.8322
  586TMC3    H1 8745   0.913   2.165  17.262  0.8330  1.7990 -1.6737
  586TMC3    H2 8746   1.271   2.009  17.107  2.4512 -1.1124  2.6763
  586TMC3    C7 8747   1.013   2.008  17.083 -0.2279 -0.5301  0.2225
  586TMC3    C8 8748   1.355   1.977  17.368  0.6757 -0.9653  0.0598
  586TMC3    O1 8749   1.072   1.900  17.064  0.2314  0.3312  0.4135
  586TMC3    O2 8750   1.400   1.994  17.477  0.8205 -0.1578  0.0962
  587TMC3    C1 8751   3.620   0.894  16.694  0.2150 -0.4189  0.4161
  587TMC3    C2 8752   3.572   1.000  16.619 -0.1487  0.0756 -0.1441
  587TMC3    C3 8753   3.667   1.075  16.557  0.0739 -0.2532 -0.3787
  587TMC3    C4 8754   3.750   0.838  16.681  0.7188  0.1679 -0.0430
  587TMC3    C5 8755   3.837   0.918  16.606  0.0864 -0.3766  0.5746
  587TMC3    C6 8756   3.799   1.036  16.549 -0.6969  0.1075 -0.2835
  587TMC3     C 8757   3.525   0.790  16.734 -0.4652  0.1692  0.6311
  587TMC3     O 8758   3.552   0.674  16.728 -0.0503 -0.0516 -0.4915
  587TMC3     H 8759   3.466   1.022  16.616  0.0871  1.3326  0.7921
  587TMC3    H1 8760   3.782   0.743  16.724  1.5548  0.2161 -0.5626
  587TMC3    H2 8761   3.870   1.100  16.498 -0.1023  0.1412  0.5849
  587TMC3    C7 8762   3.975   0.894  16.652 -0.0031 -0.0300 -0.3706
  587TMC3    C8 8763   3.635   1.189  16.481 -0.7510  0.3159 -0.7539
  587TMC3    O1 8764   3.987   0.811  16.739 -0.1844  0.1369  0.0120
  587TMC3    O2 8765   3.708   1.218  16.389  0.5783  0.2632  0.1381
  588TMC3    C1 8766   0.303   3.393  10.290 -0.3806 -0.1327 -0.7133
  588TMC3    C2 8767   0.350   3.294  10.214  0.3851  0.2464  0.0711
  588TMC3    C3 8768   0.465   3.231  10.245 -0.1441  0.4005 -1.1329
  588TMC3    C4 8769   0.357   3.422  10.412  0.5625  0.1270 -1.3816
  588TMC3    C5 8770   0.462   3.347  10.442  0.5334 -0.1613  0.2993
  588TMC3    C6 8771   0.526   3.256  10.364 -0.2091 -0.4806  0.2267
  588TMC3     C 8772   0.228   3.499  10.225  0.6941  0.2258 -0.8815
  588TMC3     O 8773   0.160   3.478  10.127 -0.0674  0.1246 -0.3785
  588TMC3     H 8774   0.306   3.271  10.118  0.0776 -3.2935  1.0290
  588TMC3    H1 8775   0.306   3.487  10.481  0.1048 -2.2108  0.4910
  588TMC3    H2 8776   0.622   3.215  10.395  0.2958  0.0310 -0.6520
  588TMC3    C7 8777   0.544   3.408  10.544 -0.3742  0.6042 -0.1473
  588TMC3    C8 8778   0.486   3.103  10.179 -0.5090  0.6048 -0.4672
  588TMC3    O1 8779   0.606   3.339  10.620 -0.0399  0.5716 -0.1087
  588TMC3    O2 8780   0.437   3.094  10.064  0.1468 -0.3743 -0.2049
  589TMC3    C1 8781   0.024   0.739   1.092  0.2330  0.4482 -0.0357
  589TMC3    C2 8782   0.104   0.736   1.205  0.0942 -0.3654 -0.1290
  589TMC3    C3 8783   0.128   0.609   1.250 -0.7012  0.4237  0.0271
  589TMC3    C4 8784   4.719   0.630   1.021  0.6575  0.3790  0.6028
  589TMC3    C5 8785   0.001   0.506   1.080  0.8428 -0.3003 -0.2260
  589TMC3    C6 8786   0.074   0.495   1.194 -0.6971  0.5042 -0.2554
  589TMC3     C 8787   4.712   0.866   1.034 -0.0947  0.5574 -0.2142
  589TMC3     O 8788   4.697   0.864   0.910  0.2263 -0.5135 -0.0620
  589TMC3     H 8789   0.132   0.827   1.257  1.9291  0.0949 -1.9224
  589TMC3    H1 8790   4.655   0.632   0.933  0.6444  1.0754  0.6325
  589TMC3    H2 8791   0.092   0.401   1.245 -4.2683  1.4601  2.7158
  589TMC3    C7 8792   4.712   0.390   1.004  0.3262  0.2774 -0.2650
  589TMC3    C8 8793   0.240   0.584   1.338 -0.0285 -0.0185  0.1234
  589TMC3    O1 8794   0.024   0.291   1.059 -0.6596  0.1406 -0.5882
  589TMC3    O2 8795   0.263   0.669   1.423  0.0035 -0.1852  0.0518
  590MPD2     C 8796   4.624   3.595  17.022  0.0240 -0.8547 -0.4751
  590MPD2    C1 8797   4.584   3.676  16.919 -0.2638  0.6587  0.1961
  590MPD2    C2 8798   4.681   3.752  16.857 -0.2644  0.2033  0.2086
  590MPD2    C3 8799   0.079   3.742  16.884 -0.1001  0.0764  0.0180
  590MPD2    C4 8800   0.111   3.666  16.995 -0.3781  0.1735  0.1653
  590MPD2    C5 8801   0.018   3.588  17.060  0.2513 -0.0277 -0.4131
  590MPD2     H 8802   4.648   3.825  16.784 -0.9452 -2.9743 -2.6248
  590MPD2    H1 8803   0.215   3.661  17.023 -0.5715 -0.9833  0.6912
  590MPD2    H2 8804   4.548   3.543  17.078  1.2810 -1.5099  0.5906
  590MPD2    H3 8805   0.055   3.527  17.142  0.1238 -0.4972 -0.7004
  590MPD2     N 8806   0.162   3.829  16.810 -0.1438 -0.3324 -0.3922
  590MPD2    H5 8807   0.123   3.896  16.745  0.8272  2.0470  1.4927
  590MPD2    N1 8808   4.453   3.687  16.891 -0.2030  0.7859  0.5295
  590MPD2    H7 8809   4.397   3.640  16.961  2.2734 -0.5811  1.5762
  591TMC3    C1 8810   0.356   3.943  16.754 -1.0313 -0.5537 -0.1679
  591TMC3    C2 8811   0.431   3.909  16.648 -0.2215 -0.0389  0.8029
  591TMC3    C3 8812   0.433   3.981  16.531 -0.5912  0.2869  0.3110
  591TMC3    C4 8813   0.266   4.041  16.736  0.1332 -0.6195  0.6768
  591TMC3    C5 8814   0.276   4.115  16.622  0.4308 -0.0573 -0.2714
  591TMC3    C6 8815   0.360   4.092  16.517 -0.5353 -0.1605 -0.5795
  591TMC3     C 8816   0.295   3.828  16.822 -0.5997 -0.6225  0.4889
  591TMC3     O 8817   0.367   3.742  16.869  0.0638 -0.3773 -0.2180
  591TMC3     H 8818   0.490   3.819  16.661 -0.8087 -0.5053  0.2586
  591TMC3    H1 8819   0.190   4.073  16.806 -1.7054 -2.8227 -0.3058
  591TMC3    H2 8820   0.339   4.146  16.425  1.4858  0.8096 -0.4686
  591TMC3    C7 8821   0.149   4.183  16.584 -1.0167  0.3089 -0.4448
  591TMC3    C8 8822   0.539   3.962  16.439 -0.0042 -0.4378  0.8249
  591TMC3    O1 8823   0.045   4.127  16.617  0.0434 -0.3974  0.2609
  591TMC3    O2 8824   0.610   3.869  16.469 -0.3551 -0.1638 -0.0404
  592MPD2     C 8825   4.721   0.914  11.838  0.0638 -0.4579  0.1655
  592MPD2    C1 8826   4.700   0.979  11.959 -0.8162 -0.0310  0.0458
  592MPD2    C2 8827   4.658   0.899  12.064  0.3628  0.3078 -0.8377
  592MPD2    C3 8828   4.635   0.763  12.053  0.4532 -0.7726 -0.0283
  592MPD2    C4 8829   4.645   0.706  11.928 -0.0594  0.4085  0.3453
  592MPD2    C5 8830   4.685   0.783  11.821 -1.0376  0.5222  0.4486
  592MPD2     H 8831   4.645   0.947  12.160 -1.7428  0.1962 -1.0583
  592MPD2    H1 8832   4.632   0.604  11.892 -1.8399  0.2582  1.4329
  592MPD2    H2 8833   0.031   0.957  11.749 -0.4077  1.8950  1.0428
  592MPD2    H3 8834   4.716   0.732  11.731 -1.4201  0.2823  0.4497
  592MPD2     N 8835   4.593   0.697  12.172  0.5356 -0.4161  0.8432
  592MPD2    H5 8836   4.598   0.751  12.257 -2.8667  0.4443  0.5192
  592MPD2    N1 8837   0.004   1.115  11.964  0.2495 -0.4101  0.2626
  592MPD2    H7 8838   0.044   1.147  11.876 -1.5067 -0.8975 -0.7125
  593TMC3    C1 8839   0.059   1.332  12.043  0.2219 -0.3908  0.0514
  593TMC3    C2 8840   0.085   1.405  12.151  0.2124  0.2294  0.8092
  593TMC3    C3 8841   0.167   1.506  12.130  0.1285 -0.5642 -0.3575
  593TMC3    C4 8842   0.112   1.366  11.918 -0.8184  0.1557  0.2813
  593TMC3    C5 8843   0.191   1.475  11.906 -0.2884 -0.3386  0.1786
  593TMC3    C6 8844   0.222   1.551  12.015 -0.4208 -0.4722 -0.9993
  593TMC3     C 8845   0.000   1.203  12.071 -0.5324 -0.8046  0.5993
  593TMC3     O 8846   4.693   1.183  12.183  0.1390 -0.0795 -0.4248
  593TMC3     H 8847   0.062   1.378  12.253 -1.4833  1.5580  0.7750
  593TMC3    H1 8848   0.065   1.314  11.836 -1.2988  0.5143  0.3264
  593TMC3    H2 8849   0.291   1.634  12.009 -2.6341  1.3379 -1.3355
  593TMC3    C7 8850   0.259   1.503  11.780 -0.1244  0.6446 -0.0675
  593TMC3    C8 8851   0.212   1.559  12.253 -0.1800  0.3328 -0.3153
  593TMC3    O1 8852   0.307   1.613  11.776 -0.3196 -0.0346 -0.2880
  593TMC3    O2 8853   0.126   1.593  12.330 -0.3136 -0.0336  0.3768
  594MPD2     C 8854   3.697   4.304  14.018  0.3129  0.0449  0.4119
  594MPD2    C1 8855   3.706   4.306  14.153  0.5356 -0.1136 -0.4949
  594MPD2    C2 8856   3.804   4.397  14.203 -0.0285 -0.3926  0.1465
  594MPD2    C3 8857   3.880   4.482  14.123 -0.1207 -0.0903 -0.2671
  594MPD2    C4 8858   3.865   4.471  13.988  0.3154  0.5597 -0.1700
  594MPD2    C5 8859   3.778   4.378  13.932 -0.3470 -0.5437  0.3102
  594MPD2     H 8860   3.830   4.393  14.308  0.0172 -1.1376  0.1096
  594MPD2    H1 8861   3.922   4.531  13.919  0.7307 -1.8556 -1.9113
  594MPD2    H2 8862   3.629   4.241  13.962 -1.5405  0.7000  1.9555
  594MPD2    H3 8863   3.757   4.380  13.826  0.6910 -0.2451  0.1030
  594MPD2     N 8864   3.982   4.566  14.183 -0.0386 -0.3635  0.0135
  594MPD2    H5 8865   3.982   4.581  14.284  1.2570  2.6993 -0.4473
  594MPD2    N1 8866   3.611   4.242  14.231  0.0413  0.0376 -0.4824
  594MPD2    H7 8867   3.541   4.190  14.179  0.6833 -1.7080  0.4085
  595TMC3    C1 8868   4.358   0.083  14.255  0.4495 -0.4762  0.4657
  595TMC3    C2 8869   4.289   4.735  14.173 -0.3004 -0.2680  0.2951
  595TMC3    C3 8870   4.153   4.720  14.201 -0.3286  0.2585 -0.0144
  595TMC3    C4 8871   4.298   0.155  14.360 -0.8056  0.2311 -0.4114
  595TMC3    C5 8872   4.165   0.128  14.383  0.6575  0.1772  0.2506
  595TMC3    C6 8873   4.093   0.035  14.311  0.1350  0.2069 -0.3227
  595TMC3     C 8874   4.490   0.105  14.207 -0.4796 -0.2159 -0.8356
  595TMC3     O 8875   4.528   0.096  14.092  0.8193  0.3879 -0.3192
  595TMC3     H 8876   4.327   4.690  14.082  1.4397 -0.1713  0.9772
  595TMC3    H1 8877   4.360   0.231  14.407  0.0226 -0.2864 -0.6727
  595TMC3    H2 8878   3.987   0.024  14.331 -0.3671  0.8639 -2.5857
  595TMC3    C7 8879   4.100   0.206  14.480 -0.4252  0.6447 -0.0725
  595TMC3    C8 8880   4.081   4.626  14.115 -0.2193 -0.4495  0.5412
  595TMC3    O1 8881   3.983   0.228  14.473 -0.2925 -0.1868  0.6800
  595TMC3    O2 8882   4.116   4.610  13.999 -0.8301 -0.5039  0.0476
  596MPD2     C 8883   2.820   2.751  16.699  0.4257 -0.3993  0.1860
  596MPD2    C1 8884   2.770   2.862  16.631  0.7331  0.6167 -0.1860
  596MPD2    C2 8885   2.728   2.841  16.503  0.1215  0.1458 -0.1538
  596MPD2    C3 8886   2.746   2.725  16.435 -0.7163  0.1861  0.0491
  596MPD2    C4 8887   2.796   2.619  16.504  0.1780  0.8447  0.1845
  596MPD2    C5 8888   2.831   2.630  16.636 -0.4156  0.0360  0.1321
  596MPD2     H 8889   2.678   2.924  16.454 -1.5683 -1.0762 -0.4836
  596MPD2    H1 8890   2.800   2.519  16.461 -2.7834  0.7638  0.1330
  596MPD2    H2 8891   2.835   2.751  16.806 -1.1715  0.0958  0.4058
  596MPD2    H3 8892   2.857   2.547  16.700  0.3895  0.4948  0.4008
  596MPD2     N 8893   2.705   2.710  16.296 -0.3794  0.2950  0.1654
  596MPD2    H5 8894   2.715   2.616  16.258 -1.0530  1.3106 -2.5202
  596MPD2    N1 8895   2.760   2.990  16.685 -0.0546  0.1442  0.4328
  596MPD2    H7 8896   2.714   3.057  16.625 -0.5658  1.9631  2.8650
  597TMC3    C1 8897   2.732   3.171  16.830  0.3022 -0.2829 -0.0396
  597TMC3    C2 8898   2.766   3.260  16.737 -0.2863  0.4657  0.1297
  597TMC3    C3 8899   2.725   3.392  16.743  0.0662 -0.3866 -0.3252
  597TMC3    C4 8900   2.646   3.210  16.927 -0.3003 -0.5058  0.1813
  597TMC3    C5 8901   2.606   3.338  16.939 -0.0872  0.5359  0.9384
  597TMC3    C6 8902   2.648   3.432  16.850 -0.2798 -0.4340 -0.2049
  597TMC3     C 8903   2.771   3.032  16.813  0.0907 -0.1608  0.2338
  597TMC3     O 8904   2.797   2.969  16.916  0.2307 -0.6267  0.3591
  597TMC3     H 8905   2.845   3.228  16.671  0.4324  1.7696  0.3470
  597TMC3    H1 8906   2.627   3.134  17.002  0.0618 -2.9049 -2.1475
  597TMC3    H2 8907   2.638   3.539  16.866 -0.5712 -0.8663  2.4617
  597TMC3    C7 8908   2.512   3.359  17.043  0.0424 -0.8102  0.8098
  597TMC3    C8 8909   2.779   3.487  16.641  0.1738  0.6402  0.4280
  597TMC3    O1 8910   2.487   3.270  17.119  0.5443 -0.5633  0.5356
  597TMC3    O2 8911   2.746   3.602  16.660  0.0839 -0.0622  0.0302
  598TMC3    C1 8912   1.100   4.125  15.597 -0.0022  0.2422  0.4232
  598TMC3    C2 8913   1.006   4.039  15.559 -0.5619 -0.4002  0.2870
  598TMC3    C3 8914   0.869   4.075  15.568  0.3971 -0.3775  0.0830
  598TMC3    C4 8915   1.071   4.254  15.651 -0.2997  0.0404  0.8978
  598TMC3    C5 8916   0.936   4.286  15.651  0.1517 -0.9664 -0.5534
  598TMC3    C6 8917   0.833   4.201  15.614 -0.0694  0.8941 -0.3230
  598TMC3     C 8918   1.232   4.063  15.612  0.8655  0.4989  0.3701
  598TMC3     O 8919   1.256   3.972  15.533  0.0180 -0.4734  0.5569
  598TMC3     H 8920   1.032   3.935  15.541 -0.6865 -0.4985  0.6658
  598TMC3    H1 8921   1.143   4.330  15.677  0.9714 -0.7909 -0.1446
  598TMC3    H2 8922   0.731   4.236  15.613 -0.4536 -0.2398 -1.0966
  598TMC3    C7 8923   0.896   4.414  15.707 -0.2647 -0.5324  0.4198
  598TMC3    C8 8924   0.787   3.961  15.593  0.2041  0.4168 -0.0186
  598TMC3    O1 8925   0.806   4.403  15.787  0.4075 -0.2922  0.1760
  598TMC3    O2 8926   0.822   3.850  15.551  1.0145  0.3179 -0.5875
  599MPD2     C 8927   0.962   2.098  15.738 -0.4013 -0.2173 -0.6212
  599MPD2    C1 8928   0.937   1.971  15.784 -0.0162 -0.0857 -0.3454
  599MPD2    C2 8929   0.815   1.952  15.850  0.2226 -0.5347 -0.5133
  599MPD2    C3 8930   0.737   2.063  15.883 -0.1578 -0.1697  0.0006
  599MPD2    C4 8931   0.761   2.191  15.833  0.7575  0.2622  0.0392
  599MPD2    C5 8932   0.868   2.199  15.757  0.0609  0.5386  0.9001
  599MPD2     H 8933   0.794   1.859  15.901 -2.2481  0.6829  0.7296
  599MPD2    H1 8934   0.704   2.281  15.855 -0.8059 -1.1282  1.6799
  599MPD2    H2 8935   1.045   2.113  15.670 -0.7630  0.6038 -0.8874
  599MPD2    H3 8936   0.882   2.296  15.710 -2.0744  0.5761  0.3744
  599MPD2     N 8937   0.626   2.043  15.964 -0.5453 -0.0445  0.2887
  599MPD2    H5 8938   0.568   2.123  15.986  0.5953  1.1478 -1.0968
  599MPD2    N1 8939   1.040   1.876  15.767  0.5676 -0.1729 -0.0785
  599MPD2    H7 8940   1.118   1.916  15.716  0.3360  0.7392  0.2698
  600TMC3    C1 8941   0.483   1.967  16.134 -0.2147  1.2078  0.3661
  600TMC3    C2 8942   0.385   1.881  16.179 -0.4333  0.7722  0.9413
  600TMC3    C3 8943   0.301   1.924  16.282 -0.3636  0.0381  0.8132
  600TMC3    C4 8944   0.512   2.078  16.209  0.2098 -0.0519 -0.1218
  600TMC3    C5 8945   0.421   2.123  16.309 -0.9784 -0.5657  0.1499
  600TMC3    C6 8946   0.322   2.046  16.351  0.2268  0.1737  0.2764
  600TMC3     C 8947   0.579   1.927  16.025 -0.3454 -0.1481 -0.1516
  600TMC3     O 8948   0.595   1.804  16.009 -0.1553  0.5239  0.0464
  600TMC3     H 8949   0.378   1.776  16.151  0.7766  0.1105  3.0757
  600TMC3    H1 8950   0.603   2.128  16.178  0.9238 -0.9492  0.5298
  600TMC3    H2 8951   0.258   2.080  16.431  1.0291  0.4413  0.7996
  600TMC3    C7 8952   0.433   2.251  16.386 -0.0034 -0.7575 -0.3913
  600TMC3    C8 8953   0.236   1.822  16.361  0.1878 -0.1016 -0.5942
  600TMC3    O1 8954   0.335   2.284  16.452 -0.1497  0.0892  0.2042
  600TMC3    O2 8955   0.282   1.806  16.473  0.2975  0.5531 -0.3999
  601MPD2     C 8956   3.266   0.470   0.149 -0.6396 -0.0761 -0.4393
  601MPD2    C1 8957   3.130   0.454   0.164 -0.6878  0.2700  0.4545
  601MPD2    C2 8958   3.082   0.369   0.262  0.1356 -0.2018  0.3190
  601MPD2    C3 8959   3.173   0.293   0.328 -0.2817  0.0930  0.3748
  601MPD2    C4 8960   3.309   0.297   0.298  0.2232 -0.0843 -0.0221
  601MPD2    C5 8961   3.355   0.390   0.210  0.8236 -0.2005 -0.7950
  601MPD2     H 8962   2.977   0.367   0.287  0.2029 -0.6338  0.5688
  601MPD2    H1 8963   3.385   0.247   0.357  0.4987 -0.2573 -0.5254
  601MPD2    H2 8964   3.307   0.546   0.084  1.3693 -0.8692 -0.1154
  601MPD2    H3 8965   3.458   0.411   0.186  0.3112  0.6599 -2.2676
  601MPD2     N 8966   3.127   0.205   0.427 -0.1948  0.0442 -0.3372
  601MPD2    H5 8967   3.197   0.142   0.465 -0.1257 -0.3730 -1.1656
  601MPD2    N1 8968   3.032   0.542   0.108 -0.6230 -0.3485 -0.1772
  601MPD2    H7 8969   2.934   0.528   0.131 -1.3850 -1.1057 -3.8844
  602TMC3    C1 8970   2.943   0.722  17.736 -0.3431 -0.8865 -0.9072
  602TMC3    C2 8971   2.940   0.860  17.735 -0.2451  0.4463 -0.5933
  602TMC3    C3 8972   2.837   0.926  17.660 -0.0053 -0.5084 -0.9259
  602TMC3    C4 8973   2.838   0.652  17.673 -0.5792  0.2541 -0.1420
  602TMC3    C5 8974   2.744   0.716  17.597 -0.2025  0.2773 -0.3803
  602TMC3    C6 8975   2.735   0.850  17.599 -0.7439  0.0909  0.1586
  602TMC3     C 8976   3.058   0.656   0.040 -0.8816 -0.3963 -0.2777
  602TMC3     O 8977   3.164   0.720   0.039  0.2784 -0.1475 -0.6339
  602TMC3     H 8978   3.014   0.913   0.055 -0.2184  0.1566 -0.3763
  602TMC3    H1 8979   2.842   0.545  17.660  3.1729  0.0534  2.4481
  602TMC3    H2 8980   2.657   0.886  17.533 -2.3672  0.4232  2.2610
  602TMC3    C7 8981   2.648   0.641  17.513  0.2379 -0.2500 -0.3915
  602TMC3    C8 8982   2.793   1.053  17.717  0.4080  0.6547  0.1538
  602TMC3    O1 8983   2.682   0.548  17.439  0.0013  0.2914  0.0499
  602TMC3    O2 8984   2.875   1.120   0.032 -1.2034  0.2433 -0.0001
  603TMC3    C1 8985   0.564   0.604  11.457  0.3952  0.6529 -0.7002
  603TMC3    C2 8986   0.649   0.541  11.547 -0.7461 -0.5438 -0.3459
  603TMC3    C3 8987   0.781   0.574  11.542 -0.0259  0.3281 -0.0363
  603TMC3    C4 8988   0.609   0.688  11.353  0.0473  0.4050 -0.1406
  603TMC3    C5 8989   0.749   0.707  11.351 -1.0371  0.4783 -0.3055
  603TMC3    C6 8990   0.830   0.662  11.452  0.2401 -0.1192  0.1832
  603TMC3     C 8991   0.425   0.549  11.462  0.0082 -0.5824 -0.3470
  603TMC3     O 8992   0.415   0.436  11.507 -0.3555  0.1686 -0.1363
  603TMC3     H 8993   0.612   0.476  11.627  4.7647 -2.6749  0.4408
  603TMC3    H1 8994   0.538   0.734  11.286  1.4585 -3.2698 -4.1108
  603TMC3    H2 8995   0.937   0.665  11.435  0.0122  0.4744 -1.2203
  603TMC3    C7 8996   0.805   0.804  11.270 -0.8047 -0.7889 -0.5423
  603TMC3    C8 8997   0.857   0.553  11.668  0.3686  0.7321  0.2137
  603TMC3    O1 8998   0.888   0.874  11.323 -0.0926  0.1123 -0.1025
  603TMC3    O2 8999   0.864   0.437  11.706 -0.2455  0.8983  0.3999
  604MPD2     C 9000   2.424   4.407  16.559 -0.7987  0.7203 -0.0839
  604MPD2    C1 9001   2.296   4.463  16.541 -0.8907  0.2418 -0.3750
  604MPD2    C2 9002   2.235   4.426  16.420  0.0975 -0.0938  0.6194
  604MPD2    C3 9003   2.295   4.342  16.330  0.7455  0.6114 -0.3414
  604MPD2    C4 9004   2.427   4.296  16.353  0.4681 -0.0350  0.6245
  604MPD2    C5 9005   2.483   4.325  16.471  0.0840  0.1414  0.7544
  604MPD2     H 9006   2.134   4.458  16.401  0.0773 -1.6803 -1.8856
  604MPD2    H1 9007   2.477   4.238  16.276 -0.2585  0.0954  0.0493
  604MPD2    H2 9008   2.484   4.432  16.645  0.3332  1.3922 -1.0619
  604MPD2    H3 9009   2.579   4.285  16.501  0.6911  1.4772  0.5722
  604MPD2     N 9010   2.223   4.307  16.221 -0.0186  0.5019 -1.0727
  604MPD2    H5 9011   2.130   4.345  16.206 -0.3645 -0.0193 -0.2615
  604MPD2    N1 9012   2.251   4.566  16.631  0.4284  0.4865  0.3577
  604MPD2    H7 9013   2.310   4.597  16.708 -0.1074 -2.3959  1.9112
  605TMC3    C1 9014   2.128   0.038  16.671 -0.0975  0.3208 -1.0806
  605TMC3    C2 9015   2.230   0.083  16.750 -0.7042  0.7005  0.2291
  605TMC3    C3 9016   2.217   0.198  16.816 -0.3617  0.3080  0.0125
  605TMC3    C4 9017   2.017   0.112  16.646 -0.2040 -0.2443  0.0367
  605TMC3    C5 9018   2.003   0.233  16.709  0.2171 -0.7106 -0.6903
  605TMC3    C6 9019   2.109   0.279  16.790 -0.3109 -0.2683  0.7938
  605TMC3     C 9020   2.133   4.639  16.607  0.1857  0.0363  0.2991
  605TMC3     O 9021   2.045   4.615  16.526 -0.3797  0.2344  0.2870
  605TMC3     H 9022   2.315   0.026  16.785  0.3839  2.0668 -0.2047
  605TMC3    H1 9023   1.936   0.073  16.584 -0.8175  0.7143  0.2325
  605TMC3    H2 9024   2.097   0.370  16.848  0.1676  0.9423 -1.0262
  605TMC3    C7 9025   1.922   0.329  16.639 -0.6343  0.3036 -0.0614
  605TMC3    C8 9026   2.310   0.234  16.922  0.4395  0.4793  0.4349
  605TMC3    O1 9027   1.945   0.343  16.520 -0.1783  0.0088  0.2512
  605TMC3    O2 9028   2.272   0.317  16.997  0.2752 -0.1775  0.1982
  606TMC3    C1 9029   2.553   3.101  17.469 -0.1060  0.4937 -0.0380
  606TMC3    C2 9030   2.521   3.049  17.589  0.2091  0.1035 -0.2393
  606TMC3    C3 9031   2.512   2.915  17.601  0.0139  0.7930  0.2793
  606TMC3    C4 9032   2.564   3.022  17.357  0.4445  0.1822  0.5717
  606TMC3    C5 9033   2.537   2.891  17.364 -1.1742  0.2246  0.3868
  606TMC3    C6 9034   2.535   2.837  17.491 -0.3002 -0.4624 -0.1965
  606TMC3     C 9035   2.596   3.236  17.470 -0.0464  1.0990  0.1807
  606TMC3     O 9036   2.566   3.314  17.561 -0.1771 -0.4355 -0.1534
  606TMC3     H 9037   2.529   3.115  17.675  5.1642 -0.4166 -0.2997
  606TMC3    H1 9038   2.575   3.064  17.257 -0.6749 -0.6412  0.1038
  606TMC3    H2 9039   2.521   2.730  17.498  0.0468 -0.5169 -0.3389
  606TMC3    C7 9040   2.558   2.808  17.252 -0.3408  0.3764 -0.7588
  606TMC3    C8 9041   2.562   2.867  17.728  0.1011 -0.5117  0.2284
  606TMC3    O1 9042   2.637   2.850  17.166 -0.3753  0.1542  0.5531
  606TMC3    O2 9043   2.531   2.934   0.082 -0.0256  0.3648 -0.0988
  607MPD2     C 9044   0.244   0.782  12.198 -0.2266 -0.2934  0.1527
  607MPD2    C1 9045   0.262   0.892  12.278  0.3214  0.4226  0.0951
  607MPD2    C2 9046   0.231   0.878  12.413 -0.7043 -0.0832 -0.4402
  607MPD2    C3 9047   0.192   0.760  12.469  0.3090  0.0091  0.0539
  607MPD2    C4 9048   0.157   0.657  12.383 -0.4708  0.7727  0.5685
  607MPD2    C5 9049   0.189   0.672  12.253  0.4268  0.3437 -0.0292
  607MPD2     H 9050   0.258   0.961  12.478 -2.5811  0.6180 -0.5298
  607MPD2    H1 9051   0.135   0.558  12.421  3.6846  0.5008  2.2474
  607MPD2    H2 9052   0.281   0.779  12.096  0.1332  2.3338  0.2010
  607MPD2    H3 9053   0.182   0.582  12.193 -0.2768  1.3141 -1.3898
  607MPD2     N 9054   0.176   0.748  12.611 -0.4542 -1.0084  0.1599
  607MPD2    H5 9055   0.220   0.828  12.656  1.8250 -2.4447  0.4604
  607MPD2    N1 9056   0.311   1.019  12.242  0.4013 -0.2188 -0.2546
  607MPD2    H7 9057   0.306   1.089  12.315 -0.1590 -0.8384  0.3028
  608TMC3    C1 9058   0.418   1.189  12.131 -0.8872  0.0283 -0.3475
  608TMC3    C2 9059   0.482   1.231  12.247  0.7920  0.3560  0.1821
  608TMC3    C3 9060   0.587   1.321  12.237 -0.5686 -0.7260 -0.6718
  608TMC3    C4 9061   0.451   1.252  12.013  0.1118 -0.4802  0.9733
  608TMC3    C5 9062   0.557   1.338  12.008  0.1415 -0.4786  0.2060
  608TMC3    C6 9063   0.624   1.377  12.120 -0.0764  0.7780 -0.0832
  608TMC3     C 9064   0.364   1.057  12.124  0.3601  0.0527  0.1454
  608TMC3     O 9065   0.360   0.991  12.020 -0.1022 -0.2769 -0.7100
  608TMC3     H 9066   0.472   1.168  12.335  1.1349  2.1900  1.5414
  608TMC3    H1 9067   0.410   1.231  11.915  1.1789  1.4442  0.1221
  608TMC3    H2 9068   0.714   1.438  12.110  0.4259 -0.4012 -2.6820
  608TMC3    C7 9069   0.592   1.390  11.871  0.0473  0.1961 -0.1212
  608TMC3    C8 9070   0.656   1.354  12.359  0.2526  0.1503  0.3569
  608TMC3    O1 9071   0.535   1.339  11.776 -0.5574  0.5024 -0.3237
  608TMC3    O2 9072   0.765   1.403  12.348  0.1113 -0.4886 -0.6061
  609TMC3    C1 9073   2.397   4.263   9.636 -0.3344 -0.2897 -0.1753
  609TMC3    C2 9074   2.335   4.148   9.607  0.4447 -0.1155  0.2325
  609TMC3    C3 9075   2.412   4.057   9.541 -0.2245 -0.0435 -0.3878
  609TMC3    C4 9076   2.530   4.290   9.605 -0.2385  0.2413 -0.1743
  609TMC3    C5 9077   2.603   4.191   9.538 -0.4313  0.0861 -0.2912
  609TMC3    C6 9078   2.545   4.075   9.504  0.2013 -0.1924 -0.0771
  609TMC3     C 9079   2.326   4.366   9.718 -0.1863  0.6335 -1.1238
  609TMC3     O 9080   2.205   4.348   9.709 -0.0703  0.1032  0.2581
  609TMC3     H 9081   2.238   4.128   9.649  1.4956 -1.7905  1.8848
  609TMC3    H1 9082   2.566   4.382   9.649 -1.1787 -0.2834  1.7264
  609TMC3    H2 9083   2.588   3.997   9.442  0.6942 -2.0020  2.5076
  609TMC3    C7 9084   2.745   4.184   9.574 -0.1696 -0.2914  0.2478
  609TMC3    C8 9085   2.352   3.930   9.497 -0.4480 -0.1743  0.1090
  609TMC3    O1 9086   2.780   4.251   9.667  0.8305  0.2036 -0.1876
  609TMC3    O2 9087   2.428   3.842   9.456 -0.0795  0.0500 -0.2913
  610TMC3    C1 9088   1.285   0.592  12.605  0.5802 -0.3126  0.2887
  610TMC3    C2 9089   1.188   0.622  12.518  0.0801 -0.5415  0.4858
  610TMC3    C3 9090   1.062   0.603  12.562 -0.4362  0.0414  0.2379
  610TMC3    C4 9091   1.267   0.509  12.714 -0.0745 -0.1251 -0.6057
  610TMC3    C5 9092   1.134   0.482  12.744 -0.5090 -0.2779 -0.0361
  610TMC3    C6 9093   1.029   0.538  12.678  0.0963 -0.0683  0.5988
  610TMC3     C 9094   1.414   0.651  12.567  0.3310 -0.2961  0.4833
  610TMC3     O 9095   1.492   0.674  12.660 -0.5229 -0.0710 -0.1120
  610TMC3     H 9096   1.212   0.680  12.430  0.9357  0.0108  1.0756
  610TMC3    H1 9097   1.358   0.472  12.761 -1.5705  0.4645  2.7308
  610TMC3    H2 9098   0.927   0.510  12.699  0.2456 -0.1722  1.1879
  610TMC3    C7 9099   1.109   0.347  12.798  0.1510 -0.0759  0.0451
  610TMC3    C8 9100   0.960   0.643  12.466 -0.3667 -0.2196 -0.1327
  610TMC3    O1 9101   1.200   0.266  12.806 -0.1415 -0.5251  0.4313
  610TMC3    O2 9102   1.000   0.717  12.377  0.0265  0.0933 -0.1556
  611MPD2     C 9103   4.707   0.516  10.774 -0.4698  0.0251 -0.4298
  611MPD2    C1 9104   4.642   0.616  10.712  0.4100 -0.3322 -0.5975
  611MPD2    C2 9105   4.721   0.715  10.654  0.4216  0.1091 -0.0996
  611MPD2    C3 9106   0.125   0.712  10.670  0.0851  0.2533 -0.2550
  611MPD2    C4 9107   0.187   0.604  10.739  0.9485  0.1407  0.1049
  611MPD2    C5 9108   0.108   0.501  10.787 -0.0173 -0.1010  0.3178
  611MPD2     H 9109   4.668   0.792  10.600  2.8627  1.8081 -0.0610
  611MPD2    H1 9110   0.294   0.588  10.747  1.0471  0.0216 -1.5196
  611MPD2    H2 9111   4.647   0.453  10.840 -0.7681 -0.6845 -1.3807
  611MPD2    H3 9112   0.135   0.417  10.849  0.0641 -0.1716  0.1866
  611MPD2     N 9113   0.223   0.807  10.620  0.3225 -0.7119  0.4409
  611MPD2    H5 9114   0.324   0.798  10.629  0.4272 -0.8905 -0.8750
  611MPD2    N1 9115   4.501   0.620  10.733 -0.0254 -0.1637 -0.2391
  611MPD2    H7 9116   4.455   0.552  10.793  1.9828  0.4411  1.9614
  612TMC3    C1 9117   0.284   1.022  10.534  0.2219  0.1741 -0.4454
  612TMC3    C2 9118   0.393   1.032  10.617  0.0235  0.7688  0.2751
  612TMC3    C3 9119   0.484   1.129  10.582 -0.2653 -0.6108 -0.1953
  612TMC3    C4 9120   0.280   1.089  10.415  0.0118 -0.2375 -0.0439
  612TMC3    C5 9121   0.385   1.169  10.375  0.5808  0.5934 -0.5951
  612TMC3    C6 9122   0.491   1.195  10.460 -0.5167 -0.1212  0.1853
  612TMC3     C 9123   0.179   0.919  10.546 -0.5509  0.7105  0.0947
  612TMC3     O 9124   0.077   0.925  10.477  0.4429  0.2551 -0.1188
  612TMC3     H 9125   0.385   0.993  10.718 -3.0269  0.5701 -0.0418
  612TMC3    H1 9126   0.205   1.079  10.338 -2.3017  1.5374  1.9924
  612TMC3    H2 9127   0.560   1.274  10.431 -0.8380 -0.8264 -2.5054
  612TMC3    C7 9128   0.392   1.213  10.239 -0.1584  0.6074 -0.3196
  612TMC3    C8 9129   0.593   1.150  10.670 -0.3433  0.4436 -0.1885
  612TMC3    O1 9130   0.299   1.180  10.165 -0.0353  0.0441 -0.1509
  612TMC3    O2 9131   0.665   1.243  10.642 -0.3902  0.1786 -0.5300
  613MPD2     C 9132   4.148   3.065  16.838 -0.4747 -0.2859 -0.2962
  613MPD2    C1 9133   4.032   3.059  16.760 -0.0621 -1.2700  0.0291
  613MPD2    C2 9134   3.929   2.964  16.804  0.5517 -0.7213 -0.3144
  613MPD2    C3 9135   3.952   2.879  16.913  0.6237 -0.2823 -0.2887
  613MPD2    C4 9136   4.059   2.902  16.993 -0.0110  0.3638  0.3897
  613MPD2    C5 9137   4.161   2.981  16.946 -0.4712 -0.1976  0.4076
  613MPD2     H 9138   3.842   2.950  16.741  1.3428 -2.1930 -1.0694
  613MPD2    H1 9139   4.074   2.847  17.086  0.6868  0.2713  0.2218
  613MPD2    H2 9140   4.237   3.110  16.795  0.8977 -1.3911  1.4279
  613MPD2    H3 9141   4.257   2.985  16.997  0.1152 -2.8263 -0.5275
  613MPD2     N 9142   3.879   2.762  16.937  0.6446  0.7258  0.6858
  613MPD2    H5 9143   3.920   2.689  16.995 -0.5238 -0.6586 -0.2294
  613MPD2    N1 9144   4.026   3.129  16.639  0.0243  0.5751  0.7920
  613MPD2    H7 9145   4.111   3.175  16.608 -1.0835  1.6943 -0.5977
  614TMC3    C1 9146   3.926   3.103  16.428  0.0954 -0.8117 -0.2848
  614TMC3    C2 9147   3.990   2.984  16.404  0.0867 -0.5211  0.5144
  614TMC3    C3 9148   3.927   2.886  16.334  0.2203 -0.1518 -0.2065
  614TMC3    C4 9149   3.806   3.130  16.364  0.1002  0.8933  0.2672
  614TMC3    C5 9150   3.755   3.036  16.283 -0.4989 -0.8032 -0.0283
  614TMC3    C6 9151   3.805   2.908  16.281  0.2845 -0.3980  0.8628
  614TMC3     C 9152   3.909   3.152  16.567 -0.1769  0.1508 -0.6167
  614TMC3     O 9153   3.792   3.144  16.603 -0.0908  0.1051  0.5180
  614TMC3     H 9154   4.084   2.968  16.454 -1.0954  0.1366  2.9572
  614TMC3    H1 9155   3.755   3.224  16.384 -1.5561 -0.0750  0.6124
  614TMC3    H2 9156   3.764   2.834  16.213  0.7480 -1.0105  1.2410
  614TMC3    C7 9157   3.678   3.089  16.171  0.5795  0.3647 -0.3065
  614TMC3    C8 9158   3.977   2.747  16.343 -0.2777 -0.7164 -0.6187
  614TMC3    O1 9159   3.643   3.205  16.177 -0.2517  0.2667  0.5891
  614TMC3    O2 9160   4.062   2.728  16.430  0.4054  0.0936 -0.5999
  615MPD2     C 9161   3.749   4.059  16.181 -0.1664  0.2552 -0.1111
  615MPD2    C1 9162   3.733   4.200  16.169  0.2432 -0.0360 -0.7203
  615MPD2    C2 9163   3.649   4.246  16.074 -0.2565 -0.1736  0.4388
  615MPD2    C3 9164   3.587   4.151  15.988  0.4575 -0.1414 -0.3043
  615MPD2    C4 9165   3.586   4.019  16.012  0.3874 -0.0844  0.3170
  615MPD2    C5 9166   3.666   3.978  16.118 -0.6516  0.2376  0.0442
  615MPD2     H 9167   3.631   4.351  16.056 -0.1517 -0.4682 -1.3307
  615MPD2    H1 9168   3.548   3.948  15.940  0.7243 -0.8725  0.9124
  615MPD2    H2 9169   3.818   4.009  16.248  0.6997  1.7267  0.0923
  615MPD2    H3 9170   3.673   3.872  16.139  0.6728 -0.1785 -2.5389
  615MPD2     N 9171   3.518   4.196  15.875 -0.2046  0.1053 -0.5936
  615MPD2    H5 9172   3.477   4.112  15.835  0.2445 -1.0879  1.4890
  615MPD2    N1 9173   3.798   4.291  16.248  0.2341 -0.1110 -0.6475
  615MPD2    H7 9174   3.780   4.390  16.236 -3.4096 -0.5876  0.7774
  616TMC3    C1 9175   3.940   4.364  16.417  0.8576  0.4423  0.9044
  616TMC3    C2 9176   4.069   4.365  16.449  0.3234 -0.3277  0.3022
  616TMC3    C3 9177   4.094   4.430  16.562 -0.4178 -0.3762  0.7643
  616TMC3    C4 9178   3.842   4.425  16.479 -0.3684 -0.5052 -0.2593
  616TMC3    C5 9179   3.869   4.500  16.583 -0.2007 -0.1279 -0.3661
  616TMC3    C6 9180   3.992   4.499  16.635  0.0490 -0.3536  0.1566
  616TMC3     C 9181   3.900   4.257  16.332  1.0240  0.7253  0.0219
  616TMC3     O 9182   3.950   4.146  16.355  0.1629  0.7991  0.1117
  616TMC3     H 9183   4.143   4.299  16.406  1.3250  0.0996  1.3835
  616TMC3    H1 9184   3.738   4.417  16.449 -0.6986  0.3651  0.6237
  616TMC3    H2 9185   4.012   4.528  16.737 -1.0536 -0.1155  0.2976
  616TMC3    C7 9186   3.775   4.505  16.693  0.9762  0.3500  0.4178
  616TMC3    C8 9187   4.233   4.460  16.606 -0.2082  0.0765 -0.6644
  616TMC3    O1 9188   3.780   4.609  16.755  0.1219 -0.0642  0.2384
  616TMC3    O2 9189   4.250   4.579  16.634  0.8159 -0.2506 -0.0541
  617MPD2     C 9190   1.522   2.429  13.764 -0.2321 -0.3432  0.3021
  617MPD2    C1 9191   1.528   2.345  13.868 -0.4819 -0.0610  0.1356
  617MPD2    C2 9192   1.414   2.276  13.898  0.0710 -0.5886 -0.5652
  617MPD2    C3 9193   1.296   2.291  13.831  0.0159  0.6749  0.2011
  617MPD2    C4 9194   1.293   2.379  13.724  0.0351  0.4031 -0.0236
  617MPD2    C5 9195   1.407   2.446  13.694  0.4642  0.3397  0.1096
  617MPD2     H 9196   1.424   2.212  13.985 -1.4751  0.5342  0.4262
  617MPD2    H1 9197   1.203   2.392  13.666  0.4923  3.8410  0.0720
  617MPD2    H2 9198   1.605   2.492  13.733 -2.2352  1.6780 -0.9967
  617MPD2    H3 9199   1.415   2.515  13.611  1.4068 -0.0379 -0.1041
  617MPD2     N 9200   1.177   2.230  13.873 -0.0441  0.5775 -0.3308
  617MPD2    H5 9201   1.098   2.250  13.813  0.0769 -0.9318 -0.9797
  617MPD2    N1 9202   1.653   2.327  13.932  0.8577  0.2725  0.2496
  617MPD2    H7 9203   1.736   2.369  13.892 -1.6655  1.9259 -3.1983
  618TMC3    C1 9204   1.821   2.222  14.057  0.8198  0.6681  0.7948
  618TMC3    C2 9205   1.883   2.119  13.995 -0.2095  0.8005 -0.2952
  618TMC3    C3 9206   2.007   2.135  13.955  0.1950 -0.0313 -0.0565
  618TMC3    C4 9207   1.873   2.345  14.078 -0.1363 -0.3869 -0.3597
  618TMC3    C5 9208   2.000   2.359  14.033 -0.9094  0.5078 -0.2791
  618TMC3    C6 9209   2.069   2.251  13.982 -0.3602 -0.2717  0.1146
  618TMC3     C 9210   1.682   2.230  14.027 -0.2997 -0.1415 -1.1994
  618TMC3     O 9211   1.608   2.145  14.075  0.4187 -0.3025  0.4733
  618TMC3     H 9212   1.812   2.050  13.951  0.0568 -0.9524  2.0172
  618TMC3    H1 9213   1.811   2.424  14.118 -0.2055 -1.1826  1.1254
  618TMC3    H2 9214   2.176   2.264  13.972 -0.3702  0.9202  1.5466
  618TMC3    C7 9215   2.080   2.460  14.104  0.0500  0.1229 -0.1072
  618TMC3    C8 9216   2.033   2.073  13.824  0.1122 -0.5649  0.0048
  618TMC3    O1 9217   2.069   2.448  14.226  0.8051 -0.7294 -0.7090
  618TMC3    O2 9218   1.984   1.970  13.781  0.5619 -0.3709  0.7524
  619MPD2     C 9219   2.933   3.623  14.076 -0.2012 -0.7284  0.3271
  619MPD2    C1 9220   2.857   3.722  14.007  0.4348 -0.8495  0.0554
  619MPD2    C2 9221   2.720   3.730  14.032 -1.3195 -0.0089  0.4318
  619MPD2    C3 9222   2.660   3.657  14.133  0.2932 -0.3423 -0.4354
  619MPD2    C4 9223   2.742   3.562  14.197 -0.3357 -0.1824  0.6236
  619MPD2    C5 9224   2.869   3.540  14.159  0.2035  0.6092 -0.4585
  619MPD2     H 9225   2.659   3.795  13.970 -1.1048  2.1786  2.5080
  619MPD2    H1 9226   2.701   3.491  14.269 -0.0964  1.1713  2.0833
  619MPD2    H2 9227   3.038   3.602  14.061 -0.5750 -1.6413 -0.9266
  619MPD2    H3 9228   2.932   3.469  14.212  1.2459  1.7870 -0.1088
  619MPD2     N 9229   2.522   3.659  14.167  0.5372 -0.4567  0.1783
  619MPD2    H5 9230   2.496   3.600  14.246 -1.2439 -0.3826 -0.3686
  619MPD2    N1 9231   2.912   3.809  13.912  0.1668  0.4012 -0.0039
  619MPD2    H7 9232   2.855   3.875  13.858 -0.0358  1.5395  1.6158
  620TMC3    C1 9233   3.052   3.907  13.762  0.2883 -0.7226  0.2449
  620TMC3    C2 9234   2.967   3.895  13.658 -0.1153 -0.6625 -0.3691
  620TMC3    C3 9235   2.976   3.986  13.556  0.5945 -0.6996  0.4416
  620TMC3    C4 9236   3.147   4.005  13.772 -0.1359 -0.1077 -0.0122
  620TMC3    C5 9237   3.132   4.107  13.679  0.0436  0.3712 -0.4944
  620TMC3    C6 9238   3.057   4.096  13.567 -0.6163 -0.7301  0.2581
  620TMC3     C 9239   3.042   3.809  13.863 -0.1620  0.0992  0.1994
  620TMC3     O 9240   3.149   3.761  13.906 -0.2198  0.5000 -0.0280
  620TMC3     H 9241   2.887   3.822  13.656 -0.8864  0.1801 -0.4762
  620TMC3    H1 9242   3.211   4.022  13.857 -1.1158  0.4856  0.6042
  620TMC3    H2 9243   3.052   4.170  13.487  1.6744 -1.2117 -0.3242
  620TMC3    C7 9244   3.148   4.247  13.711 -0.0835 -0.0381  0.3068
  620TMC3    C8 9245   2.854   3.999  13.485  0.7816  1.1552 -0.0773
  620TMC3    O1 9246   3.062   4.323  13.665  0.0991 -0.0318  0.1828
  620TMC3    O2 9247   2.802   3.896  13.449 -0.7344  0.5146  0.0615
  621MPD2     C 9248   1.783   3.480  10.486  0.1968  0.2716 -0.3343
  621MPD2    C1 9249   1.877   3.520  10.584  0.3453 -0.5128  0.4219
  621MPD2    C2 9250   1.999   3.579  10.540  0.5723 -0.7495  0.1839
  621MPD2    C3 9251   2.023   3.606  10.406  0.5789  0.3326  0.2520
  621MPD2    C4 9252   1.924   3.581  10.309 -0.3577  0.2086 -0.9195
  621MPD2    C5 9253   1.810   3.516  10.355 -0.2516  0.0439 -0.1063
  621MPD2     H 9254   2.070   3.611  10.615  0.5555 -2.8622  1.0756
  621MPD2    H1 9255   1.923   3.617  10.207 -2.3878 -0.9692 -1.3110
  621MPD2    H2 9256   1.689   3.431  10.509  0.8159 -0.8532 -0.1990
  621MPD2    H3 9257   1.740   3.490  10.277  0.0170 -0.5865 -0.1370
  621MPD2     N 9258   2.144   3.673  10.375  0.0024  0.1781 -0.1454
  621MPD2    H5 9259   2.195   3.731  10.441  1.6385 -1.1573 -0.2472
  621MPD2    N1 9260   1.860   3.504  10.727 -0.4786  0.1069 -0.4201
  621MPD2    H7 9261   1.945   3.512  10.782 -0.2914  1.4538 -0.9022
  622TMC3    C1 9262   1.773   3.418  10.922  0.2033  0.6142  0.7230
  622TMC3    C2 9263   1.654   3.416  10.992 -0.4465 -0.4803 -0.3227
  622TMC3    C3 9264   1.632   3.309  11.070  0.2763  0.2563 -0.0930
  622TMC3    C4 9265   1.863   3.311  10.931 -0.1182  0.8651 -0.6173
  622TMC3    C5 9266   1.837   3.213  11.021  0.1744  0.4162 -0.5272
  622TMC3    C6 9267   1.728   3.214  11.102  0.4331  0.3089  0.2096
  622TMC3     C 9268   1.748   3.476  10.792  0.0426 -0.0253 -0.2050
  622TMC3     O 9269   1.631   3.459  10.747  0.1933  0.1586  0.3677
  622TMC3     H 9270   1.590   3.502  10.978  0.3010  0.2402  0.7296
  622TMC3    H1 9271   1.959   3.308  10.881 -0.8930  0.4617 -2.0891
  622TMC3    H2 9272   1.702   3.132  11.168  0.2562  1.8752  2.0783
  622TMC3    C7 9273   1.947   3.128  11.055 -0.1137  0.0653 -0.5687
  622TMC3    C8 9274   1.509   3.249  11.034 -0.1185  0.1778 -0.7797
  622TMC3    O1 9275   1.975   3.133  11.172 -0.3056 -0.3448 -0.2616
  622TMC3    O2 9276   1.479   3.141  11.090 -0.5304  0.7945  0.0344
  623MPD2     C 9277   2.712   4.522  16.333  0.0812  0.1480  0.0425
  623MPD2    C1 9278   2.691   4.600  16.441  0.0455 -0.0029 -0.1947
  623MPD2    C2 9279   2.765   4.588  16.562  0.8572 -0.4014 -0.4433
  623MPD2    C3 9280   2.870   4.501  16.563 -0.0416 -0.0152  0.2608
  623MPD2    C4 9281   2.900   4.424  16.450  1.1573 -1.1930 -0.4773
  623MPD2    C5 9282   2.813   4.428  16.343 -0.0213  0.1840 -0.0882
  623MPD2     H 9283   2.750   4.648  16.651 -1.3212  0.6368 -1.4990
  623MPD2    H1 9284   2.985   4.357  16.439  1.3973 -0.9061 -0.3664
  623MPD2    H2 9285   2.659   4.527  16.238 -2.2981  0.4247  1.3927
  623MPD2    H3 9286   2.840   4.372  16.255  0.5278 -1.7968  1.3264
  623MPD2     N 9287   2.956   4.500  16.674 -0.5615  0.2418 -0.2725
  623MPD2    H5 9288   2.920   4.549  16.755  1.8397 -0.7254  1.3864
  623MPD2    N1 9289   2.585   4.682  16.434 -0.2054  0.3306  0.4225
  623MPD2    H7 9290   2.544   4.691  16.341 -0.2552  0.2044  0.4312
  624TMC3    C1 9291   3.086   4.359  17.031  0.6681 -0.0204  0.1482
  624TMC3    C2 9292   3.033   4.472  17.083 -0.1682  0.4219 -0.4232
  624TMC3    C3 9293   3.025   4.588  17.007 -0.3508 -0.4484  0.2995
  624TMC3    C4 9294   3.134   4.349  16.902 -0.4333  0.0286 -0.5006
  624TMC3    C5 9295   3.127   4.464  16.821  0.1419  0.5690 -0.3838
  624TMC3    C6 9296   3.079   4.578  16.878 -0.2139  0.3438  0.0955
  624TMC3     C 9297   3.107   4.249  17.125 -0.3450  0.2025  0.1824
  624TMC3     O 9298   3.095   4.263  17.247  0.5010 -0.1103 -0.1442
  624TMC3     H 9299   2.993   4.475  17.184  1.0274  1.3787  0.0200
  624TMC3    H1 9300   3.180   4.262  16.856  1.7248  0.4636  0.8483
  624TMC3    H2 9301   3.068   4.666  16.817 -0.5232  0.4736  0.3339
  624TMC3    C7 9302   3.074   4.435  16.689 -1.0121 -0.5217  0.2976
  624TMC3    C8 9303   2.893   4.647  17.005  0.0353 -0.5981  0.5951
  624TMC3    O1 9304   3.119   4.345  16.618  0.0639  0.1332  0.5276
  624TMC3    O2 9305   2.842   4.622  16.895  0.4661  0.7973 -0.4944
  625MPD2     C 9306   2.652   1.066   0.861 -0.0089  0.4479  0.1331
  625MPD2    C1 9307   2.678   1.191   0.809 -0.4899  1.0145 -0.7367
  625MPD2    C2 9308   2.808   1.228   0.794  0.1770 -0.1348  0.2429
  625MPD2    C3 9309   2.913   1.139   0.817 -0.2037  0.5671 -0.3167
  625MPD2    C4 9310   2.880   1.009   0.860  0.5083  0.1021 -0.0276
  625MPD2    C5 9311   2.750   0.981   0.894  0.9282  0.1833  0.3605
  625MPD2     H 9312   2.843   1.323   0.755  0.5345 -1.3600 -2.4840
  625MPD2    H1 9313   2.954   0.939   0.897 -0.6979 -1.7183 -1.0686
  625MPD2    H2 9314   2.555   1.019   0.871 -0.3670  0.9574 -1.0526
  625MPD2    H3 9315   2.722   0.882   0.929 -0.8535  1.1534  1.6888
  625MPD2     N 9316   3.054   1.170   0.801  0.1525  0.2491 -0.4174
  625MPD2    H5 9317   3.079   1.267   0.781  1.2818  0.2192  0.8223
  625MPD2    N1 9318   2.571   1.269   0.766  0.6717  0.1320  0.6666
  625MPD2    H7 9319   2.591   1.368   0.760 -0.6792  0.3096 -0.8486
  626TMC3    C1 9320   2.351   1.323   0.714  1.2857 -0.1032 -0.4428
  626TMC3    C2 9321   2.267   1.328   0.602 -0.8388  0.6819  0.2548
  626TMC3    C3 9322   2.172   1.426   0.607 -0.8030 -0.0410 -0.4940
  626TMC3    C4 9323   2.334   1.382   0.826  0.4465 -0.3016 -0.2268
  626TMC3    C5 9324   2.219   1.461   0.840  1.3706 -0.4527 -0.8443
  626TMC3    C6 9325   2.152   1.493   0.722 -0.3702 -0.8711  0.3821
  626TMC3     C 9326   2.449   1.218   0.721  0.2262 -0.0399  0.2808
  626TMC3     O 9327   2.433   1.105   0.671 -0.0113  0.4348  0.4820
  626TMC3     H 9328   2.285   1.256   0.523 -2.4561 -1.5800  1.9620
  626TMC3    H1 9329   2.387   1.358   0.918  0.8622 -1.7725 -0.8542
  626TMC3    H2 9330   2.084   1.577   0.713 -0.7139 -0.8004  3.6075
  626TMC3    C7 9331   2.151   1.443   0.961  0.1317 -0.3984  0.0731
  626TMC3    C8 9332   2.113   1.450   0.482 -0.2963  0.0491  0.2182
  626TMC3    O1 9333   2.220   1.396   1.047 -0.4969  0.4804  0.5243
  626TMC3    O2 9334   2.172   1.396   0.392  0.2402  0.0724  0.1189
  627MPD2     C 9335   0.839   1.121  14.413 -0.4005 -0.7950 -0.7958
  627MPD2    C1 9336   0.910   1.095  14.526 -0.3160 -0.2646 -0.1031
  627MPD2    C2 9337   0.879   0.981  14.598  0.1030 -0.7156  0.0109
  627MPD2    C3 9338   0.769   0.900  14.563 -0.2357 -0.0949  0.5581
  627MPD2    C4 9339   0.696   0.924  14.449  0.2248  0.3700  0.0654
  627MPD2    C5 9340   0.736   1.040  14.380  0.1676 -0.1813 -0.0890
  627MPD2     H 9341   0.944   0.961  14.683 -1.0580  1.2031  1.3610
  627MPD2    H1 9342   0.630   0.851  14.403  1.0536 -0.2111 -0.1935
  627MPD2    H2 9343   0.852   1.206  14.346  0.2855 -0.2604  0.0124
  627MPD2    H3 9344   0.697   1.072  14.284 -1.5786 -0.8030  0.4208
  627MPD2     N 9345   0.757   0.786  14.644  0.6135 -0.3206 -0.1377
  627MPD2    H5 9346   0.811   0.771  14.728  0.9293 -0.0443 -0.2903
  627MPD2    N1 9347   1.014   1.178  14.574  0.2531 -0.2062  0.4619
  627MPD2    H7 9348   1.083   1.141  14.639  1.5646  0.1786 -0.7058
  628TMC3    C1 9349   1.138   1.367  14.606 -0.0363  0.4910 -0.5692
  628TMC3    C2 9350   1.260   1.304  14.597 -0.1081 -0.2842 -0.5501
  628TMC3    C3 9351   1.370   1.355  14.668 -0.4054 -0.2113 -0.4732
  628TMC3    C4 9352   1.127   1.492  14.665 -0.1909 -0.2978  0.2581
  628TMC3    C5 9353   1.241   1.544  14.720  0.7329  0.6662  0.1642
  628TMC3    C6 9354   1.359   1.471  14.734  0.3883 -0.5462 -0.0921
  628TMC3     C 9355   1.013   1.309  14.556  0.5839 -0.0918  0.2115
  628TMC3     O 9356   0.928   1.390  14.526 -0.5806 -0.7698 -0.8813
  628TMC3     H 9357   1.268   1.205  14.553 -1.3374  0.2680 -2.0193
  628TMC3    H1 9358   1.032   1.539  14.645 -0.3308 -0.4177  0.6504
  628TMC3    H2 9359   1.436   1.517  14.794  2.1754 -0.7658 -2.2312
  628TMC3    C7 9360   1.252   1.688  14.735  0.4657  0.3768  0.4257
  628TMC3    C8 9361   1.497   1.284  14.642  0.5352 -0.7799 -0.0973
  628TMC3    O1 9362   1.353   1.729  14.795 -0.1238  0.3178  0.1315
  628TMC3    O2 9363   1.513   1.228  14.531  0.1117  0.4025  0.5580
  629MPD2     C 9364   4.658   4.334  16.851 -0.2660 -0.0401 -0.5731
  629MPD2    C1 9365   4.623   4.449  16.779 -0.7701 -0.0711  0.1472
  629MPD2    C2 9366   4.502   4.455  16.717  0.1648 -0.1645 -0.1115
  629MPD2    C3 9367   4.414   4.346  16.722  0.0718 -0.5249  0.1834
  629MPD2    C4 9368   4.457   4.229  16.778  0.2150  0.3676  0.5908
  629MPD2    C5 9369   4.576   4.225  16.841 -0.4636 -0.0904  0.0732
  629MPD2     H 9370   4.464   4.541  16.662 -1.5150 -0.0803  1.2048
  629MPD2    H1 9371   4.396   4.139  16.772 -0.1609  0.5812  1.2135
  629MPD2    H2 9372   0.011   4.321  16.912 -0.3342  1.2496 -0.2100
  629MPD2    H3 9373   4.607   4.136  16.894 -3.6047 -1.1709  0.1048
  629MPD2     N 9374   4.292   4.350  16.653 -0.0074  0.1094 -0.6539
  629MPD2    H5 9375   4.241   4.262  16.650  0.4536 -0.1598 -0.6215
  629MPD2    N1 9376   4.714   4.561  16.789 -0.4763  0.1101 -0.3841
  629MPD2    H7 9377   0.071   4.550  16.829 -0.4694  1.8445  0.0670
  630TMC3    C1 9378   0.065   0.040  16.748 -0.2419  0.3859 -0.3490
  630TMC3    C2 9379   0.098   0.120  16.643 -0.2340  0.3073 -0.1398
  630TMC3    C3 9380   0.179   0.225  16.677 -0.1646 -0.2383 -0.2941
  630TMC3    C4 9381   0.112   0.056  16.877  0.6600 -0.7271 -0.1225
  630TMC3    C5 9382   0.194   0.159  16.900 -0.8286  0.3201 -0.2420
  630TMC3    C6 9383   0.224   0.255  16.801 -0.2235 -0.2994  0.6762
  630TMC3     C 9384   4.694   4.682  16.725 -0.0671 -1.0704  0.2158
  630TMC3     O 9385   4.606   4.727  16.656 -0.0029  0.7360  0.0418
  630TMC3     H 9386   0.055   0.108  16.545 -1.4739  3.7141 -0.0386
  630TMC3    H1 9387   0.063   0.012  16.963 -0.1503  1.9422  0.7729
  630TMC3    H2 9388   0.282   0.344  16.824 -1.1563  0.5457 -0.2713
  630TMC3    C7 9389   0.230   0.184  17.043  0.5344  0.1498  0.4368
  630TMC3    C8 9390   0.233   0.309  16.574  0.0856 -0.1413  0.2913
  630TMC3    O1 9391   0.198   0.103  17.127 -0.8043  0.5108  0.2775
  630TMC3    O2 9392   0.329   0.379  16.606  0.0019 -0.0823  0.6717
  631MPD2     C 9393   2.572   4.407  15.930  0.2049  0.2155  0.0943
  631MPD2    C1 9394   2.612   4.504  15.845  0.0273 -0.2108 -0.7093
  631MPD2    C2 9395   2.736   4.487  15.778 -0.2974  0.7729  0.2551
  631MPD2    C3 9396   2.802   4.370  15.797 -0.3679  0.1136  0.1837
  631MPD2    C4 9397   2.756   4.271  15.882  0.2109 -0.2170  0.2302
  631MPD2    C5 9398   2.642   4.297  15.955 -0.0335 -0.0145  0.1193
  631MPD2     H 9399   2.772   4.563  15.709 -0.9594 -0.4424 -1.4353
  631MPD2    H1 9400   2.802   4.175  15.901  0.7506 -0.0837 -0.4060
  631MPD2    H2 9401   2.477   4.421  15.981 -0.3986 -0.1896 -0.9059
  631MPD2    H3 9402   2.588   4.227  16.017  0.5345 -1.0030 -0.4989
  631MPD2     N 9403   2.924   4.362  15.734 -0.0923 -0.1929  0.5505
  631MPD2    H5 9404   2.950   4.444  15.681  0.4275  0.0397  1.1729
  631MPD2    N1 9405   2.522   4.602  15.816 -0.3584 -0.2428 -0.4325
  631MPD2    H7 9406   2.435   4.591  15.867  0.3563  0.7042  0.9755
  632TMC3    C1 9407   2.406   0.016  15.672 -0.1634  0.5049  0.4346
  632TMC3    C2 9408   2.352   0.109  15.763  0.2804  0.3258  0.4893
  632TMC3    C3 9409   2.283   0.221  15.723  0.9529 -0.0112 -0.0899
  632TMC3    C4 9410   2.412   0.053  15.540 -0.1761 -0.1441 -0.1132
  632TMC3    C5 9411   2.361   0.174  15.504  1.0230 -1.4054 -0.3864
  632TMC3    C6 9412   2.293   0.256  15.593  0.4813 -0.7709 -0.2489
  632TMC3     C 9413   2.528   4.696  15.714 -0.0935 -0.5008  0.6240
  632TMC3     O 9414   2.628   4.711  15.642 -0.1505  0.0103 -0.2693
  632TMC3     H 9415   2.368   0.083  15.867  0.1210 -0.3819  0.3413
  632TMC3    H1 9416   2.451   4.716  15.470  0.0121  3.3914 -3.6332
  632TMC3    H2 9417   2.256   0.347  15.548 -0.5432 -1.1728 -0.2107
  632TMC3    C7 9418   2.433   0.237  15.397 -0.1751  0.5990 -0.5364
  632TMC3    C8 9419   2.226   0.317  15.812 -0.1249 -0.2720  0.4870
  632TMC3    O1 9420   2.386   0.332  15.333  0.6275 -0.2823  0.1083
  632TMC3    O2 9421   2.131   0.385  15.766  0.1172  0.2263  1.0698
  633MPD2     C 9422   2.195   2.817  17.428  0.0364 -0.7344 -0.0578
  633MPD2    C1 9423   2.137   2.787  17.303  0.1424 -0.6438 -0.0312
  633MPD2    C2 9424   2.079   2.662  17.280 -0.2894  0.3917 -0.0246
  633MPD2    C3 9425   2.067   2.563  17.383 -0.5754 -0.1590 -0.1270
  633MPD2    C4 9426   2.113   2.602  17.501  0.0038 -0.1461  0.0865
  633MPD2    C5 9427   2.179   2.717  17.520  0.2253  0.6972 -0.5590
  633MPD2     H 9428   2.046   2.639  17.179  0.0119 -1.1161  0.2131
  633MPD2    H1 9429   2.109   2.535  17.585  0.5473 -0.6191 -0.2648
  633MPD2    H2 9430   2.255   2.904  17.450  0.8363 -0.6279 -2.5850
  633MPD2    H3 9431   2.219   2.721  17.621 -1.3663 -0.4927  0.1309
  633MPD2     N 9432   2.021   2.426  17.364  0.4353 -0.5630  0.0736
  633MPD2    H5 9433   2.024   2.365  17.445 -0.2226 -0.6631  0.0165
  633MPD2    N1 9434   2.152   2.866  17.190 -0.0841  0.5275 -0.1779
  633MPD2    H7 9435   2.136   2.819  17.101 -0.8049 -1.8235  1.2044
  634TMC3    C1 9436   2.213   3.061  17.069 -0.5550  0.5568  0.5338
  634TMC3    C2 9437   2.290   2.985  16.983 -0.7035  0.2199  0.1867
  634TMC3    C3 9438   2.335   3.034  16.868 -0.3032 -0.1369 -0.1410
  634TMC3    C4 9439   2.175   3.188  17.039  0.3189  0.6126 -0.0528
  634TMC3    C5 9440   2.215   3.231  16.918  0.5526  0.2723  0.4661
  634TMC3    C6 9441   2.290   3.157  16.836  0.0418  0.0997  0.1479
  634TMC3     C 9442   2.168   3.001  17.198  0.5983  0.5683  0.3163
  634TMC3     O 9443   2.137   3.075  17.293 -0.0231  0.4488  0.2154
  634TMC3     H 9444   2.328   2.889  17.015 -0.8020 -0.3161 -1.2986
  634TMC3    H1 9445   2.113   3.247  17.106 -0.0425  1.3153 -1.0059
  634TMC3    H2 9446   2.332   3.202  16.746 -0.7753  1.1096  0.2806
  634TMC3    C7 9447   2.151   3.332  16.844 -0.2374  0.1241 -0.8512
  634TMC3    C8 9448   2.377   2.937  16.761  0.5054  0.0054  0.2795
  634TMC3    O1 9449   2.169   3.332  16.724 -0.5856 -0.1735  0.8183
  634TMC3    O2 9450   2.367   2.814  16.781 -0.2715  0.0702 -0.6414
  635TMC3    C1 9451   2.324   4.363   1.226 -0.0634 -0.6098 -0.1063
  635TMC3    C2 9452   2.387   4.247   1.259 -0.3667  0.1529  0.0031
  635TMC3    C3 9453   2.322   4.154   1.340  0.6071  0.9748  0.1297
  635TMC3    C4 9454   2.191   4.375   1.268 -0.0238 -0.2929 -0.7914
  635TMC3    C5 9455   2.128   4.286   1.351  0.7428  0.2395 -0.8435
  635TMC3    C6 9456   2.193   4.177   1.393 -0.7732  0.4008  0.3292
  635TMC3     C 9457   2.398   4.453   1.145 -0.3840  0.5149  0.1340
  635TMC3     O 9458   2.508   4.418   1.103  0.0369  0.0741 -0.4793
  635TMC3     H 9459   2.487   4.230   1.221 -0.2633 -0.1266  0.3995
  635TMC3    H1 9460   2.134   4.462   1.240 -0.5488  0.0287  1.2660
  635TMC3    H2 9461   2.145   4.105   1.458 -1.1055  0.7817  0.5083
  635TMC3    C7 9462   1.992   4.309   1.389  0.4305  0.1496 -0.2073
  635TMC3    C8 9463   2.374   4.021   1.366 -0.1653 -1.2523  0.0557
  635TMC3    O1 9464   1.919   4.383   1.318  0.2972 -0.1249  0.7529
  635TMC3    O2 9465   2.300   3.933   1.409 -0.3697 -0.3662  0.8138
  636MPD2     C 9466   3.400   2.959  16.302  0.5224 -0.1806  0.0967
  636MPD2    C1 9467   3.445   2.997  16.427  0.0326  0.2452  0.4747
  636MPD2    C2 9468   3.497   2.910  16.514 -0.3031 -0.2565  0.7462
  636MPD2    C3 9469   3.500   2.775  16.478 -0.3023 -0.2185  0.7955
  636MPD2    C4 9470   3.456   2.739  16.352  0.6832 -0.0037 -0.8776
  636MPD2    C5 9471   3.413   2.829  16.262  0.5076 -0.1685  0.0576
  636MPD2     H 9472   3.544   2.930  16.610  0.5725  0.4784  0.1673
  636MPD2    H1 9473   3.470   2.636  16.320  0.8888 -0.2851  0.1284
  636MPD2    H2 9474   3.358   3.024  16.226  0.5054 -2.1213 -1.5716
  636MPD2    H3 9475   3.400   2.796  16.160 -4.0390  1.9413 -0.0538
  636MPD2     N 9476   3.549   2.681  16.575  0.2350  0.3730 -0.0061
  636MPD2    H5 9477   3.587   2.712  16.663  0.9518 -2.9380  0.8640
  636MPD2    N1 9478   3.461   3.132  16.467 -0.2730  0.1308  0.2644
  636MPD2    H7 9479   3.488   3.157  16.562 -2.9529  2.5278  0.3809
  637TMC3    C1 9480   3.621   2.492  16.675  0.9721 -0.7283  0.1038
  637TMC3    C2 9481   3.627   2.572  16.788  0.0562 -0.1858 -0.3917
  637TMC3    C3 9482   3.744   2.592  16.853 -0.7843 -0.0121 -0.4251
  637TMC3    C4 9483   3.729   2.419  16.633  0.5176 -0.3950  0.7822
  637TMC3    C5 9484   3.849   2.440  16.699  0.7013  0.0834  0.0512
  637TMC3    C6 9485   3.859   2.518  16.812 -0.0502  1.0647 -0.3308
  637TMC3     C 9486   3.560   2.547  16.558  0.4893 -0.7349 -0.3802
  637TMC3     O 9487   3.549   2.469  16.463 -0.1334 -0.2528 -0.2552
  637TMC3     H 9488   3.539   2.626  16.821  0.5903 -0.3824  1.3278
  637TMC3    H1 9489   3.722   2.366  16.539  0.5852  1.7617 -0.4235
  637TMC3    H2 9490   3.959   2.528  16.852 -0.4778 -2.6057  1.6325
  637TMC3    C7 9491   3.971   2.359  16.689 -0.4647 -0.2597 -0.6648
  637TMC3    C8 9492   3.761   2.727  16.876 -0.2039  0.4692 -0.1897
  637TMC3    O1 9493   4.015   2.329  16.797  0.6553 -0.1560 -0.9977
  637TMC3    O2 9494   3.692   2.793  16.799 -0.3798  0.7812 -0.7967
  638MPD2     C 9495   3.802   1.689  14.945  0.8225  0.4645  0.6739
  638MPD2    C1 9496   3.809   1.555  14.905 -0.8775 -0.8416 -0.0040
  638MPD2    C2 9497   3.793   1.450  14.997 -0.7175 -0.0032 -1.3705
  638MPD2    C3 9498   3.735   1.471  15.116  0.7891 -0.6031  0.0633
  638MPD2    C4 9499   3.709   1.601  15.151 -0.5963  0.1197 -0.0530
  638MPD2    C5 9500   3.750   1.704  15.069  0.3048 -0.3858 -0.0254
  638MPD2     H 9501   3.809   1.347  14.968 -1.6184 -0.8579  1.1798
  638MPD2    H1 9502   3.656   1.625  15.243 -0.3563  0.0271  0.1109
  638MPD2    H2 9503   3.825   1.779  14.889  0.2712  1.6163  2.2984
  638MPD2    H3 9504   3.743   1.804  15.109 -0.5951 -1.6796  3.0297
  638MPD2     N 9505   3.699   1.357  15.193  0.3024  0.2139 -0.2792
  638MPD2    H5 9506   3.716   1.267  15.149  0.8414  0.4481 -0.5507
  638MPD2    N1 9507   3.843   1.527  14.770  0.0761 -0.0974  0.7542
  638MPD2    H7 9508   3.848   1.428  14.748 -0.2466  0.3119 -1.1393
  639TMC3    C1 9509   3.614   1.231  15.366  0.3960  0.1060 -0.1650
  639TMC3    C2 9510   3.479   1.194  15.363  0.9493  0.0884 -0.7487
  639TMC3    C3 9511   3.442   1.063  15.343  0.4610  0.7276  0.3137
  639TMC3    C4 9512   3.710   1.141  15.340 -0.4094 -0.2140  0.2644
  639TMC3    C5 9513   3.665   1.008  15.326  0.4655 -0.0055 -0.1097
  639TMC3    C6 9514   3.536   0.965  15.331 -0.1758 -0.0056 -0.0944
  639TMC3     C 9515   3.638   1.360  15.318  0.5867  1.0285 -0.0281
  639TMC3     O 9516   3.578   1.452  15.377  0.2404 -0.1597  0.1875
  639TMC3     H 9517   3.406   1.273  15.351 -0.0930 -0.8154 -0.2979
  639TMC3    H1 9518   3.814   1.168  15.351 -1.0038  2.3841 -0.6748
  639TMC3    H2 9519   3.511   0.860  15.322  0.6177 -0.1168 -1.0601
  639TMC3    C7 9520   3.762   0.902  15.315  0.0314  0.4050  0.3537
  639TMC3    C8 9521   3.335   1.036  15.244  0.1619 -0.1664 -0.9629
  639TMC3    O1 9522   3.725   0.791  15.355 -0.2794  0.4029 -0.5333
  639TMC3    O2 9523   3.375   0.988  15.139  0.7999 -0.0170  0.0909
  640MPD2     C 9524   3.102   0.318  11.096 -0.8506 -0.4404 -0.4944
  640MPD2    C1 9525   3.120   0.401  10.990  0.2735  0.1709 -0.6400
  640MPD2    C2 9526   3.025   0.495  10.953  0.2538 -0.7428 -0.0538
  640MPD2    C3 9527   2.902   0.496  11.020 -0.4741 -0.7174  1.0516
  640MPD2    C4 9528   2.886   0.418  11.131  0.5319  0.6895 -0.4885
  640MPD2    C5 9529   2.986   0.327  11.171  0.4488 -0.4311 -0.7152
  640MPD2     H 9530   3.037   0.546  10.858 -0.2933  0.2864  0.4367
  640MPD2    H1 9531   2.794   0.422  11.189  1.0466 -0.3553  0.4005
  640MPD2    H2 9532   3.178   0.245  11.124  1.8748  2.1099 -1.3376
  640MPD2    H3 9533   2.977   0.269  11.262  0.3043 -0.9192 -1.0426
  640MPD2     N 9534   2.793   0.575  10.983 -0.0596  0.4132  0.3351
  640MPD2    H5 9535   2.706   0.558  11.032 -1.0975  2.1834 -0.8900
  640MPD2    N1 9536   3.251   0.398  10.936 -0.1191  0.4073 -0.2555
  640MPD2    H7 9537   3.314   0.329  10.975  1.4938  0.7295 -2.2921
  641TMC3    C1 9538   3.418   0.426  10.754  0.1894 -0.0526  1.0618
  641TMC3    C2 9539   3.402   0.300  10.704  0.0885  0.5927 -0.0354
  641TMC3    C3 9540   3.443   0.269  10.579  0.1527 -0.8869 -0.0753
  641TMC3    C4 9541   3.460   0.522  10.672 -0.2760 -0.3343 -0.3781
  641TMC3    C5 9542   3.484   0.495  10.538  0.0514  0.3473 -0.7799
  641TMC3    C6 9543   3.481   0.367  10.488  0.2933  0.4904  0.0724
  641TMC3     C 9544   3.300   0.478  10.833 -0.2625 -0.0051  0.3012
  641TMC3     O 9545   3.260   0.585  10.791  0.1286 -0.3645  0.7859
  641TMC3     H 9546   3.328   0.230  10.742  0.2617  0.4390  0.0194
  641TMC3    H1 9547   3.475   0.618  10.721  1.1548 -0.4664 -0.5662
  641TMC3    H2 9548   3.519   0.335  10.392 -0.6709 -0.5414  0.0368
  641TMC3    C7 9549   3.520   0.603  10.442  0.0634 -0.3414  0.2359
  641TMC3    C8 9550   3.443   0.138  10.523  0.5560  0.3263 -0.1068
  641TMC3    O1 9551   3.539   0.578  10.321  0.5899  0.4234 -0.0766
  641TMC3    O2 9552   3.461   0.133  10.402  0.1771 -0.5445  0.0369
  642TMC3    C1 9553   4.610   1.648  12.764 -0.6117  0.8044  0.5889
  642TMC3    C2 9554   0.012   1.662  12.751  0.6064 -0.2358  0.6203
  642TMC3    C3 9555   0.087   1.552  12.713  0.6360 -0.1432  0.6353
  642TMC3    C4 9556   4.553   1.525  12.736  0.2923  0.6774  0.5570
  642TMC3    C5 9557   4.631   1.424  12.687 -0.5615  0.6141  0.0291
  642TMC3    C6 9558   0.029   1.439  12.672 -0.7891 -0.5960 -0.0223
  642TMC3     C 9559   4.538   1.763  12.724  0.1535 -0.1492  0.2142
  642TMC3     O 9560   4.597   1.855  12.673  0.5295  0.0570 -0.3769
  642TMC3     H 9561   0.060   1.759  12.758 -0.7013  0.5697 -1.5141
  642TMC3    H1 9562   4.447   1.503  12.745  0.3590  1.0959  2.5497
  642TMC3    H2 9563   0.079   1.359  12.619 -0.2908 -2.7270  3.6709
  642TMC3    C7 9564   4.582   1.286  12.677 -0.2861 -0.2814 -0.5892
  642TMC3    C8 9565   0.235   1.558  12.730  0.1067 -0.1192 -0.6987
  642TMC3    O1 9566   4.616   1.225  12.573 -0.1726  0.4463 -0.3413
  642TMC3    O2 9567   0.302   1.481  12.664 -0.4657 -0.2938  0.3836
  643TMC3    C1 9568   4.352   0.942   0.093 -0.0722  0.2580 -0.1326
  643TMC3    C2 9569   4.224   0.930   0.047  0.5352 -0.1838 -0.3313
  643TMC3    C3 9570   4.215   0.848  17.677  0.4472  0.1800  0.1447
  643TMC3    C4 9571   4.465   0.885   0.027 -0.6327 -0.4572 -0.1222
  643TMC3    C5 9572   4.445   0.805  17.664 -0.0897  0.6331 -0.7418
  643TMC3    C6 9573   4.316   0.785  17.615 -0.8791 -0.0496  0.1497
  643TMC3     C 9574   4.363   1.005   0.224  0.1552 -0.2474  0.1104
  643TMC3     O 9575   4.276   1.086   0.256  0.0838  0.0793 -0.0948
  643TMC3     H 9576   4.141   0.987   0.084  0.6417  0.0443 -0.4449
  643TMC3    H1 9577   4.567   0.920   0.039  0.3322 -2.8358 -1.4332
  643TMC3    H2 9578   4.297   0.730  17.524 -1.7747  0.0708  0.2662
  643TMC3    C7 9579   4.539   0.837  17.564  0.3234 -0.5563  0.3178
  643TMC3    C8 9580   4.110   0.880  17.577 -0.0248 -0.3445  0.3823
  643TMC3    O1 9581   4.590   0.948  17.560  0.0779 -0.2561  0.8774
  643TMC3    O2 9582   4.089   0.798  17.484  0.6289 -0.1150  0.0650
  644MPD2     C 9583   3.923   1.273  10.759  0.1874  0.3717  0.3998
  644MPD2    C1 9584   3.913   1.227  10.632  0.8769 -0.2067 -0.4175
  644MPD2    C2 9585   3.880   1.314  10.531  0.0096 -0.2607  0.5256
  644MPD2    C3 9586   3.846   1.448  10.560 -0.2967  0.0531  0.1367
  644MPD2    C4 9587   3.852   1.493  10.690  0.5289 -0.2503  0.0130
  644MPD2    C5 9588   3.897   1.408  10.788  0.0504 -0.6377 -0.6616
  644MPD2     H 9589   3.879   1.280  10.428  0.0372 -2.1761  1.1617
  644MPD2    H1 9590   3.841   1.596  10.721 -0.1545 -0.6141  0.9551
  644MPD2    H2 9591   3.951   1.203  10.837  0.4536  0.1814  0.1322
  644MPD2    H3 9592   3.905   1.451  10.888  0.3625  0.6508 -1.2465
  644MPD2     N 9593   3.812   1.537  10.452 -0.0398  0.0923  0.4204
  644MPD2    H5 9594   3.829   1.492  10.363 -0.6447  1.5198 -0.4124
  644MPD2    N1 9595   3.961   1.100  10.611  0.1902 -0.1103 -0.0499
  644MPD2    H7 9596   3.964   1.033  10.688  0.9260 -0.5451 -0.4507
  645TMC3    C1 9597   3.737   1.738  10.341 -0.1832 -0.2936  0.0991
  645TMC3    C2 9598   3.642   1.832  10.334 -0.1336  0.1174  0.2009
  645TMC3    C3 9599   3.622   1.902  10.208  0.6598 -0.1453  0.0530
  645TMC3    C4 9600   3.813   1.704  10.224  0.3081  0.3173  0.0998
  645TMC3    C5 9601   3.801   1.785  10.115  0.1195  0.0567 -0.2432
  645TMC3    C6 9602   3.708   1.885  10.102  0.3559  0.0961  0.2980
  645TMC3     C 9603   3.755   1.665  10.468 -0.0433  0.3842 -0.0159
  645TMC3     O 9604   3.711   1.718  10.568  0.5252 -0.2189 -0.2664
  645TMC3     H 9605   3.581   1.860  10.419  0.2462  1.3281  0.0870
  645TMC3    H1 9606   3.896   1.635  10.227 -0.8372 -1.0323  1.2846
  645TMC3    H2 9607   3.706   1.955  10.020 -2.1378  1.8463  1.8364
  645TMC3    C7 9608   3.888   1.758  10.000 -0.2430 -0.1925  0.3082
  645TMC3    C8 9609   3.514   2.007  10.205  0.2047 -0.3500  0.2589
  645TMC3    O1 9610   3.906   1.849   9.915 -0.0923  0.6773 -0.1502
  645TMC3    O2 9611   3.489   2.059  10.313  0.0264  0.3257  0.2916
  646MPD2     C 9612   3.650   0.300  14.635  0.2194 -0.8712  0.2906
  646MPD2    C1 9613   3.575   0.310  14.748  0.5408 -0.0814  0.0841
  646MPD2    C2 9614   3.471   0.399  14.755 -0.1433  0.2308 -0.2022
  646MPD2    C3 9615   3.434   0.471  14.645  0.2243 -0.4324 -0.7643
  646MPD2    C4 9616   3.512   0.464  14.527 -0.6042  0.3828  0.1055
  646MPD2    C5 9617   3.625   0.382  14.528 -0.2319  0.0631 -0.6057
  646MPD2     H 9618   3.413   0.410  14.846  0.1903  0.5383 -0.0271
  646MPD2    H1 9619   3.486   0.518  14.437  0.6047 -1.2394 -1.2114
  646MPD2    H2 9620   3.735   0.233  14.631  0.8372 -0.2395  2.8165
  646MPD2    H3 9621   3.694   0.374  14.445 -0.0953  0.5523 -0.5347
  646MPD2     N 9622   3.306   0.536  14.654 -0.3233  0.0297  0.3652
  646MPD2    H5 9623   3.261   0.545  14.745  0.9245 -0.1752  0.9967
  646MPD2    N1 9624   3.603   0.222  14.861 -0.7745 -0.2699 -0.3613
  646MPD2    H7 9625   3.691   0.173  14.849 -0.2679 -0.0362  2.5208
  647TMC3    C1 9626   3.595   0.130  15.077 -0.4372 -0.3144  1.0297
  647TMC3    C2 9627   3.505   0.064  15.156 -0.6233  0.5124 -0.2982
  647TMC3    C3 9628   3.560   4.727  15.260 -0.3755 -0.3245 -0.0046
  647TMC3    C4 9629   3.728   0.126  15.086 -0.3222 -0.0687 -0.5893
  647TMC3    C5 9630   3.773   0.061  15.198  0.3931  0.2027  0.6465
  647TMC3    C6 9631   3.695   4.729  15.284 -0.2175 -0.1767 -0.0986
  647TMC3     C 9632   3.527   0.206  14.973 -0.1496  0.2580 -0.0054
  647TMC3     O 9633   3.425   0.266  15.002 -0.0704  0.8851  0.4029
  647TMC3     H 9634   3.400   0.059  15.129 -0.7045 -0.0687  0.1251
  647TMC3    H1 9635   3.786   0.191  15.021 -2.7983  1.5292 -1.2407
  647TMC3    H2 9636   3.736   4.672  15.367  0.5574  0.9580  0.2897
  647TMC3    C7 9637   3.920   0.037  15.205  0.5102  0.3093 -0.9223
  647TMC3    C8 9638   3.478   4.612  15.296  0.4741 -0.2784 -0.6908
  647TMC3    O1 9639   3.976   0.015  15.312 -0.2552  0.0407  0.9137
  647TMC3    O2 9640   3.373   4.588  15.237  0.4670  0.2042  0.6524
  648TMC3    C1 9641   2.617   2.785  16.084 -0.0221 -0.7292  0.3027
  648TMC3    C2 9642   2.576   2.657  16.057  0.7153 -0.3048 -1.0063
  648TMC3    C3 9643   2.504   2.644  15.941  0.0927  0.1699  0.4201
  648TMC3    C4 9644   2.589   2.893  16.001 -1.0494 -0.8508  0.2367
  648TMC3    C5 9645   2.521   2.867  15.887  0.1939  0.0752 -0.0722
  648TMC3    C6 9646   2.470   2.745  15.857  0.0337 -0.3302 -0.7560
  648TMC3     C 9647   2.676   2.818  16.213  0.1369  0.0019  0.0513
  648TMC3     O 9648   2.704   2.935  16.224  0.8844 -0.4246 -0.1963
  648TMC3     H 9649   2.569   2.575  16.128  0.9919 -1.1562 -1.9736
  648TMC3    H1 9650   2.619   2.993  16.029 -1.1653 -0.4288 -1.1362
  648TMC3    H2 9651   2.408   2.729  15.770 -0.7500 -0.4072 -0.1882
  648TMC3    C7 9652   2.461   2.979  15.813 -0.2176 -0.7996  1.1177
  648TMC3    C8 9653   2.489   2.510  15.882 -0.1416 -0.6475 -0.7457
  648TMC3    O1 9654   2.428   2.965  15.699 -0.2079 -0.7836 -0.0438
  648TMC3    O2 9655   2.386   2.492  15.817 -0.1134  0.9890  0.3010
  649TMC3    C1 9656   1.409   3.978  13.114 -1.0029 -0.2640  0.0028
  649TMC3    C2 9657   1.532   3.985  13.052 -0.8639  1.0273  0.2606
  649TMC3    C3 9658   1.647   3.965  13.126 -0.1220 -0.4965 -0.6521
  649TMC3    C4 9659   1.402   3.958  13.249  0.5116  0.4801  0.1732
  649TMC3    C5 9660   1.515   3.938  13.319  0.1579 -0.1875 -0.9314
  649TMC3    C6 9661   1.637   3.934  13.264  0.7039 -0.1196 -0.2916
  649TMC3     C 9662   1.303   4.052  13.044  0.1791 -0.5326  0.5310
  649TMC3     O 9663   1.226   4.114  13.120  0.7723 -0.1770  0.4148
  649TMC3     H 9664   1.550   4.007  12.947 -1.5917  0.5620  0.0364
  649TMC3    H1 9665   1.307   3.949  13.299  0.5468  1.2007  0.3602
  649TMC3    H2 9666   1.732   3.925  13.316  0.7383 -1.5638 -0.6264
  649TMC3    C7 9667   1.500   3.898  13.458  0.2940  0.1560 -0.8606
  649TMC3    C8 9668   1.783   3.979  13.070 -0.0981  0.4303 -0.6661
  649TMC3    O1 9669   1.398   3.929  13.520  0.2166 -0.3716 -0.0426
  649TMC3    O2 9670   1.877   3.928  13.130 -0.2318 -0.1383 -0.3194
  650TMC3    C1 9671   3.911   0.695  13.026 -0.0350  0.0263 -0.2196
  650TMC3    C2 9672   3.841   0.813  13.052  0.5426  0.0994 -0.5281
  650TMC3    C3 9673   3.813   0.898  12.954 -0.3866  0.3239  0.3406
  650TMC3    C4 9674   3.955   0.654  12.901  0.2358  0.8842 -0.4736
  650TMC3    C5 9675   3.929   0.751  12.812 -0.0566  0.4062  0.0273
  650TMC3    C6 9676   3.875   0.879  12.831  0.2060  0.4749  0.2604
  650TMC3     C 9677   3.943   0.616  13.143 -0.1300 -0.3081  0.5529
  650TMC3     O 9678   3.889   0.652  13.250 -0.4563 -0.4496  0.1636
  650TMC3     H 9679   3.809   0.838  13.153  1.2386  0.2404 -0.3417
  650TMC3    H1 9680   3.988   0.555  12.873 -1.0157  0.1687  0.5600
  650TMC3    H2 9681   3.871   0.953  12.752  2.4917  0.0315 -0.2578
  650TMC3    C7 9682   3.993   0.723  12.688  0.1141  0.1231  0.6074
  650TMC3    C8 9683   3.741   1.024  12.962 -0.6875  0.0999  0.1197
  650TMC3    O1 9684   4.010   0.607  12.664 -0.0946 -0.3527 -0.1361
  650TMC3    O2 9685   3.771   1.107  12.875 -0.4531  0.2766  0.5389
  651MPD2     C 9686   2.688   3.030  10.994 -0.0376 -0.6259  0.5554
  651MPD2    C1 9687   2.715   3.098  11.108  0.3370  0.3886 -0.0808
  651MPD2    C2 9688   2.830   3.080  11.175  0.2115 -0.2791  0.0341
  651MPD2    C3 9689   2.928   3.009  11.113 -0.6418 -0.4575  0.2519
  651MPD2    C4 9690   2.902   2.929  11.007 -0.4318 -0.0294  0.2367
  651MPD2    C5 9691   2.774   2.938  10.952 -0.7954 -0.3882  0.9855
  651MPD2     H 9692   2.861   3.143  11.257 -0.2209 -0.3046  0.2142
  651MPD2    H1 9693   2.963   2.854  10.958 -1.7108 -1.1104  0.2739
  651MPD2    H2 9694   2.591   3.028  10.945  0.2244 -0.9051  0.0492
  651MPD2    H3 9695   2.753   2.856  10.884 -0.9541  0.3533  0.1446
  651MPD2     N 9696   3.054   3.003  11.175  0.3858  0.2114  0.0181
  651MPD2    H5 9697   3.080   3.073  11.243  0.4569  0.0503  0.1556
  651MPD2    N1 9698   2.623   3.189  11.165  0.2191  0.4332 -0.0696
  651MPD2    H7 9699   2.640   3.220  11.260  2.9737  0.7026 -0.6627
  652TMC3    C1 9700   3.511   2.912  11.180 -0.5204 -0.3770  0.7050
  652TMC3    C2 9701   3.386   2.872  11.185 -0.3708 -0.1717  1.0059
  652TMC3    C3 9702   3.281   2.967  11.170 -0.8673 -0.0948  0.3497
  652TMC3    C4 9703   3.538   3.045  11.158  0.8323 -0.3984  0.2851
  652TMC3    C5 9704   3.438   3.132  11.137 -0.0636 -0.0223 -0.3117
  652TMC3    C6 9705   3.303   3.099  11.157 -0.1507 -0.5393  0.3190
  652TMC3     C 9706   3.622   2.832  11.228  0.0448 -0.3329  0.1079
  652TMC3     O 9707   3.599   2.759  11.324 -0.0059 -0.1975  0.1154
  652TMC3     H 9708   3.370   2.765  11.179 -0.2715 -0.0914 -0.9179
  652TMC3    H1 9709   3.640   3.081  11.156  1.9570 -3.5943 -0.8956
  652TMC3    H2 9710   3.233   3.180  11.170  0.0994 -0.6391  2.3244
  652TMC3    C7 9711   3.480   3.261  11.105 -0.7263 -0.9360  0.4205
  652TMC3    C8 9712   3.152   2.914  11.142  0.4201 -0.3750  0.3242
  652TMC3    O1 9713   3.554   3.315  11.184 -0.0234  0.0412 -0.4016
  652TMC3    O2 9714   3.146   2.804  11.084 -0.3192  0.5605 -0.6193
  653MPD2     C 9715   2.133   2.929   0.118  0.3855 -0.5004 -0.0703
  653MPD2    C1 9716   2.092   3.033   0.035 -0.1979 -0.3936 -0.5397
  653MPD2    C2 9717   1.978   3.016  17.696  0.2491 -0.4592  0.3022
  653MPD2    C3 9718   1.910   2.897  17.703 -0.2473 -0.6115 -0.5542
  653MPD2    C4 9719   1.952   2.788   0.042 -0.7041 -0.2326 -0.2526
  653MPD2    C5 9720   2.060   2.811   0.126  0.3415  0.0688 -0.3015
  653MPD2     H 9721   1.937   3.096  17.635 -2.0404  0.5211  3.1544
  653MPD2    H1 9722   1.896   2.695   0.047  0.9674 -1.0982  1.8991
  653MPD2    H2 9723   2.224   2.929   0.178 -0.7417  0.7554  1.6254
  653MPD2    H3 9724   2.094   2.718   0.171 -0.1812  0.1316  0.2335
  653MPD2     N 9725   1.801   2.876  17.614  0.2691 -0.2160 -0.2706
  653MPD2    H5 9726   1.767   2.947  17.550  0.8248  2.4088  2.3432
  653MPD2    N1 9727   2.153   3.156   0.045  0.3997  0.7360 -0.2990
  653MPD2    H7 9728   2.132   3.220  17.710 -0.4419  1.0630  0.2119
  654TMC3    C1 9729   1.625   2.762  17.499 -0.1741 -0.4388 -0.5057
  654TMC3    C2 9730   1.563   2.881  17.480 -0.3506  0.2526 -0.2308
  654TMC3    C3 9731   1.459   2.888  17.383 -0.7265  0.6050  0.5893
  654TMC3    C4 9732   1.588   2.648  17.424  0.5718 -0.0438 -0.5800
  654TMC3    C5 9733   1.486   2.655  17.333 -0.1307  0.4372 -0.0466
  654TMC3    C6 9734   1.435   2.785  17.296  0.1576 -1.2965 -0.0695
  654TMC3     C 9735   1.734   2.752  17.588 -0.9144  0.8497  0.1575
  654TMC3     O 9736   1.746   2.643  17.642 -0.2023 -0.7030  0.5676
  654TMC3     H 9737   1.568   2.961  17.552 -0.6816  0.6840 -0.6899
  654TMC3    H1 9738   1.643   2.557  17.441  1.1942 -0.1282 -2.9891
  654TMC3    H2 9739   1.352   2.786  17.226 -0.5154  0.4251  0.7587
  654TMC3    C7 9740   1.460   2.541  17.244 -0.2747 -0.7418 -0.3207
  654TMC3    C8 9741   1.370   3.006  17.373  0.8583 -0.1536  0.2683
  654TMC3    O1 9742   1.404   2.559  17.139  0.0200 -0.3953  0.5660
  654TMC3    O2 9743   1.272   2.999  17.302  0.1646  0.7729  0.3624
  655MPD2     C 9744   3.226   2.960  15.890  0.2722  0.6294 -0.1785
  655MPD2    C1 9745   3.118   2.979  15.792  0.4536 -0.5461 -0.3550
  655MPD2    C2 9746   3.117   2.897  15.679  0.0042  0.5139  0.2282
  655MPD2    C3 9747   3.207   2.792  15.662 -0.3827  0.6131  0.1457
  655MPD2    C4 9748   3.309   2.777  15.755 -0.8106 -0.6846  0.3616
  655MPD2    C5 9749   3.314   2.854  15.868 -0.6116 -0.6442  0.0002
  655MPD2     H 9750   3.029   2.910  15.616  1.7842 -0.6081 -2.4533
  655MPD2    H1 9751   3.372   2.689  15.753 -1.5978 -1.2300 -0.5036
  655MPD2    H2 9752   3.241   3.021  15.978  3.2659  0.8648 -0.8743
  655MPD2    H3 9753   3.394   2.836  15.938  1.9362  0.5082 -2.6302
  655MPD2     N 9754   3.208   2.709  15.546  0.1079 -0.0414  0.2275
  655MPD2    H5 9755   3.275   2.633  15.549 -0.1264 -0.2874 -1.0636
  655MPD2    N1 9756   3.009   3.067  15.813  0.1371 -0.1593 -0.3294
  655MPD2    H7 9757   2.944   3.079  15.736  1.2080  1.2945 -1.0086
  656TMC3    C1 9758   2.860   3.215  15.921  0.5568 -0.2796  0.1209
  656TMC3    C2 9759   2.787   3.240  16.035 -0.0562  0.0408  0.3704
  656TMC3    C3 9760   2.686   3.325  16.042 -0.0135 -0.0233 -0.5174
  656TMC3    C4 9761   2.821   3.283  15.809 -0.1895  0.1859  0.0464
  656TMC3    C5 9762   2.715   3.369  15.813 -0.2932  0.1817  0.8885
  656TMC3    C6 9763   2.648   3.390  15.928  0.2395  0.0538  0.7397
  656TMC3     C 9764   2.985   3.139  15.931 -0.3695  0.2355  0.8267
  656TMC3     O 9765   3.027   3.116  16.047 -0.3744 -0.0255  0.3329
  656TMC3     H 9766   2.809   3.180  16.123  2.6235 -2.0487 -1.7458
  656TMC3    H1 9767   2.886   3.267  15.723  0.8554 -0.5078  0.9741
  656TMC3    H2 9768   2.559   3.452  15.927  0.9676  1.0639 -1.5982
  656TMC3    C7 9769   2.667   3.440  15.695 -0.2607  0.4470  0.7758
  656TMC3    C8 9770   2.594   3.316  16.150 -0.1556 -0.7256  0.6613
  656TMC3    O1 9771   2.691   3.398  15.583 -0.3766 -0.5660  0.2340
  656TMC3    O2 9772   2.527   3.211  16.155  0.1457  0.3618  0.5282
  657TMC3    C1 9773   2.517   1.679  14.455  0.3059  0.5504  0.5169
  657TMC3    C2 9774   2.492   1.555  14.505  0.1760 -0.2251  0.1894
  657TMC3    C3 9775   2.361   1.523  14.526 -0.2264  0.5163  0.1371
  657TMC3    C4 9776   2.427   1.781  14.445  0.2926 -0.3956 -0.1989
  657TMC3    C5 9777   2.299   1.745  14.476 -0.9190 -0.3343 -0.5008
  657TMC3    C6 9778   2.265   1.619  14.508 -0.1162  0.0644  0.4376
  657TMC3     C 9779   2.649   1.718  14.455  0.0062 -0.3915  0.7870
  657TMC3     O 9780   2.685   1.809  14.383 -0.0516 -0.4254  0.2521
  657TMC3     H 9781   2.574   1.486  14.521 -1.4750 -2.3376 -0.3966
  657TMC3    H1 9782   2.464   1.881  14.425  2.4366 -0.9243  1.1359
  657TMC3    H2 9783   2.165   1.584  14.529  0.0590  0.0336  1.2337
  657TMC3    C7 9784   2.225   1.835  14.559  0.0267 -0.2980  0.5752
  657TMC3    C8 9785   2.312   1.391  14.562  0.0748 -0.0264 -0.2407
  657TMC3    O1 9786   2.138   1.783  14.624  0.2795 -0.4304  0.0355
  657TMC3    O2 9787   2.193   1.375  14.589  0.3355 -0.1573  0.3681
  658MPD2     C 9788   3.539   2.309  14.846 -0.0172 -0.5240  0.1114
  658MPD2    C1 9789   3.453   2.404  14.903  0.2294 -0.5711  0.1941
  658MPD2    C2 9790   3.415   2.506  14.815 -0.2114 -0.0049 -0.5234
  658MPD2    C3 9791   3.452   2.499  14.682 -0.1493  0.2611 -0.2196
  658MPD2    C4 9792   3.558   2.424  14.639 -0.2701 -0.1509  0.6252
  658MPD2    C5 9793   3.599   2.325  14.725  0.3269 -0.0050  0.4520
  658MPD2     H 9794   3.335   2.576  14.833  0.6005  0.2300  2.1603
  658MPD2    H1 9795   3.600   2.419  14.539  0.8929  0.0358  1.1039
  658MPD2    H2 9796   3.571   2.224  14.905  1.7088  0.8779  1.1781
  658MPD2    H3 9797   3.669   2.251  14.689  0.0016  0.3661 -0.9454
  658MPD2     N 9798   3.370   2.579  14.601  0.2472 -0.0346  0.0147
  658MPD2    H5 9799   3.302   2.638  14.648 -0.3078 -0.8951  0.2945
  658MPD2    N1 9800   3.409   2.393  15.036 -0.3911  0.5590  0.6849
  658MPD2    H7 9801   3.413   2.298  15.071  1.9580  0.6346  0.5960
  659TMC3    C1 9802   3.265   2.453  15.225 -0.1446 -0.0097  0.0663
  659TMC3    C2 9803   3.243   2.555  15.316 -0.1655 -0.0159 -0.0192
  659TMC3    C3 9804   3.117   2.587  15.362 -0.7307 -0.1489 -0.7946
  659TMC3    C4 9805   3.150   2.381  15.191  0.2344  0.2039  0.3093
  659TMC3    C5 9806   3.028   2.423  15.237 -0.2800  0.0736  0.3211
  659TMC3    C6 9807   3.004   2.530  15.319  0.0477 -0.5766 -0.3025
  659TMC3     C 9808   3.341   2.495  15.106 -0.0821  0.0069 -0.0725
  659TMC3     O 9809   3.330   2.615  15.083  0.1653  0.5096 -0.0388
  659TMC3     H 9810   3.315   2.635  15.325 -0.2679 -0.0887  1.4516
  659TMC3    H1 9811   3.168   2.306  15.114  1.3993  2.9742 -2.1430
  659TMC3    H2 9812   2.908   2.560  15.360 -0.4847 -1.0829 -1.1790
  659TMC3    C7 9813   2.905   2.378  15.177 -0.4312  0.0895 -0.4562
  659TMC3    C8 9814   3.109   2.718  15.442 -0.1203 -0.0268  0.2073
  659TMC3    O1 9815   2.806   2.446  15.194 -0.5964  0.6124 -0.0957
  659TMC3    O2 9816   3.002   2.773  15.454  0.1180 -0.6067 -0.5597
  660MPD2     C 9817   1.418   1.271  12.958 -0.4213 -0.0858 -0.0473
  660MPD2    C1 9818   1.283   1.297  12.936 -0.7836  0.4325 -0.2621
  660MPD2    C2 9819   1.189   1.211  12.983  0.4562 -0.6242  0.0547
  660MPD2    C3 9820   1.231   1.122  13.083  0.1763 -0.6844 -0.0912
  660MPD2    C4 9821   1.368   1.109  13.110  0.3728  0.2229  0.0824
  660MPD2    C5 9822   1.461   1.179  13.043  0.3755  0.2805  1.0991
  660MPD2     H 9823   1.086   1.208  12.949  0.6920 -1.3133 -0.6103
  660MPD2    H1 9824   1.406   1.043  13.187 -0.6346  0.3910  0.7182
  660MPD2    H2 9825   1.502   1.321  12.911  0.0717 -1.6020 -0.8044
  660MPD2    H3 9826   1.566   1.167  13.067  0.3673 -0.7752  0.5820
  660MPD2     N 9827   1.142   1.036  13.154  0.6943  0.3397 -0.3444
  660MPD2    H5 9828   1.179   0.965  13.216  0.2073 -1.3401 -1.9666
  660MPD2    N1 9829   1.254   1.400  12.841  0.6790  0.0148  0.0384
  660MPD2    H7 9830   1.331   1.446  12.794  1.2421 -1.7332 -0.7241
  661TMC3    C1 9831   1.127   1.548  12.713  0.2836 -0.6816 -0.0083
  661TMC3    C2 9832   1.190   1.523  12.595  0.1221  1.1152  1.0640
  661TMC3    C3 9833   1.136   1.585  12.477 -0.1848 -0.6053 -0.6923
  661TMC3    C4 9834   1.022   1.633  12.725 -0.0325 -0.5834  0.7334
  661TMC3    C5 9835   0.958   1.666  12.611  0.4369 -0.6158  1.1406
  661TMC3    C6 9836   1.015   1.653  12.487 -0.6593 -0.0211 -0.5617
  661TMC3     C 9837   1.132   1.454  12.816  0.5448 -1.0104 -0.4123
  661TMC3     O 9838   1.028   1.434  12.880 -0.6658  0.2090  0.5524
  661TMC3     H 9839   1.279   1.460  12.590 -1.8890 -1.6111 -0.2176
  661TMC3    H1 9840   0.976   1.654  12.821  0.5196 -1.2571  1.1353
  661TMC3    H2 9841   0.979   1.708  12.400  1.2640  1.7571 -0.2533
  661TMC3    C7 9842   0.828   1.733  12.613  0.2065 -0.0773  0.6770
  661TMC3    C8 9843   1.219   1.621  12.356  0.2923 -0.2437 -0.6302
  661TMC3    O1 9844   0.803   1.809  12.707  0.2639 -0.2449  0.3768
  661TMC3    O2 9845   1.188   1.722  12.293  0.1865 -0.4281  0.0173
  662MPD2     C 9846   1.509   1.494  17.402  0.4598  0.4535  0.1778
  662MPD2    C1 9847   1.489   1.588  17.498 -0.1249 -0.2386  0.1549
  662MPD2    C2 9848   1.447   1.716  17.459  0.2063 -0.1672  1.0722
  662MPD2    C3 9849   1.411   1.738  17.332 -0.8743  0.3676  0.4048
  662MPD2    C4 9850   1.424   1.643  17.237 -0.4880 -0.2170 -1.0000
  662MPD2    C5 9851   1.473   1.520  17.271  0.1231  0.2206 -0.3281
  662MPD2     H 9852   1.435   1.794  17.533 -1.1870 -2.5088  3.3115
  662MPD2    H1 9853   1.410   1.653  17.130 -0.9062  0.0312 -0.9205
  662MPD2    H2 9854   1.551   1.398  17.430 -0.8864 -0.4088 -0.7523
  662MPD2    H3 9855   1.493   1.447  17.194 -0.4626  1.1358 -1.3542
  662MPD2     N 9856   1.367   1.867  17.283 -0.0677  0.4670 -0.0426
  662MPD2    H5 9857   1.349   1.880  17.184 -1.9789  1.4861  0.4324
  662MPD2    N1 9858   1.530   1.574  17.638  0.0939  0.4653  0.0110
  662MPD2    H7 9859   1.510   1.649  17.703  0.4692  1.9904 -1.6601
  663TMC3    C1 9860   1.570   1.476   0.099  0.2650  0.5552  0.6069
  663TMC3    C2 9861   1.540   1.600   0.161  0.6118 -0.5374  0.1469
  663TMC3    C3 9862   1.544   1.598   0.300 -0.5572  0.2960  0.4195
  663TMC3    C4 9863   1.589   1.362   0.175 -0.8129 -0.5858  0.0267
  663TMC3    C5 9864   1.575   1.377   0.317 -0.0855  0.9132 -0.2919
  663TMC3    C6 9865   1.558   1.492   0.381  0.0848 -0.4436 -0.3978
  663TMC3     C 9866   1.575   1.460  17.700 -0.0150  0.1960  0.2660
  663TMC3     O 9867   1.605   1.351  17.657 -0.2335  0.3614 -0.5000
  663TMC3     H 9868   1.550   1.697   0.113  1.1141 -0.3810  0.5646
  663TMC3    H1 9869   1.621   1.270   0.127  2.7518  1.2969 -1.2052
  663TMC3    H2 9870   1.594   1.493   0.483  1.1904 -1.8201 -0.7867
  663TMC3    C7 9871   1.599   1.248   0.389 -0.0514 -0.5511 -0.4378
  663TMC3    C8 9872   1.434   1.681   0.351 -0.5900 -0.5931 -0.1791
  663TMC3    O1 9873   1.688   1.268   0.471  0.4750  0.2469  0.5258
  663TMC3    O2 9874   1.405   1.775   0.279 -0.1219 -0.2898 -0.1449
  664MPD2     C 9875   0.074   4.341   0.104 -0.4518  0.6086  0.2193
  664MPD2    C1 9876   4.734   4.398   0.004 -0.3264  0.0676 -0.5507
  664MPD2    C2 9877   4.606   4.356  17.737 -0.7598  0.3602  0.0079
  664MPD2    C3 9878   4.552   4.253   0.070 -0.6153  0.4035 -0.2730
  664MPD2    C4 9879   4.634   4.192   0.165  0.1315  0.2953 -0.2860
  664MPD2    C5 9880   0.031   4.239   0.178  0.0552  0.0607  0.7436
  664MPD2     H 9881   4.539   4.384  17.656  1.0489 -1.0855 -1.9980
  664MPD2    H1 9882   4.594   4.113   0.227  0.4864 -0.6833 -1.2974
  664MPD2    H2 9883   0.179   4.368   0.110 -0.4377  1.0003 -1.8787
  664MPD2    H3 9884   0.096   4.190   0.249  0.0644 -1.6693 -0.4647
  664MPD2     N 9885   4.409   4.224   0.070 -0.0275 -0.3921  0.0351
  664MPD2    H5 9886   4.350   4.281   0.010 -2.1804 -0.4103  2.1368
  664MPD2    N1 9887   0.043   4.519  17.687 -0.2228 -0.3087 -0.1703
  664MPD2    H7 9888   0.124   4.561  17.732  0.3129 -2.1213  0.5700
  665TMC3    C1 9889   4.207   4.142   0.140  0.5726  0.4506 -0.7212
  665TMC3    C2 9890   4.151   4.040   0.211 -0.6761  0.2478  0.0478
  665TMC3    C3 9891   4.090   4.064   0.323 -0.2551  0.3206  0.0862
  665TMC3    C4 9892   4.183   4.269   0.176 -0.1837 -0.3831 -0.1597
  665TMC3    C5 9893   4.109   4.289   0.285 -0.0561 -0.3933 -0.1126
  665TMC3    C6 9894   4.064   4.190   0.367 -0.0203  0.2810  0.5820
  665TMC3     C 9895   4.350   4.117   0.133  0.0119  0.3272  0.3433
  665TMC3     O 9896   4.403   4.023   0.190  0.2056  0.1549  0.6964
  665TMC3     H 9897   4.188   3.943   0.181 -1.0620  1.0900 -3.1612
  665TMC3    H1 9898   4.208   4.357   0.119  0.8172  0.2447  1.2429
  665TMC3    H2 9899   3.993   4.201   0.448 -0.3900  1.6488  0.0671
  665TMC3    C7 9900   4.088   4.424   0.328  1.0617  0.4114  0.0176
  665TMC3    C8 9901   4.059   3.944   0.407  0.1890  0.7952 -0.6821
  665TMC3    O1 9902   4.097   4.514   0.250  0.3913  0.0064 -0.3058
  665TMC3    O2 9903   4.048   3.840   0.340  0.3137 -0.0221  0.4381
  666TMC3    C1 9904   2.317   3.771  10.243  0.2242 -0.6794  0.3377
  666TMC3    C2 9905   2.441   3.723  10.229 -0.4675 -0.2532  0.2977
  666TMC3    C3 9906   2.551   3.794  10.275  0.4550 -0.2293 -0.2890
  666TMC3    C4 9907   2.302   3.893  10.303 -0.2170 -1.1727 -0.2246
  666TMC3    C5 9908   2.413   3.965  10.342 -0.2941 -0.1699 -0.8107
  666TMC3    C6 9909   2.541   3.919  10.323  0.6578 -0.3011  0.7213
  666TMC3     C 9910   2.210   3.672  10.248 -0.1594 -0.1036  0.0611
  666TMC3     O 9911   2.189   3.590  10.159 -0.1374  0.5861 -0.2589
  666TMC3     H 9912   2.453   3.625  10.182 -0.6828 -0.6604  1.0910
  666TMC3    H1 9913   2.202   3.936  10.309  1.1276  1.9603 -0.3113
  666TMC3    H2 9914   2.622   3.987  10.345  2.0107 -1.2839 -1.2996
  666TMC3    C7 9915   2.395   4.104  10.380  0.8096  0.2390 -0.0858
  666TMC3    C8 9916   2.675   3.756  10.211 -0.3693  0.3697  0.0420
  666TMC3    O1 9917   2.479   4.159  10.448  0.4000  0.2580 -0.8435
  666TMC3    O2 9918   2.782   3.801  10.258 -0.2019  0.5239 -0.2238
  667MPD2     C 9919   0.619   4.007  15.290 -0.0457 -0.5760 -0.3377
  667MPD2    C1 9920   0.501   4.078  15.289  0.0822 -0.0555 -0.4885
  667MPD2    C2 9921   0.382   4.014  15.256  0.2527  1.0566 -0.1175
  667MPD2    C3 9922   0.382   3.874  15.235  0.3984 -0.2360  0.3908
  667MPD2    C4 9923   0.506   3.805  15.243 -0.4620  0.0895  0.6998
  667MPD2    C5 9924   0.620   3.865  15.272 -0.0680 -0.2259 -0.1415
  667MPD2     H 9925   0.298   4.080  15.240  0.8063  1.6480 -0.6015
  667MPD2    H1 9926   0.508   3.697  15.242  1.4363  0.1439 -0.8621
  667MPD2    H2 9927   0.717   4.047  15.314  0.1406 -1.0980 -0.2321
  667MPD2    H3 9928   0.709   3.809  15.297 -0.5346 -0.3018  1.3424
  667MPD2     N 9929   0.260   3.805  15.192 -0.3155 -0.1033 -0.3024
  667MPD2    H5 9930   0.263   3.704  15.190  2.3296 -0.0282  0.0294
  667MPD2    N1 9931   0.490   4.214  15.316 -0.4810 -0.1545  0.1952
  667MPD2    H7 9932   0.398   4.256  15.303  0.2648  1.4886  0.2813
  668TMC3    C1 9933   0.559   4.423  15.395  0.1183 -0.1061 -0.3429
  668TMC3    C2 9934   0.639   4.531  15.381  0.1975  0.2783 -0.6921
  668TMC3    C3 9935   0.635   4.621  15.488  0.0403 -0.1925  0.7351
  668TMC3    C4 9936   0.466   4.413  15.497  0.4526  0.2868  0.1886
  668TMC3    C5 9937   0.459   4.510  15.595  0.0725 -0.1897  0.1860
  668TMC3    C6 9938   0.547   4.615  15.594  0.5428  1.0384  0.8443
  668TMC3     C 9939   0.599   4.293  15.352  0.9118 -0.2434  0.0894
  668TMC3     O 9940   0.722   4.277  15.350  0.1392  0.1908  0.4015
  668TMC3     H 9941   0.721   4.538  15.311  1.4314 -0.9936  0.6276
  668TMC3    H1 9942   0.404   4.324  15.498 -0.2172  0.7495 -0.4512
  668TMC3    H2 9943   0.542   4.693  15.668 -1.3851  2.0990 -0.4114
  668TMC3    C7 9944   0.413   4.477  15.733  0.0467  0.5095 -0.1321
  668TMC3    C8 9945   0.720   4.734  15.496  0.0833 -0.3307  0.0214
  668TMC3    O1 9946   0.413   4.574  15.807 -0.0445  0.1875 -0.5686
  668TMC3    O2 9947   0.745   0.038  15.607 -0.1664 -0.0017  0.5163
  669TMC3    C1 9948   3.377   4.097  14.609 -1.1488 -0.3757  0.0922
  669TMC3    C2 9949   3.253   4.122  14.554  0.1761 -0.4071 -0.2834
  669TMC3    C3 9950   3.253   4.182  14.433 -1.0744 -0.0932  0.5749
  669TMC3    C4 9951   3.492   4.116  14.546  0.2559  0.4460 -0.6918
  669TMC3    C5 9952   3.478   4.173  14.415 -0.2998  0.2025  0.4176
  669TMC3    C6 9953   3.361   4.205  14.359  1.0703 -0.1350 -0.8425
  669TMC3     C 9954   3.374   4.062  14.749 -0.2901 -0.3553  0.4854
  669TMC3     O 9955   3.270   4.032  14.800 -0.5501 -0.3592 -0.1503
  669TMC3     H 9956   3.161   4.108  14.609 -0.4220  1.2431 -0.8719
  669TMC3    H1 9957   3.592   4.103  14.585 -0.7098 -0.2864  1.4851
  669TMC3    H2 9958   3.349   4.263  14.268 -3.2922 -0.1479 -0.3084
  669TMC3    C7 9959   3.603   4.237  14.369 -0.2400 -0.0362 -0.9343
  669TMC3    C8 9960   3.128   4.244  14.391  0.6186  0.5199 -0.1799
  669TMC3    O1 9961   3.690   4.265  14.454  0.2472 -0.2936  0.5312
  669TMC3    O2 9962   3.025   4.181  14.411 -0.4585 -0.2542 -0.2836
  670MPD2     C 9963   1.321   1.979  13.490 -0.0847 -0.4036 -0.1884
  670MPD2    C1 9964   1.416   2.028  13.578  0.3602  0.4732 -0.1052
  670MPD2    C2 9965   1.399   2.007  13.714  0.5137 -0.5982  0.6682
  670MPD2    C3 9966   1.297   1.929  13.765  1.0327  0.0548 -0.6840
  670MPD2    C4 9967   1.215   1.878  13.674 -0.1103 -0.0376  0.2588
  670MPD2    C5 9968   1.222   1.899  13.540 -0.5671 -0.4196 -0.6522
  670MPD2     H 9969   1.468   2.054  13.784 -0.0895 -0.9843  1.5328
  670MPD2    H1 9970   1.142   1.805  13.705 -1.3284  0.5475 -1.2341
  670MPD2    H2 9971   1.320   1.996  13.383 -0.1676 -0.6442 -0.2241
  670MPD2    H3 9972   1.150   1.851  13.476 -1.5343  0.0913  0.0528
  670MPD2     N 9973   1.294   1.905  13.905  0.2726 -0.1142 -0.7949
  670MPD2    H5 9974   1.366   1.952  13.959 -0.8925  0.6126  0.1152
  670MPD2    N1 9975   1.528   2.106  13.542  0.3040 -0.6380  0.2681
  670MPD2    H7 9976   1.592   2.125  13.618  1.1057  0.1849 -0.6079
  671TMC3    C1 9977   1.221   1.819  14.113 -0.6204  0.4408  0.0119
  671TMC3    C2 9978   1.350   1.800  14.162 -0.2202 -0.2061  0.5531
  671TMC3    C3 9979   1.356   1.719  14.272  0.2652  0.2258  0.0781
  671TMC3    C4 9980   1.106   1.770  14.172 -0.3731  0.1551  0.6246
  671TMC3    C5 9981   1.123   1.690  14.283 -0.2815  0.6757 -0.2073
  671TMC3    C6 9982   1.249   1.659  14.333  0.2572  0.2502  0.1232
  671TMC3     C 9983   1.204   1.824  13.970 -0.1145  0.0694 -0.1225
  671TMC3     O 9984   1.108   1.759  13.933  0.2072 -0.7597 -0.0393
  671TMC3     H 9985   1.438   1.858  14.138 -0.1241 -0.7840 -0.4712
  671TMC3    H1 9986   1.011   1.799  14.127 -0.3278  0.4759  0.7328
  671TMC3    H2 9987   1.269   1.594  14.417  2.5119  2.9694  1.6984
  671TMC3    C7 9988   1.037   1.573  14.280  1.1015  0.1646 -0.5654
  671TMC3    C8 9989   1.486   1.683  14.319  0.1690  0.7397 -0.5214
  671TMC3    O1 9990   1.098   1.469  14.250 -0.2976 -0.2707  0.8286
  671TMC3    O2 9991   1.567   1.694  14.234 -0.0275  0.3354  0.1241
  672MPD2     C 9992   2.088   2.751   0.964  0.5654  0.0553  0.7451
  672MPD2    C1 9993   2.157   2.634   0.950  0.3946  0.2261 -0.1914
  672MPD2    C2 9994   2.296   2.637   0.971 -0.1323 -0.4748  0.0327
  672MPD2    C3 9995   2.358   2.755   1.003 -0.3333 -0.6115 -0.0280
  672MPD2    C4 9996   2.287   2.871   1.014 -0.3214 -0.0156 -0.0994
  672MPD2    C5 9997   2.148   2.872   0.994  0.2873 -0.2137 -0.0375
  672MPD2     H 9998   2.349   2.543   0.983  0.8739  0.3003  1.6539
  672MPD2    H1 9999   2.334   2.965   1.039  2.2975 -0.9782 -1.3748
  672MPD2    H210000   1.980   2.754   0.961  0.6139  1.2434  0.0467
  672MPD2    H310001   2.092   2.963   1.009 -0.9091 -1.4109  2.6225
  672MPD2     N10002   2.498   2.760   1.041 -0.3296  0.5133 -0.1391
  672MPD2    H510003   2.540   2.850   1.058 -0.0291  0.3438  0.0262
  672MPD2    N110004   2.096   2.509   0.905 -0.2781 -0.2603 -0.7868
  672MPD2    H710005   2.159   2.431   0.886 -0.1357 -0.3242 -0.0859
  673TMC3    C110006   1.919   2.363   0.835  0.4986  0.2172  0.9967
  673TMC3    C210007   1.996   2.254   0.807  0.3050 -0.2321  0.2448
  673TMC3    C310008   1.937   2.134   0.788 -0.0618 -0.4404 -0.2472
  673TMC3    C410009   1.785   2.359   0.841  0.0477 -0.4196  0.3767
  673TMC3    C510010   1.724   2.238   0.823 -0.3636 -0.4324  0.2361
  673TMC3    C610011   1.796   2.128   0.793 -0.4591 -0.0064  0.1925
  673TMC3     C10012   1.960   2.493   0.868 -0.4743 -0.2388 -0.1047
  673TMC3     O10013   1.892   2.587   0.822 -0.0606  0.3197 -0.1103
  673TMC3     H10014   2.105   2.250   0.809  0.3762  2.0957  0.9256
  673TMC3    H110015   1.724   2.444   0.871  0.3885 -0.6670  1.7277
  673TMC3    H210016   1.746   2.032   0.786 -4.5711  2.0205  1.7190
  673TMC3    C710017   1.583   2.233   0.822  0.4839  0.6009 -0.1078
  673TMC3    C810018   2.012   2.026   0.730  0.1837 -0.3471  0.1517
  673TMC3    O110019   1.524   2.133   0.854 -0.0181  0.1645 -0.4192
  673TMC3    O210020   1.951   1.943   0.666 -0.8905 -0.4467 -0.0564
  674MPD2     C10021   1.531   2.842   0.161  0.1258  0.7923 -0.6087
  674MPD2    C110022   1.419   2.766   0.157  0.4831  0.0244  0.0052
  674MPD2    C210023   1.299   2.818   0.108  0.7592  0.1096 -0.5026
  674MPD2    C310024   1.286   2.947   0.076 -0.2432  0.1534 -0.0268
  674MPD2    C410025   1.397   3.026   0.079 -0.1333  0.3152  0.4809
  674MPD2    C510026   1.521   2.972   0.115  0.9112 -0.2954  0.0138
  674MPD2     H10027   1.208   2.759   0.102 -0.2872  1.4070  2.8678
  674MPD2    H110028   1.392   3.123   0.030 -0.4864 -0.9647 -1.9967
  674MPD2    H210029   1.630   2.800   0.180 -0.0218  0.5577 -0.3506
  674MPD2    H310030   1.609   3.034   0.117  0.9229 -0.3302  0.5353
  674MPD2     N10031   1.158   2.979   0.025  0.5818  0.5782  0.1899
  674MPD2    H510032   1.085   2.908   0.025  2.2751 -1.1739  1.0984
  674MPD2    N110033   1.420   2.633   0.214 -0.4510 -0.1871  0.1409
  674MPD2    H710034   1.509   2.589   0.238 -1.3101 -1.6522  0.6671
  675TMC3    C110035   1.334   2.446   0.325 -0.0837 -0.8497  0.1760
  675TMC3    C210036   1.221   2.378   0.372  0.0866  0.1000 -0.2969
  675TMC3    C310037   1.237   2.265   0.442 -0.1026 -0.1142  0.4046
  675TMC3    C410038   1.462   2.399   0.352 -0.1098  0.3489  0.4963
  675TMC3    C510039   1.467   2.288   0.421  0.4063 -0.1388 -0.2136
  675TMC3    C610040   1.367   2.215   0.459 -0.5133  0.5687  0.7104
  675TMC3     C10041   1.308   2.570   0.259  0.7617  0.6046  0.2800
  675TMC3     O10042   1.196   2.615   0.269  0.1940 -0.5206  0.1296
  675TMC3     H10043   1.124   2.422   0.355 -0.3590 -0.4483  0.8673
  675TMC3    H110044   1.553   2.452   0.327  0.5616 -0.9001  0.2437
  675TMC3    H210045   1.389   2.126   0.517 -0.3820  1.1566  1.5734
  675TMC3    C710046   1.599   2.227   0.436  0.6682 -0.4298 -0.9584
  675TMC3    C810047   1.115   2.216   0.513 -0.5772  0.1130 -0.3358
  675TMC3    O110048   1.596   2.105   0.447 -0.1193  0.8084 -0.0569
  675TMC3    O210049   1.013   2.281   0.493  0.3230  0.6564 -0.1403
  676MPD2     C10050   3.686   0.443  11.275 -0.1468  0.5417  0.1360
  676MPD2    C110051   3.681   0.375  11.398  0.2344  0.2450  0.6724
  676MPD2    C210052   3.709   0.237  11.408 -1.1550 -0.0285 -0.0189
  676MPD2    C310053   3.741   0.162  11.290 -0.1287  0.2991  0.4043
  676MPD2    C410054   3.755   0.239  11.172  0.5121  0.5048 -0.3003
  676MPD2    C510055   3.717   0.374  11.165 -0.4503 -0.9039 -0.0262
  676MPD2     H10056   3.683   0.197  11.506  1.0485  1.5306  1.2088
  676MPD2    H110057   3.775   0.188  11.079 -1.0291 -1.1344  0.2507
  676MPD2    H210058   3.657   0.547  11.262  2.7091  1.2812 -0.4910
  676MPD2    H310059   3.734   0.417  11.066 -1.6079  0.8906  0.5559
  676MPD2     N10060   3.763   0.029  11.282 -0.7344  0.8389  0.2525
  676MPD2    H510061   3.784   4.724  11.191  1.2953  0.2924  0.9502
  676MPD2    N110062   3.648   0.447  11.513 -0.1016  0.0807  0.0613
  676MPD2    H710063   3.657   0.393  11.599 -2.4134  2.9432  2.1040
  677TMC3    C110064   3.600   0.625  11.658 -0.0284  0.3565  0.6010
  677TMC3    C210065   3.670   0.556  11.755 -0.1890 -0.1353 -1.2017
  677TMC3    C310066   3.669   0.605  11.882 -0.1816  0.0160  0.2583
  677TMC3    C410067   3.525   0.737  11.692  0.4875  0.0127 -0.1405
  677TMC3    C510068   3.531   0.779  11.824  0.4378  0.1861 -0.5367
  677TMC3    C610069   3.597   0.717  11.926  0.1274  0.2254  0.4155
  677TMC3     C10070   3.599   0.577  11.523 -0.1449  0.0206 -0.7999
  677TMC3     O10071   3.551   0.653  11.439  0.2451  0.0592 -0.5034
  677TMC3     H10072   3.748   0.485  11.728  0.2390  1.1695 -3.4014
  677TMC3    H110073   3.467   0.797  11.622 -1.6801  1.1388  2.6037
  677TMC3    H210074   3.621   0.762  12.022  0.8542  1.6701 -0.4391
  677TMC3    C710075   3.529   0.929  11.834  0.1728  0.4017 -0.2018
  677TMC3    C810076   3.744   0.532  11.977  0.3155  0.6751  0.1377
  677TMC3    O110077   3.516   0.978  11.946  0.1338  0.0350 -0.0428
  677TMC3    O210078   3.852   0.485  11.949  0.3412  0.3398 -0.1145
  678MPD2     C10079   0.677   0.323   1.420  0.0961 -0.1089  0.1335
  678MPD2    C110080   0.648   0.327   1.286  0.4842  0.5270 -0.2921
  678MPD2    C210081   0.546   0.395   1.239 -0.5337 -0.6080  0.1356
  678MPD2    C310082   0.449   0.451   1.328  0.1256  0.6754 -0.1320
  678MPD2    C410083   0.479   0.457   1.460  0.3241  0.8380 -0.3698
  678MPD2    C510084   0.588   0.385   1.500  0.0541 -0.6766 -0.5627
  678MPD2     H10085   0.538   0.412   1.133  0.8668  1.3904  0.3421
  678MPD2    H110086   0.426   0.508   1.540 -0.8058 -0.7599 -0.0951
  678MPD2    H210087   0.770   0.275   1.446  1.2978  1.8701 -0.5051
  678MPD2    H310088   0.609   0.388   1.606  1.2859  0.2834 -0.8406
  678MPD2     N10089   0.328   0.500   1.274  0.7154  0.6475 -0.3093
  678MPD2    H510090   0.323   0.485   1.173 -1.1651 -1.3302  0.0717
  678MPD2    N110091   0.731   0.265   1.184  0.9826  0.5010  0.4385
  678MPD2    H710092   0.697   0.282   1.090  0.8674 -0.1605  0.3637
  679TMC3    C110093   1.135   0.090   1.011  0.3555  0.0069 -0.1080
  679TMC3    C210094   1.038   0.082   1.109 -0.0057  0.2609  0.1531
  679TMC3    C310095   0.916   0.145   1.084  0.1685  0.2379 -0.9339
  679TMC3    C410096   1.107   0.153   0.890 -0.1864 -0.3389 -0.2952
  679TMC3    C510097   0.983   0.201   0.868 -0.2375 -0.0636 -0.3317
  679TMC3    C610098   0.889   0.206   0.967 -0.1414 -0.0848  0.7277
  679TMC3     C10099   1.279   0.061   1.040  0.1589  0.1891 -0.1133
  679TMC3     O10100   1.366   0.099   0.962 -0.5741  0.7288 -0.2798
  679TMC3     H10101   1.061   0.039   1.206 -0.2619  3.3314  1.5608
  679TMC3    H110102   1.179   0.150   0.809 -0.4451 -0.9999 -0.4993
  679TMC3    H210103   0.787   0.236   0.944  0.2598  2.6224  2.4376
  679TMC3    C710104   0.976   0.317   0.789  0.2151 -0.4663  0.1124
  679TMC3    C810105   0.844   0.189   1.206  0.4514  0.1689  0.6790
  679TMC3    O110106   0.864   0.359   0.767  0.4125  0.6382  0.4229
  679TMC3    O210107   0.907   0.181   1.309 -0.3467 -0.4356 -0.0092
  680MPD2     C10108   0.876   4.105  14.056  0.5372 -0.7022 -0.3627
  680MPD2    C110109   1.004   4.056  14.095  0.2705 -0.3047  0.4649
  680MPD2    C210110   1.100   4.146  14.122  0.3816  0.0210 -0.2011
  680MPD2    C310111   1.090   4.276  14.093  0.0130 -0.0598 -0.3764
  680MPD2    C410112   0.969   4.324  14.047 -0.3323  0.2704 -1.0065
  680MPD2    C510113   0.859   4.238  14.028 -0.3597 -1.0021  0.6283
  680MPD2     H10114   1.195   4.106  14.156  0.9277 -0.8782 -2.7952
  680MPD2    H110115   0.962   4.432  14.037  0.8815  0.6073  1.7462
  680MPD2    H210116   0.786   4.046  14.050  0.7817 -1.0283 -0.7975
  680MPD2    H310117   0.763   4.276  13.994 -0.3083  0.0793  1.7147
  680MPD2     N10118   1.208   4.362  14.094  0.1421 -0.1521  0.4608
  680MPD2    H510119   1.201   4.457  14.059 -2.7125 -0.9170 -1.0101
  680MPD2    N110120   1.048   3.922  14.118 -0.3787  0.3632  0.3363
  680MPD2    H710121   1.141   3.911  14.155  0.7479  4.3339 -1.3408
  681TMC3    C110122   1.047   3.692  14.132  0.4733  0.4256  0.2334
  681TMC3    C210123   1.027   3.654  14.261 -0.4067 -0.5235 -0.6031
  681TMC3    C310124   1.141   3.621  14.332  0.8375 -0.3255 -0.4864
  681TMC3    C410125   1.164   3.681  14.068 -0.3840 -0.0743 -0.0867
  681TMC3    C510126   1.273   3.652  14.139  0.0917  0.1443  1.1833
  681TMC3    C610127   1.265   3.614  14.273  0.1453 -0.1530  0.7710
  681TMC3     C10128   0.972   3.809  14.090 -0.0961 -0.5539  0.4888
  681TMC3     O10129   0.850   3.790  14.070 -0.3108  0.2842  0.0488
  681TMC3     H10130   0.939   3.679  14.318 -0.4489 -1.1613 -0.3935
  681TMC3    H110131   1.173   3.697  13.961  2.4150 -1.9069 -0.1390
  681TMC3    H210132   1.356   3.600  14.331  2.1837  0.9071 -2.1565
  681TMC3    C710133   1.403   3.629  14.069 -0.5409  0.0831  0.3379
  681TMC3    C810134   1.129   3.618  14.473  0.2816 -0.5419 -1.2567
  681TMC3    O110135   1.481   3.548  14.123  0.1491 -0.5220  0.0879
  681TMC3    O210136   1.032   3.555  14.517  0.0625  0.0505 -0.7511
  682MPD2     C10137   2.422   0.625  10.955  0.3110 -0.2074 -0.3640
  682MPD2    C110138   2.422   0.516  11.035 -0.2518 -0.3609 -0.5156
  682MPD2    C210139   2.479   0.531  11.158 -0.3806  0.1840 -0.8408
  682MPD2    C310140   2.552   0.647  11.195 -0.4995 -0.1080 -0.5635
  682MPD2    C410141   2.561   0.752  11.111 -0.6758 -0.7824  0.3588
  682MPD2    C510142   2.483   0.742  10.997  1.0072  0.8354 -0.0997
  682MPD2     H10143   2.481   0.445  11.223 -3.0927  2.9769  2.9319
  682MPD2    H110144   2.618   0.839  11.143 -0.8618 -0.5149 -0.0493
  682MPD2    H210145   2.362   0.623  10.865 -0.2920  0.4337  0.0213
  682MPD2    H310146   2.470   0.827  10.931 -0.8476 -2.3771 -3.8697
  682MPD2     N10147   2.626   0.632  11.314  0.6398 -0.2747 -0.1201
  682MPD2    H510148   2.607   0.551  11.371  0.5494 -0.0087  0.2278
  682MPD2    N110149   2.390   0.386  10.981 -0.1511  0.0490 -0.3667
  682MPD2    H710150   2.384   0.318  11.057  2.0715  0.2236 -0.0410
  683TMC3    C110151   2.880   0.704  11.687  0.0895  0.5600  0.7927
  683TMC3    C210152   2.926   0.581  11.688  0.8151  0.0974 -0.2703
  683TMC3    C310153   2.897   0.495  11.585  0.0410 -0.2197  0.3390
  683TMC3    C410154   2.813   0.745  11.576  0.3380 -1.0115 -0.4608
  683TMC3    C510155   2.786   0.660  11.473  0.6974 -0.0519  0.0425
  683TMC3    C610156   2.824   0.531  11.468  0.7491  0.2196  0.1354
  683TMC3     C10157   2.907   0.793  11.798 -0.0255  0.3809  0.3358
  683TMC3     O10158   2.909   0.912  11.770  0.5529 -0.0879 -0.0631
  683TMC3     H10159   2.974   0.535  11.774  3.0306  1.1065 -0.9712
  683TMC3    H110160   2.777   0.847  11.577  0.8548 -0.8280 -0.4426
  683TMC3    H210161   2.802   0.454  11.396 -0.7602  0.5104  0.2780
  683TMC3    C710162   2.713   0.726  11.365  0.1724 -0.1122  0.4251
  683TMC3    C810163   2.953   0.364  11.603  0.6382 -0.3198  0.2608
  683TMC3    O110164   2.752   0.831  11.320  0.1385 -0.2859 -0.5394
  683TMC3    O210165   3.004   0.314  11.501 -0.5630 -0.0138 -0.2004
  684MPD2     C10166   2.230   0.688  16.715 -0.5146 -0.0297  0.2985
  684MPD2    C110167   2.155   0.616  16.628  0.3302 -0.0917 -0.4038
  684MPD2    C210168   2.025   0.649  16.612 -0.3368  0.1266  0.3068
  684MPD2    C310169   1.975   0.763  16.674  0.5169 -0.4557 -0.0780
  684MPD2    C410170   2.051   0.832  16.770 -0.2614  0.9796  0.4895
  684MPD2    C510171   2.183   0.795  16.790 -0.8897  0.1335 -1.0685
  684MPD2     H10172   1.966   0.592  16.541 -3.2401 -0.2844  3.0166
  684MPD2    H110173   2.003   0.914  16.821 -1.6273  0.5980 -0.1923
  684MPD2    H210174   2.322   0.639  16.744  1.0117  2.4487 -0.3179
  684MPD2    H310175   2.238   0.844  16.869  0.2396  0.2335 -1.9201
  684MPD2     N10176   1.843   0.805  16.662  0.1653  0.1832 -0.1281
  684MPD2    H510177   1.809   0.871  16.730 -1.4454 -0.0663 -0.6681
  684MPD2    N110178   2.212   0.523  16.549 -0.1337  0.4471  0.3180
  684MPD2    H710179   2.143   0.476  16.491 -0.3023 -0.0917  0.9673
  685TMC3    C110180   2.341   0.333  16.487  0.3599  0.2129 -0.0064
  685TMC3    C210181   2.245   0.296  16.395  0.2232  0.0219  0.7708
  685TMC3    C310182   2.264   0.175  16.335  0.0277 -0.2560  0.0917
  685TMC3    C410183   2.434   0.248  16.539  0.3127 -0.3583 -0.0273
  685TMC3    C510184   2.437   0.121  16.493 -0.9725 -0.1116 -0.6516
  685TMC3    C610185   2.360   0.089  16.386  0.0144 -0.2114 -0.3377
  685TMC3     C10186   2.341   0.467  16.550  0.7061  0.0142  0.9123
  685TMC3     O10187   2.441   0.516  16.598 -0.3572  0.2748 -0.8530
  685TMC3     H10188   2.188   0.373  16.344 -0.9679 -1.8185 -0.6983
  685TMC3    H110189   2.495   0.271  16.626  2.6917  0.2621 -1.8717
  685TMC3    H210190   2.347   4.720  16.361  0.1321 -0.1661 -0.5828
  685TMC3    C710191   2.542   0.033  16.534  0.0176  0.0347 -0.1851
  685TMC3    C810192   2.180   0.122  16.229 -0.4300  0.1229  0.3243
  685TMC3    O110193   2.579   0.059  16.647 -0.0768  0.1326 -0.6057
  685TMC3    O210194   2.201   0.006  16.194  0.3437 -0.3693  0.4906
  686MPD2     C10195   2.912   4.637  16.049 -0.3699 -0.1775 -0.6158
  686MPD2    C110196   3.035   4.575  16.018 -0.8238 -0.5704 -0.1994
  686MPD2    C210197   3.107   4.600  15.902  0.4724 -0.0058 -0.7299
  686MPD2    C310198   3.048   4.682  15.806  0.2014  0.7254  0.4554
  686MPD2    C410199   2.935   0.016  15.846 -0.1796  0.4047 -0.5121
  686MPD2    C510200   2.869   4.733  15.962 -0.4145 -0.1202 -0.1804
  686MPD2     H10201   3.202   4.550  15.890 -0.3832 -1.9779  0.5967
  686MPD2    H110202   2.890   0.083  15.774  0.3799  1.6002  0.2650
  686MPD2    H210203   2.853   4.617  16.137 -0.2084 -0.1671 -0.5052
  686MPD2    H310204   2.778   0.055  15.972 -0.9502 -1.0609  0.3855
  686MPD2     N10205   3.111   4.716  15.677  0.3472  0.4509  0.1584
  686MPD2    H510206   3.080   0.070  15.640  1.2479 -0.4466 -2.7333
  686MPD2    N110207   3.075   4.487  16.120 -0.1777 -0.0209  0.4220
  686MPD2    H710208   3.017   4.475  16.202  1.2278  2.5034  1.7758
  687TMC3    C110209   3.246   4.519  15.644  0.1508  0.4483 -0.0204
  687TMC3    C210210   3.137   4.431  15.649  0.3119  0.1865 -0.2328
  687TMC3    C310211   3.145   4.312  15.706 -0.0534  0.8051  0.1474
  687TMC3    C410212   3.371   4.479  15.681  0.2230 -0.5684 -0.0033
  687TMC3    C510213   3.380   4.354  15.748  0.1598  0.3277  0.0204
  687TMC3    C610214   3.268   4.269  15.762  0.4145 -0.4574  0.1152
  687TMC3     C10215   3.221   4.656  15.620 -0.1059  0.0077 -0.3289
  687TMC3     O10216   3.302   4.711  15.551  0.6912 -0.1200 -0.6529
  687TMC3     H10217   3.064   4.450  15.571 -1.7828  2.1059  2.1974
  687TMC3    H110218   3.455   4.547  15.673 -0.8009  0.5388 -1.4437
  687TMC3    H210219   3.261   4.174  15.813 -0.7862 -0.6475 -0.3921
  687TMC3    C710220   3.497   4.328  15.825 -0.5602 -0.6727  0.3915
  687TMC3    C810221   3.020   4.259  15.754  0.1123  0.9656  0.4857
  687TMC3    O110222   3.584   4.410  15.831  0.0199  0.7330  0.2575
  687TMC3    O210223   3.020   4.159  15.819  0.3117 -0.1895  0.0241
  688MPD2     C10224   2.238   3.663  17.342  0.0923  0.3153 -0.3776
  688MPD2    C110225   2.307   3.548  17.374 -0.3709  0.6782 -0.0873
  688MPD2    C210226   2.384   3.488  17.276 -0.4585  0.1562 -0.6355
  688MPD2    C310227   2.382   3.539  17.147 -0.0300  0.0558 -0.0010
  688MPD2    C410228   2.313   3.651  17.119  0.0848 -0.0960 -0.4511
  688MPD2    C510229   2.245   3.714  17.219  0.6925  0.7956 -0.7888
  688MPD2     H10230   2.447   3.402  17.295 -0.8343 -0.1973 -0.9962
  688MPD2    H110231   2.317   3.686  17.016  1.7166  2.6813  0.5510
  688MPD2    H210232   2.182   3.723  17.413  2.9889  0.4871  1.7775
  688MPD2    H310233   2.188   3.806  17.209  1.6093  1.5292  0.7037
  688MPD2     N10234   2.458   3.482  17.038  0.6221  0.0946 -0.3533
  688MPD2    H510235   2.470   3.534  16.952 -0.3325  0.0730 -0.5059
  688MPD2    N110236   2.314   3.508  17.506  0.1332 -0.3644 -0.4160
  688MPD2    H710237   2.361   3.421  17.527 -2.0742 -1.9059 -1.8290
  689TMC3    C110238   2.325   3.510  17.732  0.8467 -0.7103 -0.5298
  689TMC3    C210239   2.339   3.588   0.101  0.1530  0.0957 -0.3044
  689TMC3    C310240   2.345   3.523   0.217 -0.4148 -0.0507  0.0846
  689TMC3    C410241   2.303   3.376  17.739  0.8381 -0.3287 -0.2534
  689TMC3    C510242   2.307   3.318   0.116  0.4677 -0.7074  0.2409
  689TMC3    C610243   2.331   3.386   0.228  0.6346  0.1907  0.4993
  689TMC3     C10244   2.282   3.583  17.615  0.2377 -0.9789 -0.0537
  689TMC3     O10245   2.219   3.687  17.630 -0.1432  0.3633 -0.1995
  689TMC3     H10246   2.351   3.696   0.094  0.8594  0.1279  1.4100
  689TMC3    H110247   2.279   3.315  17.652 -0.6519  0.5507 -0.4387
  689TMC3    H210248   2.331   3.331   0.320  1.5988 -1.4695 -0.5026
  689TMC3    C710249   2.251   3.187   0.135 -0.9028 -0.0446  0.3891
  689TMC3    C810250   2.340   3.590   0.346  0.3131  1.0575  0.5097
  689TMC3    O110251   2.267   3.137   0.244 -0.3358  0.8576  0.4465
  689TMC3    O210252   2.305   3.523   0.443 -0.0650 -0.8259 -0.1166
  690MPD2     C10253   3.954   0.625  15.650  0.4660 -0.1876 -0.7910
  690MPD2    C110254   4.050   0.582  15.731  0.2649 -0.2078  1.0045
  690MPD2    C210255   4.186   0.600  15.692 -0.6056 -0.0779 -0.0412
  690MPD2    C310256   4.210   0.665  15.574  0.1331 -0.6053  0.5067
  690MPD2    C410257   4.106   0.707  15.492 -0.5458 -0.0155  0.0271
  690MPD2    C510258   3.978   0.689  15.537 -0.3897  0.2888  0.5443
  690MPD2     H10259   4.261   0.575  15.766  0.6282 -0.3247 -1.3872
  690MPD2    H110260   4.126   0.755  15.397 -0.4693 -0.7010 -0.2992
  690MPD2    H210261   3.851   0.605  15.676  0.5890 -1.6809 -1.4742
  690MPD2    H310262   3.890   0.723  15.483  0.1411  1.8503  0.6468
  690MPD2     N10263   4.339   0.660  15.516  0.1199 -0.4671 -0.2570
  690MPD2    H510264   4.344   0.712  15.429  0.3292 -1.2297 -0.6925
  690MPD2    N110265   4.029   0.509  15.847  0.8045 -0.1479  0.3753
  690MPD2    H710266   4.112   0.473  15.893  0.1574 -0.1217  1.5758
  691TMC3    C110267   3.900   0.375  15.998 -0.3688  0.8962  0.2673
  691TMC3    C210268   3.789   0.363  16.071  0.2680 -0.0216 -0.2365
  691TMC3    C310269   3.788   0.254  16.159 -0.1226  0.0523 -0.8943
  691TMC3    C410270   4.019   0.309  16.023  0.5160 -0.2493 -0.4100
  691TMC3    C510271   4.010   0.206  16.107 -0.2555 -0.0595 -0.0269
  691TMC3    C610272   3.894   0.169  16.167 -0.0232 -0.1340 -0.8505
  691TMC3     C10273   3.903   0.487  15.908  0.0994 -0.2643  0.3327
  691TMC3     O10274   3.801   0.548  15.897 -0.1775 -0.6846  0.1322
  691TMC3     H10275   3.704   0.422  16.039 -1.2700 -2.9635 -1.5952
  691TMC3    H110276   4.113   0.314  15.970  1.0644  2.4282  0.8165
  691TMC3    H210277   3.891   0.076  16.223  2.0092 -0.5254 -1.4093
  691TMC3    C710278   4.111   0.094  16.109  0.3177 -0.3108 -0.2955
  691TMC3    C810279   3.655   0.202  16.190  0.6796  0.4412  1.0828
  691TMC3    O110280   4.215   0.133  16.161  0.0041 -0.1751 -0.2249
  691TMC3    O210281   3.645   0.083  16.206 -0.2930  0.1825  0.4035
  692TMC3    C110282   1.156   1.663  15.762 -0.1017  0.2727  0.1525
  692TMC3    C210283   1.274   1.722  15.763  0.4792 -0.0211  0.1706
  692TMC3    C310284   1.379   1.638  15.789  0.0208 -0.2575  0.0585
  692TMC3    C410285   1.136   1.527  15.771 -0.1812 -0.0115  0.6914
  692TMC3    C510286   1.249   1.454  15.795 -0.0193 -0.0917  0.0376
  692TMC3    C610287   1.367   1.505  15.824 -0.7682 -0.0256  0.4652
  692TMC3     C10288   1.038   1.740  15.800 -0.0605 -0.1594  0.4744
  692TMC3     O10289   0.946   1.661  15.813  0.1119  0.2137  0.4868
  692TMC3     H10290   1.279   1.828  15.785 -1.7064  0.9178 -3.7782
  692TMC3    H110291   1.039   1.484  15.749  0.2095 -0.9119  0.7235
  692TMC3    H210292   1.460   1.450  15.830 -0.6907 -0.0674 -1.0510
  692TMC3    C710293   1.223   1.313  15.817  0.1944 -0.5938 -0.1346
  692TMC3    C810294   1.482   1.697  15.869 -0.0402  0.4338 -0.2989
  692TMC3    O110295   1.133   1.266  15.753 -0.0638  0.1417  0.0993
  692TMC3    O210296   1.528   1.629  15.959  0.3047 -0.3148  0.0198
  693MPD2     C10297   0.125   4.255  10.771 -0.5158  0.2146  0.1641
  693MPD2    C110298   0.070   4.285  10.891  0.0453  0.1120  0.5375
  693MPD2    C210299   0.136   4.246  11.008  0.0744  0.5990 -0.6718
  693MPD2    C310300   0.269   4.212  11.013  0.4413 -0.4672 -0.3597
  693MPD2    C410301   0.326   4.202  10.892 -0.2474 -0.1397 -0.4083
  693MPD2    C510302   0.255   4.210  10.773  0.2090  0.1151  0.1393
  693MPD2     H10303   0.082   4.248  11.102  1.3472  0.5549  0.0689
  693MPD2    H110304   0.430   4.171  10.886  0.1638  1.3681 -1.1245
  693MPD2    H210305   0.080   4.281  10.676 -0.1616 -3.9362 -1.1346
  693MPD2    H310306   0.310   4.191  10.682 -1.1672  0.7281 -0.8201
  693MPD2     N10307   0.348   4.195  11.127 -0.6249  0.0054  0.0360
  693MPD2    H510308   0.444   4.162  11.124  0.0459  1.9407 -0.0749
  693MPD2    N110309   4.672   4.324  10.905  0.1856  0.0281 -0.4783
  693MPD2    H710310   4.625   4.327  10.995  1.4951 -2.5336  0.2744
  694TMC3    C110311   4.451   4.369  10.843  0.0596 -0.0608  0.6624
  694TMC3    C210312   4.372   4.270  10.786  0.6094 -0.0107  0.0081
  694TMC3    C310313   4.292   4.187  10.870  0.0050 -0.4121 -0.1023
  694TMC3    C410314   4.453   4.378  10.975 -0.1119  0.9655  0.9484
  694TMC3    C510315   4.402   4.276  11.049  0.2172  0.5137 -0.0663
  694TMC3    C610316   4.330   4.172  10.997 -0.9689  0.4089  0.0256
  694TMC3     C10317   4.588   4.350  10.802  0.5398 -0.0323 -0.0299
  694TMC3     O10318   4.613   4.353  10.679 -0.1922 -0.0258 -0.0320
  694TMC3     H10319   4.358   4.259  10.679 -0.9504  2.5182 -0.0575
  694TMC3    H110320   4.490   4.470  11.018 -0.7580  1.9689 -0.6501
  694TMC3    H210321   4.277   4.106  11.065 -0.9600 -0.2157 -0.5683
  694TMC3    C710322   4.455   4.281  11.190 -0.5750  0.3602  0.3792
  694TMC3    C810323   4.212   4.079  10.826 -0.1038  0.2282  0.4830
  694TMC3    O110324   4.549   4.363  11.199  0.2080  0.7766 -0.2290
  694TMC3    O210325   4.215   3.978  10.894  0.3885 -0.3445 -0.5875
  695MPD2     C10326   1.668   0.837  13.904  0.6761 -0.2588 -0.5595
  695MPD2    C110327   1.628   0.947  13.978  0.0347  0.0281 -0.7391
  695MPD2    C210328   1.511   1.011  13.938 -0.3154  0.6788 -0.2243
  695MPD2    C310329   1.434   0.963  13.839  0.1035 -0.7554 -0.9010
  695MPD2    C410330   1.482   0.858  13.761  0.5489 -0.1205 -0.4484
  695MPD2    C510331   1.595   0.798  13.795  0.1931  0.3382 -0.2639
  695MPD2     H10332   1.472   1.085  14.007 -0.8311 -1.9484  2.3354
  695MPD2    H110333   1.426   0.801  13.688 -1.2532  0.8891  0.1563
  695MPD2    H210334   1.753   0.780  13.940 -0.2113 -0.6551  0.9151
  695MPD2    H310335   1.625   0.711  13.739 -2.5134  0.9744 -2.6632
  695MPD2     N10336   1.300   1.014  13.821  0.0416 -0.3470  0.1120
  695MPD2    H510337   1.269   1.096  13.872 -1.8611 -0.4641 -0.8519
  695MPD2    N110338   1.704   1.001  14.087  0.0283 -0.3962  0.3269
  695MPD2    H710339   1.685   1.092  14.127  1.6164  0.2627 -0.4083
  696TMC3    C110340   1.094   1.032  13.725 -0.1080 -0.0819  1.2430
  696TMC3    C210341   1.040   1.035  13.847  0.8220  0.4051  0.7114
  696TMC3    C310342   0.925   1.105  13.865 -0.1643  0.0560 -0.6189
  696TMC3    C410343   1.046   1.102  13.622  0.7364 -0.2072  0.3490
  696TMC3    C510344   0.949   1.190  13.648  0.2173  0.3976  0.0909
  696TMC3    C610345   0.875   1.187  13.763  0.0783  0.5848  0.3839
  696TMC3     C10346   1.228   0.992  13.707  0.1702  0.5107  0.3764
  696TMC3     O10347   1.270   0.963  13.598 -0.2162  0.5773  0.1187
  696TMC3     H10348   1.060   0.963  13.926  1.0328 -0.1932  0.1109
  696TMC3    H110349   1.107   1.116  13.533  0.6517  0.0936  0.3366
  696TMC3    H210350   0.788   1.251  13.779  0.4665  1.3599 -0.5644
  696TMC3    C710351   0.932   1.302  13.557  1.1112  0.0936 -0.4266
  696TMC3    C810352   0.907   1.155  14.003 -0.2721  0.1491  0.2220
  696TMC3    O110353   0.990   1.300  13.450  0.4571  0.0622 -0.7588
  696TMC3    O210354   1.005   1.167  14.075  0.2125  0.3266  0.5247
  697MPD2     C10355   1.136   3.117  15.688  0.0060  0.1658  0.3466
  697MPD2    C110356   1.136   3.054  15.564 -0.6844  0.1754  0.7439
  697MPD2    C210357   1.220   3.107  15.459 -0.2335  0.0076  0.1202
  697MPD2    C310358   1.295   3.220  15.483  0.4085 -0.5089  0.0279
  697MPD2    C410359   1.297   3.279  15.611 -0.6092 -0.3810  0.3403
  697MPD2    C510360   1.220   3.224  15.711 -0.3613 -1.2260  0.1205
  697MPD2     H10361   1.221   3.052  15.367 -2.3858  0.7612 -0.3507
  697MPD2    H110362   1.366   3.355  15.647 -0.4731 -0.2232 -0.2578
  697MPD2    H210363   1.070   3.092  15.770 -1.8399  1.0212 -0.8838
  697MPD2    H310364   1.230   3.260  15.813 -0.9660  0.8815 -0.5496
  697MPD2     N10365   1.374   3.260  15.377  0.2532  0.3151  0.9028
  697MPD2    H510366   1.365   3.202  15.294 -0.7965 -0.3367  1.4763
  697MPD2    N110367   1.055   2.950  15.522 -0.9917  0.1138  0.2102
  697MPD2    H710368   1.047   2.928  15.423  1.9469 -1.0283  0.2443
  698TMC3    C110369   1.547   3.352  15.273 -0.3760  0.0937 -0.3531
  698TMC3    C210370   1.690   3.363  15.268 -0.1299 -0.4583  0.8533
  698TMC3    C310371   1.747   3.407  15.154  0.4161 -0.4003 -0.2771
  698TMC3    C410372   1.473   3.366  15.160  0.0249  0.2141  0.3629
  698TMC3    C510373   1.540   3.410  15.044 -0.1053  0.5193  0.2040
  698TMC3    C610374   1.672   3.428  15.037 -0.0325 -0.3069 -0.2451
  698TMC3     C10375   1.483   3.343  15.397  0.1515 -0.1624  0.0105
  698TMC3     O10376   1.546   3.365  15.500  0.5519  0.5134  0.1014
  698TMC3     H10377   1.751   3.352  15.356  0.0671 -1.0388  0.6474
  698TMC3    H110378   1.365   3.369  15.166 -0.0826 -1.9666 -0.4838
  698TMC3    H210379   1.728   3.454  14.948  0.6664  3.3710  1.2435
  698TMC3    C710380   1.465   3.376  14.920 -0.4309  0.1401 -0.3882
  698TMC3    C810381   1.884   3.451  15.170  0.4514  0.4752  0.0223
  698TMC3    O110382   1.345   3.370  14.935 -0.2367  0.4360 -1.0027
  698TMC3    O210383   1.941   3.389  15.262  0.4679  0.0752  0.2314
  699TMC3    C110384   0.937   0.978  13.253  0.2205 -0.5638  0.8149
  699TMC3    C210385   0.999   0.884  13.332  0.7307 -0.0682  0.7924
  699TMC3    C310386   0.929   0.839  13.440  0.9878 -0.6514 -0.0138
  699TMC3    C410387   0.813   1.028  13.293  0.2977  0.2820 -0.9150
  699TMC3    C510388   0.754   0.982  13.404 -0.0944 -0.0639  0.5252
  699TMC3    C610389   0.810   0.888  13.484 -0.4156 -0.5019  0.2085
  699TMC3     C10390   1.007   1.058  13.159 -0.2971  0.7117 -0.2547
  699TMC3     O10391   0.942   1.157  13.129 -0.6442  0.0441 -0.0067
  699TMC3     H10392   1.084   0.826  13.298  0.5108 -0.1902  0.4437
  699TMC3    H110393   0.765   1.103  13.231  0.8293  1.2766 -0.1243
  699TMC3    H210394   0.752   0.845  13.566  0.8569 -1.7082  0.4724
  699TMC3    C710395   0.645   1.066  13.464  0.1903 -0.0552 -0.3691
  699TMC3    C810396   0.990   0.759  13.543  0.0411  0.0716 -0.5912
  699TMC3    O110397   0.602   1.034  13.578 -0.6904 -0.0645  0.3457
  699TMC3    O210398   0.920   0.747  13.642  0.1062 -0.4144  0.0033
  700TMC3    C110399   0.155   3.975  17.639  0.6262 -0.5906  0.0473
  700TMC3    C210400   0.175   3.844  17.620 -0.5507 -0.8854 -0.3299
  700TMC3    C310401   0.265   3.773  17.695  0.1744  0.5975 -0.1663
  700TMC3    C410402   0.230   4.040  17.732 -0.1261 -0.3109  0.1505
  700TMC3    C510403   0.305   3.965   0.074 -0.5752 -0.2891  0.3091
  700TMC3    C610404   0.326   3.832   0.060 -0.8548 -0.0269  0.4311
  700TMC3     C10405   0.112   4.046  17.516 -0.1922 -0.2162 -0.5722
  700TMC3     O10406   0.024   3.999  17.445  0.6416  0.2577  0.0751
  700TMC3     H10407   0.118   3.797  17.541 -0.9660 -1.0833  0.0898
  700TMC3    H110408   0.231   4.149  17.738 -0.3265 -0.2923 -0.1368
  700TMC3    H210409   0.405   3.778   0.111  1.8949  2.3455 -1.2559
  700TMC3    C710410   0.389   4.045   0.160 -0.6525 -0.0515 -0.4226
  700TMC3    C810411   0.346   3.681  17.617  0.1538 -0.0514  0.2630
  700TMC3    O110412   0.360   4.164   0.172  0.2063  0.0247  0.0985
  700TMC3    O210413   0.467   3.664  17.638 -0.2748  0.4766  0.0290
  701TMC3    C110414   0.270   2.735  15.459 -0.2506  0.6970  1.2527
  701TMC3    C210415   0.315   2.678  15.345  0.2761  0.1979 -0.3219
  701TMC3    C310416   0.444   2.714  15.309  0.0457 -0.6835  0.2471
  701TMC3    C410417   0.347   2.831  15.524  0.4155  0.1705 -0.9449
  701TMC3    C510418   0.481   2.842  15.488 -0.0354  0.8043 -0.2788
  701TMC3    C610419   0.532   2.795  15.370  0.2621  1.3058  0.1829
  701TMC3     C10420   0.132   2.734  15.490 -0.0432  0.1862  0.4944
  701TMC3     O10421   0.089   2.821  15.557  0.4298  1.0826 -0.4921
  701TMC3     H10422   0.245   2.610  15.299 -1.4341  2.0919 -0.5553
  701TMC3    H110423   0.304   2.876  15.613  0.2657 -1.2552 -0.3094
  701TMC3    H210424   0.637   2.814  15.351  0.2547  0.0374 -1.1348
  701TMC3    C710425   0.559   2.947  15.549 -0.0533 -0.2355 -0.5467
  701TMC3    C810426   0.504   2.650  15.195 -0.0512  0.1854 -0.0022
  701TMC3    O110427   0.622   3.019  15.475 -0.1126  0.1753 -0.0884
  701TMC3    O210428   0.610   2.692  15.154  0.2522 -0.2332 -0.1685
  702MPD2     C10429   4.142   4.579  10.781  0.4178 -0.5356  1.5208
  702MPD2    C110430   4.069   4.662  10.863  0.6636 -0.5449  0.6717
  702MPD2    C210431   4.085   0.062  10.847  0.8956 -0.1378  0.3662
  702MPD2    C310432   4.173   0.119  10.755 -0.0872  0.0548  0.1573
  702MPD2    C410433   4.248   0.032  10.676  0.3974  0.5644 -0.4198
  702MPD2    C510434   4.229   4.633  10.689 -0.0971 -0.2592  0.3981
  702MPD2     H10435   4.021   0.119  10.914 -0.5878  0.3050 -1.4564
  702MPD2    H110436   4.314   0.060  10.594 -1.0359 -0.0608 -1.7912
  702MPD2    H210437   4.134   4.471  10.776  0.4644 -0.5479  1.7248
  702MPD2    H310438   4.279   4.569  10.617  0.1369  0.4827 -0.0940
  702MPD2     N10439   4.182   0.259  10.732 -0.1072 -0.0683 -0.0717
  702MPD2    H510440   4.233   0.292  10.651  0.9883 -1.9364 -0.1261
  702MPD2    N110441   3.990   4.606  10.966 -0.1909 -0.0982 -1.0526
  702MPD2    H710442   3.924   4.667  11.013  0.4897  0.7437 -1.2029
  703TMC3    C110443   4.138   0.491  10.776 -0.3498 -0.6570 -0.1923
  703TMC3    C210444   4.058   0.583  10.843 -0.2309  0.3912 -0.2661
  703TMC3    C310445   4.087   0.713  10.823 -0.1386 -0.2984  0.3929
  703TMC3    C410446   4.253   0.527  10.717 -0.0565  0.1494  0.2356
  703TMC3    C510447   4.281   0.660  10.711 -0.1897  0.7218  0.6456
  703TMC3    C610448   4.203   0.748  10.760  0.5176 -0.0267  0.3979
  703TMC3     C10449   4.117   0.349  10.814  0.2044  0.3747 -1.0587
  703TMC3     O10450   4.042   0.333  10.909  0.8834 -0.7423  0.0500
  703TMC3     H10451   3.972   0.537  10.891 -0.3810  1.2254  0.2630
  703TMC3    H110452   4.331   0.458  10.685 -1.0125 -1.7052  1.8983
  703TMC3    H210453   4.225   0.853  10.741  1.2174 -0.2551 -0.0410
  703TMC3    C710454   4.411   0.694  10.660 -0.4583  0.4070 -0.2165
  703TMC3    C810455   3.997   0.817  10.853 -0.7065 -0.3134 -0.1006
  703TMC3    O110456   4.428   0.796  10.597 -0.4351  0.0154  0.6011
  703TMC3    O210457   4.014   0.923  10.799 -0.2018 -0.4897  0.4633
  704TMC3    C110458   1.435   3.328  12.652  0.4151 -0.1589  0.2151
  704TMC3    C210459   1.540   3.414  12.624  0.2541  0.0710 -0.3762
  704TMC3    C310460   1.658   3.390  12.687 -0.6877 -0.6110 -0.0573
  704TMC3    C410461   1.446   3.221  12.742 -0.3036  0.0905 -0.1980
  704TMC3    C510462   1.573   3.195  12.791 -0.7201  0.4027  0.6427
  704TMC3    C610463   1.677   3.278  12.767 -0.4747  0.2101 -0.2448
  704TMC3     C10464   1.301   3.343  12.597 -0.0195  0.4208  0.9538
  704TMC3     O10465   1.203   3.281  12.643  0.3268  0.1062 -0.2297
  704TMC3     H10466   1.521   3.512  12.583  0.1636  0.1909 -0.0417
  704TMC3    H110467   1.367   3.153  12.772 -0.8592  0.0485 -1.7148
  704TMC3    H210468   1.777   3.241  12.785 -1.5744 -2.2273  0.7697
  704TMC3    C710469   1.608   3.058  12.824  0.2617  0.4762  0.1228
  704TMC3    C810470   1.782   3.417  12.618 -1.0013  0.0213  0.2759
  704TMC3    O110471   1.716   3.030  12.772  0.1045 -0.6422  0.1880
  704TMC3    O210472   1.887   3.396  12.674 -0.1626 -0.2377 -0.1460
  705MPD2     C10473   1.719   1.711  16.601 -0.3222 -0.9367 -0.7011
  705MPD2    C110474   1.634   1.691  16.492  0.1536  0.3322 -0.6546
  705MPD2    C210475   1.514   1.761  16.491  0.1923  0.1775  0.8110
  705MPD2    C310476   1.481   1.848  16.595 -0.5065  0.0996 -0.6414
  705MPD2    C410477   1.563   1.853  16.703 -0.1213 -0.2785 -0.0184
  705MPD2    C510478   1.685   1.798  16.701  0.3955 -0.2804  0.4407
  705MPD2     H10479   1.435   1.745  16.419  0.1904 -1.1814  1.1304
  705MPD2    H110480   1.544   1.914  16.791 -1.3110  0.6281 -0.8959
  705MPD2    H210481   1.800   1.641  16.619  2.9305  3.1917  0.6926
  705MPD2    H310482   1.737   1.792  16.796  2.3489  1.2547 -0.5168
  705MPD2     N10483   1.347   1.904  16.595  0.1705  0.1102  0.2511
  705MPD2    H510484   1.292   1.887  16.512  0.6858 -1.1481  0.1739
  705MPD2    N110485   1.670   1.611  16.380  0.5382  1.0111  0.1919
  705MPD2    H710486   1.609   1.615  16.299  2.2460  0.0953 -1.1305
  706TMC3    C110487   1.985   1.380  16.101  0.8638 -0.5302  0.8388
  706TMC3    C210488   1.945   1.451  15.991  0.0626  0.3654  0.1146
  706TMC3    C310489   1.865   1.556  16.019 -0.4420 -0.4666  0.4146
  706TMC3    C410490   1.933   1.404  16.229  0.7597 -0.0781  0.1101
  706TMC3    C510491   1.831   1.492  16.241 -0.2301  0.5227  0.8131
  706TMC3    C610492   1.808   1.577  16.138  0.3270  0.2231 -0.5925
  706TMC3     C10493   2.071   1.264  16.080 -0.0775  0.2526 -0.2271
  706TMC3     O10494   2.094   1.202  16.182 -0.4894 -0.2596 -0.7215
  706TMC3     H10495   1.993   1.451  15.894 -0.8432  1.6771 -0.3435
  706TMC3    H110496   1.960   1.340  16.312  1.5098  0.8290  0.5579
  706TMC3    H210497   1.739   1.660  16.149  1.6702  1.0026  1.8275
  706TMC3    C710498   1.780   1.522  16.376 -0.3860 -0.2565 -0.7944
  706TMC3    C810499   1.889   1.674  15.942 -0.2201 -0.1745  0.0888
  706TMC3    O110500   1.845   1.485  16.476  0.1822  0.1312 -0.2480
  706TMC3    O210501   1.901   1.670  15.820 -0.2551 -0.4082 -0.0215
  707TMC3    C110502   3.074   4.647   1.243  0.3677 -0.1746 -0.6143
  707TMC3    C210503   3.146   4.552   1.313 -0.0625 -1.0086 -0.3151
  707TMC3    C310504   3.078   4.441   1.359  0.5162  0.0757 -0.8577
  707TMC3    C410505   2.938   4.644   1.217 -0.1794  0.4589 -0.2509
  707TMC3    C510506   2.870   4.532   1.268  0.6757 -0.3952 -0.6660
  707TMC3    C610507   2.942   4.428   1.332 -0.0627  0.2759  0.0192
  707TMC3     C10508   3.163   4.723   1.162 -0.2209  0.1863  0.0811
  707TMC3     O10509   3.272   4.672   1.162  0.4181  0.2865  0.4221
  707TMC3     H10510   3.247   4.567   1.349 -0.8293  1.7853  0.6312
  707TMC3    H110511   2.884   4.727   1.172  0.0591  1.5847  1.5417
  707TMC3    H210512   2.897   4.339   1.376  1.6739 -1.4440 -1.6463
  707TMC3    C710513   2.733   4.569   1.309  0.9101 -0.5398  0.0899
  707TMC3    C810514   3.153   4.343   1.437 -0.4515 -0.3807 -0.1826
  707TMC3    O110515   2.704   4.690   1.304 -0.0229  0.7074  0.3914
  707TMC3    O210516   3.088   4.254   1.490  0.2463  0.5312 -0.2419
  708MPD2     C10517   0.448   4.417  14.211 -0.1979  0.7945 -0.1374
  708MPD2    C110518   0.337   4.395  14.294  0.3952  0.1779  0.1032
  708MPD2    C210519   0.337   4.287  14.388  0.0227 -0.3989 -0.0356
  708MPD2    C310520   0.449   4.218  14.416 -0.3176  0.0095  0.0586
  708MPD2    C410521   0.559   4.241  14.337  0.3802  0.5016 -0.0814
  708MPD2    C510522   0.554   4.344  14.245 -0.5174  0.2150  0.6771
  708MPD2     H10523   0.248   4.282  14.449  1.2389  1.5480  1.8689
  708MPD2    H110524   0.650   4.184  14.350  0.3452  0.0621 -1.7666
  708MPD2    H210525   0.457   4.496  14.138  0.1368  1.1459  0.2899
  708MPD2    H310526   0.647   4.356  14.191 -0.1303 -1.2172  1.0235
  708MPD2     N10527   0.447   4.140  14.527  0.0069  0.3626  0.3002
  708MPD2    H510528   0.361   4.124  14.579 -0.5878  0.7282 -0.5808
  708MPD2    N110529   0.221   4.459  14.251 -0.3987  0.1961 -0.4635
  708MPD2    H710530   0.218   4.493  14.155  0.9362  0.6429 -0.3336
  709TMC3    C110531   4.725   4.540  14.284  0.0276 -0.3075 -0.5037
  709TMC3    C210532   4.680   4.478  14.172 -0.2772 -0.2054  0.4841
  709TMC3    C310533   4.548   4.446  14.167 -0.4871 -0.2039 -0.2436
  709TMC3    C410534   4.639   4.560  14.396  0.0392 -0.5508  0.7230
  709TMC3    C510535   4.514   4.508  14.389  0.1842 -0.5723 -0.4085
  709TMC3    C610536   4.460   4.463  14.277  0.0324 -0.7549  0.0034
  709TMC3     C10537   0.116   4.483  14.335 -0.1342 -0.7134 -1.3155
  709TMC3     O10538   0.108   4.453  14.454 -0.0262 -0.2938  0.1318
  709TMC3     H10539   0.008   4.472  14.084  1.2008  0.4694  1.4895
  709TMC3    H110540   4.678   4.613  14.482  0.3628 -0.9953  0.8537
  709TMC3    H210541   4.355   4.435  14.272 -1.0041  3.1074  0.0645
  709TMC3    C710542   4.475   4.446  14.510 -0.4155  0.3519 -0.0585
  709TMC3    C810543   4.503   4.378  14.044 -0.0199  0.5022  0.1231
  709TMC3    O110544   4.360   4.405  14.523 -0.0404 -0.1140 -0.1137
  709TMC3    O210545   4.398   4.315  14.053 -0.2138 -0.6288  0.3410
  710TMC3    C110546   0.665   1.140   0.622  1.1402  0.2718 -0.1788
  710TMC3    C210547   0.749   1.240   0.641 -0.1557  0.3692  0.3735
  710TMC3    C310548   0.881   1.222   0.678  0.2845  0.3506  0.0548
  710TMC3    C410549   0.706   1.015   0.641  0.1754  0.2452 -0.4450
  710TMC3    C510550   0.838   0.990   0.664  0.2203 -0.4110 -0.5367
  710TMC3    C610551   0.924   1.093   0.687 -0.5076 -0.2890 -0.3218
  710TMC3     C10552   0.523   1.160   0.592 -0.3285  0.2852  0.3778
  710TMC3     O10553   0.446   1.067   0.604  0.2689 -0.3598  0.0581
  710TMC3     H10554   0.727   1.346   0.637  1.0147  0.6174  0.2561
  710TMC3    H110555   0.638   0.932   0.625 -2.1073  1.8711  0.8635
  710TMC3    H210556   1.029   1.072   0.701 -0.2164  2.5407  1.5673
  710TMC3    C710557   0.878   0.850   0.675  0.0959  0.5523 -0.1808
  710TMC3    C810558   0.980   1.318   0.638 -0.6107 -0.3505  0.8573
  710TMC3    O110559   0.788   0.778   0.713 -0.1464 -0.3280  0.2677
  710TMC3    O210560   1.096   1.284   0.640 -0.3095  0.3399  0.6442
  711TMC3    C110561   0.501   2.087  15.010  0.3313  0.0673 -0.4687
  711TMC3    C210562   0.519   2.114  15.139 -0.5996 -0.0558  0.2270
  711TMC3    C310563   0.627   2.188  15.187 -0.2185  0.2065  0.3412
  711TMC3    C410564   0.596   2.126  14.919 -0.1452  0.7156 -0.1372
  711TMC3    C510565   0.708   2.181  14.965  0.2216  0.4447 -0.2202
  711TMC3    C610566   0.720   2.227  15.090 -0.1277  0.1778  0.2333
  711TMC3     C10567   0.482   1.950  14.995  0.2886  0.8084  0.1746
  711TMC3     O10568   0.427   1.909  14.891  0.1730 -0.0520  0.5922
  711TMC3     H10569   0.442   2.084  15.209 -0.7257 -1.5754 -0.5480
  711TMC3    H110570   0.580   2.085  14.820 -2.4371  1.4573 -0.0600
  711TMC3    H210571   0.802   2.293  15.115 -0.2580  0.5614 -0.3505
  711TMC3    C710572   0.832   2.120  14.926 -0.2510 -0.5571  0.6971
  711TMC3    C810573   0.693   2.102  15.281  0.4056 -0.5672 -0.5754
  711TMC3    O110574   0.922   2.142  15.003  0.4025 -0.7644  0.0864
  711TMC3    O210575   0.626   2.020  15.333  0.0997  0.2755  0.1280
  712MPD2     C10576   2.080   2.904  14.043 -0.6135  0.3157 -0.1260
  712MPD2    C110577   2.057   2.990  13.932  0.3652 -0.6170 -0.1107
  712MPD2    C210578   2.089   3.123  13.944  0.9502  0.1565 -0.2794
  712MPD2    C310579   2.152   3.169  14.055 -0.1512  0.1053  0.7107
  712MPD2    C410580   2.186   3.086  14.158 -0.5148  0.1143 -0.1946
  712MPD2    C510581   2.158   2.949  14.146 -0.3581 -0.1641  0.2135
  712MPD2     H10582   2.063   3.178  13.855 -0.5346 -0.2862 -0.1305
  712MPD2    H110583   2.256   3.123  14.231  2.5499 -4.3545 -0.8771
  712MPD2    H210584   2.051   2.800  14.045 -1.3006  0.5068 -0.0043
  712MPD2    H310585   2.194   2.883  14.223  1.3417 -0.6710 -1.0230
  712MPD2     N10586   2.164   3.309  14.073 -0.0604  0.5360 -0.7634
  712MPD2    H510587   2.221   3.340  14.152 -0.2961  2.1086 -1.2061
  712MPD2    N110588   2.007   2.936  13.807  0.7306  0.2023 -1.1805
  712MPD2    H710589   2.012   3.006  13.734  0.2702  0.9649 -0.4757
  713TMC3    C110590   2.145   3.548  14.039  0.2028 -0.0841 -0.9642
  713TMC3    C210591   2.267   3.571  14.100  0.4261 -0.7630  1.1978
  713TMC3    C310592   2.299   3.704  14.118 -0.2457 -0.2997  0.0432
  713TMC3    C410593   2.051   3.641  14.000  0.4735 -0.7897  0.5997
  713TMC3    C510594   2.080   3.766  14.037 -0.0837  0.3594  0.2798
  713TMC3    C610595   2.207   3.797  14.088 -0.6517  0.2431 -0.5823
  713TMC3     C10596   2.106   3.411  13.997 -0.0909  1.1200  0.5190
  713TMC3     O10597   2.025   3.395  13.909 -0.0520 -0.0584 -0.2809
  713TMC3     H10598   2.344   3.495  14.105  0.5640 -0.9062 -3.3347
  713TMC3    H110599   1.963   3.617  13.942 -1.2320  0.6170  2.5823
  713TMC3    H210600   2.219   3.902  14.114 -1.2694  0.0539  0.4497
  713TMC3    C710601   2.030   3.871  13.959 -0.2389  0.5421 -0.2600
  713TMC3    C810602   2.435   3.751  14.122  0.6096 -0.7581  0.0617
  713TMC3    O110603   2.104   3.960  13.928 -0.6231  0.6548 -0.2977
  713TMC3    O210604   2.463   3.861  14.074  0.2493 -0.5327 -0.2563
  714MPD2     C10605   4.420   2.109   1.403  0.2975 -0.0511  0.4748
  714MPD2    C110606   4.437   1.994   1.331 -0.6658  0.0633 -0.1542
  714MPD2    C210607   4.343   1.970   1.232 -0.2645  0.0096  0.3423
  714MPD2    C310608   4.222   2.038   1.226 -0.1614  0.4585  0.0291
  714MPD2    C410609   4.197   2.131   1.321 -0.6598  0.4626 -0.1639
  714MPD2    C510610   4.298   2.180   1.396  0.1355 -0.4097 -0.5609
  714MPD2     H10611   4.359   1.887   1.163 -2.8461  0.2653 -0.5442
  714MPD2    H110612   4.106   2.190   1.325 -0.4388  0.7513  0.4861
  714MPD2    H210613   4.496   2.140   1.474  1.1164  1.3709 -1.0259
  714MPD2    H310614   4.285   2.272   1.451 -0.5699  0.6629 -2.5040
  714MPD2     N10615   4.127   2.020   1.127  0.3041 -0.0280  0.7418
  714MPD2    H510616   4.042   2.076   1.134  0.9398  1.1711 -1.2593
  714MPD2    N110617   4.546   1.909   1.357 -0.1259  0.4726 -0.8723
  714MPD2    H710618   4.596   1.938   1.441 -0.6253  0.5020 -0.5827
  715TMC3    C110619   4.706   1.737   1.317  0.4988 -0.1975 -0.3571
  715TMC3    C210620   4.730   1.616   1.258  0.5090 -0.4524 -0.5584
  715TMC3    C310621   0.123   1.572   1.286  0.6008  0.3838 -0.2484
  715TMC3    C410622   0.055   1.798   1.405 -0.2924 -0.3003  0.5551
  715TMC3    C510623   0.172   1.734   1.441  0.3579  0.1530 -0.5350
  715TMC3    C610624   0.205   1.612   1.388 -0.2293  0.1455 -0.5234
  715TMC3     C10625   4.584   1.801   1.284  0.1127 -0.2645 -0.0011
  715TMC3     O10626   4.531   1.751   1.182 -0.0941 -0.4690  0.0627
  715TMC3     H10627   4.678   1.589   1.167  0.7885  2.5114 -1.6012
  715TMC3    H110628   0.041   1.895   1.451  0.2473 -0.6031  1.3673
  715TMC3    H210629   0.303   1.572   1.413  0.0383 -0.3285 -2.3440
  715TMC3    C710630   0.285   1.812   1.486  0.0348  0.4170  0.1373
  715TMC3    C810631   0.159   1.441   1.228  0.0736 -0.0062 -0.1454
  715TMC3    O110632   0.389   1.805   1.421 -0.3480 -0.5410  0.2618
  715TMC3    O210633   0.141   1.426   1.107  0.3416 -0.0633  0.0214
  716MPD2     C10634   3.415   4.554  10.684 -0.2403  0.0539 -0.7520
  716MPD2    C110635   3.441   4.642  10.584 -0.4397  0.3149  0.4594
  716MPD2    C210636   3.451   4.588  10.456 -0.8487 -0.0494  0.1382
  716MPD2    C310637   3.407   4.462  10.430  0.0185  0.6836  0.0544
  716MPD2    C410638   3.372   4.378  10.534 -0.3536 -0.1420 -0.6222
  716MPD2    C510639   3.380   4.420  10.663 -0.8588 -0.4829  0.1211
  716MPD2     H10640   3.492   4.645  10.374  0.6079 -1.5505 -0.1874
  716MPD2    H110641   3.358   4.272  10.513  1.9321 -0.7213  0.8168
  716MPD2    H210642   3.406   4.592  10.785 -1.2764  0.5097 -1.0192
  716MPD2    H310643   3.365   4.359  10.751 -1.0001 -0.7128 -0.0606
  716MPD2     N10644   3.415   4.427  10.298 -0.2325  0.1962 -0.3814
  716MPD2    H510645   3.442   4.506  10.240 -1.1948  2.6387  2.5159
  716MPD2    N110646   3.454   0.042  10.615 -0.7575 -0.4774 -0.7071
  716MPD2    H710647   3.446   0.063  10.714 -1.4892 -2.1615 -0.4042
  717TMC3    C110648   3.403   4.294  10.103  0.0059 -0.1926 -0.2555
  717TMC3    C210649   3.319   4.229  10.022 -0.5777  1.1569 -0.1092
  717TMC3    C310650   3.354   4.201   9.890  0.2841 -0.2894 -0.4705
  717TMC3    C410651   3.530   4.322  10.065  0.1800  0.0534 -0.3313
  717TMC3    C510652   3.560   4.287   9.936 -0.0010 -0.2170 -0.2142
  717TMC3    C610653   3.473   4.237   9.845 -0.6888  1.0254 -0.3748
  717TMC3     C10654   3.365   4.312  10.240 -0.0579  0.1237  0.0926
  717TMC3     O10655   3.296   4.226  10.290 -0.0910  0.2511  0.2355
  717TMC3     H10656   3.213   4.214  10.043 -0.9071  0.5603 -2.1662
  717TMC3    H110657   3.598   4.372  10.133  0.2667  0.6759 -0.8780
  717TMC3    H210658   3.501   4.228   9.741 -1.8368 -1.8960 -0.4391
  717TMC3    C710659   3.706   4.287   9.904 -0.0247 -0.4161  0.0102
  717TMC3    C810660   3.246   4.171   9.797  0.9156  0.0991 -0.3631
  717TMC3    O110661   3.742   4.308   9.789  0.3412 -0.1534 -0.1654
  717TMC3    O210662   3.136   4.206   9.838 -0.7881 -0.2472 -0.5470
  718MPD2     C10663   3.305   3.892  12.956  0.3155 -0.1622  0.9429
  718MPD2    C110664   3.229   3.774  12.976 -0.4042  0.8026 -0.4629
  718MPD2    C210665   3.283   3.663  13.035  0.4678 -0.0590 -0.2555
  718MPD2    C310666   3.416   3.662  13.062  0.2510 -0.3469 -0.1946
  718MPD2    C410667   3.501   3.761  13.015 -0.4447 -0.3721 -0.1771
  718MPD2    C510668   3.446   3.878  12.967 -0.1311 -0.1980  0.1525
  718MPD2     H10669   3.217   3.580  13.057 -0.5623  0.7504 -0.3157
  718MPD2    H110670   3.605   3.772  13.041 -0.7093 -1.1163  1.1785
  718MPD2    H210671   3.261   3.985  12.920  1.2111  0.4950  1.5476
  718MPD2    H310672   3.513   3.961  12.945 -1.3190  0.9169  0.7085
  718MPD2     N10673   3.466   3.553  13.144  0.0173  0.4935  0.1197
  718MPD2    H510674   3.398   3.507  13.203  0.2618 -0.9116 -0.7104
  718MPD2    N110675   3.091   3.781  12.945 -0.2786 -0.4639 -0.1000
  718MPD2    H710676   3.069   3.871  12.903  1.0812  0.9486  2.2222
  719TMC3    C110677   2.879   3.709  12.863 -0.3415  0.8390 -0.2854
  719TMC3    C210678   2.842   3.585  12.819 -0.4734 -0.6991  0.2653
  719TMC3    C310679   2.870   3.554  12.690 -0.1526 -0.9131 -0.1995
  719TMC3    C410680   2.907   3.811  12.772 -0.1844  0.3117  0.5460
  719TMC3    C510681   2.927   3.775  12.638  0.6094 -1.0107 -0.2860
  719TMC3    C610682   2.905   3.646  12.596 -0.0075 -0.3588 -0.8623
  719TMC3     C10683   2.988   3.690  12.963 -0.1293  0.8432 -0.7810
  719TMC3     O10684   3.001   3.576  13.008 -0.6517  0.0424 -0.3474
  719TMC3     H10685   2.817   3.510  12.893  2.1895 -0.5930  1.2590
  719TMC3    H110686   2.922   3.917  12.791  1.1825 -0.0134  1.2812
  719TMC3    H210687   2.933   3.613  12.496  0.3907  0.1395 -0.9170
  719TMC3    C710688   3.041   3.841  12.566  0.1869 -0.0450  0.0110
  719TMC3    C810689   2.947   3.433  12.668 -0.0306  0.1671 -0.3533
  719TMC3    O110690   3.109   3.763  12.503  0.4553  0.1360  0.5895
  719TMC3    O210691   2.945   3.387  12.557 -0.0668 -0.2690  0.1853
  720MPD2     C10692   2.101   0.231  14.240 -0.7044 -0.0515  0.8905
  720MPD2    C110693   2.193   0.322  14.189  0.0457  0.0528 -0.7833
  720MPD2    C210694   2.322   0.332  14.240 -0.2470 -0.0994  0.4180
  720MPD2    C310695   2.354   0.251  14.347 -0.2501 -0.8744 -0.0231
  720MPD2    C410696   2.257   0.158  14.407  0.3644 -0.0188  0.6793
  720MPD2    C510697   2.129   0.158  14.351  0.3065  0.2396  0.4244
  720MPD2     H10698   2.399   0.389  14.190 -2.3596  0.2877 -2.4260
  720MPD2    H110699   2.282   0.093  14.490 -2.8381 -0.9727  0.8822
  720MPD2    H210700   2.000   0.227  14.202  0.1341 -0.8437 -1.2858
  720MPD2    H310701   2.057   0.089  14.393  1.2269 -0.8029  0.2907
  720MPD2     N10702   2.486   0.257  14.394  0.8097  0.5756 -0.6065
  720MPD2    H510703   2.557   0.304  14.339  1.9849  2.6019  2.6468
  720MPD2    N110704   2.155   0.418  14.090 -0.5736 -0.5821  0.2435
  720MPD2    H710705   2.227   0.476  14.049  0.4812 -1.0843  1.4215
  721TMC3    C110706   2.647   0.271  14.555 -0.5112  0.1178 -0.2626
  721TMC3    C210707   2.667   0.298  14.687  0.5497  0.5392  0.2462
  721TMC3    C310708   2.783   0.352  14.729 -0.1170 -0.3943  0.2105
  721TMC3    C410709   2.737   0.298  14.460 -0.0148  0.1358  0.8597
  721TMC3    C510710   2.855   0.349  14.504 -0.7595 -0.5330  0.2370
  721TMC3    C610711   2.878   0.376  14.635 -0.1370 -0.3480  0.1886
  721TMC3     C10712   2.522   0.209  14.519 -0.2192 -0.0407 -0.0533
  721TMC3     O10713   2.459   0.157  14.608 -0.3330  0.6724 -0.2405
  721TMC3     H10714   2.587   0.276  14.757 -0.4708 -0.0681 -1.1006
  721TMC3    H110715   2.730   0.254  14.361  1.1351  2.7597 -0.3845
  721TMC3    H210716   2.967   0.437  14.647 -0.5895 -0.2175  2.8661
  721TMC3    C710717   2.968   0.316  14.424  0.1863 -0.4847 -0.1825
  721TMC3    C810718   2.825   0.368  14.866 -0.6898  0.3418 -0.0965
  721TMC3    O110719   2.982   0.355  14.308  0.0611  0.6243  0.1783
  721TMC3    O210720   2.948   0.378  14.871 -0.0515 -0.2879  0.3001
  722MPD2     C10721   0.848   3.681  13.744  0.8496  0.2710  0.7200
  722MPD2    C110722   0.847   3.785  13.654  0.4412  0.0741 -0.2149
  722MPD2    C210723   0.742   3.795  13.561  0.5453  0.8037  0.0948
  722MPD2    C310724   0.645   3.693  13.560  1.3328 -0.4756 -0.4008
  722MPD2    C410725   0.639   3.596  13.658  0.4866  0.2302  0.3449
  722MPD2    C510726   0.744   3.594  13.750 -0.0362 -0.0225 -0.4087
  722MPD2     H10727   0.730   3.881  13.496 -0.1629 -0.8564 -1.9521
  722MPD2    H110728   0.562   3.519  13.657  1.1857 -0.4630 -1.6561
  722MPD2    H210729   0.912   3.685  13.832  1.4400 -0.3762  0.3236
  722MPD2    H310730   0.750   3.511  13.819 -3.0344 -0.3318 -0.4865
  722MPD2     N10731   0.547   3.704  13.452  0.5236 -0.6528 -0.5290
  722MPD2    H510732   0.556   3.777  13.382 -0.1683 -1.3802 -1.3749
  722MPD2    N110733   0.927   3.903  13.664 -0.0799 -0.0944 -0.3434
  722MPD2    H710734   0.904   3.985  13.609  0.3275  0.7688  0.7825
  723TMC3    C110735   0.363   3.652  13.310  0.4820  0.6688  0.2831
  723TMC3    C210736   0.302   3.547  13.240  1.1622  0.5428 -0.1298
  723TMC3    C310737   0.204   3.581  13.154  0.2234  0.1701  0.7837
  723TMC3    C410738   0.314   3.775  13.294  0.0392  0.8968 -0.1650
  723TMC3    C510739   0.221   3.805  13.201 -0.3670  0.0070 -0.2612
  723TMC3    C610740   0.174   3.710  13.120  0.3368 -0.8003  0.1919
  723TMC3     C10741   0.446   3.616  13.425  0.4459  0.3012  0.4436
  723TMC3     O10742   0.426   3.503  13.463 -0.1228 -0.0345 -0.5134
  723TMC3     H10743   0.342   3.449  13.261  0.4840  0.6513  1.7096
  723TMC3    H110744   0.368   3.846  13.357 -0.0690 -0.0348  0.9800
  723TMC3    H210745   0.108   3.720  13.035 -1.1521 -0.5124  1.3946
  723TMC3    C710746   0.172   3.937  13.181 -0.0453  0.3915 -0.0333
  723TMC3    C810747   0.121   3.475  13.103  0.2360 -0.2797  0.7349
  723TMC3    O110748   0.109   3.956  13.076  0.2615  0.4457  0.5528
  723TMC3    O210749   0.012   3.503  13.057 -0.2419 -0.4332 -0.1985
  724TMC3    C110750   4.286   1.943   9.971  0.3528  0.1233  0.7972
  724TMC3    C210751   4.334   1.908   9.844 -0.1510  0.0879  0.0025
  724TMC3    C310752   4.431   1.813   9.832 -0.0691 -0.7437 -0.1375
  724TMC3    C410753   4.338   1.889  10.085  0.2396  1.2583 -0.4071
  724TMC3    C510754   4.429   1.787  10.068 -0.2879 -0.1730 -0.4085
  724TMC3    C610755   4.477   1.746   9.945 -0.6885  0.8487  0.3382
  724TMC3     C10756   4.218   2.068   9.991 -0.3565  0.3621  0.1218
  724TMC3     O10757   4.260   2.155   9.919  0.4941 -0.3020 -0.0670
  724TMC3     H10758   4.293   1.952   9.754  1.2191 -0.0520 -0.6882
  724TMC3    H110759   4.311   1.918  10.186 -2.4485  2.2882 -1.4273
  724TMC3    H210760   4.547   1.664   9.928 -0.7039  1.0218 -0.5751
  724TMC3    C710761   4.535   1.779  10.165 -0.2635 -0.5532 -0.1107
  724TMC3    C810762   4.487   1.788   9.699 -0.2772 -1.1662  0.0442
  724TMC3    O110763   4.561   1.886  10.214 -0.0050  0.5579 -0.8726
  724TMC3    O210764   4.428   1.833   9.602 -0.2471 -0.3955  0.1998
  725TMC3    C110765   2.602   0.856  13.332  0.0201  0.2281 -0.1535
  725TMC3    C210766   2.521   0.825  13.226 -0.5270  1.2495  0.0818
  725TMC3    C310767   2.424   0.737  13.246 -0.1218 -0.3187  0.1329
  725TMC3    C410768   2.589   0.794  13.455 -0.0316  0.4292 -0.2474
  725TMC3    C510769   2.493   0.695  13.461 -0.0248  0.6453  0.6458
  725TMC3    C610770   2.406   0.666  13.358 -0.3001  0.1182 -0.7114
  725TMC3     C10771   2.697   0.970  13.334 -0.0761 -0.1637  0.0602
  725TMC3     O10772   2.760   0.985  13.438 -0.5296 -0.1307  0.5336
  725TMC3     H10773   2.524   0.892  13.141 -1.9670  1.1170 -0.0697
  725TMC3    H110774   2.650   0.819  13.541 -0.2365  0.7298 -0.1867
  725TMC3    H210775   2.331   0.590  13.376 -0.4194  0.7109  1.3202
  725TMC3    C710776   2.470   0.619  13.579  0.1328  0.9049  0.0755
  725TMC3    C810777   2.361   0.663  13.135 -0.1602  0.2606  0.0932
  725TMC3    O110778   2.405   0.669  13.671 -0.5804  0.8881 -0.2690
  725TMC3    O210779   2.293   0.560  13.159 -0.0947  0.9529  0.0638
  726MPD2     C10780   0.109   2.317  10.659 -0.0213  0.3240 -0.6851
  726MPD2    C110781   0.018   2.385  10.584  0.0388  0.1401 -0.2771
  726MPD2    C210782   4.628   2.336  10.563  0.2120 -0.4966 -0.1693
  726MPD2    C310783   4.594   2.211  10.614 -0.1973 -0.2363  0.2021
  726MPD2    C410784   4.681   2.147  10.696 -0.6263 -0.2159 -0.9656
  726MPD2    C510785   0.066   2.208  10.720  0.1422  0.4596  0.0733
  726MPD2     H10786   4.562   2.392  10.497  1.9913  0.8384 -0.8047
  726MPD2    H110787   4.662   2.050  10.740 -1.5249 -0.2181 -1.3591
  726MPD2    H210788   0.214   2.332  10.683 -0.3864 -0.3615  1.2838
  726MPD2    H310789   0.140   2.165  10.786  3.1628  1.6590 -2.5594
  726MPD2     N10790   4.461   2.154  10.607  0.2264  0.5463 -0.0625
  726MPD2    H510791   4.451   2.060  10.644  1.3168 -0.8567 -3.3466
  726MPD2    N110792   0.054   2.510  10.525  0.2151  0.6394  0.4739
  726MPD2    H710793   4.708   2.563  10.495 -0.4335  0.6689  2.2904
  727TMC3    C110794   0.172   2.705  10.478 -0.3398  0.1204 -0.1872
  727TMC3    C210795   0.248   2.787  10.559  0.6770  1.0351  0.2876
  727TMC3    C310796   0.255   2.912  10.507 -0.2537  0.4293 -0.8508
  727TMC3    C410797   0.089   2.748  10.375  0.0632  0.4198  1.0833
  727TMC3    C510798   0.094   2.879  10.341 -0.1614 -0.5066  0.2439
  727TMC3    C610799   0.181   2.958  10.401  0.2979  0.0723 -0.7394
  727TMC3     C10800   0.176   2.569  10.523 -0.0501 -0.3106 -0.1137
  727TMC3     O10801   0.279   2.531  10.574 -0.7604 -0.0686  0.0843
  727TMC3     H10802   0.310   2.755  10.642  2.3862  1.3553 -0.8594
  727TMC3    H110803   0.032   2.672  10.323  1.1007  0.8249 -0.6372
  727TMC3    H210804   0.188   3.059  10.362 -2.4352 -0.2489 -2.0520
  727TMC3    C710805   4.733   2.936  10.249  0.0411  0.3518  0.2554
  727TMC3    C810806   0.351   2.998  10.574  0.0275 -0.2225 -0.4914
  727TMC3    O110807   0.001   3.055  10.216 -0.1282 -0.1916  0.8067
  727TMC3    O210808   0.452   2.944  10.626  0.4889  0.1972 -0.5482
  728TMC3    C110809   4.574   0.634  15.505 -0.4767  0.0729 -0.2460
  728TMC3    C210810   4.690   0.646  15.575  0.0447 -0.3697  0.3108
  728TMC3    C310811   0.069   0.644  15.503  0.4895  0.1439  0.0010
  728TMC3    C410812   4.561   0.625  15.372  0.4302  0.0043 -0.2448
  728TMC3    C510813   4.683   0.632  15.299 -0.0299  0.5750  0.2030
  728TMC3    C610814   0.064   0.652  15.368 -0.1133  0.2650 -0.4490
  728TMC3     C10815   4.451   0.609  15.579  0.0086 -0.5130  0.1067
  728TMC3     O10816   4.476   0.577  15.694  0.1059 -0.2258  0.4140
  728TMC3     H10817   4.692   0.645  15.683 -0.5517 -0.7610  0.3150
  728TMC3    H110818   4.475   0.586  15.318  0.6877  0.7880 -1.2217
  728TMC3    H210819   0.155   0.653  15.310 -0.4558  2.3844 -0.9659
  728TMC3    C710820   4.668   0.638  15.156  0.5741 -0.2447  0.5185
  728TMC3    C810821   0.192   0.667  15.577 -0.5718  0.3526  0.9182
  728TMC3    O110822   4.552   0.646  15.119  0.8167  0.2014 -0.0886
  728TMC3    O210823   0.183   0.663  15.700 -0.4027 -0.0769  0.8906
  729MPD2     C10824   1.793   2.241  16.443 -0.7763  0.1226  0.2771
  729MPD2    C110825   1.912   2.179  16.486 -0.4815 -0.1030 -0.2780
  729MPD2    C210826   1.929   2.140  16.615 -0.3263 -0.2903  0.3456
  729MPD2    C310827   1.831   2.173  16.708 -0.3138  0.2219  0.3222
  729MPD2    C410828   1.710   2.226  16.665  0.2420 -0.1273  0.6279
  729MPD2    C510829   1.693   2.258  16.529  1.1219 -0.0939  0.3240
  729MPD2     H10830   2.030   2.117  16.644 -0.8066 -1.8915  0.7361
  729MPD2    H110831   1.630   2.234  16.737 -0.9796 -0.6445 -0.6575
  729MPD2    H210832   1.787   2.288  16.346  1.2419  3.7851  1.9109
  729MPD2    H310833   1.600   2.293  16.486 -0.0512 -3.0191  0.4990
  729MPD2     N10834   1.855   2.158  16.847 -0.4320  0.2062  0.3211
  729MPD2    H510835   1.793   2.209  16.910 -0.0426  1.5497 -0.4001
  729MPD2    N110836   2.027   2.183  16.397  0.4497  0.7151 -0.6851
  729MPD2    H710837   2.024   2.254  16.325  1.5659  0.6213 -0.8151
  730TMC3    C110838   1.983   2.091  17.043 -0.9707  0.5583  0.3104
  730TMC3    C210839   2.099   2.036  17.084 -0.2805  0.1708 -0.0289
  730TMC3    C310840   2.168   2.090  17.194  0.0197 -0.2016  0.0030
  730TMC3    C410841   1.928   2.192  17.114  0.0514  0.6854  0.6921
  730TMC3    C510842   1.984   2.232  17.230 -0.4053 -0.0245  0.0458
  730TMC3    C610843   2.103   2.181  17.272  0.3163  0.6568 -0.5277
  730TMC3     C10844   1.958   2.080  16.898 -0.3498 -0.0152  0.0962
  730TMC3     O10845   2.011   1.988  16.844  0.8596 -1.0479 -0.1958
  730TMC3     H10846   2.142   1.967  17.012  0.1683 -0.3308  0.7198
  730TMC3    H110847   1.840   2.248  17.084 -1.0532 -2.1640 -1.3642
  730TMC3    H210848   2.147   2.200  17.370  1.8799 -3.3694 -0.4574
  730TMC3    C710849   1.960   2.376  17.257 -0.2631 -0.5435 -1.1989
  730TMC3    C810850   2.298   2.129  17.141  0.0600 -0.0584  0.4300
  730TMC3    O110851   1.887   2.445  17.190  0.6803  0.1714 -1.0558
  730TMC3    O210852   2.336   2.081  17.034  0.5003  0.3818 -0.0030
  731MPD2     C10853   1.998   0.211  12.557 -0.3631 -0.3032  0.4342
  731MPD2    C110854   2.133   0.198  12.591 -0.1343  0.2376 -0.1032
  731MPD2    C210855   2.170   0.140  12.712  0.8316 -0.4247  0.2653
  731MPD2    C310856   2.074   0.088  12.796 -0.4240 -0.2424 -0.1268
  731MPD2    C410857   1.944   0.111  12.762 -0.6871  0.4699  0.4390
  731MPD2    C510858   1.906   0.170  12.641 -0.1249 -0.1094 -0.4886
  731MPD2     H10859   2.277   0.132  12.729  0.8773  0.4235  0.3880
  731MPD2    H110860   1.861   0.091  12.829  1.5648 -1.6413  2.5891
  731MPD2    H210861   1.963   0.263  12.468  0.6089  0.9103  0.7586
  731MPD2    H310862   1.799   0.168  12.626 -0.3219  1.0524  0.7311
  731MPD2     N10863   2.123   0.034  12.913  0.3638 -0.7033  0.3656
  731MPD2    H510864   2.223   0.042  12.924  0.3270 -1.6873  1.3357
  731MPD2    N110865   2.231   0.236  12.497  0.2594  0.2714 -0.3243
  731MPD2    H710866   2.186   0.279  12.416  0.4585  0.9090 -0.0985
  732TMC3    C110867   2.432   0.250  12.377  0.7222  0.2247 -0.0056
  732TMC3    C210868   2.382   0.221  12.258  0.0162 -0.1107  0.3709
  732TMC3    C310869   2.455   0.246  12.143  0.3122  0.0819 -0.1810
  732TMC3    C410870   2.564   0.290  12.387  0.5952  0.3593 -0.7276
  732TMC3    C510871   2.638   0.312  12.269  1.1215 -0.4211 -0.5147
  732TMC3    C610872   2.581   0.290  12.148  0.1464  0.9873 -0.3518
  732TMC3     C10873   2.364   0.220  12.497  0.0290  0.5841  1.0873
  732TMC3     O10874   2.438   0.194  12.593  0.0319 -0.3779  0.5924
  732TMC3     H10875   2.280   0.185  12.250  0.3767 -1.3169  1.1708
  732TMC3    H110876   2.605   0.320  12.483 -0.9918 -3.4589  1.1359
  732TMC3    H210877   2.644   0.300  12.061 -1.5378  2.0582 -1.4604
  732TMC3    C710878   2.781   0.337  12.278 -0.4385  0.8014 -0.1275
  732TMC3    C810879   2.393   0.222  12.016 -0.0817  0.5020 -0.6125
  732TMC3    O110880   2.848   0.321  12.177 -0.3512  0.0502  0.2562
  732TMC3    O210881   2.470   0.218  11.921 -0.2872 -0.3730 -0.0164
  733TMC3    C110882   3.502   3.270  13.355 -0.0319 -0.2713 -0.1389
  733TMC3    C210883   3.557   3.393  13.329 -0.2986 -0.2399  0.2684
  733TMC3    C310884   3.624   3.406  13.210  0.4628  0.0687  0.3583
  733TMC3    C410885   3.513   3.165  13.274  0.7520  0.5117  0.4275
  733TMC3    C510886   3.581   3.180  13.155  0.2068 -0.3211 -0.2407
  733TMC3    C610887   3.640   3.297  13.124 -0.0124 -0.7002 -0.0106
  733TMC3     C10888   3.360   3.282  13.374  0.2411 -0.4501 -0.8848
  733TMC3     O10889   3.302   3.352  13.291  0.1390 -0.8214 -0.0326
  733TMC3     H10890   3.544   3.471  13.402 -1.1208 -0.7671  0.6840
  733TMC3    H110891   3.458   3.075  13.302  0.5659 -0.0139 -1.6258
  733TMC3    H210892   3.674   3.330  13.026 -0.5675  1.3300  0.4879
  733TMC3    C710893   3.510   3.140  13.038 -1.0605  0.2783 -0.1335
  733TMC3    C810894   3.600   3.525  13.137 -0.1166  0.5882 -0.1752
  733TMC3    O110895   3.572   3.081  12.949 -0.1345 -0.2893  0.3883
  733TMC3    O210896   3.689   3.556  13.062  0.1283 -0.0103  0.3848
  734MPD2     C10897   0.787   1.115  12.785 -0.2365 -0.4426 -0.7017
  734MPD2    C110898   0.654   1.080  12.750  0.3588 -0.1098  0.5984
  734MPD2    C210899   0.596   1.149  12.652 -0.6888 -0.3927  0.0582
  734MPD2    C310900   0.661   1.252  12.582  0.5659 -0.0935 -0.0035
  734MPD2    C410901   0.796   1.272  12.608 -0.3928 -0.6726 -0.3165
  734MPD2    C510902   0.857   1.206  12.713  0.3771  0.0263 -0.2531
  734MPD2     H10903   0.495   1.118  12.625 -1.6832  1.6214  1.4702
  734MPD2    H110904   0.861   1.338  12.552 -0.9793  0.7016  0.6164
  734MPD2    H210905   0.845   1.073  12.867  0.5649  1.7256 -0.1495
  734MPD2    H310906   0.962   1.218  12.736  0.0014  4.0576 -0.6866
  734MPD2     N10907   0.590   1.308  12.468  0.5613 -0.1577 -0.5747
  734MPD2    H510908   0.493   1.281  12.468  0.5912 -0.2318 -4.4918
  734MPD2    N110909   0.595   0.968  12.818  0.4942 -0.1176 -0.3376
  734MPD2    H710910   0.648   0.912  12.883  1.5376  1.2087 -0.0455
  735TMC3    C110911   0.436   0.801  12.845 -0.3206 -0.5928 -0.5542
  735TMC3    C210912   0.303   0.771  12.823 -0.0485  0.1680 -0.2627
  735TMC3    C310913   0.264   0.639  12.792 -0.5021 -0.2538 -0.0026
  735TMC3    C410914   0.523   0.696  12.832  0.0193  0.6553 -0.1847
  735TMC3    C510915   0.483   0.565  12.817  0.1742  0.8363  0.0970
  735TMC3    C610916   0.352   0.530  12.796  0.1033 -0.3348  0.2063
  735TMC3     C10917   0.470   0.921  12.786  0.3392  0.2047  0.1234
  735TMC3     O10918   0.373   0.967  12.726  0.2278 -0.0631  0.2962
  735TMC3     H10919   0.223   0.843  12.837 -0.3405 -0.0989 -0.5592
  735TMC3    H110920   0.629   0.718  12.828  0.1802 -0.0453  0.1608
  735TMC3    H210921   0.310   0.430  12.790  2.9580 -1.5672  0.6430
  735TMC3    C710922   0.588   0.473  12.784  0.4788 -0.0053 -0.1236
  735TMC3    C810923   0.177   0.629  12.683  0.1971 -0.1033  0.5573
  735TMC3    O110924   0.691   0.523  12.738 -0.7031  0.4406  0.3007
  735TMC3    O210925   0.152   0.517  12.642 -0.2883 -0.5221  0.0724
  736MPD2     C10926   0.581   0.115  12.819  0.5714 -0.5044  0.3153
  736MPD2    C110927   0.613   0.229  12.753  0.1531 -1.0842 -0.3334
  736MPD2    C210928   0.709   0.222  12.654 -0.2806 -0.0603  0.0383
  736MPD2    C310929   0.782   0.105  12.630  0.4527  0.5871 -0.9692
  736MPD2    C410930   0.755   4.730  12.707 -0.2721 -0.0631 -0.3689
  736MPD2    C510931   0.654   4.734  12.798  0.0594  0.0178  0.1326
  736MPD2     H10932   0.726   0.310  12.592 -3.2796 -0.0553 -0.7590
  736MPD2    H110933   0.808   4.636  12.693  3.2798  1.9082 -0.2542
  736MPD2    H210934   0.512   0.118  12.903  1.0517 -1.0071  0.7307
  736MPD2    H310935   0.627   4.647  12.857 -0.8712  0.2302  0.0244
  736MPD2     N10936   0.888   0.087  12.541 -0.0174 -0.0409 -0.3117
  736MPD2    H510937   0.939   4.735  12.536  1.9082  0.9935  1.0107
  736MPD2    N110938   0.547   0.350  12.804  0.2442  0.5833 -0.2229
  736MPD2    H710939   0.467   0.345  12.867  0.0397  0.3785 -0.4987
  737TMC3    C110940   1.075   0.160  12.418 -0.2941 -0.5029  0.0646
  737TMC3    C210941   1.143   0.270  12.383  0.9545  0.1759 -0.7996
  737TMC3    C310942   1.196   0.282  12.258 -0.4128 -0.1995 -0.1247
  737TMC3    C410943   1.056   0.059  12.329  0.3681 -0.0539 -0.4602
  737TMC3    C510944   1.088   0.086  12.193 -0.1034  0.0031  0.1571
  737TMC3    C610945   1.165   0.190  12.160  0.1740  0.6123  0.0354
  737TMC3     C10946   0.950   0.196  12.481  0.2268  0.6730 -0.4621
  737TMC3     O10947   0.903   0.306  12.468 -0.4476  0.3672  0.1667
  737TMC3     H10948   1.159   0.356  12.447 -0.3890 -0.4585  0.3983
  737TMC3    H110949   1.013   4.699  12.357  0.0829 -0.0498 -0.8883
  737TMC3    H210950   1.211   0.222  12.068 -0.5067 -1.9598 -1.1994
  737TMC3    C710951   1.078   4.701  12.113  0.5390  0.4059 -0.3278
  737TMC3    C810952   1.201   0.416  12.206  0.1467  0.1866  0.4524
  737TMC3    O110953   1.070   4.594  12.168  0.3444  0.5228 -0.2115
  737TMC3    O210954   1.293   0.482  12.256  0.4089 -0.2286 -0.2316
  738MPD2     C10955   2.141   3.582  15.198  0.9415  0.2825 -0.3236
  738MPD2    C110956   2.050   3.620  15.102 -0.2260 -0.1599  0.0770
  738MPD2    C210957   2.081   3.722  15.019  0.4039  0.0414  0.8021
  738MPD2    C310958   2.188   3.803  15.046 -0.6368  0.1582  0.0575
  738MPD2    C410959   2.281   3.768  15.148  0.0232  0.2051 -0.0299
  738MPD2    C510960   2.254   3.654  15.218 -0.0086  0.6191  0.0237
  738MPD2     H10961   2.013   3.745  14.938  0.8397  1.2172  0.7635
  738MPD2    H110962   2.376   3.818  15.166  0.3438 -0.1210 -0.8233
  738MPD2    H210963   2.129   3.499  15.266  0.0814  0.8865  0.2623
  738MPD2    H310964   2.330   3.618  15.287 -1.1888 -1.5856  0.1531
  738MPD2     N10965   2.230   3.916  14.975  0.3622  0.3750 -0.3247
  738MPD2    H510966   2.323   3.952  14.995  0.3150  0.3339 -0.0346
  738MPD2    N110967   1.925   3.551  15.090  0.0234  0.2602 -0.0191
  738MPD2    H710968   1.858   3.591  15.025 -1.6279 -0.8936  0.9856
  739TMC3    C110969   2.226   4.091  14.813  0.3152  0.6522  0.3177
  739TMC3    C210970   2.146   4.170  14.733 -0.1938  0.5018 -0.2758
  739TMC3    C310971   2.210   4.279  14.673 -0.0409 -0.5423 -0.2489
  739TMC3    C410972   2.349   4.128  14.852 -0.3571 -0.2735  0.7760
  739TMC3    C510973   2.395   4.242  14.799 -0.6694  0.6984  0.8414
  739TMC3    C610974   2.334   4.316  14.704  0.2594 -0.0332 -0.5600
  739TMC3     C10975   2.162   3.973  14.874 -0.5644 -0.1626  0.1466
  739TMC3     O10976   2.043   3.955  14.850  0.0150  0.3581 -0.1126
  739TMC3     H10977   2.042   4.148  14.711  0.1422 -1.5251  0.1721
  739TMC3    H110978   2.412   4.068  14.917 -1.1370 -2.4741 -0.5221
  739TMC3    H210979   2.386   4.400  14.658  3.5189 -1.9681 -0.4341
  739TMC3    C710980   2.521   4.282  14.861  0.1046 -0.1300  0.1874
  739TMC3    C810981   2.137   4.355  14.574  0.2468  0.4267  0.1441
  739TMC3    O110982   2.598   4.199  14.897  0.6413 -0.1844 -0.1878
  739TMC3    O210983   2.012   4.355  14.584 -0.6524  0.0570  0.0276
  740TMC3    C110984   2.124   0.638  14.718  0.1790  0.2911 -0.0948
  740TMC3    C210985   2.165   0.574  14.829  0.6462 -0.4695 -0.0071
  740TMC3    C310986   2.292   0.521  14.826  0.0863  0.0082  0.1367
  740TMC3    C410987   2.203   0.649  14.604 -0.1788  0.3147  0.2533
  740TMC3    C510988   2.333   0.598  14.613  0.1826  0.4812 -0.3697
  740TMC3    C610989   2.380   0.534  14.724  0.3194  1.0090 -0.5787
  740TMC3     C10990   1.985   0.685  14.707 -0.1682 -0.6483 -0.4343
  740TMC3     O10991   1.948   0.733  14.599 -0.4621  0.4572  0.1031
  740TMC3     H10992   2.115   0.592  14.924 -0.4739  0.4499 -0.7768
  740TMC3    H110993   2.167   0.696  14.513  0.1481 -1.1339 -0.6109
  740TMC3    H210994   2.477   0.487  14.729 -1.4976 -2.6686 -0.4774
  740TMC3    C710995   2.435   0.600  14.509 -0.0034  0.1722  0.0600
  740TMC3    C810996   2.336   0.401  14.907 -0.7461  0.3418  0.4001
  740TMC3    O110997   2.548   0.570  14.542  0.0533 -1.0277  0.2308
  740TMC3    O210998   2.457   0.384  14.920  0.1060  0.8051 -0.6449
  741TMC3    C110999   1.986   4.666  14.940  0.1236  0.3544  0.1412
  741TMC3    C211000   1.861   4.644  14.986 -0.0333 -0.1657 -0.2558
  741TMC3    C311001   1.846   4.547  15.079  0.0383  0.4470  0.1110
  741TMC3    C411002   2.089   4.576  14.963 -0.1341 -0.1584  0.4856
  741TMC3    C511003   2.068   4.474  15.051 -0.9732  0.0241 -0.0140
  741TMC3    C611004   1.950   4.461  15.114 -0.4901 -0.5064 -0.4944
  741TMC3     C11005   2.020   0.033  14.834  0.6677  0.0053 -0.4375
  741TMC3     O11006   2.104   0.004  14.753  0.2161 -0.4835 -0.1416
  741TMC3     H11007   1.780   4.711  14.958 -1.0763 -0.9108  0.9897
  741TMC3    H111008   2.190   4.590  14.924 -0.0203 -2.1643  0.0999
  741TMC3    H211009   1.937   4.372  15.175 -0.5659 -0.2341 -0.1088
  741TMC3    C711010   2.189   4.413  15.107  0.2325  0.7633  0.0911
  741TMC3    C811011   1.707   4.520  15.104  0.1397 -0.7605  0.0255
  741TMC3    O111012   2.285   4.392  15.038  0.2891 -0.5987  0.4818
  741TMC3    O211013   1.626   4.563  15.021  0.6260 -0.2151 -0.3017
  742TMC3    C111014   1.476   2.892  15.249  0.5028 -0.1952 -0.1341
  742TMC3    C211015   1.404   2.913  15.137 -0.0528  1.0628  0.2341
  742TMC3    C311016   1.479   2.969  15.028  0.6415  0.5795  0.0215
  742TMC3    C411017   1.605   2.933  15.276 -0.6310  0.2182 -0.0176
  742TMC3    C511018   1.667   2.995  15.171  0.9110 -0.3981  0.2667
  742TMC3    C611019   1.609   3.002  15.039  0.2043  0.5083 -0.1265
  742TMC3     C11020   1.413   2.816  15.349  0.0370  0.5946 -0.3641
  742TMC3     O11021   1.289   2.825  15.348 -0.4053 -0.0710  0.5558
  742TMC3     H11022   1.316   2.850  15.123  0.5935 -0.0706  1.3441
  742TMC3    H111023   1.655   2.910  15.369 -0.2039  0.4450 -0.1959
  742TMC3    H211024   1.655   3.029  14.945 -1.4530  2.0125 -0.4989
  742TMC3    C711025   1.808   2.971  15.180  0.0789  0.4687  0.7689
  742TMC3    C811026   1.421   2.971  14.904 -0.5027 -0.1928 -0.3536
  742TMC3    O111027   1.859   2.927  15.078 -0.2176 -0.0193 -0.4591
  742TMC3    O211028   1.502   2.982  14.807 -0.2361 -0.2746  0.4177
  743MPD2     C11029   4.285   3.706   1.787 -0.0302 -0.1981 -0.7458
  743MPD2    C111030   4.342   3.780   1.684 -0.4526  0.0348  0.4808
  743MPD2    C211031   4.475   3.796   1.677  0.5100  0.4537  1.1268
  743MPD2    C311032   4.562   3.744   1.773 -0.6866 -0.0972 -0.4261
  743MPD2    C411033   4.507   3.669   1.873 -0.6722  0.1934 -0.8101
  743MPD2    C511034   4.371   3.651   1.879 -0.1598  0.6597 -0.3410
  743MPD2     H11035   4.524   3.853   1.599  1.0274  1.0304  1.8825
  743MPD2    H111036   4.570   3.624   1.949 -0.8477 -0.5625 -1.1138
  743MPD2    H211037   4.179   3.683   1.793 -0.0297 -0.0831 -0.3229
  743MPD2    H311038   4.326   3.597   1.961 -1.6178  0.3627 -1.3222
  743MPD2     N11039   4.701   3.768   1.752  0.2347 -0.0729 -0.0531
  743MPD2    H511040   4.734   3.830   1.679  1.7465 -0.1930  0.5277
  743MPD2    N111041   4.249   3.839   1.594 -0.3228 -0.6390 -0.7398
  743MPD2    H711042   4.156   3.836   1.634  0.7442 -1.8990  1.6636
  744TMC3    C111043   4.157   3.954   1.402  0.6475  0.4689  0.6651
  744TMC3    C211044   4.064   4.025   1.475 -0.6125 -0.4466 -0.4737
  744TMC3    C311045   3.953   4.067   1.413 -0.1385  0.5047 -0.0006
  744TMC3    C411046   4.150   3.942   1.265  0.4349  0.1465  0.4015
  744TMC3    C511047   4.044   3.995   1.204 -0.3242 -0.3254  0.4602
  744TMC3    C611048   3.939   4.049   1.275 -0.1556  0.4143  0.5379
  744TMC3     C11049   4.270   3.887   1.466 -0.1526 -0.5773  0.0965
  744TMC3     O11050   4.365   3.863   1.397 -0.3589  0.0908 -0.5001
  744TMC3     H11051   4.082   4.031   1.582  0.1148 -0.0919 -0.6162
  744TMC3    H111052   4.234   3.903   1.209  0.1892  0.6970 -0.3480
  744TMC3    H211053   3.847   4.079   1.227  1.0038 -0.5460 -2.2813
  744TMC3    C711054   4.028   3.983   1.058 -0.7218  0.0718  0.3596
  744TMC3    C811055   3.830   4.090   1.491 -0.1026  0.1814 -0.6150
  744TMC3    O111056   3.963   4.070   1.004  0.0304  0.2632 -0.1436
  744TMC3    O211057   3.833   4.055   1.609  0.0591  0.0252  0.5238
  745TMC3    C111058   1.855   2.819  13.681  0.7808 -0.5648  1.3735
  745TMC3    C211059   1.737   2.754  13.693  0.1593 -0.0908  0.3001
  745TMC3    C311060   1.646   2.769  13.597  0.5219 -0.4351  0.8351
  745TMC3    C411061   1.893   2.887  13.570  0.1091  0.6084  0.5120
  745TMC3    C511062   1.804   2.888  13.469  0.3765 -0.5639 -0.7953
  745TMC3    C611063   1.682   2.825  13.478 -0.1172  0.2686  0.6905
  745TMC3     C11064   1.932   2.823  13.797  0.1582  0.0126 -0.4725
  745TMC3     O11065   1.891   2.751  13.887  0.4806  0.0313 -0.0741
  745TMC3     H11066   1.711   2.706  13.787  1.9988  0.8418  1.2772
  745TMC3    H111067   1.999   2.899  13.553 -0.2643  2.6012 -0.4392
  745TMC3    H211068   1.609   2.838  13.398  1.0645  1.6871 -0.1421
  745TMC3    C711069   1.836   2.947  13.337 -0.4652  0.0526  0.1485
  745TMC3    C811070   1.538   2.857  13.644 -0.2645  0.4038  0.5734
  745TMC3    O111071   1.761   2.931  13.247  0.2380  0.2074  0.0268
  745TMC3    O211072   1.455   2.898  13.567 -0.6030 -0.5944  0.5935
  746TMC3    C111073   3.828   4.551  11.324 -0.0749  0.0468 -0.6335
  746TMC3    C211074   3.909   4.562  11.214  0.4956 -0.7530 -0.6046
  746TMC3    C311075   3.906   4.456  11.126  0.1762 -0.4368 -0.4481
  746TMC3    C411076   3.772   4.436  11.360 -0.1751 -1.0288 -0.6592
  746TMC3    C511077   3.771   4.331  11.273  0.1068  0.1871  0.4342
  746TMC3    C611078   3.827   4.347  11.152 -0.8217 -0.6338 -0.3898
  746TMC3     C11079   3.783   4.673  11.383 -0.5259  0.6021  0.4214
  746TMC3     O11080   3.745   4.674  11.501 -0.2848  0.6277 -0.0163
  746TMC3     H11081   3.977   4.645  11.200  1.1969 -1.0935  0.7385
  746TMC3    H111082   3.719   4.420  11.454 -2.5575 -0.1067 -1.8286
  746TMC3    H211083   3.820   4.270  11.076 -0.5412 -0.6547 -0.3945
  746TMC3    C711084   3.677   4.227  11.289  0.1806  0.5445 -1.1013
  746TMC3    C811085   3.971   4.474  10.996  0.4229  0.2443  0.4602
  746TMC3    O111086   3.646   4.180  11.183 -0.4950 -0.2357 -0.3566
  746TMC3    O211087   3.992   4.374  10.930  0.2562 -0.4109  0.4618
  747TMC3    C111088   1.226   4.713  11.147  1.0048 -0.4506 -0.1646
  747TMC3    C211089   1.271   4.614  11.229 -0.4372  0.4466  0.2237
  747TMC3    C311090   1.351   4.641  11.335  1.0266 -0.8817  0.3565
  747TMC3    C411091   1.265   0.111  11.176 -0.7086  0.1604 -0.4303
  747TMC3    C511092   1.362   0.135  11.263 -0.0734  0.1284  0.8496
  747TMC3    C611093   1.396   0.032  11.356  0.1538  0.4880  0.0948
  747TMC3     C11094   1.132   4.695  11.041 -0.0877  0.3880 -0.4879
  747TMC3     O11095   1.051   0.045  11.013 -0.4061 -0.5482 -0.1640
  747TMC3     H11096   1.239   4.511  11.223  2.6761 -0.6084  1.6328
  747TMC3    H111097   1.225   0.189  11.112  0.6034  0.9159 -0.3198
  747TMC3    H211098   1.444   0.051  11.451  1.5235 -2.7250  0.0566
  747TMC3    C711099   1.420   0.267  11.259  0.0824 -0.0334  0.5864
  747TMC3    C811100   1.329   4.557  11.449  0.2917  0.6639  0.6696
  747TMC3    O111101   1.354   0.350  11.204  0.3427  0.0465 -0.2454
  747TMC3    O211102   1.316   4.438  11.421 -0.0316 -0.9858  0.2655
  748MPD2     C11103   3.641   0.557   0.570  1.0272  0.7978 -0.0954
  748MPD2    C111104   3.625   0.620   0.696 -0.8294  0.1536 -0.0442
  748MPD2    C211105   3.724   0.705   0.741 -0.7649 -0.1155  0.5356
  748MPD2    C311106   3.845   0.721   0.671 -0.6228  0.8267 -0.3967
  748MPD2    C411107   3.864   0.650   0.553 -0.6963 -0.4437 -0.6725
  748MPD2    C511108   3.759   0.573   0.509  0.4421  0.3350 -0.4955
  748MPD2     H11109   3.694   0.777   0.816 -0.5893  0.6871 -0.1616
  748MPD2    H111110   3.961   0.655   0.504 -0.2337 -0.3486  0.2612
  748MPD2    H211111   3.572   0.479   0.540 -0.5374  1.2295  2.3958
  748MPD2    H311112   3.769   0.524   0.413 -0.6125  0.7928 -0.8368
  748MPD2     N11113   3.956   0.789   0.735 -0.3710  0.5945  0.5588
  748MPD2    H511114   3.934   0.821   0.829 -1.9389  1.4187 -0.0969
  748MPD2    N111115   3.500   0.603   0.765  0.1575 -0.7285 -0.2943
  748MPD2    H711116   3.420   0.573   0.711 -0.4563  0.1924  0.0960
  749TMC3    C111117   4.137   0.930   0.760 -0.0264 -0.4422  0.1908
  749TMC3    C211118   4.163   0.884   0.890 -0.1618  0.3959  0.4887
  749TMC3    C311119   4.215   0.977   0.980  0.3933  0.1421 -0.6435
  749TMC3    C411120   4.155   1.058   0.724  0.0488 -0.0648 -0.1868
  749TMC3    C511121   4.200   1.147   0.818 -0.0616  0.1949 -0.3617
  749TMC3    C611122   4.225   1.108   0.947 -0.9323 -0.4252 -0.2224
  749TMC3     C11123   4.062   0.843   0.677 -0.0158  0.8177 -0.0269
  749TMC3     O11124   4.098   0.841   0.558  0.2795  0.2035  0.2946
  749TMC3     H11125   4.146   0.781   0.920  0.5716 -0.6615 -2.7357
  749TMC3    H111126   4.120   1.091   0.627  0.4327 -0.3042 -0.4011
  749TMC3    H211127   4.253   1.183   1.020 -1.0731 -1.9373  1.4092
  749TMC3    C711128   4.200   1.293   0.787  0.0781  0.2717  0.0531
  749TMC3    C811129   4.265   0.939   1.105 -0.2933 -0.3218 -0.2189
  749TMC3    O111130   4.216   1.368   0.880 -0.0216  0.2426  0.4930
  749TMC3    O211131   4.249   1.015   1.197  0.1399  0.2092  0.0501
  750MPD2     C11132   3.785   1.952  11.804  0.4018  0.3680 -0.2497
  750MPD2    C111133   3.661   1.891  11.807 -0.2580 -0.5681  0.0597
  750MPD2    C211134   3.607   1.846  11.689 -0.1298 -0.6528 -0.2882
  750MPD2    C311135   3.685   1.850  11.575 -0.2655  0.0321 -0.2460
  750MPD2    C411136   3.808   1.912  11.564 -0.1840  0.0309 -0.3091
  750MPD2    C511137   3.859   1.953  11.687 -0.2900  0.1062  0.4182
  750MPD2     H11138   3.509   1.799  11.691 -0.1470 -0.5456  1.1424
  750MPD2    H111139   3.870   1.933  11.478 -0.5816 -2.5704 -1.2275
  750MPD2    H211140   3.830   1.995  11.892  1.7702  0.6721 -1.1069
  750MPD2    H311141   3.952   2.008  11.692 -0.3628  0.3653 -1.1027
  750MPD2     N11142   3.637   1.801  11.453 -0.2062  0.7654 -0.4019
  750MPD2    H511143   3.683   1.821  11.365  0.3728 -0.3354 -0.3564
  750MPD2    N111144   3.593   1.895  11.935 -0.0847  0.4449  0.4043
  750MPD2    H711145   3.640   1.929  12.018  0.9557  2.4662 -0.9986
  751TMC3    C111146   3.528   1.649  11.313  0.1691  0.0034  0.4212
  751TMC3    C211147   3.407   1.594  11.277 -0.0371 -0.4416  0.6665
  751TMC3    C311148   3.391   1.494  11.183 -0.4990  0.2621 -0.4880
  751TMC3    C411149   3.633   1.616  11.228 -0.3278  0.1953 -0.4773
  751TMC3    C511150   3.622   1.508  11.145 -0.1401  0.4279 -0.3567
  751TMC3    C611151   3.506   1.439  11.131 -0.3095  0.2361 -0.2730
  751TMC3     C11152   3.534   1.712  11.444  0.7540 -0.2635 -0.3905
  751TMC3     O11153   3.473   1.649  11.534 -0.1254  0.9514  0.1550
  751TMC3     H11154   3.319   1.628  11.330 -1.5525 -1.1659 -1.4154
  751TMC3    H111155   3.733   1.655  11.246 -0.2658  0.0713 -0.5558
  751TMC3    H211156   3.513   1.360  11.057 -1.4177 -2.0506  2.1026
  751TMC3    C711157   3.749   1.429  11.136 -0.2141 -0.1729  0.4961
  751TMC3    C811158   3.267   1.417  11.164  0.3541  0.2295  0.3359
  751TMC3    O111159   3.859   1.489  11.125  0.2895  0.5182 -0.4825
  751TMC3    O211160   3.275   1.333  11.074 -0.3253  0.1543 -0.0377
  752TMC3    C111161   2.758   1.819  17.165 -0.0579 -0.2450 -0.8238
  752TMC3    C211162   2.835   1.724  17.233  0.4741  0.0120  1.4318
  752TMC3    C311163   2.786   1.677  17.355 -0.1791  0.2057  0.0782
  752TMC3    C411164   2.649   1.881  17.229  0.1494  0.3590  0.5966
  752TMC3    C511165   2.602   1.820  17.340  0.4597  0.0657 -0.1122
  752TMC3    C611166   2.664   1.717  17.406 -1.1101 -0.6666 -0.4450
  752TMC3     C11167   2.825   1.881  17.054  0.6345 -0.1798 -0.1419
  752TMC3     O11168   2.950   1.857  17.038 -1.0303 -0.1157  0.1895
  752TMC3     H11169   2.928   1.689  17.190  1.2439  2.4350  1.1200
  752TMC3    H111170   2.588   1.952  17.175  0.1889  0.3843  0.5847
  752TMC3    H211171   2.622   1.664  17.491 -0.6345 -1.4077 -0.6810
  752TMC3    C711172   2.495   1.894  17.409  0.5712  0.5046 -0.8638
  752TMC3    C811173   2.844   1.566  17.418  0.2975 -1.0412 -0.0323
  752TMC3    O111174   2.454   1.991  17.351 -0.5156  0.1712  0.4108
  752TMC3    O211175   2.828   1.564  17.536  0.2441  0.0199  0.0981
  753TMC3    C111176   0.117   2.850  13.684  0.4545  0.7450 -0.4698
  753TMC3    C211177   0.231   2.806  13.747 -0.3356  0.0078 -0.6382
  753TMC3    C311178   0.220   2.689  13.807 -1.3177 -0.1714 -0.3436
  753TMC3    C411179   4.734   2.783  13.676 -0.0635 -0.4546  0.1943
  753TMC3    C511180   4.730   2.663  13.738 -0.4349 -0.0087 -0.1089
  753TMC3    C611181   0.101   2.619  13.808  0.1863 -0.0308 -0.1540
  753TMC3     C11182   0.126   2.992  13.641  0.0997  0.2950 -0.0009
  753TMC3     O11183   0.224   3.058  13.683 -0.4185  0.0465 -0.7059
  753TMC3     H11184   0.322   2.858  13.721 -0.5500 -0.2051 -1.8142
  753TMC3    H111185   4.648   2.827  13.626  0.5053  1.3869  0.8210
  753TMC3    H211186   0.085   2.531  13.870  0.5208 -1.4842 -2.1260
  753TMC3    C711187   4.611   2.583  13.719 -0.0204  0.3235 -0.4076
  753TMC3    C811188   0.333   2.631  13.873  0.6129 -0.0367 -0.3726
  753TMC3    O111189   4.509   2.649  13.698  0.1920  0.0741 -0.0126
  753TMC3    O211190   0.328   2.512  13.903 -0.4492 -0.0969 -0.2224
  754MPD2     C11191   3.910   1.467  13.339  0.1794 -0.1360  1.0589
  754MPD2    C111192   3.830   1.372  13.389 -0.0455  0.6077  0.3277
  754MPD2    C211193   3.710   1.421  13.442 -0.5222 -0.0771 -0.8655
  754MPD2    C311194   3.682   1.553  13.459 -0.3237 -0.3837 -0.5056
  754MPD2    C411195   3.773   1.644  13.410  0.5302 -0.1178 -0.4914
  754MPD2    C511196   3.889   1.600  13.346  0.0972 -0.7001 -0.2534
  754MPD2     H11197   3.631   1.349  13.458 -0.1359 -0.1844  0.4896
  754MPD2    H111198   3.743   1.747  13.418 -1.9452 -0.9838  1.5169
  754MPD2    H211199   3.985   1.425  13.273 -0.1087 -0.6536  1.0531
  754MPD2    H311200   3.942   1.679  13.294  1.1237 -1.7440 -0.7964
  754MPD2     N11201   3.561   1.609  13.510  0.6150 -0.3070  0.6011
  754MPD2    H511202   3.545   1.707  13.489  2.2484  0.5922  3.5351
  754MPD2    N111203   3.863   1.240  13.379 -0.4209 -0.4634 -0.0232
  754MPD2    H711204   3.947   1.223  13.324 -0.6276 -1.6389  0.0278
  755MPD2     C11205   3.190   2.362  13.388 -0.2700  0.5193 -0.0815
  755MPD2    C111206   3.074   2.280  13.377 -0.0228  0.3162 -0.0684
  755MPD2    C211207   3.082   2.147  13.398 -0.8208  0.1593  0.4649
  755MPD2    C311208   3.207   2.088  13.432  0.4208 -0.4409  0.1961
  755MPD2    C411209   3.318   2.173  13.449  0.0161 -0.1085 -0.0919
  755MPD2    C511210   3.306   2.303  13.421 -0.6762  0.4478  0.0499
  755MPD2     H11211   2.993   2.087  13.383  0.1270 -0.9522 -0.7311
  755MPD2    H111212   3.411   2.131  13.484 -0.3669 -1.0755 -0.2376
  755MPD2    H211213   3.185   2.469  13.375 -0.0076  0.5580  0.1351
  755MPD2    H311214   3.390   2.369  13.435 -0.6393  0.5672 -0.7490
  755MPD2     N11215   3.224   1.952  13.456  0.1086 -0.3129  0.4669
  755MPD2    H511216   3.322   1.933  13.472  0.8548  0.6084 -3.0376
  755MPD2    N111217   2.945   2.331  13.356 -0.1841  0.1410 -0.8942
  755MPD2    H711218   2.871   2.266  13.381  0.6069 -0.1709  0.5752
  756MPD2     C11219   3.031   2.180  10.437  0.1063 -0.0394  0.6058
  756MPD2    C111220   3.123   2.149  10.530  0.6732 -0.3091 -0.2804
  756MPD2    C211221   3.194   2.029  10.512 -0.5437 -0.1502  0.0142
  756MPD2    C311222   3.166   1.947  10.406  0.1004 -0.2326 -0.4096
  756MPD2    C411223   3.060   1.975  10.321 -0.1873  0.0198 -0.0829
  756MPD2    C511224   2.999   2.097  10.335 -0.1247  0.0459  0.0451
  756MPD2     H11225   3.262   1.986  10.585 -1.3560  1.0268  1.4689
  756MPD2    H111226   3.028   1.915  10.237  0.8349  1.4552 -1.4969
  756MPD2    H211227   2.984   2.277  10.426 -0.8394 -0.4242  1.2630
  756MPD2    H311228   2.928   2.120  10.256 -0.1446  0.1812  0.1013
  756MPD2     N11229   3.237   1.826  10.397  0.1242 -0.6810  0.2466
  756MPD2    H511230   3.315   1.816  10.461 -0.6910 -2.2137  0.9804
  756MPD2    N111231   3.150   2.233  10.639  0.2770 -0.2831 -0.3451
  756MPD2    H711232   3.235   2.215  10.691  1.3490  0.5968 -1.7772
  757MPD2     C11233   3.165   0.929  10.755 -0.6914  0.1591  0.3362
  757MPD2    C111234   3.168   0.907  10.616 -0.3919 -0.1813  0.7466
  757MPD2    C211235   3.214   1.010  10.530  0.3995  0.0940 -0.2841
  757MPD2    C311236   3.248   1.132  10.579  0.3627  0.0040 -0.2740
  757MPD2    C411237   3.231   1.156  10.717  0.2319 -0.6169  0.5229
  757MPD2    C511238   3.189   1.057  10.800  0.3164  0.5273 -0.2904
  757MPD2     H11239   3.224   0.994  10.424 -1.6935 -1.6354 -0.2188
  757MPD2    H111240   3.252   1.255  10.756  1.6391 -1.0962  0.9849
  757MPD2    H211241   3.132   0.853  10.825 -0.9990 -1.5532 -1.6533
  757MPD2    H311242   3.179   1.082  10.905  1.7653 -0.5146  0.0892
  757MPD2     N11243   3.282   1.235  10.484  0.1048 -0.5271 -0.8274
  757MPD2    H511244   3.278   1.206  10.387  0.4832  0.7385 -1.2207
  757MPD2    N111245   3.131   0.781  10.576  0.0067  0.8170 -0.6143
  757MPD2    H711246   3.099   0.710  10.641 -0.1970  0.5500 -1.0057
  758MPD2     C11247   3.885   1.506  15.568  0.4076 -0.1081 -0.3626
  758MPD2    C111248   3.901   1.406  15.662 -0.5330 -0.2336 -0.0517
  758MPD2    C211249   3.852   1.427  15.789  0.6602 -0.3891 -0.0882
  758MPD2    C311250   3.794   1.547  15.822  0.2908 -0.0383  0.0199
  758MPD2    C411251   3.783   1.649  15.729 -0.3491 -0.0125 -0.2577
  758MPD2    C511252   3.834   1.626  15.602 -0.3649 -0.0232  0.2191
  758MPD2     H11253   3.860   1.353  15.867  1.2592  1.0251  1.1931
  758MPD2    H111254   3.740   1.745  15.756  2.4791  0.8563  1.1755
  758MPD2    H211255   3.924   1.497  15.467  0.8806 -1.6126 -0.0555
  758MPD2    H311256   3.838   1.703  15.525  1.8338 -1.7485 -1.4097
  758MPD2     N11257   3.749   1.573  15.953  0.3171  1.0174  0.3370
  758MPD2    H511258   3.717   1.666  15.977 -0.2809  0.9842 -0.3400
  758MPD2    N111259   3.958   1.283  15.625 -0.5840 -0.4060 -0.5179
  758MPD2    H711260   4.021   1.279  15.546  1.6730 -0.4742  1.2858
  759MPD2     C11261   1.255   4.030   9.960  0.0334 -0.2727  0.2592
  759MPD2    C111262   1.333   3.979  10.070  0.2580 -0.0435  0.2047
  759MPD2    C211263   1.424   4.064  10.129 -0.6616  0.0140 -0.2802
  759MPD2    C311264   1.450   4.187  10.075 -0.3678 -0.0691 -0.3560
  759MPD2    C411265   1.389   4.230   9.956  0.4201  0.0219 -0.1890
  759MPD2    C511266   1.282   4.161   9.910  0.0456  0.0248  1.0093
  759MPD2     H11267   1.477   4.024  10.215 -0.8589  0.6715  0.1449
  759MPD2    H111268   1.417   4.324   9.909  0.4584  0.6409  1.0768
  759MPD2    H211269   1.171   3.975   9.920 -0.5014 -0.3901  1.5539
  759MPD2    H311270   1.226   4.194   9.824 -0.1422  0.1459  1.1793
  759MPD2     N11271   1.543   4.273  10.136 -0.4545 -0.1295  0.6018
  759MPD2    H511272   1.582   4.251  10.227  1.5522  0.3317 -0.1335
  759MPD2    N111273   1.310   3.848  10.120 -0.0450 -0.0197  0.1497
  759MPD2    H711274   1.367   3.817  10.198 -0.6734 -0.5068  0.4235
  760MPD2     C11275   2.233   1.299  11.758 -0.0590  0.0434 -1.1551
  760MPD2    C111276   2.287   1.362  11.862  0.8560  0.9608 -0.0347
  760MPD2    C211277   2.336   1.287  11.971 -0.1742  0.0107 -0.1124
  760MPD2    C311278   2.333   1.149  11.959 -0.2250 -0.1041 -0.1203
  760MPD2    C411279   2.283   1.089  11.846  0.0235  0.3883 -0.5775
  760MPD2    C511280   2.232   1.163  11.749 -0.3784  0.1063 -0.0474
  760MPD2     H11281   2.388   1.341  12.049 -1.8707 -0.0570  1.0591
  760MPD2    H111282   2.286   0.982  11.828 -1.5110  0.5772 -2.0322
  760MPD2    H211283   2.200   1.354  11.670  0.7572  0.3977 -1.2404
  760MPD2    H311284   2.189   1.118  11.660  0.2198  1.2808 -0.9345
  760MPD2     N11285   2.383   1.064  12.059 -0.0699  0.2566  0.4775
  760MPD2    H511286   2.374   0.964  12.041  1.6572  0.1008  0.4875
  760MPD2    N111287   2.306   1.498  11.864  0.1089  1.0604 -0.3601
  760MPD2    H711288   2.352   1.541  11.943  1.4335  0.0334 -0.5817
  761MPD2     C11289   2.929   1.127  11.423 -0.1466 -0.2940 -0.2090
  761MPD2    C111290   3.014   1.100  11.319  0.1158  0.3263  0.6029
  761MPD2    C211291   3.092   1.197  11.266  0.0420  0.1694 -0.0277
  761MPD2    C311292   3.101   1.321  11.321  0.7044 -0.6959  0.3507
  761MPD2    C411293   3.026   1.345  11.434  0.3496  0.0957 -0.1874
  761MPD2    C511294   2.937   1.252  11.487 -0.4288  0.1533 -0.0871
  761MPD2     H11295   3.139   1.170  11.172  1.8641 -0.0510  0.9456
  761MPD2    H111296   3.042   1.441  11.481 -0.0897 -0.3981  0.9807
  761MPD2    H211297   2.867   1.049  11.463  0.7526 -1.1013 -0.3984
  761MPD2    H311298   2.881   1.283  11.575  0.4197 -1.9926  1.2289
  761MPD2     N11299   3.177   1.427  11.267 -0.1421  0.2476 -0.3778
  761MPD2    H511300   3.185   1.503  11.334  0.2597 -0.1931  0.0735
  761MPD2    N111301   3.019   0.966  11.282  0.2105 -0.3097 -0.2428
  761MPD2    H711302   2.945   0.908  11.319 -1.5725  0.3090 -2.8880
  762MPD2     C11303   3.537   0.965  11.005  0.4547 -0.0381 -0.1196
  762MPD2    C111304   3.545   0.832  11.025 -0.4316  0.4578  0.1413
  762MPD2    C211305   3.665   0.771  11.006 -0.3171 -0.4906 -0.0953
  762MPD2    C311306   3.767   0.840  10.950  0.2021 -0.3987  0.6078
  762MPD2    C411307   3.750   0.969  10.918 -0.0697 -0.8077 -0.4344
  762MPD2    C511308   3.632   1.033  10.939  0.6898  0.0695  0.2115
  762MPD2     H11309   3.683   0.666  11.025 -0.0991 -0.3950  0.2355
  762MPD2    H111310   3.831   1.031  10.881 -2.7354  2.7334 -0.3845
  762MPD2    H211311   3.445   1.017  11.030  2.0653  2.6375  0.2186
  762MPD2    H311312   3.625   1.138  10.913  0.0650 -0.0310 -0.0247
  762MPD2     N11313   3.889   0.775  10.928 -0.5451  0.5615  0.4139
  762MPD2    H511314   3.901   0.683  10.969 -1.4191 -0.4750 -1.6374
  762MPD2    N111315   3.428   0.775  11.085 -0.3173 -0.8860  0.0935
  762MPD2    H711316   3.357   0.835  11.124  1.2456  0.4396  0.9051
  763MPD2     C11317   1.235   1.633  16.153 -1.0709  0.4615  0.0005
  763MPD2    C111318   1.104   1.653  16.134 -0.8660  0.0783  0.7412
  763MPD2    C211319   1.056   1.784  16.132 -0.0632  0.1026  0.1254
  763MPD2    C311320   1.148   1.888  16.158  0.8896  0.2162  0.2790
  763MPD2    C411321   1.276   1.862  16.186  0.2605 -0.0170  0.3750
  763MPD2    C511322   1.313   1.732  16.198  0.0946 -0.4709  0.0232
  763MPD2     H11323   0.951   1.793  16.109  0.1665 -1.3667 -1.5720
  763MPD2    H111324   1.350   1.938  16.210  0.4467  0.0276 -0.3374
  763MPD2    H211325   1.277   1.534  16.141  0.8409  1.1181  1.3808
  763MPD2    H311326   1.419   1.707  16.201  0.2896  0.4664  0.7796
  763MPD2     N11327   1.113   2.019  16.167 -0.1038 -1.1054  0.5190
  763MPD2    H511328   1.193   2.082  16.168  0.6603 -2.0768  0.3545
  763MPD2    N111329   1.012   1.547  16.108  0.9565  0.6752  0.0231
  763MPD2    H711330   0.919   1.587  16.099  0.9308  0.0889 -2.1964
  764MPD2     C11331   3.629   2.794  17.151 -0.3511  0.6156  0.1203
  764MPD2    C111332   3.501   2.756  17.148 -0.5215  0.2311  0.4051
  764MPD2    C211333   3.448   2.673  17.243 -0.5635 -0.0178 -0.3844
  764MPD2    C311334   3.532   2.611  17.334  0.2227 -0.0517 -0.5713
  764MPD2    C411335   3.670   2.630  17.330  0.4730  0.4581 -0.5250
  764MPD2    C511336   3.718   2.726  17.243 -0.2160 -0.4635 -0.3780
  764MPD2     H11337   3.345   2.640  17.234 -0.3694 -0.6815 -0.2056
  764MPD2    H111338   3.736   2.575  17.395 -0.5112  0.1665  0.2259
  764MPD2    H211339   3.671   2.856  17.072 -0.8411  1.5649  0.6084
  764MPD2    H311340   3.825   2.744  17.238 -0.3245  0.1904 -0.4387
  764MPD2     N11341   3.480   2.516  17.420 -0.0188 -0.0745  0.1105
  764MPD2    H511342   3.383   2.490  17.407 -0.8356  0.6518  4.7397
  764MPD2    N111343   3.408   2.809  17.055 -0.5490  0.3829  0.2753
  764MPD2    H711344   3.316   2.767  17.057  0.9106 -2.8029  0.2995
  765MPD2     C11345   3.148   0.214  16.082 -0.3772  0.6216  0.5236
  765MPD2    C111346   3.198   0.343  16.069  0.5245  0.4563 -0.1399
  765MPD2    C211347   3.336   0.368  16.102  0.4892 -0.0185 -0.7910
  765MPD2    C311348   3.419   0.255  16.133 -0.0148 -0.2660 -0.3408
  765MPD2    C411349   3.367   0.128  16.138  0.1626  0.1790 -0.2418
  765MPD2    C511350   3.232   0.115  16.111 -0.3033 -0.5195  0.3475
  765MPD2     H11351   3.379   0.460  16.065 -1.0414  0.3250 -1.7515
  765MPD2    H111352   3.427   0.042  16.165 -0.2953  0.3108  1.2007
  765MPD2    H211353   3.042   0.192  16.067 -0.1890  1.2726 -1.7788
  765MPD2    H311354   3.183   0.019  16.119 -2.2718  0.5116  0.5875
  765MPD2     N11355   3.553   0.287  16.148  0.1165  0.3151 -0.1795
  765MPD2    H511356   3.573   0.386  16.148 -1.3727  0.6299  0.4540
  765MPD2    N111357   3.112   0.447  16.033  0.0018  0.9214 -0.2755
  765MPD2    H711358   3.019   0.425  15.998  0.0490  0.8635 -0.3634
  766MPD2     C11359   2.887   0.612  15.357 -0.0959 -0.0487 -0.5167
  766MPD2    C111360   3.000   0.622  15.432  0.3788 -0.1916 -0.8017
  766MPD2    C211361   3.127   0.605  15.369 -0.6099 -0.0717 -0.9016
  766MPD2    C311362   3.137   0.602  15.232 -0.2413 -0.7619 -0.6203
  766MPD2    C411363   3.020   0.591  15.156 -0.4465 -0.1980  0.5223
  766MPD2    C511364   2.906   0.590  15.222 -0.0760  0.4239  0.1617
  766MPD2     H11365   3.218   0.607  15.427 -0.6369  1.1685 -0.9012
  766MPD2    H111366   3.021   0.587  15.048 -1.0792 -0.3377  0.5200
  766MPD2    H211367   2.790   0.620  15.404  0.2339 -0.1810  0.1921
  766MPD2    H311368   2.823   0.554  15.162  0.6084  0.3387 -0.7221
  766MPD2     N11369   3.260   0.612  15.160 -0.7644 -0.2062  0.0468
  766MPD2    H511370   3.241   0.606  15.060  3.8595 -1.9204 -0.7259
  766MPD2    N111371   3.002   0.650  15.572 -0.3666  0.0060 -0.2133
  766MPD2    H711372   3.092   0.655  15.618  0.2881 -2.3952 -1.2412
  767MPD2     C11373   2.967   1.050  15.267 -1.3208 -0.1320  0.7892
  767MPD2    C111374   3.089   1.032  15.207 -0.4766  0.5695  0.3236
  767MPD2    C211375   3.087   0.964  15.084  0.5849 -0.2750  0.4510
  767MPD2    C311376   2.974   0.909  15.031  0.3589 -0.1780 -0.4362
  767MPD2    C411377   2.856   0.928  15.091  0.0690 -0.5631 -0.4096
  767MPD2    C511378   2.853   0.999  15.207 -0.7782 -0.2018 -0.1367
  767MPD2     H11379   3.183   0.941  15.040  0.3161 -4.3329  2.0001
  767MPD2    H111380   2.761   0.894  15.052 -0.3911  0.0972  0.1418
  767MPD2    H211381   2.957   1.088  15.368  4.4684  2.9736  0.1791
  767MPD2    H311382   2.760   1.009  15.262  0.4744 -1.5984  2.2615
  767MPD2     N11383   2.982   0.842  14.915 -0.0028  0.1119 -0.9325
  767MPD2    H511384   3.072   0.841  14.866  1.0412  0.2031  0.9754
  767MPD2    N111385   3.206   1.054  15.287  0.6272 -0.8646 -0.1942
  767MPD2    H711386   3.190   1.088  15.381 -0.2107  0.0897 -0.6801
  768MPD2     C11387   3.564   4.073  10.687 -0.0570  0.2168  0.4402
  768MPD2    C111388   3.519   4.010  10.801 -0.5440 -0.1150  0.3643
  768MPD2    C211389   3.606   3.999  10.909 -0.4633  0.2698  0.3067
  768MPD2    C311390   3.739   4.050  10.900  0.6846 -0.1648  0.4481
  768MPD2    C411391   3.770   4.126  10.793  0.3528 -0.8745 -0.7276
  768MPD2    C511392   3.689   4.128  10.688  0.5017 -0.7828  0.0512
  768MPD2     H11393   3.573   3.940  10.994 -2.8021  0.8649 -0.1860
  768MPD2    H111394   3.861   4.185  10.782  0.7857 -1.3909  0.1022
  768MPD2    H211395   3.498   4.084  10.600 -1.0242 -1.0390  1.0227
  768MPD2    H311396   3.710   4.189  10.600  0.9342 -0.5541  0.3135
  768MPD2     N11397   3.838   4.032  11.002 -0.0310 -0.2675 -0.1555
  768MPD2    H511398   3.914   4.098  11.009  0.1320 -0.2975 -1.5458
  768MPD2    N111399   3.390   3.971  10.833 -0.1770  0.1529 -0.0063
  768MPD2    H711400   3.381   3.932  10.926  2.9301  0.4997  0.4550
  769MPD2     C11401   0.439   2.383  14.759 -0.4737  0.5939  0.1434
  769MPD2    C111402   0.334   2.364  14.845  0.2673  0.4818  0.6697
  769MPD2    C211403   0.334   2.417  14.972  0.3584  0.2393 -0.2674
  769MPD2    C311404   0.440   2.487  15.019  0.0019  0.7078 -0.3902
  769MPD2    C411405   0.551   2.507  14.938  1.0545 -0.4499 -0.6693
  769MPD2    C511406   0.549   2.455  14.808 -0.0540 -0.1012 -0.1096
  769MPD2     H11407   0.246   2.406  15.034  1.5202 -0.6955  1.2026
  769MPD2    H111408   0.642   2.552  14.977  2.0664 -2.5685 -0.5646
  769MPD2    H211409   0.438   2.354  14.655  2.3654  0.8339  0.0327
  769MPD2    H311410   0.636   2.472  14.746 -0.9700  0.0750 -1.3624
  769MPD2     N11411   0.424   2.552  15.141  0.0193 -0.2440  0.2526
  769MPD2    H511412   0.339   2.532  15.193  1.7157  1.8928  3.8845
  769MPD2    N111413   0.224   2.287  14.793  0.4647  0.0780  0.8798
  769MPD2    H711414   0.234   2.250  14.699 -0.2201  1.0430  0.4218
  770MPD2     C11415   4.207   1.591  14.879  0.2834 -0.9368  0.5887
  770MPD2    C111416   4.342   1.568  14.857  0.7295  0.3874  0.2709
  770MPD2    C211417   4.425   1.673  14.828 -0.3775  0.2535  0.5722
  770MPD2    C311418   4.365   1.801  14.817 -0.0749 -0.7358 -0.3403
  770MPD2    C411419   4.240   1.824  14.846  0.0866 -0.5253 -0.1392
  770MPD2    C511420   4.163   1.719  14.882 -0.0534 -0.2028 -0.4906
  770MPD2     H11421   4.532   1.662  14.813 -0.9026 -1.1487 -2.1400
  770MPD2    H111422   4.204   1.926  14.852 -0.0338 -0.4131 -3.2099
  770MPD2    H211423   4.134   1.516  14.906  0.4826 -0.9717  1.0331
  770MPD2    H311424   4.058   1.733  14.901  0.0922 -0.9078  0.8013
  770MPD2     N11425   4.452   1.906  14.781 -0.5157  0.6029  0.0207
  770MPD2    H511426   4.551   1.893  14.766 -0.1589  1.0129  2.0428
  770MPD2    N111427   4.392   1.430  14.864 -0.6604 -0.3103  0.6240
  770MPD2    H711428   4.318   1.362  14.873 -0.7265 -0.3939 -0.6348
  771MPD2     C11429   0.892   4.714  14.262  0.0888  0.4549 -0.0459
  771MPD2    C111430   0.841   0.099  14.238 -0.4634 -0.7047  0.1838
  771MPD2    C211431   0.740   0.109  14.145  0.4528 -0.1471  0.4028
  771MPD2    C311432   0.689   0.003  14.066  0.2439  0.1414  0.0119
  771MPD2    C411433   0.748   4.620  14.096 -0.6600  0.5254  0.4648
  771MPD2    C511434   0.845   4.606  14.186  0.1543 -0.0155  0.6730
  771MPD2     H11435   0.690   0.201  14.118  1.5907  0.2699 -0.2941
  771MPD2    H111436   0.718   4.531  14.042  0.6829 -1.3482  2.8048
  771MPD2    H211437   0.964   4.699  14.342 -0.1592  1.5656  0.3909
  771MPD2    H311438   0.877   4.503  14.195  0.2038  0.1425  2.4260
  771MPD2     N11439   0.590   0.019  13.964 -0.2131 -0.0691 -0.3938
  771MPD2    H511440   0.558   0.115  13.954  1.5578  0.5332 -0.4109
  771MPD2    N111441   0.900   0.212  14.302  0.0351 -0.3462 -0.0237
  771MPD2    H711442   0.977   0.191  14.365  2.3373  2.1032 -2.0132
  772MPD2     C11443   0.668   0.764  13.931 -0.2092 -0.2257  0.0544
  772MPD2    C111444   0.645   0.708  14.053  0.4606  0.0134 -0.5546
  772MPD2    C211445   0.524   0.639  14.076 -0.7570 -0.1821  0.9816
  772MPD2    C311446   0.426   0.628  13.981 -0.5742 -0.3932  0.2522
  772MPD2    C411447   0.445   0.696  13.856  0.0734  0.4559  0.5907
  772MPD2    C511448   0.564   0.765  13.830 -1.4124  0.4092 -0.4825
  772MPD2     H11449   0.508   0.584  14.168 -1.8842 -1.5984 -0.0541
  772MPD2    H111450   0.376   0.705  13.773  0.8014  1.8210  0.1373
  772MPD2    H211451   0.764   0.806  13.903  0.2439 -0.9452  0.5115
  772MPD2    H311452   0.585   0.818  13.738  2.3984 -1.3759 -0.6286
  772MPD2     N11453   0.302   0.561  14.004  0.3048 -0.3780 -0.0387
  772MPD2    H511454   0.221   0.572  13.943  0.2918  0.3127  0.1047
  772MPD2    N111455   0.749   0.695  14.150  0.6749 -0.2149  0.2951
  772MPD2    H711456   0.726   0.638  14.231 -0.8407  1.6159  1.1452
  773MPD2     C11457   4.395   1.838   0.060 -0.9475  0.2066 -0.6374
  773MPD2    C111458   4.429   1.757  17.695 -0.4627  0.1742  0.0483
  773MPD2    C211459   4.508   1.651  17.722 -1.0229 -0.5438 -0.3945
  773MPD2    C311460   4.566   1.640   0.105 -0.2163 -0.1884  0.0110
  773MPD2    C411461   4.536   1.729   0.212 -0.7591 -0.7516  0.4534
  773MPD2    C511462   4.460   1.829   0.180 -0.0140  0.0773 -0.2704
  773MPD2     H11463   4.536   1.591  17.636  0.0306  1.3505 -1.3646
  773MPD2    H111464   4.585   1.721   0.308 -0.2464 -0.2708  0.2330
  773MPD2    H211465   4.313   1.910   0.061 -2.0010 -0.9643 -2.5502
  773MPD2    H311466   4.432   1.903   0.254 -0.6663 -1.5597  1.1033
  773MPD2     N11467   4.666   1.540   0.111  0.2187 -0.0228  0.2650
  773MPD2    H511468   4.660   1.467   0.041 -0.5776  0.5438 -0.2579
  773MPD2    N111469   4.365   1.770  17.571  0.7724  0.3514  0.6075
  773MPD2    H711470   4.371   1.684  17.517  0.6219 -0.3150  1.6597
  774MPD2     C11471   3.235   0.546  13.808 -0.1451  0.5539 -0.5299
  774MPD2    C111472   3.369   0.539  13.809  0.1250  0.0586  0.1290
  774MPD2    C211473   3.442   0.649  13.770 -0.2869 -0.4998 -0.2660
  774MPD2    C311474   3.377   0.769  13.739 -0.1301 -0.5208 -0.2942
  774MPD2    C411475   3.239   0.776  13.757 -0.1157  0.0816 -0.0284
  774MPD2    C511476   3.169   0.667  13.797 -0.8147 -0.1976 -0.6159
  774MPD2     H11477   3.550   0.648  13.776 -0.3786  0.2728  1.4111
  774MPD2    H111478   3.186   0.870  13.747 -2.6697 -1.3254  0.3626
  774MPD2    H211479   3.170   0.462  13.829  0.7488  0.2374  0.9851
  774MPD2    H311480   3.061   0.670  13.802 -0.8473 -1.1519 -0.7976
  774MPD2     N11481   3.452   0.875  13.682 -0.6447  0.4595  0.1167
  774MPD2    H511482   3.550   0.869  13.655 -0.0288 -1.6726  2.8357
  774MPD2    N111483   3.431   0.413  13.834 -0.1581 -0.1146 -0.3118
  774MPD2    H711484   3.369   0.344  13.875 -1.0496 -0.2952 -1.9765
  775MPD2     C11485   0.253   2.199  15.638 -0.8121  0.0607 -0.6378
  775MPD2    C111486   0.268   2.336  15.665  0.5541 -0.1429  0.7147
  775MPD2    C211487   0.387   2.405  15.644 -0.6157 -0.2341  0.0769
  775MPD2    C311488   0.494   2.335  15.600  0.1336  0.4318 -0.1195
  775MPD2    C411489   0.488   2.197  15.590 -0.2038 -0.8294 -0.1233
  775MPD2    C511490   0.368   2.128  15.612  0.5800  0.1095  0.3833
  775MPD2     H11491   0.394   2.510  15.672  1.8752  0.6001 -3.6644
  775MPD2    H111492   0.579   2.142  15.571  0.0521 -0.0039 -1.2554
  775MPD2    H211493   0.163   2.142  15.655  0.7531 -1.3333  3.0359
  775MPD2    H311494   0.376   2.022  15.594  0.6336  0.4670 -1.7528
  775MPD2     N11495   0.622   2.393  15.577  0.2023  0.8432 -0.1736
  775MPD2    H511496   0.696   2.326  15.562  0.1923  1.1337 -1.4553
  775MPD2    N111497   0.150   2.386  15.731 -0.0118 -0.0134 -0.6782
  775MPD2    H711498   0.075   2.318  15.735  1.7196 -1.6826  3.5454
  776MPD2     C11499   2.859   2.196  12.226 -0.6182  0.2060 -0.2690
  776MPD2    C111500   2.993   2.216  12.230  0.3516 -0.2461 -0.8225
  776MPD2    C211501   3.037   2.345  12.226  0.3692 -0.1672  0.9645
  776MPD2    C311502   2.949   2.450  12.208 -0.0933  0.1294  0.5781
  776MPD2    C411503   2.812   2.425  12.191  0.0117  0.8647  0.4143
  776MPD2    C511504   2.773   2.295  12.194 -0.1619  0.4776  0.3912
  776MPD2     H11505   3.142   2.368  12.239  0.2914  0.6125  0.2182
  776MPD2    H111506   2.741   2.506  12.182  0.0217  0.9303  0.9448
  776MPD2    H211507   2.813   2.099  12.242  0.7725 -0.3009  0.5713
  776MPD2    H311508   2.669   2.268  12.206 -0.2647  0.7152  0.0464
  776MPD2     N11509   2.993   2.579  12.181 -0.1693  0.2121  0.2459
  776MPD2    H511510   2.921   2.633  12.134 -0.9667  1.7467  3.2178
  776MPD2    N111511   3.083   2.108  12.246  0.0156 -0.2124  0.1760
  776MPD2    H711512   3.031   2.021  12.252 -0.6952  0.1955 -0.0086
  777MPD2     C11513   4.061   0.046   0.693 -0.1937 -0.2510  0.8470
  777MPD2    C111514   4.151   4.685   0.731  0.8201  0.4211 -0.2464
  777MPD2    C211515   4.161   4.573   0.658  0.5140 -0.6224  0.2001
  777MPD2    C311516   4.097   4.558   0.533  0.4248  1.0467  0.1882
  777MPD2    C411517   4.018   4.664   0.485  0.0523 -0.6712  0.2920
  777MPD2    C511518   3.998   0.033   0.571  0.1489  0.3374 -0.1868
  777MPD2     H11519   4.225   4.490   0.689 -0.2160 -0.2615  2.6810
  777MPD2    H111520   3.963   4.664   0.391  1.1811 -1.3997 -0.3692
  777MPD2    H211521   4.052   0.144   0.738 -0.5863 -0.4773  1.2649
  777MPD2    H311522   3.926   0.113   0.559  1.2424  1.2076 -1.0874
  777MPD2     N11523   4.099   4.433   0.468 -0.0829 -0.6742  0.1575
  777MPD2    H511524   4.152   4.360   0.516  2.3256  0.6359 -0.4863
  777MPD2    N111525   4.228   4.708   0.846 -0.5099  0.8734  0.2105
  777MPD2    H711526   4.203   0.061   0.889 -2.9302 -1.3858  3.3725
  778MPD2     C11527   0.831   0.269  15.459  0.3029  0.2156 -0.2781
  778MPD2    C111528   0.817   0.174  15.357 -0.6410  0.8383 -0.2717
  778MPD2    C211529   0.881   0.195  15.236  0.3904  0.3238 -0.3159
  778MPD2    C311530   0.938   0.319  15.206 -0.6230  0.1046  0.5458
  778MPD2    C411531   0.936   0.419  15.301  0.2659  0.0982  0.1870
  778MPD2    C511532   0.884   0.387  15.427  0.4566  0.6578  0.1523
  778MPD2     H11533   0.882   0.120  15.157 -1.7046 -0.1708  0.1383
  778MPD2    H111534   0.981   0.516  15.284 -2.2287  1.5746  1.9499
  778MPD2    H211535   0.799   0.252  15.561 -0.9459 -0.4878 -0.7921
  778MPD2    H311536   0.887   0.467  15.500 -0.0211 -1.2173  2.2300
  778MPD2     N11537   1.010   0.346  15.079 -0.4232 -0.1988 -0.0433
  778MPD2    H511538   0.982   0.284  15.004  0.8395  0.9383 -1.4636
  778MPD2    N111539   0.755   0.049  15.373 -0.2016  0.0467  0.5714
  778MPD2    H711540   0.734   0.010  15.281 -1.8806 -1.4233  1.5873
  779MPD2     C11541   0.604   3.570  14.813 -0.3587 -0.3758 -0.4138
  779MPD2    C111542   0.705   3.582  14.720  0.0250 -0.3631 -0.6055
  779MPD2    C211543   0.784   3.697  14.714 -0.1531 -0.0344 -0.1521
  779MPD2    C311544   0.771   3.793  14.814  0.0786  0.6617 -0.6153
  779MPD2    C411545   0.684   3.769  14.922  0.2268  0.4589 -0.6289
  779MPD2    C511546   0.596   3.661  14.921  0.2613  0.1677 -0.0365
  779MPD2     H11547   0.863   3.713  14.642  0.5464 -2.4429  0.1053
  779MPD2    H111548   0.656   3.841  14.998 -2.4188  0.0015 -1.1796
  779MPD2    H211549   0.541   3.481  14.811 -0.6205 -0.2104  0.4879
  779MPD2    H311550   0.522   3.641  14.998 -0.9207  1.1002 -0.9321
  779MPD2     N11551   0.855   3.907  14.801  0.1785  0.1389  0.8590
  779MPD2    H511552   0.914   3.924  14.720 -2.0492  1.5533 -0.4548
  779MPD2    N111553   0.742   3.470  14.632  0.1771  0.1982  0.2043
  779MPD2    H711554   0.833   3.478  14.588  1.1830  0.0620  2.2490
  780MPD2     C11555   0.799   3.678   1.372 -0.1539  0.7115  0.1159
  780MPD2    C111556   0.670   3.670   1.318 -0.7629 -0.3260 -0.1369
  780MPD2    C211557   0.647   3.731   1.195  0.3909 -0.2711 -0.3478
  780MPD2    C311558   0.740   3.806   1.137 -0.2195 -0.4166  0.2932
  780MPD2    C411559   0.870   3.815   1.184  0.8510 -0.0011 -0.2226
  780MPD2    C511560   0.895   3.744   1.294 -0.7758 -0.3853 -0.7539
  780MPD2     H11561   0.554   3.706   1.145 -0.6293 -0.1122  1.4676
  780MPD2    H111562   0.956   3.862   1.137  0.9175  0.1468  0.0514
  780MPD2    H211563   0.819   3.620   1.461 -2.1309 -0.8453 -0.4616
  780MPD2    H311564   0.994   3.735   1.337 -1.5888  1.3036  1.4731
  780MPD2     N11565   0.705   3.857   1.011 -0.3695 -0.9575  0.3570
  780MPD2    H511566   0.616   3.828   0.974 -1.3883 -0.6832  2.5594
  780MPD2    N111567   0.564   3.592   1.386 -0.1594 -0.2032 -0.0950
  780MPD2    H711568   0.585   3.540   1.470 -1.2457  1.9388  1.4997
  781MPD2     C11569   2.052   0.977  12.228  0.4644 -0.2971  0.8398
  781MPD2    C111570   2.082   0.852  12.265  0.5745  0.5224  0.4006
  781MPD2    C211571   2.100   0.745  12.169 -0.2434  0.7706 -0.0101
  781MPD2    C311572   2.088   0.777  12.033 -0.0446 -0.2273  0.0341
  781MPD2    C411573   2.044   0.899  12.002 -0.0279 -0.3243 -0.3316
  781MPD2    C511574   2.028   0.995  12.096  0.0722 -0.1922 -0.5363
  781MPD2     H11575   2.113   0.644  12.207 -0.9465  0.4436 -0.6478
  781MPD2    H111576   2.036   0.927  11.897  0.6458 -0.2976 -0.3802
  781MPD2    H211577   2.026   1.065  12.285  0.9188  0.3474  0.0494
  781MPD2    H311578   2.018   1.095  12.056 -1.0880 -0.1121 -0.0304
  781MPD2     N11579   2.111   0.688  11.927  0.9058  0.4212 -0.2535
  781MPD2    H511580   2.083   0.725  11.837 -0.5441  0.3623  0.1664
  781MPD2    N111581   2.051   0.816  12.398  0.1104 -0.1850  0.0079
  781MPD2    H711582   2.041   0.718  12.423 -0.9121  0.0781  0.6569
  782MPD2     C11583   4.242   1.365  10.351 -0.0882 -0.3772  0.0781
  782MPD2    C111584   4.253   1.399  10.481  0.0568 -0.1206  1.0277
  782MPD2    C211585   4.215   1.526  10.532 -0.4183  0.2534 -0.0466
  782MPD2    C311586   4.166   1.617  10.435 -0.0048 -0.6027 -0.2947
  782MPD2    C411587   4.163   1.583  10.304 -0.4348 -0.6441  0.2622
  782MPD2    C511588   4.201   1.460  10.263  0.1682  0.1313  0.3326
  782MPD2     H11589   4.226   1.556  10.635 -5.0594 -0.1577  0.5711
  782MPD2    H111590   4.138   1.653  10.225 -0.9697 -2.0451 -0.8107
  782MPD2    H211591   4.253   1.262  10.319  2.9131 -0.0901  0.2145
  782MPD2    H311592   4.202   1.430  10.159 -0.5143 -0.7611  0.5838
  782MPD2     N11593   4.137   1.747  10.477 -0.3563 -0.1944  0.9390
  782MPD2    H511594   4.153   1.764  10.576 -1.5343 -0.7333  1.2234
  782MPD2    N111595   4.298   1.310  10.572  0.0683 -0.5788  0.0404
  782MPD2    H711596   4.294   1.348  10.667 -1.3131  0.2419 -0.3547
  783MPD2     C11597   3.810   1.078  11.225  0.1750  0.3600  0.3700
  783MPD2    C111598   3.839   1.199  11.169 -0.8204 -0.0571  0.9648
  783MPD2    C211599   3.967   1.217  11.111 -0.0992  0.5632  0.1410
  783MPD2    C311600   4.053   1.113  11.101  0.6307 -0.8159  0.6349
  783MPD2    C411601   4.030   0.996  11.166  0.0097  0.8153 -0.0139
  783MPD2    C511602   3.904   0.976  11.222  0.4582 -0.0233  0.2701
  783MPD2     H11603   3.995   1.309  11.061  2.6373 -0.8019 -0.8260
  783MPD2    H111604   4.100   0.914  11.159 -3.1082 -1.9486  1.0873
  783MPD2    H211605   3.713   1.058  11.270  0.9128 -1.7913  0.9958
  783MPD2    H311606   3.878   0.876  11.256  2.1803 -0.5465  0.0150
  783MPD2     N11607   4.166   1.124  11.014  0.5148  0.0605 -0.5951
  783MPD2    H511608   4.176   1.207  10.957 -0.4145  0.7081  0.1946
  783MPD2    N111609   3.732   1.297  11.162  0.0728  0.1780  0.5796
  783MPD2    H711610   3.644   1.277  11.209 -0.1711 -2.1821 -0.9246
  784MPD2     C11611   2.401   1.706   0.647 -0.4671 -0.4299  0.5296
  784MPD2    C111612   2.422   1.773   0.767 -0.0950  1.1643  0.2690
  784MPD2    C211613   2.340   1.878   0.798  0.0495  0.7864 -0.0398
  784MPD2    C311614   2.229   1.908   0.720 -0.2095  0.0391  0.2576
  784MPD2    C411615   2.201   1.831   0.608 -0.1157  0.7629  0.0726
  784MPD2    C511616   2.299   1.738   0.565  0.5186  0.2721  0.1473
  784MPD2     H11617   2.353   1.935   0.889  0.6525 -0.3046  0.5634
  784MPD2    H111618   2.114   1.846   0.544 -1.0476 -0.1763  1.1212
  784MPD2    H211619   2.448   1.614   0.614  0.7773 -0.2499  1.8184
  784MPD2    H311620   2.282   1.684   0.473 -1.3538 -0.9980  1.2290
  784MPD2     N11621   2.146   2.009   0.767 -0.3536 -0.6440  0.1705
  784MPD2    H511622   2.181   2.069   0.840  0.8898 -0.4414 -0.5929
  784MPD2    N111623   2.534   1.747   0.847  0.0235 -0.0967  0.8682
  784MPD2    H711624   2.553   1.804   0.929  4.3179 -0.5948  0.2082
  785MPD2     C11625   1.890   4.454  10.707 -0.1889  0.0169  0.6840
  785MPD2    C111626   1.799   4.533  10.774 -0.0390 -0.1243 -0.2846
  785MPD2    C211627   1.661   4.521  10.756 -0.0001 -0.0123 -0.0946
  785MPD2    C311628   1.617   4.420  10.667 -0.4878 -0.1756 -0.2476
  785MPD2    C411629   1.707   4.336  10.597  0.3460 -0.4888 -0.5322
  785MPD2    C511630   1.843   4.357  10.614 -0.0142 -0.4630  0.4369
  785MPD2     H11631   1.597   4.593  10.805  0.0337  1.0106 -1.5457
  785MPD2    H111632   1.681   4.251  10.536  2.1617 -0.3633 -1.4961
  785MPD2    H211633   1.997   4.446  10.720  0.0634  1.2206 -0.7308
  785MPD2    H311634   1.919   4.301  10.561  0.0709  0.4785 -0.4554
  785MPD2     N11635   1.476   4.415  10.636  0.5784  0.4383 -0.7640
  785MPD2    H511636   1.421   4.487  10.681 -3.9936 -3.3580 -0.3499
  785MPD2    N111637   1.838   4.626  10.877 -0.5110 -0.2850 -0.9081
  785MPD2    H711638   1.769   4.688  10.918 -1.6409 -1.1803 -1.4252
  786MPD2     C11639   1.020   2.927  14.592 -0.6286  0.4296  0.4636
  786MPD2    C111640   1.156   2.904  14.565  0.2031 -0.2015 -0.0906
  786MPD2    C211641   1.243   2.924  14.676 -1.0398 -0.2412 -0.1339
  786MPD2    C311642   1.207   2.990  14.792 -0.1194  0.2730  0.7305
  786MPD2    C411643   1.077   3.027  14.806 -0.1857 -0.0656  0.8614
  786MPD2    C511644   0.986   2.985  14.715 -0.1443  0.0405  0.9698
  786MPD2     H11645   1.342   2.880  14.679 -0.8772  0.2273  1.6619
  786MPD2    H111646   1.044   3.079  14.896  0.6073 -1.3112  1.8661
  786MPD2    H211647   0.944   2.896  14.521 -0.2074 -1.7625  0.9579
  786MPD2    H311648   0.880   2.995  14.734 -0.3045 -0.2815  0.2685
  786MPD2     N11649   1.289   3.002  14.907 -0.4269 -0.7921  0.1285
  786MPD2    H511650   1.247   3.040  14.992  0.9711  2.1504 -0.5036
  786MPD2    N111651   1.214   2.859  14.437 -0.6172  0.5862  0.1454
  786MPD2    H711652   1.316   2.865  14.440 -0.6147  0.0882  1.0568
  787MPD2     C11653   1.841   2.844  14.269  0.5466 -0.3206 -0.7128
  787MPD2    C111654   1.742   2.756  14.225 -0.5552  0.0492 -0.4002
  787MPD2    C211655   1.747   2.630  14.274  0.2817 -0.5502  0.0227
  787MPD2    C311656   1.836   2.594  14.376  0.4225  0.4046  0.7360
  787MPD2    C411657   1.936   2.683  14.413 -0.2001  0.4319 -0.1668
  787MPD2    C511658   1.943   2.804  14.353  0.3698 -0.1615 -0.2658
  787MPD2     H11659   1.685   2.552  14.232 -1.6640  0.9048  0.2010
  787MPD2    H111660   2.003   2.667  14.497  0.2582  0.0840 -0.6026
  787MPD2    H211661   1.845   2.948  14.238 -0.3118 -0.5700 -1.6436
  787MPD2    H311662   2.007   2.887  14.382 -1.3423  1.2592 -0.5303
  787MPD2     N11663   1.828   2.464  14.432  0.4830  0.2927  0.2298
  787MPD2    H511664   1.904   2.427  14.489 -1.8592 -2.9623  1.2356
  787MPD2    N111665   1.642   2.806  14.133  0.0167  0.6092 -0.1249
  787MPD2    H711666   1.635   2.907  14.130 -0.2377  0.5683 -1.0290
  788MPD2     C11667   3.487   1.775   0.748  0.0180 -1.1880  0.3573
  788MPD2    C111668   3.484   1.688   0.644  0.3585 -0.4041  0.5263
  788MPD2    C211669   3.465   1.742   0.518  0.2242  0.5510 -0.6743
  788MPD2    C311670   3.451   1.882   0.497  0.4800 -0.3039 -0.2252
  788MPD2    C411671   3.441   1.963   0.609  0.0541  0.3522 -0.6038
  788MPD2    C511672   3.464   1.907   0.734 -0.4226  0.0646  0.3296
  788MPD2     H11673   3.460   1.672   0.436  1.0041 -0.8893  0.5058
  788MPD2    H111674   3.422   2.070   0.604 -1.1485  0.2758  2.2532
  788MPD2    H211675   3.497   1.742   0.851 -0.3401  0.5479  0.9414
  788MPD2    H311676   3.453   1.971   0.821  1.5144 -0.5291  0.9973
  788MPD2     N11677   3.425   1.943   0.373  0.5438 -0.2957 -0.1789
  788MPD2    H511678   3.402   2.041   0.374 -1.1309 -0.7105  1.4722
  788MPD2    N111679   3.474   1.545   0.648 -0.4806 -0.2627  0.0546
  788MPD2    H711680   3.513   1.497   0.567  1.8508  2.6775 -0.5901
  789MPD2     C11681   3.430   1.346  16.318 -0.2887 -0.2341  0.5583
  789MPD2    C111682   3.418   1.322  16.452  0.1042  0.9556  0.1230
  789MPD2    C211683   3.313   1.371  16.517 -0.4193 -0.3080  0.8003
  789MPD2    C311684   3.210   1.435  16.448  0.1756  0.4364  0.0315
  789MPD2    C411685   3.222   1.459  16.315  0.2879  0.0315 -0.0228
  789MPD2    C511686   3.333   1.416  16.258  0.3615 -0.2852 -0.0595
  789MPD2     H11687   3.326   1.365  16.624 -1.6953 -1.4403  0.8932
  789MPD2    H111688   3.146   1.511  16.258 -0.5853 -1.1994  0.0065
  789MPD2    H211689   3.513   1.305  16.261 -0.2111  0.4731  0.1627
  789MPD2    H311690   3.332   1.437  16.152 -0.1205 -2.2852 -0.4587
  789MPD2     N11691   3.102   1.480  16.524 -0.1288 -0.7333  0.2218
  789MPD2    H511692   3.042   1.553  16.488  0.2082 -0.8647 -0.5899
  789MPD2    N111693   3.512   1.241  16.527 -0.7020  0.2818  0.0842
  789MPD2    H711694   3.477   1.216  16.619 -0.8931 -1.0812 -0.3692
  790MPD2     C11695   4.350   3.259  13.254 -0.5845 -0.5109 -0.1092
  790MPD2    C111696   4.343   3.150  13.337  0.1903 -0.4223  0.5595
  790MPD2    C211697   4.304   3.027  13.292  0.0662  0.3364  0.8097
  790MPD2    C311698   4.268   3.011  13.156 -1.0137  0.0418  0.2541
  790MPD2    C411699   4.271   3.119  13.069  0.2411 -0.1117  0.5655
  790MPD2    C511700   4.312   3.240  13.120 -0.4235  0.1120 -0.3375
  790MPD2     H11701   4.299   2.940  13.357  0.6398 -0.9990 -0.9454
  790MPD2    H111702   4.235   3.117  12.967 -0.7265 -2.3084  0.9480
  790MPD2    H211703   4.390   3.353  13.289 -1.6105 -0.3766  0.7189
  790MPD2    H311704   4.321   3.327  13.056 -0.6498 -1.2075 -2.1474
  790MPD2     N11705   4.213   2.882  13.130  0.7763 -0.0166  0.3016
  790MPD2    H511706   4.226   2.814  13.204  2.7917 -2.3868 -2.2271
  790MPD2    N111707   4.373   3.182  13.475 -0.2963  0.0753 -0.0772
  790MPD2    H711708   4.378   3.283  13.481 -2.3316  0.1733  0.1476
  791MPD2     C11709   3.517   2.756  13.018  0.3011 -0.3118  0.2759
  791MPD2    C111710   3.572   2.633  13.017  0.0764 -0.3361 -0.2367
  791MPD2    C211711   3.497   2.517  13.009 -0.4283 -0.4521 -1.2049
  791MPD2    C311712   3.360   2.532  12.982  0.5192 -0.0851 -0.2498
  791MPD2    C411713   3.305   2.658  12.974  0.8364  0.6518 -1.0630
  791MPD2    C511714   3.379   2.771  13.002  0.0308  0.1633  0.3966
  791MPD2     H11715   3.537   2.416  13.014 -0.4015 -0.4163 -0.6107
  791MPD2    H111716   3.201   2.687  12.965  0.2300 -0.7276  1.3137
  791MPD2    H211717   3.574   2.847  13.026 -1.4560  1.0436 -2.2013
  791MPD2    H311718   3.333   2.868  13.012  2.3844  1.1329  1.8079
  791MPD2     N11719   3.273   2.415  12.974 -0.1278  0.3924 -0.1316
  791MPD2    H511720   3.323   2.327  12.982 -1.0936 -0.4961 -3.8704
  791MPD2    N111721   3.713   2.632  13.036 -0.6961 -0.1838  0.3901
  791MPD2    H711722   3.753   2.726  13.040  0.8619 -0.7455 -1.6433
  792MPD2     C11723   3.766   2.655  12.231 -0.4700  0.6652  0.8270
  792MPD2    C111724   3.780   2.597  12.111 -0.0358 -0.4629 -0.1667
  792MPD2    C211725   3.670   2.528  12.057 -0.2260  0.8763  0.4250
  792MPD2    C311726   3.553   2.516  12.130  0.8605 -0.0190  0.6603
  792MPD2    C411727   3.542   2.578  12.251  0.1535  0.4551  0.5459
  792MPD2    C511728   3.648   2.642  12.298  0.1725  0.3442 -0.2400
  792MPD2     H11729   3.681   2.473  11.965  0.9486  4.0903 -1.3372
  792MPD2    H111730   3.446   2.577  12.302  1.2300 -2.9515  2.5041
  792MPD2    H211731   3.851   2.703  12.279 -0.5621 -0.2418  1.8874
  792MPD2    H311732   3.644   2.690  12.396  0.0879 -0.4130  0.1262
  792MPD2     N11733   3.437   2.450  12.081  0.2044 -0.1710  0.7066
  792MPD2    H511734   3.354   2.476  12.134 -0.3776  0.3140 -0.4185
  792MPD2    N111735   3.901   2.604  12.032 -0.7535 -0.1101  0.0731
  792MPD2    H711736   3.972   2.653  12.085 -1.4407  1.1687 -0.2075
  793MPD2     C11737   2.883   2.620  11.366 -0.1892  0.1989 -0.0766
  793MPD2    C111738   2.994   2.545  11.347  0.4687  0.3607  0.0265
  793MPD2    C211739   3.058   2.488  11.453  0.6580  0.6250 -0.3482
  793MPD2    C311740   2.987   2.484  11.577 -0.0415  0.7987 -0.0771
  793MPD2    C411741   2.866   2.544  11.592 -0.4768 -0.0222 -0.5145
  793MPD2    C511742   2.820   2.624  11.491  0.7300 -0.2764 -0.0309
  793MPD2     H11743   3.149   2.432  11.438  0.2983  0.0629 -0.4168
  793MPD2    H111744   2.821   2.555  11.690  0.3913 -0.8778 -0.0278
  793MPD2    H211745   2.830   2.665  11.283 -1.0351 -2.6003 -1.0487
  793MPD2    H311746   2.726   2.674  11.510  1.6158  0.8179  1.5028
  793MPD2     N11747   3.051   2.417  11.677  0.2677  0.6423 -0.2711
  793MPD2    H511748   3.127   2.356  11.648 -0.6954 -1.2767  1.2085
  793MPD2    N111749   3.058   2.511  11.223  0.5175 -0.4370  0.3129
  793MPD2    H711750   3.148   2.464  11.234  0.2610 -1.2590 -1.2362
  794MPD2     C11751   3.738   2.189  17.158 -0.0183 -0.0798  0.3329
  794MPD2    C111752   3.785   2.093  17.068  0.6161 -0.3993 -0.5677
  794MPD2    C211753   3.726   2.075  16.945 -0.7646 -1.0941  0.1063
  794MPD2    C311754   3.620   2.152  16.902 -0.0130 -0.0201 -0.5933
  794MPD2    C411755   3.569   2.238  16.996  0.3054 -0.0396  0.1454
  794MPD2    C511756   3.628   2.252  17.117 -0.1414 -0.0301 -0.6424
  794MPD2     H11757   3.768   2.005  16.873  1.5096  0.1265  0.2441
  794MPD2    H111758   3.491   2.308  16.969  1.4963  1.6198  1.0787
  794MPD2    H211759   3.754   2.190  17.265  0.9537 -1.0801  0.1994
  794MPD2    H311760   3.573   2.307  17.193  0.5107 -0.1878 -0.0591
  794MPD2     N11761   3.569   2.152  16.771 -0.2226 -0.0272 -0.3486
  794MPD2    H511762   3.497   2.223  16.761 -0.4650 -0.2260 -0.0177
  794MPD2    N111763   3.880   2.000  17.108 -0.4304  0.2837 -0.5416
  794MPD2    H711764   3.899   1.919  17.049 -0.3356 -0.1840  0.1373
  795MPD2     C11765   1.679   4.128  13.705  0.3533  0.0127 -0.0625
  795MPD2    C111766   1.619   4.083  13.815  0.8138 -0.0631  0.8991
  795MPD2    C211767   1.689   3.997  13.900  0.0901  0.7684 -0.4290
  795MPD2    C311768   1.824   3.967  13.875 -0.6060  0.2857 -0.3364
  795MPD2    C411769   1.883   4.025  13.761 -0.1777  0.8470  0.4635
  795MPD2    C511770   1.812   4.103  13.679 -0.0874 -0.8239  0.8415
  795MPD2     H11771   1.643   3.965  13.993  1.6713 -1.2706 -0.3344
  795MPD2    H111772   1.987   4.008  13.736  0.1583  2.0139  1.0769
  795MPD2    H211773   1.620   4.186  13.634 -0.6510 -2.4436 -1.2046
  795MPD2    H311774   1.867   4.147  13.595  0.3182 -0.3496  1.3510
  795MPD2     N11775   1.893   3.869  13.952 -0.1251 -0.3393 -0.5995
  795MPD2    H511776   1.837   3.811  14.014  0.2894 -0.2907 -0.1856
  795MPD2    N111777   1.483   4.099  13.841  0.0043 -0.0928 -0.3633
  795MPD2    H711778   1.437   4.039  13.909 -2.4975  1.9498 -0.2456
  796MPD2     C11779   1.350   0.862  16.040  0.2398  0.4421 -0.2587
  796MPD2    C111780   1.367   0.968  16.131 -0.0886 -0.2742 -0.2307
  796MPD2    C211781   1.349   1.102  16.090  0.2520 -0.1911  0.7105
  796MPD2    C311782   1.302   1.129  15.967  0.1327 -0.3702  0.0391
  796MPD2    C411783   1.283   1.026  15.880 -0.2139 -0.1956  0.5204
  796MPD2    C511784   1.299   0.898  15.919 -0.2078  0.0047  0.1398
  796MPD2     H11785   1.354   1.180  16.165  1.0877 -0.5331  1.0056
  796MPD2    H111786   1.267   1.052  15.776 -1.9495 -0.9199  0.5989
  796MPD2    H211787   1.385   0.762  16.063 -1.4906 -0.4839 -1.7029
  796MPD2    H311788   1.279   0.810  15.858 -2.7397  1.1987 -0.7203
  796MPD2     N11789   1.295   1.263  15.928 -0.1028 -0.3405  0.2778
  796MPD2    H511790   1.335   1.326  15.997 -2.3003  1.7282 -0.3426
  796MPD2    N111791   1.393   0.933  16.263 -0.3517  0.2959  0.5027
  796MPD2    H711792   1.391   0.833  16.280  0.1771  0.0317 -1.0078
  797MPD2     C11793   2.390   0.587  17.348  0.1405 -0.1016 -0.2104
  797MPD2    C111794   2.403   0.681  17.448  0.7194 -1.1098 -0.4413
  797MPD2    C211795   2.300   0.757  17.488 -1.0297 -0.1119 -0.6745
  797MPD2    C311796   2.181   0.773  17.422  0.1532  0.1854  0.1720
  797MPD2    C411797   2.168   0.685  17.316  0.2689  0.4233 -0.0770
  797MPD2    C511798   2.261   0.589  17.283 -0.6856 -0.5537 -0.3293
  797MPD2     H11799   2.308   0.815  17.580  0.0743  0.0023 -0.8399
  797MPD2    H111800   2.079   0.685  17.254  1.1375 -1.0550 -1.3089
  797MPD2    H211801   2.478   0.534  17.314 -1.0567 -0.8025 -2.1918
  797MPD2    H311802   2.254   0.523  17.196  0.6485 -0.4452 -0.5265
  797MPD2     N11803   2.073   0.861  17.446 -0.7747  0.2027 -0.2765
  797MPD2    H511804   1.984   0.843  17.401 -1.5066  3.0919  0.0065
  797MPD2    N111805   2.520   0.688  17.528 -0.2856 -0.2689 -0.3965
  797MPD2    H711806   2.519   0.756  17.602 -0.1522 -0.9326  0.2147
  798MPD2     C11807   2.421   1.410  17.723 -0.4255  0.0744 -0.6029
  798MPD2    C111808   2.366   1.286  17.713  0.4209 -0.1332 -0.5126
  798MPD2    C211809   2.441   1.175  17.703 -0.0249  0.9673  0.3778
  798MPD2    C311810   2.582   1.187  17.712 -0.3623 -0.0304 -0.6947
  798MPD2    C411811   2.639   1.311   0.000  0.4299 -0.0095  0.3215
  798MPD2    C511812   2.557   1.421   0.004  0.5312 -0.6502  0.2763
  798MPD2     H11813   2.401   1.075  17.698 -0.1345  1.0192  0.2110
  798MPD2    H111814   2.742   1.329   0.031 -0.3227  0.0574  2.8335
  798MPD2    H211815   2.372   1.507  17.723 -0.3330  0.1176  0.3224
  798MPD2    H311816   2.598   1.521   0.017 -0.3552 -0.2304 -0.1783
  798MPD2     N11817   2.660   1.072  17.700 -0.1907 -0.5072 -0.0857
  798MPD2    H511818   2.616   0.988  17.664  0.1676 -1.6679  2.2115
  798MPD2    N111819   2.228   1.256  17.691 -0.0723 -0.3834  0.4089
  798MPD2    H711820   2.201   1.160  17.674 -0.8967 -0.1926  0.6369
  799MPD2     C11821   1.193   1.984  14.710  0.0234 -0.2540  0.1145
  799MPD2    C111822   1.128   1.882  14.637  0.1313  0.4627 -0.1329
  799MPD2    C211823   1.021   1.915  14.550 -0.1313  0.5731 -0.2519
  799MPD2    C311824   0.995   2.043  14.520 -0.6290 -0.6958  0.3477
  799MPD2    C411825   1.059   2.143  14.590  0.0104 -0.7962  0.4793
  799MPD2    C511826   1.152   2.114  14.682 -0.3538 -1.0073 -0.4445
  799MPD2     H11827   0.971   1.832  14.502 -0.9302  1.1646 -0.4468
  799MPD2    H111828   1.020   2.243  14.575 -0.0853 -0.9726 -0.4666
  799MPD2    H211829   1.276   1.969  14.777 -0.6756 -0.4034  0.9454
  799MPD2    H311830   1.208   2.196  14.726  0.8227 -1.7602 -0.5271
  799MPD2     N11831   0.923   2.085  14.407  0.1371 -0.6970  0.1777
  799MPD2    H511832   0.923   2.184  14.385 -4.2304 -1.2213 -2.0387
  799MPD2    N111833   1.156   1.748  14.649 -0.0531  0.0037 -0.2197
  799MPD2    H711834   1.100   1.680  14.598 -0.8196 -0.0697  0.7321
  800MPD2     C11835   1.431   3.247  13.952 -0.0538 -0.5419  0.1271
  800MPD2    C111836   1.559   3.210  13.982  0.4835  0.5142  0.5653
  800MPD2    C211837   1.609   3.093  13.917  0.2675 -0.3390 -0.8047
  800MPD2    C311838   1.531   3.029  13.825 -0.2680 -0.0645  0.5219
  800MPD2    C411839   1.403   3.084  13.786  0.1082  0.3982  0.0202
  800MPD2    C511840   1.361   3.192  13.849  0.3485  1.1616 -0.1695
  800MPD2     H11841   1.713   3.066  13.932  0.2752  0.4810  0.5848
  800MPD2    H111842   1.345   3.043  13.704 -0.7727 -0.4826  1.0901
  800MPD2    H211843   1.385   3.330  14.004 -1.8433 -1.4938  0.0684
  800MPD2    H311844   1.258   3.211  13.818  0.3670  2.3670  0.5139
  800MPD2     N11845   1.582   2.915  13.763 -0.6044  0.3813  0.8941
  800MPD2    H511846   1.664   2.878  13.809  0.0082 -0.7802 -1.1353
  800MPD2    N111847   1.627   3.281  14.074  0.3910  0.1846  0.5063
  800MPD2    H711848   1.583   3.367  14.105 -2.0157 -0.7947 -0.1371
  801MPD2     C11849   1.858   3.986  14.304  0.1195 -0.5323  0.7444
  801MPD2    C111850   1.830   3.890  14.408  0.4018 -0.5835  0.4022
  801MPD2    C211851   1.815   3.938  14.533 -0.2808 -0.2097  0.0974
  801MPD2    C311852   1.811   4.078  14.554  0.7789  0.0478  0.0950
  801MPD2    C411853   1.842   4.162  14.447 -0.2076 -0.7092  0.5576
  801MPD2    C511854   1.872   4.112  14.324  0.0039 -0.1619 -0.4582
  801MPD2     H11855   1.829   3.872  14.618  0.0077  0.5600  0.6539
  801MPD2    H111856   1.826   4.270  14.454  0.1483 -0.7372  1.7901
  801MPD2    H211857   1.885   3.943  14.208 -1.0049  0.1990  0.0999
  801MPD2    H311858   1.884   4.186  14.245  1.4443  2.3918  2.1329
  801MPD2     N11859   1.792   4.127  14.685 -0.2935  0.4909 -0.3060
  801MPD2    H511860   1.810   4.225  14.706  0.4333  0.3540 -0.2973
  801MPD2    N111861   1.840   3.746  14.386  0.3792  0.2407  0.3898
  801MPD2    H711862   1.853   3.681  14.463 -1.3541  0.7410  1.0914
  802MPD2     C11863   1.182   4.715  17.636 -0.9795  0.0358 -0.3153
  802MPD2    C111864   1.231   4.675   0.015  0.7797  0.5424  0.9708
  802MPD2    C211865   1.292   4.552   0.027 -0.8278 -0.2126  0.2349
  802MPD2    C311866   1.296   4.457  17.670  0.2099  0.5470  0.2340
  802MPD2    C411867   1.233   4.495  17.555  0.3216  0.2320 -0.0630
  802MPD2    C511868   1.185   4.622  17.534 -0.1051 -0.0805  0.0919
  802MPD2     H11869   1.337   4.536   0.124  2.6771 -0.3165 -1.4034
  802MPD2    H111870   1.225   4.424  17.473 -0.8420  2.4420 -1.8696
  802MPD2    H211871   1.134   0.076  17.624  1.3572  1.4389  1.4518
  802MPD2    H311872   1.135   4.635  17.438 -0.3382 -1.5015  0.0291
  802MPD2     N11873   1.356   4.329  17.693 -0.4289 -0.0373  0.1181
  802MPD2    H511874   1.407   4.321   0.039 -0.6639  1.1392  0.3647
  802MPD2    N111875   1.230   0.032   0.123 -0.4776 -0.0342 -0.6076
  802MPD2    H711876   1.262   4.726   0.209  1.0689 -0.2010 -1.2583
  803MPD2     C11877   2.488   2.628  12.189  0.3257  0.3047  0.2963
  803MPD2    C111878   2.430   2.705  12.281  0.1014 -0.1447 -0.1003
  803MPD2    C211879   2.344   2.639  12.370  0.4123 -0.0179  0.4662
  803MPD2    C311880   2.326   2.498  12.367  1.2398  0.7786 -0.1778
  803MPD2    C411881   2.393   2.430  12.270 -0.0129 -0.0037 -0.2245
  803MPD2    C511882   2.476   2.491  12.183  0.0413 -0.0544 -0.1924
  803MPD2     H11883   2.289   2.699  12.442 -0.7723  0.4941 -0.8770
  803MPD2    H111884   2.375   2.325  12.248  0.9388  0.0798 -1.3750
  803MPD2    H211885   2.537   2.680  12.107  2.2764  1.7110  2.3775
  803MPD2    H311886   2.530   2.442  12.103 -0.9796  0.8855 -1.4551
  803MPD2     N11887   2.225   2.434  12.438  0.5994 -0.0147  0.1194
  803MPD2    H511888   2.228   2.333  12.428 -1.1024 -0.1716  1.1821
  803MPD2    N111889   2.434   2.848  12.279 -0.1466 -0.2154 -0.4992
  803MPD2    H711890   2.401   2.893  12.363 -0.4014 -1.0444 -0.1486
  804MPD2     C11891   1.967   3.944  17.267  0.4445 -0.5716  0.1498
  804MPD2    C111892   1.985   3.902  17.403  0.2105  0.1182 -0.5207
  804MPD2    C211893   2.070   3.984  17.480 -0.2971  0.4725  0.2603
  804MPD2    C311894   2.147   4.081  17.414  0.1311 -0.0871 -0.0351
  804MPD2    C411895   2.134   4.115  17.282  0.0833  0.4078 -0.1514
  804MPD2    C511896   2.032   4.048  17.215  0.0551  0.0155 -0.1423
  804MPD2     H11897   2.087   3.951  17.582  0.2427  0.8089  0.2794
  804MPD2    H111898   2.187   4.197  17.233 -1.9968  0.6705 -1.9531
  804MPD2    H211899   1.892   3.891  17.209  0.3054  0.9700 -1.0880
  804MPD2    H311900   2.001   4.071  17.114 -0.9820  2.1462  0.6559
  804MPD2     N11901   2.239   4.156  17.492 -0.0751 -0.9443  0.4471
  804MPD2    H511902   2.220   4.146  17.591  0.1865  0.4148  0.6451
  804MPD2    N111903   1.940   3.783  17.467 -0.3337  0.2013  0.2243
  804MPD2    H711904   1.967   3.770  17.564  1.0346  0.3595 -0.1404
  805MPD2     C11905   0.895   1.936  15.419 -0.5971  0.3278  0.6245
  805MPD2    C111906   0.917   2.057  15.357  0.4045  0.1737 -0.1297
  805MPD2    C211907   1.041   2.115  15.363  0.1825 -0.5446  0.4774
  805MPD2    C311908   1.142   2.049  15.432 -0.1658  0.1912  0.6072
  805MPD2    C411909   1.123   1.921  15.481 -0.5981  0.4117 -0.6413
  805MPD2    C511910   1.001   1.863  15.470 -0.0838  0.0492  0.9541
  805MPD2     H11911   1.060   2.216  15.330 -0.7527 -0.4506  0.2484
  805MPD2    H111912   1.208   1.858  15.505 -0.9300  1.3665  3.0322
  805MPD2    H211913   0.805   1.879  15.402 -0.8370  0.5084  1.2812
  805MPD2    H311914   0.986   1.757  15.490  1.6665 -0.4530 -0.5233
  805MPD2     N11915   1.260   2.119  15.441 -0.1288  0.3330 -0.2727
  805MPD2    H511916   1.272   2.193  15.373 -0.4312  0.0857 -0.5974
  805MPD2    N111917   0.823   2.137  15.296  0.7616 -0.3704 -0.4425
  805MPD2    H711918   0.853   2.216  15.240 -1.6046  1.0034  0.2032
  806MPD2     C11919   0.868   1.928   0.861 -0.5286  0.3190 -0.4386
  806MPD2    C111920   0.993   1.872   0.844  0.0831  0.0821 -0.3197
  806MPD2    C211921   1.070   1.927   0.742  0.1917 -0.3686 -0.0957
  806MPD2    C311922   1.042   2.039   0.670  0.3240  0.1633 -0.0345
  806MPD2    C411923   0.918   2.097   0.700 -0.2492 -0.0968  0.3928
  806MPD2    C511924   0.836   2.039   0.789 -0.5030  1.1151  1.0965
  806MPD2     H11925   1.169   1.889   0.721  0.9960  0.1030  2.8250
  806MPD2    H111926   0.889   2.192   0.656  0.3824 -0.6057 -1.0971
  806MPD2    H211927   0.803   1.895   0.941  1.2892  0.1634  0.9837
  806MPD2    H311928   0.756   2.103   0.824 -0.5291  0.2169  2.6590
  806MPD2     N11929   1.136   2.099   0.588 -0.1038 -0.3429  0.4219
  806MPD2    H511930   1.225   2.051   0.590 -0.2061 -0.5412  0.0902
  806MPD2    N111931   1.041   1.760   0.919  0.1039 -0.2037  0.2491
  806MPD2    H711932   0.970   1.717   0.978 -0.4817  0.4926  0.0493
  807MPD2     C11933   0.840   1.018   1.040 -0.1860 -1.0145  0.1649
  807MPD2    C111934   0.975   1.014   1.013 -0.2790  0.0471 -0.0857
  807MPD2    C211935   1.031   0.884   1.005  0.6179  0.3289  0.3122
  807MPD2    C311936   0.967   0.771   1.030 -0.3002 -0.1858  0.2168
  807MPD2    C411937   0.842   0.779   1.076  0.3861  0.1831  0.4249
  807MPD2    C511938   0.778   0.901   1.075  0.3774 -0.6970  0.6045
  807MPD2     H11939   1.138   0.884   0.992  0.4898  1.6526 -0.6832
  807MPD2    H111940   0.784   0.696   1.115 -2.8308  1.7224 -1.0403
  807MPD2    H211941   0.786   1.112   1.039 -0.1396 -0.9997 -1.7206
  807MPD2    H311942   0.676   0.898   1.111  0.0870 -1.1922 -0.2558
  807MPD2     N11943   1.056   0.651   1.030 -0.0335 -0.0206  0.3193
  807MPD2    H511944   1.151   0.675   1.002 -0.1267 -3.1508 -2.5678
  807MPD2    N111945   1.060   1.129   0.998  0.3870 -0.3924  0.0559
  807MPD2    H711946   1.158   1.116   0.976  0.8809  1.7856  1.0419
  808MPD2     C11947   0.984   1.969  10.001 -0.0426  0.5155  1.4127
  808MPD2    C111948   0.997   2.026   9.875  0.2563  0.2124  0.1831
  808MPD2    C211949   1.097   2.117   9.849  0.1930  0.8764 -0.3524
  808MPD2    C311950   1.187   2.151   9.946 -0.2073  0.5330  0.6998
  808MPD2    C411951   1.189   2.082  10.063  1.1627 -0.1429 -0.5694
  808MPD2    C511952   1.092   1.981  10.087 -0.5671  0.9765 -0.6573
  808MPD2     H11953   1.083   2.163   9.752  2.6830  0.0220 -1.1048
  808MPD2    H111954   1.266   2.099  10.138  1.1845 -1.7557 -0.2284
  808MPD2    H211955   0.904   1.905  10.035 -1.6392  1.8334  0.1466
  808MPD2    H311956   1.097   1.924  10.179  0.3471 -0.2818 -1.4902
  808MPD2     N11957   1.295   2.248   9.938 -0.0846 -0.1176  0.0550
  808MPD2    H511958   1.348   2.265  10.023  1.6849  1.0485 -1.2716
  808MPD2    N111959   0.896   2.007   9.769  0.2210 -0.2953  0.4544
  808MPD2    H711960   0.915   2.062   9.686 -1.1465  0.3365  0.5599
  809MPD2     C11961   2.166   2.293  10.069 -0.0838 -0.5997 -0.3429
  809MPD2    C111962   2.121   2.405  10.133  0.7358 -0.4980  0.5359
  809MPD2    C211963   1.985   2.433  10.122 -0.1950 -0.5787 -0.0132
  809MPD2    C311964   1.894   2.357  10.058 -1.2765 -0.3902 -0.3439
  809MPD2    C411965   1.946   2.235  10.002  0.0187  0.6628  0.3915
  809MPD2    C511966   2.079   2.207  10.008  0.0657  0.5222  0.3331
  809MPD2     H11967   1.945   2.520  10.172  1.1537  0.8213 -1.4052
  809MPD2    H111968   1.894   2.174   9.929 -1.1292  1.2358  0.7184
  809MPD2    H211969   2.272   2.268  10.071  0.5889  2.2961  0.4265
  809MPD2    H311970   2.128   2.119   9.966 -1.3640 -0.5885  0.9993
  809MPD2     N11971   1.759   2.396  10.022  0.1120  0.0480 -0.1121
  809MPD2    H511972   1.713   2.336   9.954 -0.6918  1.3578 -0.7161
  809MPD2    N111973   2.202   2.500  10.200  0.0377 -0.1302  0.2759
  809MPD2    H711974   2.150   2.575  10.245 -0.0992  0.1871 -0.4254
  810MPD2     C11975   1.053   2.441  11.231 -0.7393 -0.1409  0.1863
  810MPD2    C111976   1.001   2.520  11.127  0.2959  0.9688  0.2470
  810MPD2    C211977   0.977   2.651  11.151 -0.8689  0.8713 -0.1169
  810MPD2    C311978   1.001   2.710  11.267  0.2906 -1.3194 -0.2098
  810MPD2    C411979   1.063   2.638  11.372 -0.1660 -0.0946  0.0991
  810MPD2    C511980   1.088   2.506  11.345  0.1928 -0.1096  0.2604
  810MPD2     H11981   0.924   2.714  11.079  0.5623  2.6931  0.4230
  810MPD2    H111982   1.065   2.678  11.473 -0.5015 -2.5907  1.0682
  810MPD2    H211983   1.073   2.335  11.222 -4.6918 -0.7614 -0.9887
  810MPD2    H311984   1.126   2.443  11.425  1.2302  0.7408  0.4344
  810MPD2     N11985   0.961   2.846  11.291  0.3728 -0.4787  0.3480
  810MPD2    H511986   0.995   2.888  11.377 -0.1958  0.6440  0.0334
  810MPD2    N111987   0.979   2.464  11.002  0.3432  0.3069 -0.1841
  810MPD2    H711988   0.959   2.365  10.996 -0.6313  0.6107 -2.1481
  811MPD2     C11989   0.499   2.587  10.257 -0.0708 -0.1688 -0.2719
  811MPD2    C111990   0.594   2.640  10.337  0.4830 -0.2185 -0.2205
  811MPD2    C211991   0.619   2.781  10.333  0.6473  0.1488  0.4291
  811MPD2    C311992   0.547   2.865  10.250 -0.3849 -0.0730 -0.2011
  811MPD2    C411993   0.466   2.805  10.156 -0.3645  0.3194  0.0753
  811MPD2    C511994   0.445   2.664  10.158  0.3404 -0.0744  0.1954
  811MPD2     H11995   0.687   2.833  10.399  2.9053 -3.3597  0.8765
  811MPD2    H111996   0.415   2.870  10.086 -0.9986  0.1765  0.3983
  811MPD2    H211997   0.484   2.479  10.250  3.0419 -0.8008  3.2872
  811MPD2    H311998   0.382   2.630  10.076 -0.5010  1.0010  0.4085
  811MPD2     N11999   0.551   3.011  10.260  0.3478  0.3954  0.4512
  811MPD2    H512000   0.609   3.051  10.333  1.1129 -0.4100  0.2779
  811MPD2    N112001   0.662   2.555  10.426  0.1149  0.2997 -0.0057
  811MPD2    H712002   0.627   2.460  10.433 -0.8697  0.5806 -1.1746
  812MPD2     C12003   3.957   2.399  12.738 -0.4769 -0.4551  0.1138
  812MPD2    C112004   4.077   2.464  12.735  0.3017 -0.0899 -0.3705
  812MPD2    C212005   4.186   2.395  12.786 -0.2402 -0.2877 -0.4265
  812MPD2    C312006   4.175   2.271  12.845 -1.0553  0.6638 -0.1795
  812MPD2    C412007   4.048   2.214  12.851  0.8087 -0.1131 -0.1821
  812MPD2    C512008   3.946   2.279  12.801  0.4854 -0.2186  0.1501
  812MPD2     H12009   4.284   2.438  12.804 -0.5445 -0.0750  0.7225
  812MPD2    H112010   4.025   2.123  12.906  1.8125 -1.6747 -2.3252
  812MPD2    H212011   3.867   2.443  12.696  1.4023  1.6907 -1.7119
  812MPD2    H312012   3.851   2.231  12.819 -0.2035  0.8928 -0.5631
  812MPD2     N12013   4.292   2.207  12.898  0.1322  0.5402  0.1219
  812MPD2    H512014   4.383   2.249  12.881  1.0988 -0.8770  1.7564
  812MPD2    N112015   4.080   2.598  12.700  0.5944 -0.1205  0.3767
  812MPD2    H712016   3.994   2.639  12.666  0.1912 -0.9502  0.4017
  813MPD2     C12017   4.530   4.094  13.226 -1.0306  0.3255 -0.2291
  813MPD2    C112018   4.449   4.203  13.216 -0.0832 -0.0147  0.8138
  813MPD2    C212019   4.335   4.206  13.290 -0.1383 -0.6475  0.0106
  813MPD2    C312020   4.304   4.106  13.375 -0.7034 -0.0177 -0.1373
  813MPD2    C412021   4.393   4.005  13.398 -0.0145 -0.4869  0.1106
  813MPD2    C512022   4.507   4.003  13.319  0.7296 -0.0030  0.0171
  813MPD2     H12023   4.269   4.290  13.276 -0.7387 -0.8741  1.4616
  813MPD2    H112024   4.370   3.921  13.463 -0.0299  0.4671  1.3426
  813MPD2    H212025   4.625   4.093  13.173 -0.1353 -0.8901  1.4009
  813MPD2    H312026   4.583   3.927  13.332  0.1396 -1.2910 -4.1596
  813MPD2     N12027   4.180   4.118  13.444 -0.4338  0.0330 -0.6436
  813MPD2    H512028   4.124   4.200  13.424  1.1194  0.4721 -3.0563
  813MPD2    N112029   4.494   4.307  13.131 -0.5108 -0.2414 -0.6770
  813MPD2    H712030   4.580   4.301  13.078 -1.6360  1.2526 -2.6707
  814MPD2     C12031   4.367   0.850  12.849 -0.1823 -1.0150 -0.0193
  814MPD2    C112032   4.440   0.881  12.733 -0.0489  0.1751  0.5345
  814MPD2    C212033   4.496   1.011  12.720  0.6716  0.3903 -0.3687
  814MPD2    C312034   4.482   1.107  12.818 -0.1343 -0.2421 -0.1535
  814MPD2    C412035   4.413   1.078  12.936 -0.0387 -0.0819  0.2535
  814MPD2    C512036   4.352   0.949  12.950 -0.3042  0.0168  0.5916
  814MPD2     H12037   4.541   1.035  12.624  4.6522 -3.2989  0.5697
  814MPD2    H112038   4.392   1.150  13.014 -1.0865 -2.1310  1.8615
  814MPD2    H212039   4.339   0.750  12.880 -0.0025 -1.4748 -1.3763
  814MPD2    H312040   4.295   0.935  13.042 -1.6428  2.1028  0.0826
  814MPD2     N12041   4.525   1.241  12.796 -0.2176 -0.0051  0.1836
  814MPD2    H512042   4.531   1.306  12.874  1.1900  0.8376 -0.6200
  814MPD2    N112043   4.461   0.782  12.631  0.1127 -1.0827 -0.4963
  814MPD2    H712044   4.505   0.818  12.547  0.2199 -1.6006 -0.6583
  815MPD2     C12045   4.623   3.893  12.416 -0.2042 -0.2094  0.0011
  815MPD2    C112046   4.582   3.936  12.292 -0.4128  0.3077  0.1392
  815MPD2    C212047   4.445   3.982  12.271  0.7063 -0.1943  0.0137
  815MPD2    C312048   4.354   3.970  12.377  0.3676  0.1570 -0.6349
  815MPD2    C412049   4.405   3.944  12.504 -0.6217  0.4294 -0.2269
  815MPD2    C512050   4.534   3.910  12.524 -0.9289  0.4284 -0.2310
  815MPD2     H12051   4.406   4.012  12.175  0.7726  0.4348  0.1807
  815MPD2    H112052   4.342   3.950  12.592 -0.6356  0.7150 -0.2566
  815MPD2    H212053   4.723   3.858  12.437 -0.4097  0.0186  1.3123
  815MPD2    H312054   4.566   3.888  12.625 -3.1888 -0.6552  0.2377
  815MPD2     N12055   4.217   3.985  12.354 -0.4339  0.3775  0.2001
  815MPD2    H512056   4.192   3.996  12.257 -2.3904  0.7940  0.7489
  815MPD2    N112057   4.681   3.947  12.199 -0.6780 -0.0944 -1.0037
  815MPD2    H712058   0.034   3.906  12.226  0.3505  1.7638 -1.5054
  816MPD2     C12059   0.217   3.440  17.356 -0.3024  0.3469 -0.4224
  816MPD2    C112060   0.309   3.520  17.430  0.2941 -0.2590 -0.3766
  816MPD2    C212061   0.439   3.528  17.382 -0.8972 -0.0871 -1.0101
  816MPD2    C312062   0.478   3.464  17.267 -0.2711 -0.0170  0.0763
  816MPD2    C412063   0.377   3.402  17.188 -0.4695 -0.3884 -0.3888
  816MPD2    C512064   0.250   3.375  17.238 -0.3317  0.2191  0.4814
  816MPD2     H12065   0.509   3.600  17.425 -1.2164 -0.1682 -0.3461
  816MPD2    H112066   0.401   3.362  17.090  1.7176 -0.9127  0.3688
  816MPD2    H212067   0.115   3.429  17.391 -0.0830  0.0760  0.1306
  816MPD2    H312068   0.174   3.319  17.184  0.9042 -0.2098 -0.7894
  816MPD2     N12069   0.610   3.488  17.220  0.3080 -0.1419 -0.0639
  816MPD2    H512070   0.659   3.548  17.286 -1.6448  0.5229  0.7729
  816MPD2    N112071   0.268   3.607  17.529 -0.4162  0.6927  0.6616
  816MPD2    H712072   0.169   3.605  17.555 -0.1408  3.2866  1.9890
  817MPD2     C12073   3.742   0.127  10.704 -0.2820 -0.0389 -0.0390
  817MPD2    C112074   3.774   0.120  10.569 -0.1805  0.4052 -0.1244
  817MPD2    C212075   3.809   0.244  10.511 -0.7530  0.0982  0.0876
  817MPD2    C312076   3.809   0.363  10.590  0.6308  0.1204 -0.0947
  817MPD2    C412077   3.785   0.359  10.725 -0.1460 -1.0657 -0.0566
  817MPD2    C512078   3.750   0.239  10.780  0.7148 -0.5508 -0.2996
  817MPD2     H12079   3.833   0.253  10.406  3.4269  0.9753  1.1006
  817MPD2    H112080   3.797   0.443  10.792  0.9337  0.3405 -2.0089
  817MPD2    H212081   3.704   0.038  10.752  0.6857 -1.2899 -1.5832
  817MPD2    H312082   3.724   0.228  10.884  0.7985 -0.4264 -0.2644
  817MPD2     N12083   3.862   0.476  10.525  0.3268 -0.4818  0.0227
  817MPD2    H512084   3.895   0.466  10.430  0.6602 -1.8340  0.2783
  817MPD2    N112085   3.782   0.005  10.493 -0.6368 -0.1995 -0.3898
  817MPD2    H712086   3.815   0.022  10.398 -0.6641 -1.1332 -0.5616
  818MPD2     C12087   2.113   4.527  10.422 -0.5620 -0.2011 -0.1874
  818MPD2    C112088   2.218   4.478  10.498 -0.6724 -0.2375 -0.2503
  818MPD2    C212089   2.270   4.356  10.476 -0.1772 -0.5211 -0.5141
  818MPD2    C312090   2.225   4.279  10.371  0.6702 -0.1212  0.3215
  818MPD2    C412091   2.123   4.326  10.298  0.1257  0.5857 -0.0673
  818MPD2    C512092   2.068   4.445  10.325 -0.1452 -0.4216 -0.4539
  818MPD2     H12093   2.352   4.327  10.540 -2.5848 -2.8083  1.5039
  818MPD2    H112094   2.093   4.253  10.224 -0.4382  1.4969 -0.7335
  818MPD2    H212095   2.064   4.623  10.426  0.4369  0.3587 -1.7929
  818MPD2    H312096   1.996   4.491  10.258 -2.6557 -1.6258  1.4147
  818MPD2     N12097   2.278   4.152  10.334  0.1541  0.3011  0.0009
  818MPD2    H512098   2.235   4.109  10.252  1.0212  0.0976 -0.3469
  818MPD2    N112099   2.268   4.553  10.603  0.0867 -0.0842  1.2770
  818MPD2    H712100   2.328   4.506  10.671  2.0951 -2.0019 -1.8167
  819MPD2     C12101   1.804   2.039  15.360 -0.0153 -0.3786  0.8111
  819MPD2    C112102   1.769   1.917  15.418  0.0284  0.0235 -0.1253
  819MPD2    C212103   1.854   1.866  15.517 -0.6479  0.4909 -0.7104
  819MPD2    C312104   1.973   1.920  15.547 -0.6498  0.1446  0.0281
  819MPD2    C412105   2.017   2.029  15.476 -0.1610  0.4936 -0.4824
  819MPD2    C512106   1.930   2.083  15.382 -0.5730  0.5001 -0.6025
  819MPD2     H12107   1.824   1.774  15.567  1.5626  0.4392  0.5033
  819MPD2    H112108   2.105   2.084  15.508  1.6230 -2.5904 -0.0227
  819MPD2    H212109   1.740   2.084  15.285  1.4133  0.2403 -0.0230
  819MPD2    H312110   1.961   2.174  15.331  0.1223  0.5335 -0.1203
  819MPD2     N12111   2.048   1.860  15.643 -0.1932 -0.4227 -1.3607
  819MPD2    H512112   2.020   1.768  15.675 -1.5808 -0.6731 -3.3426
  819MPD2    N112113   1.638   1.873  15.380 -0.7178 -0.4801 -0.1885
  819MPD2    H712114   1.591   1.916  15.301  3.9531 -0.0765 -2.7072
  820MPD2     C12115   0.828   1.775  14.805 -0.7345 -0.6335 -0.0785
  820MPD2    C112116   0.878   1.874  14.878  0.6829 -0.0150  0.0120
  820MPD2    C212117   0.974   1.843  14.971  0.6639 -0.1054  0.2027
  820MPD2    C312118   1.023   1.720  14.983  0.2376  0.0340  0.1168
  820MPD2    C412119   0.969   1.619  14.907  0.8120 -0.6051  0.0660
  820MPD2    C512120   0.865   1.642  14.816  0.0522 -0.0120  0.1965
  820MPD2     H12121   1.024   1.928  15.016 -2.0298  1.5794  0.0313
  820MPD2    H112122   0.997   1.516  14.927  0.4859 -0.4942  1.1071
  820MPD2    H212123   0.746   1.794  14.737 -0.1592 -2.7802 -1.3549
  820MPD2    H312124   0.825   1.571  14.744  2.9572 -0.6654 -0.7582
  820MPD2     N12125   1.126   1.688  15.080  0.1713  0.2285  0.1408
  820MPD2    H512126   1.152   1.590  15.080  0.5695  0.3283 -1.5480
  820MPD2    N112127   0.816   2.000  14.859 -0.1656  0.7241 -0.6568
  820MPD2    H712128   0.736   2.004  14.795  1.5052 -0.0820 -2.7753
  821MPD2     C12129   1.922   3.127  13.120 -0.7485 -0.9395 -0.7444
  821MPD2    C112130   1.997   3.099  13.230 -0.2232 -0.0949  0.3933
  821MPD2    C212131   2.118   3.165  13.247 -0.4867  0.4391 -0.0659
  821MPD2    C312132   2.169   3.247  13.149  0.7250  0.5010  0.0439
  821MPD2    C412133   2.093   3.273  13.039 -0.3314 -0.3719  0.3615
  821MPD2    C512134   1.971   3.217  13.026 -0.6499  0.5428  0.1995
  821MPD2     H12135   2.178   3.147  13.335 -1.4728 -1.9998  0.0999
  821MPD2    H112136   2.127   3.341  12.961  0.8705  0.5088  1.6433
  821MPD2    H212137   1.826   3.079  13.108 -1.3933  0.1293  0.2432
  821MPD2    H312138   1.909   3.240  12.940 -0.6692  2.7244  0.7968
  821MPD2     N12139   2.286   3.324  13.156 -0.0903 -0.5985  0.3450
  821MPD2    H512140   2.300   3.401  13.091  0.3105 -0.0599  1.0667
  821MPD2    N112141   1.960   3.009  13.334 -0.1182 -0.3642  0.4545
  821MPD2    H712142   2.015   3.012  13.419 -0.3943 -3.0993  0.7403
  822MPD2     C12143   2.364   3.243  15.737  0.3632  0.4382  0.4927
  822MPD2    C112144   2.355   3.202  15.867  0.5897 -0.2763 -0.9646
  822MPD2    C212145   2.291   3.285  15.961  0.5505 -0.4592 -0.6130
  822MPD2    C312146   2.262   3.414  15.929  0.3295  0.7481 -0.6733
  822MPD2    C412147   2.277   3.458  15.800 -0.0207  0.2015  0.3958
  822MPD2    C512148   2.322   3.370  15.708  0.1148 -0.0795 -0.1354
  822MPD2     H12149   2.289   3.256  16.066  0.6507 -0.5515 -0.6358
  822MPD2    H112150   2.241   3.556  15.768  0.6202 -0.2887 -1.8715
  822MPD2    H212151   2.413   3.184  15.660 -0.5307 -1.7719  1.6256
  822MPD2    H312152   2.321   3.402  15.604  0.4532 -0.4887 -0.2632
  822MPD2     N12153   2.221   3.499  16.031  0.6482  0.0824  0.1666
  822MPD2    H512154   2.188   3.451  16.114 -0.2928  0.8652  0.2481
  822MPD2    N112155   2.423   3.081  15.900 -0.1402 -0.2742  0.1226
  822MPD2    H712156   2.443   3.079  16.000 -0.3938  0.7703  0.1968
  823MPD2     C12157   1.885   3.766  16.792 -0.9347  0.7201 -0.3360
  823MPD2    C112158   1.934   3.683  16.700  0.0678 -0.3653 -0.0020
  823MPD2    C212159   1.993   3.562  16.735 -0.7716 -0.2694  0.1636
  823MPD2    C312160   1.997   3.528  16.864 -0.9636 -0.7264 -0.6537
  823MPD2    C412161   1.938   3.610  16.961  0.0483  0.3190  0.1255
  823MPD2    C512162   1.886   3.735  16.928 -0.0117  0.1264  0.3754
  823MPD2     H12163   2.032   3.501  16.654 -0.8186  0.5782 -0.5069
  823MPD2    H112164   1.957   3.595  17.066  2.2826 -0.6901 -0.4092
  823MPD2    H212165   1.849   3.866  16.771  2.6266  1.3518 -3.3222
  823MPD2    H312166   1.854   3.810  16.999 -1.7143 -0.3703  0.1147
  823MPD2     N12167   2.076   3.424  16.923  0.2158  0.4500 -0.3970
  823MPD2    H512168   2.064   3.414  17.024  0.4423  0.2341 -0.3914
  823MPD2    N112169   1.931   3.729  16.564 -0.2719  0.1356  0.3410
  823MPD2    H712170   1.908   3.827  16.549 -0.6880  0.6804  4.5862
  824MPD2     C12171   2.491   2.209  15.835  0.1439  0.2477 -1.6056
  824MPD2    C112172   2.604   2.283  15.871 -0.4020 -0.5758 -0.2423
  824MPD2    C212173   2.730   2.224  15.878 -0.4316  0.1499  0.3267
  824MPD2    C312174   2.747   2.087  15.851  0.8169  0.2148  0.3175
  824MPD2    C412175   2.633   2.022  15.818 -0.0291  0.3115  0.1655
  824MPD2    C512176   2.510   2.085  15.802  0.8851  0.3293 -0.0634
  824MPD2     H12177   2.821   2.277  15.905  0.3840 -2.3071  2.3103
  824MPD2    H112178   2.635   1.918  15.789 -0.6937  0.2253  0.4228
  824MPD2    H212179   2.395   2.256  15.820 -1.6654 -0.8236  6.4753
  824MPD2    H312180   2.431   2.028  15.754  0.5856  2.4777 -2.1198
  824MPD2     N12181   2.878   2.031  15.847  0.0050  0.1228  0.8863
  824MPD2    H512182   2.952   2.099  15.860  0.5469 -0.5170  1.1152
  824MPD2    N112183   2.592   2.421  15.902 -0.4158 -0.2491 -0.2401
  824MPD2    H712184   2.677   2.461  15.940 -0.0273 -2.3194  1.1105
  825MPD2     C12185   3.588   1.957  15.358 -0.0418 -0.5204  0.4458
  825MPD2    C112186   3.506   2.042  15.431 -1.0093 -0.0401 -0.0522
  825MPD2    C212187   3.527   2.181  15.428 -0.6299  0.2946  0.0111
  825MPD2    C312188   3.635   2.240  15.355 -0.2978 -0.6279 -0.4143
  825MPD2    C412189   3.717   2.150  15.288  0.0718  0.3926 -0.8181
  825MPD2    C512190   3.692   2.006  15.293 -0.0421 -0.3805  0.1086
  825MPD2     H12191   3.474   2.259  15.483 -0.0354  0.9768 -0.3836
  825MPD2    H112192   3.804   2.195  15.241  1.9634 -2.2927  0.1030
  825MPD2    H212193   3.582   1.849  15.369 -2.2727 -0.3635  0.8515
  825MPD2    H312194   3.770   1.939  15.258  0.7032  0.8505 -0.5707
  825MPD2     N12195   3.661   2.378  15.337  0.1318  0.3432 -0.1098
  825MPD2    H512196   3.742   2.406  15.284 -0.6648  1.2837 -0.8416
  825MPD2    N112197   3.408   1.975  15.512 -0.1001  0.0591  0.4190
  825MPD2    H712198   3.406   1.874  15.508  1.2803 -0.0401  2.2051
  826MPD2     C12199   3.011   2.117  13.716  0.2844  0.3269 -0.5132
  826MPD2    C112200   3.074   2.220  13.774  0.7840  0.4231 -0.0069
  826MPD2    C212201   3.010   2.319  13.847  0.3693  0.4937 -0.6325
  826MPD2    C312202   2.870   2.320  13.848 -0.2641 -0.3808  0.2531
  826MPD2    C412203   2.809   2.210  13.784  0.0017 -0.7547  0.0659
  826MPD2    C512204   2.876   2.119  13.706  0.2811  0.0445 -0.3425
  826MPD2     H12205   3.061   2.394  13.907  0.5469  0.7195 -1.0645
  826MPD2    H112206   2.703   2.204  13.762  0.2447  0.7495 -1.4608
  826MPD2    H212207   3.059   2.031  13.670  0.4883  1.3207 -2.1447
  826MPD2    H312208   2.831   2.040  13.648 -0.3765 -0.0415  0.2780
  826MPD2     N12209   2.785   2.415  13.914  0.7871  0.3296 -0.0459
  826MPD2    H512210   2.684   2.418  13.907  0.7374 -0.8537  0.1930
  826MPD2    N112211   3.218   2.204  13.776 -0.4823 -0.5420  0.3293
  826MPD2    H712212   3.249   2.128  13.718 -2.3142 -0.5522 -0.6352
  827MPD2     C12213   3.751   3.233  10.199  0.2306 -0.1005  0.3279
  827MPD2    C112214   3.680   3.215  10.316 -0.2740 -0.0158  0.3088
  827MPD2    C212215   3.544   3.203  10.299  0.5345 -0.2261 -0.6822
  827MPD2    C312216   3.484   3.189  10.178 -0.1525 -0.0009 -0.7422
  827MPD2    C412217   3.564   3.190  10.067  0.1691  0.3084 -0.5251
  827MPD2    C512218   3.695   3.220  10.078  0.3689 -0.2944  0.1565
  827MPD2     H12219   3.489   3.208  10.393  1.1527  1.7713 -0.4290
  827MPD2    H112220   3.522   3.181   9.968  2.4578 -0.1938 -1.4288
  827MPD2    H212221   3.859   3.246  10.201  0.0249  1.6729 -0.0526
  827MPD2    H312222   3.753   3.234   9.987 -0.7058 -1.4962 -0.7168
  827MPD2     N12223   3.343   3.175  10.174  0.0652 -0.2011 -0.1605
  827MPD2    H512224   3.295   3.164  10.263  0.4004 -1.0098 -0.0748
  827MPD2    N112225   3.747   3.232  10.441 -0.5341 -1.6154 -1.0947
  827MPD2    H712226   3.847   3.250  10.430 -0.7157 -1.8083 -2.9710
  828MPD2     C12227   2.347   3.604  12.723 -0.8822  0.0325 -0.0231
  828MPD2    C112228   2.232   3.635  12.651 -0.8348  0.2592 -0.0751
  828MPD2    C212229   2.259   3.659  12.516 -0.1985 -0.0740 -0.2516
  828MPD2    C312230   2.380   3.660  12.453  0.1742  0.6184  0.0114
  828MPD2    C412231   2.489   3.626  12.533  0.4402 -0.1933  0.6879
  828MPD2    C512232   2.475   3.600  12.666  0.0102  0.1535  0.9983
  828MPD2     H12233   2.171   3.682  12.456 -1.2089 -0.5428  1.0469
  828MPD2    H112234   2.591   3.630  12.497 -0.4218 -1.7612 -1.8611
  828MPD2    H212235   2.350   3.580  12.828 -4.1550  0.6062  0.2074
  828MPD2    H312236   2.554   3.564  12.731  1.0439 -0.0215 -0.3566
  828MPD2     N12237   2.409   3.687  12.312 -0.3285  0.3837 -0.5463
  828MPD2    H512238   2.502   3.672  12.273  0.6934  0.7894  1.7788
  828MPD2    N112239   2.101   3.641  12.700 -0.1813  0.1438  0.2201
  828MPD2    H712240   2.039   3.682  12.631  1.0778  1.8724  0.1121
  829MPD2     C12241   1.385   3.899  12.272 -0.6693 -0.1678  0.1113
  829MPD2    C112242   1.333   3.892  12.398 -0.0866 -0.1400 -0.2579
  829MPD2    C212243   1.416   3.847  12.500 -0.2137 -0.0011 -0.6296
  829MPD2    C312244   1.550   3.818  12.489  0.6926 -0.3220  0.5677
  829MPD2    C412245   1.598   3.825  12.358 -0.0703  0.1433  0.0364
  829MPD2    C512246   1.513   3.863  12.254  0.6130 -0.0164 -0.2349
  829MPD2     H12247   1.368   3.855  12.597 -1.7626  0.4845 -1.4324
  829MPD2    H112248   1.694   3.787  12.325  0.4337 -0.1153  1.8007
  829MPD2    H212249   1.325   3.929  12.186  0.7099  2.0855 -0.0665
  829MPD2    H312250   1.544   3.861  12.150 -0.6224 -1.7481 -0.5575
  829MPD2     N12251   1.638   3.786  12.593 -0.8191  0.2915  0.0228
  829MPD2    H512252   1.733   3.764  12.563 -0.9318  1.2730 -1.0792
  829MPD2    N112253   1.188   3.908  12.410  0.0884  0.1067  0.7821
  829MPD2    H712254   1.152   3.964  12.333  0.3588 -2.0155 -0.8889
  830MPD2     C12255   2.333   1.309  15.418  0.6518  0.1850  0.0847
  830MPD2    C112256   2.400   1.373  15.524 -0.1193 -0.5625 -0.4033
  830MPD2    C212257   2.540   1.388  15.500 -0.5710  0.1768  0.3311
  830MPD2    C312258   2.600   1.346  15.382 -0.2947  0.2446  0.0093
  830MPD2    C412259   2.528   1.274  15.288  0.0017  0.2570  0.1680
  830MPD2    C512260   2.401   1.262  15.312  0.6632  0.0387 -0.0128
  830MPD2     H12261   2.591   1.451  15.572  1.6826 -1.8199  0.4868
  830MPD2    H112262   2.575   1.232  15.200  0.3479 -1.5034  1.2091
  830MPD2    H212263   2.226   1.296  15.433  0.9735  0.6289  2.7804
  830MPD2    H312264   2.353   1.208  15.232 -0.2975 -0.7218  1.0772
  830MPD2     N12265   2.736   1.377  15.355 -0.2966  0.0674 -0.6109
  830MPD2    H512266   2.767   1.355  15.261  1.2571 -0.3864  0.0066
  830MPD2    N112267   2.327   1.429  15.629  0.1492  0.3666  0.0262
  830MPD2    H712268   2.225   1.426  15.632  0.2171 -1.1487  0.4883
  831MPD2     C12269   2.480   3.592  16.363 -0.7715 -0.2102  0.5955
  831MPD2    C112270   2.476   3.471  16.298  0.1792  0.1211  0.5541
  831MPD2    C212271   2.358   3.397  16.320 -0.2491 -0.6539 -0.4400
  831MPD2    C312272   2.268   3.426  16.414 -0.0777 -0.3444 -0.4447
  831MPD2    C412273   2.287   3.534  16.493 -0.3807  0.5692 -0.6865
  831MPD2    C512274   2.386   3.623  16.459  0.2181  0.2967  0.1999
  831MPD2     H12275   2.353   3.311  16.253 -3.8501 -0.5639 -0.2977
  831MPD2    H112276   2.216   3.556  16.571 -0.7190 -0.8230 -0.6146
  831MPD2    H212277   2.557   3.666  16.348  2.8190 -4.2815 -0.9346
  831MPD2    H312278   2.393   3.715  16.516 -0.7368 -0.7186  1.9477
  831MPD2     N12279   2.169   3.337  16.443  0.1555  0.5281 -0.2638
  831MPD2    H512280   2.131   3.350  16.536 -1.2287  2.1620 -1.0681
  831MPD2    N112281   2.578   3.438  16.210  0.6065 -0.1367  0.2875
  831MPD2    H712282   2.652   3.505  16.191  0.2068 -0.5461 -2.6956
  832MPD2     C12283   1.336   0.117  17.297 -0.1452  0.1205  0.9548
  832MPD2    C112284   1.253   0.203  17.367  0.7198  0.0553 -0.0920
  832MPD2    C212285   1.117   0.211  17.340 -1.5088 -0.1864 -0.0245
  832MPD2    C312286   1.070   0.132  17.236 -0.1801 -0.2919  0.2260
  832MPD2    C412287   1.153   0.049  17.166 -0.8300 -0.2049  0.4205
  832MPD2    C512288   1.283   0.047  17.194  0.3914  0.3622  0.9786
  832MPD2     H12289   1.047   0.264  17.403 -0.9412  1.7896 -1.0554
  832MPD2    H112290   1.119   4.723  17.084  0.6314  0.5397 -0.7460
  832MPD2    H212291   1.444   0.119  17.310 -0.1055 -4.2272  1.3232
  832MPD2    H312292   1.349   4.720  17.136 -0.0829  0.8630 -0.0949
  832MPD2     N12293   0.937   0.132  17.196 -0.2443  0.4749 -0.5013
  832MPD2    H512294   0.924   0.072  17.115  0.0084  0.5647 -0.6068
  832MPD2    N112295   1.311   0.281  17.469 -0.2728  0.1016 -0.4143
  832MPD2    H712296   1.411   0.269  17.478 -0.6294 -1.9479  0.8559
  833MPD2     C12297   3.284   1.377  12.890  0.4584 -0.3756  0.3235
  833MPD2    C112298   3.276   1.474  12.790 -0.8120 -0.2218  0.3810
  833MPD2    C212299   3.336   1.449  12.669  0.0071  0.2890 -0.2811
  833MPD2    C312300   3.420   1.336  12.653 -0.1638 -0.1449  0.3882
  833MPD2    C412301   3.433   1.245  12.759 -0.3813 -0.4462  0.3448
  833MPD2    C512302   3.360   1.268  12.871  0.1883  0.2562  0.6418
  833MPD2     H12303   3.345   1.520  12.588 -2.0501 -1.8518 -2.3791
  833MPD2    H112304   3.499   1.160  12.765  0.8173  0.3341 -1.7791
  833MPD2    H212305   3.218   1.393  12.975  0.6335  0.7836  0.2455
  833MPD2    H312306   3.355   1.189  12.945  0.1922 -2.0594 -1.8048
  833MPD2     N12307   3.502   1.317  12.539  0.1169  0.3734 -0.4188
  833MPD2    H512308   3.562   1.236  12.543 -0.5394 -0.1872 -1.9572
  833MPD2    N112309   3.200   1.593  12.816  0.4942 -0.3264 -0.4446
  833MPD2    H712310   3.158   1.593  12.909 -0.8744  0.9175 -1.0606
  834MPD2     C12311   2.960   0.708  12.150 -0.6924  0.5716 -0.0989
  834MPD2    C112312   2.977   0.781  12.035  0.1211  0.7281  0.0580
  834MPD2    C212313   3.050   0.899  12.037  0.8014 -0.1479  0.5481
  834MPD2    C312314   3.120   0.935  12.149  0.1180 -0.2177 -0.0571
  834MPD2    C412315   3.081   0.877  12.268  0.1824  0.4515 -0.1316
  834MPD2    C512316   3.006   0.759  12.271  0.2845  0.6699  0.4102
  834MPD2     H12317   3.083   0.947  11.946  2.0861 -4.9504 -1.5501
  834MPD2    H112318   3.127   0.901  12.363 -1.3416  1.4538  0.3492
  834MPD2    H212319   2.899   0.618  12.151  3.3930 -2.2326 -3.6450
  834MPD2    H312320   2.999   0.705  12.365 -1.6832  0.4291  0.1289
  834MPD2     N12321   3.218   1.041  12.133 -0.1766 -0.0165  0.7079
  834MPD2    H512322   3.224   1.090  12.044  1.3628  1.6270  1.7269
  834MPD2    N112323   2.920   0.728  11.915  0.5401  0.6538 -0.0917
  834MPD2    H712324   2.895   0.630  11.926  1.0914  0.8872  3.1684
  835MPD2     C12325   2.357   4.133  10.779  0.6762  0.2149 -0.3942
  835MPD2    C112326   2.290   4.156  10.904  0.3955 -0.0387 -0.2984
  835MPD2    C212327   2.360   4.156  11.018 -0.4265  0.3740 -0.4161
  835MPD2    C312328   2.491   4.122  11.027  0.4143 -0.0138  0.2722
  835MPD2    C412329   2.551   4.089  10.905  0.3410  0.5822 -0.8520
  835MPD2    C512330   2.488   4.104  10.792  0.4638  0.1133  0.1288
  835MPD2     H12331   2.299   4.177  11.105 -0.1976 -0.4213 -0.0637
  835MPD2    H112332   2.653   4.053  10.915  0.3148  1.3091  2.1246
  835MPD2    H212333   2.313   4.130  10.680 -3.7835 -0.8397  1.6213
  835MPD2    H312334   2.544   4.081  10.702 -1.7164  0.4963 -1.3330
  835MPD2     N12335   2.561   4.119  11.150  0.2998  0.1336 -0.1678
  835MPD2    H512336   2.640   4.054  11.148 -0.4058 -0.6979 -0.8626
  835MPD2    N112337   2.151   4.178  10.910 -0.1398  0.1207 -0.1450
  835MPD2    H712338   2.122   4.207  11.003 -0.5953 -1.9624  0.3605
  836MPD2     C12339   2.158   4.150  11.778  0.0408 -0.4358  0.3359
  836MPD2    C112340   2.283   4.148  11.830  0.0656 -0.9134 -0.0404
  836MPD2    C212341   2.311   4.174  11.960 -0.0823  0.0659 -0.1486
  836MPD2    C312342   2.200   4.201  12.047 -0.4048 -0.0860  0.3780
  836MPD2    C412343   2.071   4.198  11.998  0.2626  0.5307  0.1285
  836MPD2    C512344   2.051   4.176  11.861 -0.5411  0.5535 -0.0493
  836MPD2     H12345   2.414   4.195  11.989 -0.2482 -1.7055  1.7779
  836MPD2    H112346   1.991   4.225  12.065 -0.2693 -0.2531 -0.1950
  836MPD2    H212347   2.137   4.142  11.672 -1.4524 -0.7420  0.6473
  836MPD2    H312348   1.952   4.182  11.817  0.5325  3.6798 -2.1086
  836MPD2     N12349   2.224   4.237  12.186 -0.5338 -0.0409  0.0858
  836MPD2    H512350   2.141   4.263  12.237 -2.0065 -2.1603 -1.2517
  836MPD2    N112351   2.374   4.131  11.725 -0.3445  0.2425  0.0216
  836MPD2    H712352   2.343   4.126  11.629  1.3557 -3.0384 -0.3695
  837MPD2     C12353   0.623   3.591  10.751 -0.2448  0.1729  0.1242
  837MPD2    C112354   0.610   3.625  10.620  0.2198  0.0879  0.2026
  837MPD2    C212355   0.624   3.753  10.576 -0.0283  0.2590  0.1180
  837MPD2    C312356   0.645   3.853  10.666  0.0009  0.6579  0.2235
  837MPD2    C412357   0.663   3.819  10.795  0.3180 -0.4052  0.2335
  837MPD2    C512358   0.651   3.685  10.840  0.4166  0.0804  0.2368
  837MPD2     H12359   0.610   3.787  10.474  2.6566 -3.0243 -1.3394
  837MPD2    H112360   0.676   3.904  10.862 -3.5302 -0.4399  1.0697
  837MPD2    H212361   0.612   3.491  10.790  3.6734  0.2165  1.3245
  837MPD2    H312362   0.666   3.660  10.944  0.5386 -0.3460  0.1178
  837MPD2     N12363   0.651   3.984  10.611 -0.2138 -0.3266  0.4437
  837MPD2    H512364   0.639   3.994  10.510 -1.2768  0.8329  0.6911
  837MPD2    N112365   0.553   3.541  10.525 -0.2936 -0.0053  0.3284
  837MPD2    H712366   0.513   3.584  10.442  0.1200 -1.1982 -0.4793
  838MPD2     C12367   4.606   1.363  11.586 -0.2300  0.3766 -0.0380
  838MPD2    C112368   4.485   1.309  11.619 -0.1577 -0.6074 -0.2082
  838MPD2    C212369   4.431   1.327  11.741 -0.0443 -0.4191  0.6493
  838MPD2    C312370   4.486   1.416  11.830  0.0128 -0.1707 -0.3845
  838MPD2    C412371   4.600   1.488  11.792 -0.1961 -0.3019 -0.1212
  838MPD2    C512372   4.660   1.455  11.667  0.0728 -0.4204 -0.0393
  838MPD2     H12373   4.348   1.269  11.780  0.8939 -2.1356  0.0821
  838MPD2    H112374   4.654   1.558  11.855 -1.5672  0.8957 -0.2547
  838MPD2    H212375   4.652   1.347  11.489 -0.5843  1.7672 -0.4206
  838MPD2    H312376   0.015   1.504  11.635 -0.9202  0.4993 -1.4236
  838MPD2     N12377   4.433   1.416  11.960 -0.3561 -0.8676  0.2186
  838MPD2    H512378   4.362   1.347  11.980 -2.0040  0.1847 -2.0294
  838MPD2    N112379   4.408   1.226  11.530  0.5911  0.4091  0.0433
  838MPD2    H712380   4.311   1.215  11.557  1.0410  0.1960  1.5672
  839MPD2     C12381   3.547   1.230  11.765  0.2501  0.4190  0.8675
  839MPD2    C112382   3.618   1.128  11.709  0.2564  0.2145  0.7056
  839MPD2    C212383   3.725   1.159  11.631  0.8916 -0.0688  0.4405
  839MPD2    C312384   3.774   1.287  11.621 -0.1610  0.0307  0.1463
  839MPD2    C412385   3.695   1.387  11.672  0.7479 -0.3007 -0.4259
  839MPD2    C512386   3.581   1.358  11.743 -0.3883  0.2159 -0.1793
  839MPD2     H12387   3.766   1.075  11.577 -3.7961 -1.2924 -1.1823
  839MPD2    H112388   3.723   1.491  11.664 -1.0141  0.2532  0.6014
  839MPD2    H212389   3.462   1.205  11.826 -1.8231  0.6406 -1.9425
  839MPD2    H312390   3.512   1.434  11.780 -0.8934 -1.1841  1.7762
  839MPD2     N12391   3.878   1.314  11.531 -0.4851 -0.5661  0.1888
  839MPD2    H512392   3.897   1.412  11.512  4.1821 -1.3205  0.8921
  839MPD2    N112393   3.576   0.992  11.723  0.0696  0.5011  0.0067
  839MPD2    H712394   3.609   0.924  11.656  0.4053  0.0946  0.5800
  840MPD2     C12395   3.893   3.856  10.487  0.4840 -0.5645  0.4536
  840MPD2    C112396   3.955   3.801  10.595 -0.8744  0.3828  1.1398
  840MPD2    C212397   4.038   3.884  10.671  0.6044 -0.3664  0.3640
  840MPD2    C312398   4.060   4.020  10.642  0.7048  0.1641  0.3599
  840MPD2    C412399   3.993   4.071  10.531  0.3341 -0.6187 -0.4758
  840MPD2    C512400   3.915   3.992  10.456 -0.0753  0.1519 -0.3407
  840MPD2     H12401   4.081   3.841  10.760  1.4769  0.6688  0.4351
  840MPD2    H112402   3.999   4.174  10.497 -0.1972 -0.2754  0.4415
  840MPD2    H212403   3.819   3.803  10.428  1.4332 -1.7854  0.3663
  840MPD2    H312404   3.872   4.034  10.365 -0.0376  1.7222  0.3838
  840MPD2     N12405   4.141   4.108  10.713 -0.5531 -0.2006 -0.3114
  840MPD2    H512406   4.160   4.201  10.676  2.0264  0.4160  2.6155
  840MPD2    N112407   3.920   3.665  10.627 -0.2505 -0.5278  0.3058
  840MPD2    H712408   3.836   3.624  10.588  0.4336  1.2300 -3.0221
  841MPD2     C12409   4.003   3.784  14.691  0.8814 -0.3859  0.1952
  841MPD2    C112410   4.052   3.654  14.703 -0.5463 -0.0255  0.5879
  841MPD2    C212411   4.176   3.629  14.761 -0.6739  0.0371 -0.0091
  841MPD2    C312412   4.252   3.731  14.810 -0.0158  0.0358 -0.1880
  841MPD2    C412413   4.205   3.863  14.786 -0.0763 -0.0544  0.0317
  841MPD2    C512414   4.087   3.886  14.715  0.8423 -0.3370  0.3850
  841MPD2     H12415   4.212   3.527  14.757 -1.7470 -0.4346  2.0744
  841MPD2    H112416   4.251   3.955  14.821 -0.3476 -0.6954  2.0595
  841MPD2    H212417   3.921   3.814  14.627  0.1145 -1.9124  0.4550
  841MPD2    H312418   4.044   3.984  14.695  0.8035  0.3216  3.7431
  841MPD2     N12419   4.370   3.701  14.886 -0.7395  0.4626  0.6256
  841MPD2    H512420   4.382   3.607  14.922 -1.2107  0.4278  0.6956
  841MPD2    N112421   3.972   3.545  14.653 -0.8202  0.3071 -0.7534
  841MPD2    H712422   4.022   3.458  14.638 -0.8864  0.5969 -2.6443
  842MPD2     C12423   0.454   0.440  17.168 -0.0520 -0.1693  0.7134
  842MPD2    C112424   0.391   0.319  17.179 -0.3003  0.0092 -0.0722
  842MPD2    C212425   0.382   0.257  17.302  0.9183  0.1097 -0.3892
  842MPD2    C312426   0.443   0.311  17.411  0.1977 -0.6639 -0.0922
  842MPD2    C412427   0.513   0.428  17.399 -0.8224 -0.1645  0.3208
  842MPD2    C512428   0.517   0.497  17.277 -0.2822 -0.2951  0.6347
  842MPD2     H12429   0.316   0.171  17.309 -0.8803  1.5004 -0.2481
  842MPD2    H112430   0.573   0.478  17.474  2.0348 -1.4463 -1.1171
  842MPD2    H212431   0.475   0.492  17.076 -1.2193  1.9893  1.6802
  842MPD2    H312432   0.566   0.593  17.264  1.0210 -0.9320  0.7596
  842MPD2     N12433   0.448   0.253  17.535 -0.1925 -0.5157  0.3614
  842MPD2    H512434   0.517   0.289  17.601  0.9566 -1.1860 -0.4815
  842MPD2    N112435   0.328   0.277  17.059  0.0296 -0.2245 -0.0930
  842MPD2    H712436   0.348   0.333  16.976  1.3736 -1.3235 -0.5180
  843MPD2     C12437   1.950   0.916   0.209  0.1215  0.6876  0.3647
  843MPD2    C112438   2.073   0.863   0.180  0.2117  0.1509 -0.1420
  843MPD2    C212439   2.185   0.938   0.207 -0.5661 -0.3575 -0.4450
  843MPD2    C312440   2.172   1.072   0.250  0.2966  0.4032 -0.2559
  843MPD2    C412441   2.043   1.123   0.260 -0.2834  0.0037  0.0673
  843MPD2    C512442   1.933   1.048   0.240 -0.7042  0.2918 -0.0762
  843MPD2     H12443   2.286   0.901   0.192 -0.1250  1.3382 -1.6900
  843MPD2    H112444   2.019   1.224   0.292 -3.5430  0.3828 -3.5379
  843MPD2    H212445   1.862   0.853   0.204 -0.2597  1.2982 -0.6312
  843MPD2    H312446   1.840   1.093   0.272 -0.7234 -0.3559  0.7807
  843MPD2     N12447   2.289   1.146   0.284  0.4473  0.6184  0.3521
  843MPD2    H512448   2.267   1.242   0.307  4.5509  1.5836  0.3392
  843MPD2    N112449   2.080   0.735   0.131 -0.0889 -0.3266  0.2997
  843MPD2    H712450   1.995   0.692   0.097 -0.2299  0.0397  0.1961
  844MPD2     C12451   0.976   4.620  16.647 -0.7666  0.2782  0.5989
  844MPD2    C112452   1.099   4.584  16.599  0.2197  0.1770  0.0118
  844MPD2    C212453   1.213   4.650  16.633  0.2136  0.0450 -0.2808
  844MPD2    C312454   1.209   0.014  16.721  0.2515  0.0737 -0.3914
  844MPD2    C412455   1.089   0.049  16.780 -0.5523  0.2009  0.3413
  844MPD2    C512456   0.975   4.720  16.742 -0.7777 -0.1050 -0.2387
  844MPD2     H12457   1.306   4.630  16.582  0.1204  2.0022 -1.2008
  844MPD2    H112458   1.083   0.130  16.852 -0.1288  1.3364 -0.8976
  844MPD2    H212459   0.876   4.590  16.618 -0.5008  0.2636 -0.2918
  844MPD2    H312460   0.879   0.015  16.783 -0.8876 -1.2084  0.3103
  844MPD2     N12461   1.336   0.062  16.781  0.1071 -0.4639  0.3800
  844MPD2    H512462   1.412   0.005  16.746  0.8473 -0.0278  1.2766
  844MPD2    N112463   1.107   4.492  16.493 -0.0255  0.2421 -0.5590
  844MPD2    H712464   1.195   4.493  16.444  0.4500  2.6075  0.3543
  845MPD2     C12465   1.423   0.751  17.511  0.8896  0.0859 -0.1799
  845MPD2    C112466   1.325   0.724  17.427  0.3942 -0.4193  0.2304
  845MPD2    C212467   1.348   0.622  17.332  0.9444  0.0780 -0.5512
  845MPD2    C312468   1.478   0.565  17.330  0.0928 -0.1466  0.0121
  845MPD2    C412469   1.578   0.609  17.414 -0.0468  0.3795 -0.4110
  845MPD2    C512470   1.548   0.705  17.504 -0.7913  0.0333 -0.3547
  845MPD2     H12471   1.274   0.596  17.257  2.3418 -0.3130 -1.7911
  845MPD2    H112472   1.684   0.587  17.405 -0.0049  1.0992 -1.6229
  845MPD2    H212473   1.409   0.824  17.591 -1.8073 -0.4261 -0.1945
  845MPD2    H312474   1.620   0.729  17.582 -1.7150  0.0198  0.4939
  845MPD2     N12475   1.492   0.465  17.233 -0.2086  0.6242 -0.3442
  845MPD2    H512476   1.414   0.450  17.171 -0.8181  1.1499  0.2961
  845MPD2    N112477   1.201   0.787  17.437  0.2574 -0.3764 -0.2956
  845MPD2    H712478   1.180   0.834  17.525 -2.9078 -2.1771 -0.1077
  846MPD2     C12479   2.604   0.696  14.040  0.6750  0.3393  0.8058
  846MPD2    C112480   2.495   0.779  14.060 -0.1022 -0.2144 -0.7012
  846MPD2    C212481   2.421   0.759  14.175 -0.3826 -0.4349 -0.4037
  846MPD2    C312482   2.461   0.670  14.274  0.6630  0.5707 -0.3934
  846MPD2    C412483   2.577   0.595  14.255 -0.6776 -0.5420 -0.0262
  846MPD2    C512484   2.643   0.609  14.137  0.0087 -0.5887  0.3157
  846MPD2     H12485   2.332   0.820  14.181 -0.0909  0.2046 -2.3804
  846MPD2    H112486   2.624   0.534  14.330  0.1735 -1.5270 -1.3721
  846MPD2    H212487   2.663   0.712  13.951  1.0681 -1.0717  0.8150
  846MPD2    H312488   2.738   0.558  14.132 -1.3458 -3.0048 -0.4793
  846MPD2     N12489   2.385   0.656  14.398 -0.0983  0.0677 -0.3226
  846MPD2    H512490   2.306   0.718  14.413  2.3738  2.6611  2.1461
  846MPD2    N112491   2.453   0.877  13.967 -0.1122  0.0570 -0.3914
  846MPD2    H712492   2.366   0.927  13.983 -1.3953 -2.4185  0.2872
  847MPD2     C12493   3.110   1.474  14.240  0.0908  0.5644  0.4805
  847MPD2    C112494   3.120   1.610  14.230  0.7303  0.1878  0.5833
  847MPD2    C212495   3.217   1.672  14.304 -1.0903  0.3261  1.0055
  847MPD2    C312496   3.305   1.606  14.383 -0.1795  0.9382 -0.8906
  847MPD2    C412497   3.289   1.470  14.399 -0.0879  1.3154 -0.1508
  847MPD2    C512498   3.187   1.407  14.331  0.0330 -0.3737  0.2260
  847MPD2     H12499   3.237   1.778  14.294  0.8051  0.0376  1.6380
  847MPD2    H112500   3.345   1.417  14.475  0.1649  1.1209 -0.4705
  847MPD2    H212501   3.039   1.410  14.189 -2.6073  1.4519  3.1281
  847MPD2    H312502   3.169   1.303  14.358 -1.8917 -0.0662  0.0872
  847MPD2     N12503   3.418   1.678  14.426 -0.4981  0.0442  0.0652
  847MPD2    H512504   3.427   1.776  14.401 -1.2837  0.9267  3.2911
  847MPD2    N112505   3.024   1.688  14.143 -0.0285 -0.4588  0.2700
  847MPD2    H712506   2.947   1.634  14.105 -0.1166 -1.3131  1.6994
  848MPD2     C12507   0.573   0.051  16.584 -0.2939  0.2571  0.5917
  848MPD2    C112508   0.633   0.140  16.676  0.1551 -0.5123 -0.1640
  848MPD2    C212509   0.709   0.248  16.614  0.8593  0.4257  0.0428
  848MPD2    C312510   0.717   0.255  16.473 -0.3052  0.0213  0.2049
  848MPD2    C412511   0.661   0.154  16.399 -0.0501  0.0221 -0.0039
  848MPD2    C512512   0.572   0.067  16.451 -0.1506 -0.2888 -0.0234
  848MPD2     H12513   0.746   0.321  16.685 -0.7292  1.7628 -0.5054
  848MPD2    H112514   0.665   0.158  16.291  0.4587 -2.1639 -0.0625
  848MPD2    H212515   0.495   4.718  16.617 -2.1905  1.3583 -1.6258
  848MPD2    H312516   0.518   0.007  16.379 -0.2684  0.8109 -0.8561
  848MPD2     N12517   0.760   0.377  16.411 -0.0974  0.1453 -0.3394
  848MPD2    H512518   0.774   0.370  16.311 -1.8812  0.9590 -0.6349
  848MPD2    N112519   0.624   0.123  16.818 -0.1670  0.3158 -0.4624
  848MPD2    H712520   0.665   0.199  16.871  2.9733 -1.6577 -0.0402
  849MPD2     C12521   4.492   4.328  14.779  0.1624  0.2693 -0.2442
  849MPD2    C112522   4.599   4.326  14.690 -0.2325 -0.3785 -0.4289
  849MPD2    C212523   4.719   4.265  14.724  0.4714  0.1506  0.5777
  849MPD2    C312524   4.729   4.200  14.844  0.0518  0.3171  0.0821
  849MPD2    C412525   4.634   4.229  14.938 -0.5380 -0.1080  0.0905
  849MPD2    C512526   4.516   4.291  14.908 -0.0123  0.2095  0.2101
  849MPD2     H12527   0.068   4.260  14.657  0.0746 -0.1201  0.1014
  849MPD2    H112528   4.651   4.199  15.041  2.5346 -0.4415 -0.4901
  849MPD2    H212529   4.398   4.377  14.759 -0.4197 -0.2551  1.2186
  849MPD2    H312530   4.445   4.318  14.986  2.0768  0.5782  1.9761
  849MPD2     N12531   0.107   4.120  14.879 -0.2859 -0.5046  0.0724
  849MPD2    H512532   0.130   4.097  14.975  1.2750 -0.3006 -0.2588
  849MPD2    N112533   4.585   4.386  14.566  0.3791  0.5024  0.0385
  849MPD2    H712534   4.673   4.402  14.518  0.3627 -0.9080 -0.4433
  850MPD2     C12535   2.600   2.004  15.020  0.1781 -0.6299 -0.0256
  850MPD2    C112536   2.565   2.126  15.072  0.2801  0.1513  0.8382
  850MPD2    C212537   2.673   2.205  15.113 -0.3540  0.1937 -0.2317
  850MPD2    C312538   2.800   2.160  15.091  0.4185  0.8639 -0.0536
  850MPD2    C412539   2.828   2.036  15.031  0.5032  0.3090 -0.2167
  850MPD2    C512540   2.727   1.957  14.996  0.1870 -0.7411 -0.1195
  850MPD2     H12541   2.660   2.286  15.184  0.1143 -0.0849  0.1745
  850MPD2    H112542   2.931   2.007  15.010  0.3388  0.8361 -1.7378
  850MPD2    H212543   2.524   1.935  14.986 -0.0042 -0.9044  0.9480
  850MPD2    H312544   2.750   1.857  14.961  0.5414 -1.4285  2.0532
  850MPD2     N12545   2.910   2.244  15.133  0.5771  0.0498 -0.6429
  850MPD2    H512546   3.000   2.199  15.139  1.2348  1.6039  1.1317
  850MPD2    N112547   2.429   2.152  15.095  0.3426 -0.0642 -0.0163
  850MPD2    H712548   2.369   2.071  15.088  1.5183 -1.0079  1.1755
  851MPD2     C12549   2.784   2.305  15.533 -0.2463 -0.3911  0.5047
  851MPD2    C112550   2.693   2.209  15.502  0.3076  0.0208 -0.4272
  851MPD2    C212551   2.736   2.079  15.469  0.5279  0.2083 -0.7366
  851MPD2    C312552   2.872   2.054  15.463  0.6010  0.0248  0.1453
  851MPD2    C412553   2.967   2.150  15.485  0.7833  0.0141 -0.1074
  851MPD2    C512554   2.919   2.275  15.524 -0.1330  0.3844  0.1686
  851MPD2     H12555   2.663   2.001  15.446 -0.8352  0.6825  1.9259
  851MPD2    H112556   3.070   2.120  15.476  0.6114 -0.9868  1.3163
  851MPD2    H212557   2.748   2.404  15.558 -0.5237 -0.3903  0.1057
  851MPD2    H312558   2.995   2.349  15.544 -0.0362 -0.0915  1.5583
  851MPD2     N12559   2.905   1.923  15.412 -0.1578  0.5463  0.2420
  851MPD2    H512560   2.832   1.866  15.372  0.4680  0.2605 -0.4961
  851MPD2    N112561   2.556   2.248  15.493 -0.7311  0.6305  0.3662
  851MPD2    H712562   2.531   2.345  15.510  0.2135  0.7860  0.8543
  852MPD2     C12563   1.327   4.594   9.964 -0.1214  0.2396  0.3156
  852MPD2    C112564   1.354   4.634  10.093 -0.0148 -1.0440 -0.1275
  852MPD2    C212565   1.450   4.733  10.118  0.9211  0.8542 -0.4230
  852MPD2    C312566   1.529   0.045  10.017  0.3525  0.0400  0.9528
  852MPD2    C412567   1.510   4.728   9.896  0.2229  0.2126 -0.1695
  852MPD2    C512568   1.410   4.642   9.870 -0.3937 -0.0100  0.6410
  852MPD2     H12569   1.454   0.021  10.223  0.3874  0.7642 -0.3821
  852MPD2    H112570   1.573   0.018   9.811 -0.2310 -0.7825 -0.8057
  852MPD2    H212571   1.268   4.505   9.943 -1.9304  1.4790  0.1811
  852MPD2    H312572   1.395   4.613   9.767 -2.7094 -0.8626  1.2249
  852MPD2     N12573   1.619   0.147  10.053  0.4514 -0.4699  1.1994
  852MPD2    H512574   1.618   0.171  10.152 -2.3282  1.1048  0.8164
  852MPD2    N112575   1.285   4.585  10.204 -0.2985  0.0174 -0.3079
  852MPD2    H712576   1.314   4.613  10.297  1.5093 -2.8233 -0.0190
  853MPD2     C12577   4.076   4.659  12.646 -0.5973  0.0475  0.3095
  853MPD2    C112578   3.957   4.725  12.636  0.4345  0.4209  0.1745
  853MPD2    C212579   3.893   0.009  12.511 -0.0503 -0.4173 -0.2320
  853MPD2    C312580   3.952   4.684  12.399  0.0096 -0.1316  0.2960
  853MPD2    C412581   4.063   4.609  12.412 -0.2172 -0.5748  0.5184
  853MPD2    C512582   4.131   4.604  12.531  0.7046  0.2551  0.3222
  853MPD2     H12583   3.797   0.059  12.505  0.5547  0.5528 -1.7955
  853MPD2    H112584   4.115   4.549  12.338  0.9307  0.4080  0.5235
  853MPD2    H212585   4.130   4.640  12.738 -1.5207 -0.7668  0.6753
  853MPD2    H312586   4.225   4.552  12.542  1.0004  0.8044  0.4065
  853MPD2     N12587   3.906   4.703  12.268 -0.7198  0.1621  0.3037
  853MPD2    H512588   3.968   4.680  12.191  1.8922  1.1876  2.1003
  853MPD2    N112589   3.894   0.042  12.753  0.7521  0.5871  0.5846
  853MPD2    H712590   3.951   0.042  12.837  1.8019  1.2402 -0.1357
  854MPD2     C12591   0.846   0.249  13.028  0.2470 -0.2838 -0.0571
  854MPD2    C112592   0.943   0.232  12.939 -1.0678  0.1382  0.0117
  854MPD2    C212593   0.990   0.102  12.920  0.0910  0.1653 -0.3731
  854MPD2    C312594   0.945   4.731  12.995  0.8705  0.1082  0.1565
  854MPD2    C412595   0.849   0.022  13.094 -0.2089 -0.2046 -0.7379
  854MPD2    C512596   0.798   0.147  13.101 -0.3976 -0.4031  0.4907
  854MPD2     H12597   1.071   0.096  12.848  0.1211 -1.5186 -0.1954
  854MPD2    H112598   0.813   4.676  13.157 -2.4760  1.0946 -0.3481
  854MPD2    H212599   0.794   0.344  13.029  0.1562 -0.3285 -0.5278
  854MPD2    H312600   0.720   0.160  13.175  0.1087  3.3074  0.3619
  854MPD2     N12601   1.014   4.613  12.990  0.9836 -0.1141 -0.3976
  854MPD2    H512602   0.998   4.550  13.068 -0.1708  0.4024 -0.2146
  854MPD2    N112603   0.987   0.339  12.861  0.3431 -0.2192 -0.3101
  854MPD2    H712604   0.917   0.411  12.845 -0.7292 -0.8305  1.4648
  855MPD2     C12605   1.457   0.065  13.609 -0.5335 -0.3070 -0.1479
  855MPD2    C112606   1.450   4.667  13.618  0.0561 -0.1383 -0.6472
  855MPD2    C212607   1.421   4.590  13.505 -0.2708  0.0581 -0.0635
  855MPD2    C312608   1.398   4.655  13.382 -0.4399  0.3553 -0.5804
  855MPD2    C412609   1.409   0.057  13.376  0.8297 -0.4047 -0.6435
  855MPD2    C512610   1.435   0.126  13.488 -0.7044 -0.1120  0.6164
  855MPD2     H12611   1.409   4.482  13.512 -0.9742  0.2238  1.2145
  855MPD2    H112612   1.419   0.097  13.276 -1.5592  0.6251 -0.4620
  855MPD2    H212613   1.476   0.134  13.691 -0.3649 -0.6949  0.1397
  855MPD2    H312614   1.454   0.232  13.484  1.6494 -0.6188 -1.0592
  855MPD2     N12615   1.362   4.587  13.267 -0.3439  0.0973  0.3596
  855MPD2    H512616   1.321   4.647  13.196  0.2004 -1.5133 -1.3108
  855MPD2    N112617   1.468   4.603  13.739  0.2040  0.2040 -0.1102
  855MPD2    H712618   1.443   4.505  13.742 -0.4136  0.3902  0.7320
  856MPD2     C12619   3.336   0.817  14.128  0.2578  0.4321 -0.4596
  856MPD2    C112620   3.452   0.892  14.132 -0.1719  0.3281 -0.3490
  856MPD2    C212621   3.451   1.025  14.094  0.5261 -0.1424  0.4709
  856MPD2    C312622   3.327   1.089  14.073  0.2358  1.0205  0.0226
  856MPD2    C412623   3.212   1.009  14.069  0.3387 -0.8999  0.1827
  856MPD2    C512624   3.218   0.878  14.091  0.2205  0.0573  0.8466
  856MPD2     H12625   3.546   1.076  14.084 -0.0877  0.9151  0.0237
  856MPD2    H112626   3.117   1.057  14.047  0.4470  0.2642  2.2572
  856MPD2    H212627   3.347   0.710  14.147  3.7281  0.9164  0.2810
  856MPD2    H312628   3.126   0.821  14.083  0.2344  0.1342  0.2075
  856MPD2     N12629   3.317   1.229  14.053 -0.0052  0.0056  0.0693
  856MPD2    H512630   3.220   1.249  14.030 -0.6956 -1.4678  1.6204
  856MPD2    N112631   3.580   0.844  14.170 -0.3107  0.3837  0.2877
  856MPD2    H712632   3.659   0.907  14.158 -0.5740  0.3242 -1.8444
  857MPD2     C12633   4.722   2.978  13.039 -0.4695 -0.4416 -0.2047
  857MPD2    C112634   0.124   2.979  13.047  0.1713  0.3497 -0.5183
  857MPD2    C212635   0.191   3.104  13.063 -0.0813 -0.3506  0.6916
  857MPD2    C312636   0.110   3.221  13.069  0.0402  0.3121 -0.3262
  857MPD2    C412637   4.710   3.214  13.060  0.6640 -0.5684  0.1476
  857MPD2    C512638   4.648   3.093  13.043 -0.4285 -0.7721  0.0856
  857MPD2     H12639   0.298   3.121  13.072  0.2141 -0.7163 -2.0202
  857MPD2    H112640   4.650   3.305  13.065  1.4833  0.0623 -1.4510
  857MPD2    H212641   4.668   2.884  13.034 -1.2839  0.1474 -2.7166
  857MPD2    H312642   4.540   3.084  13.040 -0.4838  0.7129 -1.7766
  857MPD2     N12643   0.180   3.344  13.102 -0.9209 -0.2646  0.2191
  857MPD2    H512644   0.280   3.346  13.119 -0.6051 -0.7195 -1.5380
  857MPD2    N112645   0.199   2.858  13.041  0.6821 -0.0541 -0.8269
  857MPD2    H712646   0.157   2.766  13.031 -1.0513  0.5505  0.8630
  858MPD2     C12647   1.279   2.760  16.457 -0.0166 -0.5159  0.2337
  858MPD2    C112648   1.192   2.650  16.471  0.0146  0.2228  0.2713
  858MPD2    C212649   1.160   2.612  16.601 -0.7500  0.4096 -0.7285
  858MPD2    C312650   1.192   2.688  16.714 -0.3399 -0.3280  0.4275
  858MPD2    C412651   1.266   2.808  16.693 -0.6071 -0.1980  0.3386
  858MPD2    C512652   1.324   2.834  16.567 -0.3402 -0.2249 -0.3844
  858MPD2     H12653   1.095   2.526  16.599  0.1654 -0.3367  1.7710
  858MPD2    H112654   1.302   2.874  16.772  0.7143 -1.4721  0.7913
  858MPD2    H212655   1.310   2.788  16.357  4.1200 -1.0001  1.3699
  858MPD2    H312656   1.394   2.914  16.549  1.1582 -1.2743  0.7778
  858MPD2     N12657   1.148   2.642  16.844  0.9194 -0.3889 -0.0879
  858MPD2    H512658   1.107   2.551  16.859  1.5888 -1.5484 -5.2359
  858MPD2    N112659   1.159   2.575  16.356  0.0321  0.3878 -0.2793
  858MPD2    H712660   1.169   2.618  16.265  3.1480  2.9953  1.2732
  859MPD2     C12661   4.676   4.366  15.984  0.4938 -0.5676  0.4946
  859MPD2    C112662   4.619   4.318  15.866  0.4333 -0.6968  0.0921
  859MPD2    C212663   4.567   4.187  15.873  0.0212  0.3298 -0.3274
  859MPD2    C312664   4.553   4.116  15.989 -0.1365  0.1673 -0.4075
  859MPD2    C412665   4.594   4.178  16.104 -0.0745 -0.3185  0.0531
  859MPD2    C512666   4.662   4.295  16.101  0.0895 -0.3882  0.2304
  859MPD2     H12667   4.541   4.145  15.777  1.2905 -1.6356  0.1945
  859MPD2    H112668   4.601   4.126  16.199  1.7975  0.8824  0.5635
  859MPD2    H212669   4.725   4.463  15.981 -2.1459  0.7088 -0.9738
  859MPD2    H312670   4.701   4.330  16.196 -2.2003 -0.4605  1.1914
  859MPD2     N12671   4.493   3.985  16.005  0.0008  0.1666 -0.6883
  859MPD2    H512672   4.488   3.946  16.098 -1.3581 -0.0110 -0.8310
  859MPD2    N112673   4.623   4.395  15.745 -0.1499 -0.0146  0.1196
  859MPD2    H712674   4.657   4.491  15.744  1.2644 -0.5153  0.2372
  860MPD2     C12675   2.209   0.149  11.791  0.0261 -0.4163 -0.0161
  860MPD2    C112676   2.163   0.175  11.918  0.0388 -0.1757  0.0496
  860MPD2    C212677   2.028   0.166  11.944 -0.1920  0.3596  0.4857
  860MPD2    C312678   1.932   0.143  11.844 -0.0569  0.5539  0.1573
  860MPD2    C412679   1.985   0.120  11.722 -0.2104 -0.1452  0.0921
  860MPD2    C512680   2.119   0.124  11.692  0.3350 -0.1340  0.2401
  860MPD2     H12681   1.990   0.179  12.045  2.9435  0.1679  1.7001
  860MPD2    H112682   1.921   0.077  11.645  0.7123 -0.8488 -0.2838
  860MPD2    H212683   2.312   0.152  11.755 -0.0716  1.1150 -0.1565
  860MPD2    H312684   2.149   0.101  11.590 -1.5859 -1.9033  0.0471
  860MPD2     N12685   1.798   0.122  11.886 -0.3342 -0.0558  0.3799
  860MPD2    H512686   1.784   0.101  11.984  1.0478  0.2706  0.6412
  860MPD2    N112687   2.253   0.210  12.020 -1.0913 -0.9829  0.2044
  860MPD2    H712688   2.205   0.222  12.108  0.3089  0.1339  0.8239
  861MPD2     C12689   0.423   3.021  11.380  0.3736  0.4361 -0.2224
  861MPD2    C112690   0.343   3.041  11.493 -0.5046  0.4667  0.5342
  861MPD2    C212691   0.211   3.074  11.465  0.0639  0.4224  0.3608
  861MPD2    C312692   0.160   3.101  11.334  0.6335  0.0534  0.5300
  861MPD2    C412693   0.248   3.076  11.228  0.6159 -0.0599 -0.2343
  861MPD2    C512694   0.377   3.050  11.257  0.4633 -0.3431 -0.1631
  861MPD2     H12695   0.144   3.060  11.549 -2.0725  1.8648 -1.0965
  861MPD2    H112696   0.215   3.086  11.125  0.8526 -0.8288 -0.3807
  861MPD2    H212697   0.530   3.007  11.394  0.2752  0.0895  0.2089
  861MPD2    H312698   0.442   3.051  11.171 -1.3395  1.5137 -1.4960
  861MPD2     N12699   0.029   3.134  11.299  0.2005 -0.2973  0.9085
  861MPD2    H512700   0.005   3.134  11.200  0.6895 -3.0323  0.8061
  861MPD2    N112701   0.383   3.023  11.626  1.2047 -0.0872  0.2033
  861MPD2    H712702   0.330   3.070  11.699  2.4341 -0.9144  1.6245
  862MPD2     C12703   4.200   3.172  10.808 -0.8843 -0.1048 -0.2673
  862MPD2    C112704   4.292   3.096  10.876  0.3774 -0.2838  0.2607
  862MPD2    C212705   4.293   2.958  10.861  0.6364 -0.3140 -0.8640
  862MPD2    C312706   4.207   2.896  10.774 -0.2336 -0.0765 -0.1976
  862MPD2    C412707   4.120   2.970  10.694 -0.6120 -0.2060 -0.3070
  862MPD2    C512708   4.119   3.108  10.716 -0.4700 -0.6734 -0.3479
  862MPD2     H12709   4.353   2.898  10.928 -0.5333  0.4395  0.8678
  862MPD2    H112710   4.060   2.935  10.611 -1.3018 -0.0291  0.1092
  862MPD2    H212711   4.188   3.279  10.819 -2.1048 -0.3295  0.6272
  862MPD2    H312712   4.042   3.161  10.661  0.0867 -0.9347 -1.3823
  862MPD2     N12713   4.217   2.756  10.755  0.2996  0.4685  0.1227
  862MPD2    H512714   4.153   2.719  10.686 -0.3917  3.3524 -0.7975
  862MPD2    N112715   4.372   3.156  10.980  0.1679  0.2997 -0.3501
  862MPD2    H712716   4.412   3.086  11.040 -1.2532  1.5940  2.0976
  863MPD2     C12717   3.895   1.296  16.745  0.3581  0.1850 -0.8466
  863MPD2    C112718   3.986   1.354  16.650  0.0807 -0.4124  0.7428
  863MPD2    C212719   4.117   1.345  16.677 -0.4970 -0.0456 -0.1761
  863MPD2    C312720   4.166   1.281  16.789  0.3430  0.1209 -0.1421
  863MPD2    C412721   4.081   1.217  16.872 -0.2787 -0.1884  0.1065
  863MPD2    C512722   3.951   1.230  16.853 -0.2122  0.1858  0.0013
  863MPD2     H12723   4.178   1.388  16.599 -0.6557 -0.1189 -0.3425
  863MPD2    H112724   4.129   1.168  16.956  0.6649  1.8512  0.7529
  863MPD2    H212725   3.787   1.298  16.740  0.3274 -2.5923 -1.0620
  863MPD2    H312726   3.881   1.187  16.924  0.3819 -0.1270  0.3914
  863MPD2     N12727   4.301   1.267  16.818 -0.1839  0.1340 -0.2323
  863MPD2    H512728   4.326   1.204  16.893 -1.5570 -0.6175 -0.3985
  863MPD2    N112729   3.932   1.420  16.545 -0.2411 -0.3179 -0.2681
  863MPD2    H712730   3.992   1.416  16.463  0.7941  1.6785  0.3952
  864MPD2     C12731   4.374   2.636  17.164 -0.0784  0.0111  0.3166
  864MPD2    C112732   4.427   2.566  17.053 -0.2137  0.4662  0.1037
  864MPD2    C212733   4.524   2.621  16.983  0.2423 -0.3137  0.3372
  864MPD2    C312734   4.566   2.747  17.010 -0.4886 -0.1334  0.1177
  864MPD2    C412735   4.512   2.825  17.111  0.3541 -0.4563  0.3660
  864MPD2    C512736   4.411   2.770  17.183  0.0577  0.7763 -0.2247
  864MPD2     H12737   4.574   2.561  16.908  0.1286 -1.2887  1.0532
  864MPD2    H112738   4.537   2.930  17.119 -0.3903 -0.2215 -0.3850
  864MPD2    H212739   4.291   2.606  17.226  0.1809 -0.7212  0.3048
  864MPD2    H312740   4.357   2.825  17.260 -1.1872 -1.1961  0.3140
  864MPD2     N12741   4.670   2.812  16.936 -0.0987 -0.0401 -0.3224
  864MPD2    H512742   4.696   2.905  16.967 -0.5637  0.5413 -1.6782
  864MPD2    N112743   4.370   2.437  17.025 -0.3166  0.0731 -0.2260
  864MPD2    H712744   4.302   2.398  17.090  0.4506  0.0179  0.5378
  865MPD2     C12745   4.704   3.108  16.059 -0.3689 -0.6031 -0.1159
  865MPD2    C112746   4.701   2.985  16.119  0.4140 -0.2544 -0.3853
  865MPD2    C212747   0.004   2.962  16.253  1.3774 -0.5013 -0.3633
  865MPD2    C312748   0.026   3.072  16.337  0.0576  0.5698  0.1178
  865MPD2    C412749   0.035   3.197  16.278 -0.2586 -0.2413 -0.2456
  865MPD2    C512750   0.006   3.210  16.142 -0.1622  0.8674 -0.4757
  865MPD2     H12751   0.010   2.863  16.296  3.9554 -0.0272  0.4170
  865MPD2    H112752   0.046   3.289  16.334  1.5449 -0.9250  0.5051
  865MPD2    H212753   4.684   3.109  15.953  0.2753 -0.4128 -0.2386
  865MPD2    H312754   0.008   3.312  16.104  0.9398  1.3106  0.7656
  865MPD2     N12755   0.030   3.046  16.475 -0.3741 -0.0814 -0.0165
  865MPD2    H512756   0.007   2.953  16.510  1.6470 -0.3971  0.5013
  865MPD2    N112757   4.661   2.871  16.041  0.0869  0.3605 -0.6801
  865MPD2    H712758   4.674   2.884  15.941 -2.0608  1.1340 -0.8635
  866MPD2     C12759   0.893   3.369  11.932  0.2999 -0.2681 -0.1049
  866MPD2    C112760   0.837   3.281  11.842  0.6847 -0.0963 -0.1807
  866MPD2    C212761   0.719   3.309  11.781  0.2700  0.1793  1.0074
  866MPD2    C312762   0.654   3.428  11.815  0.2136 -0.2523  0.2359
  866MPD2    C412763   0.702   3.517  11.908 -0.7039 -0.3805 -0.1194
  866MPD2    C512764   0.826   3.489  11.956 -0.2401  0.3372  0.2449
  866MPD2     H12765   0.673   3.241  11.710 -2.4994  2.2262  0.8345
  866MPD2    H112766   0.660   3.616  11.920  0.7558  0.2335 -0.0072
  866MPD2    H212767   0.969   3.332  12.000  3.3376 -0.2969 -3.5266
  866MPD2    H312768   0.870   3.559  12.026  1.5457  0.0093 -0.5517
  866MPD2     N12769   0.533   3.461  11.746 -0.1379  0.0308 -0.3350
  866MPD2    H512770   0.470   3.523  11.797  0.5034  1.0528 -0.7891
  866MPD2    N112771   0.896   3.156  11.827 -0.0089 -0.0934 -0.3388
  866MPD2    H712772   0.973   3.135  11.889 -0.8445 -0.4729  0.5719
  867MPD2     C12773   3.178   2.527  16.190  0.3027  0.5189 -0.3624
  867MPD2    C112774   3.203   2.488  16.313 -0.3910  0.6122  0.0081
  867MPD2    C212775   3.180   2.568  16.422  1.1900 -1.1098  0.2966
  867MPD2    C312776   3.133   2.693  16.402  0.2112  0.9770  0.1918
  867MPD2    C412777   3.103   2.734  16.277  0.1983 -0.4222 -0.1119
  867MPD2    C512778   3.121   2.650  16.173  0.3782  0.0118  0.1533
  867MPD2     H12779   3.217   2.534  16.518  1.5807 -0.3223  0.4246
  867MPD2    H112780   3.058   2.832  16.264  0.2336 -0.0696  2.3264
  867MPD2    H212781   3.185   2.466  16.101  0.7060  0.5221 -0.3297
  867MPD2    H312782   3.119   2.670  16.067  0.7335  1.7920  0.4897
  867MPD2     N12783   3.125   2.791  16.504 -0.0848  0.2249 -0.0224
  867MPD2    H512784   3.126   2.884  16.463 -1.3144  0.5087  0.5824
  867MPD2    N112785   3.273   2.364  16.320 -0.5116 -0.9612  0.0869
  867MPD2    H712786   3.309   2.320  16.236  0.4310  1.0660 -0.5862
  868MPD2     C12787   0.562   1.397  13.360 -0.4115  0.4230 -0.1779
  868MPD2    C112788   0.536   1.281  13.423  0.0155 -0.7425 -0.3846
  868MPD2    C212789   0.423   1.265  13.505 -0.3722 -0.5226 -0.0088
  868MPD2    C312790   0.341   1.370  13.512  0.0430  0.2185 -0.6237
  868MPD2    C412791   0.369   1.490  13.453 -0.3466 -0.3168 -0.2100
  868MPD2    C512792   0.487   1.507  13.381 -0.0109  0.2011 -0.1077
  868MPD2     H12793   0.401   1.174  13.560  0.0723  0.8722  2.5154
  868MPD2    H112794   0.317   1.582  13.478  3.4220  1.9152 -0.5798
  868MPD2    H212795   0.646   1.394  13.292 -0.1462  1.3404  0.1002
  868MPD2    H312796   0.500   1.600  13.327  1.7339 -0.7891 -1.3989
  868MPD2     N12797   0.217   1.349  13.573  0.2344 -0.4849  0.0425
  868MPD2    H512798   0.198   1.263  13.624 -0.8870 -0.0191  0.4114
  868MPD2    N112799   0.633   1.187  13.400  0.2320  0.1710  0.9784
  868MPD2    H712800   0.692   1.198  13.318 -1.2427  0.4201 -0.0571
  869MPD2     C12801   1.953   3.855   0.951 -0.1885  0.1260  0.0809
  869MPD2    C112802   1.993   3.921   0.839  0.3854  0.0392 -0.9318
  869MPD2    C212803   2.011   4.058   0.849  0.6646  0.1208  0.1432
  869MPD2    C312804   1.971   4.124   0.963  0.1475 -0.5547 -0.6636
  869MPD2    C412805   1.925   4.048   1.074  0.3620  0.5524 -0.3481
  869MPD2    C512806   1.932   3.912   1.072  0.0027 -0.5748 -0.1516
  869MPD2     H12807   2.016   4.109   0.753  1.8577  0.4629  0.3914
  869MPD2    H112808   1.886   4.105   1.158  0.0029  1.2034 -0.9632
  869MPD2    H212809   1.945   3.746   0.951 -1.5445  0.2274 -0.1278
  869MPD2    H312810   1.899   3.854   1.158  1.5341 -1.1820  0.0324
  869MPD2     N12811   1.959   4.274   0.965 -0.3573 -0.6642  0.4505
  869MPD2    H512812   1.907   4.324   1.036  0.7648 -1.6397  1.9472
  869MPD2    N112813   1.985   3.848   0.718 -0.0010  0.1079  1.1599
  869MPD2    H712814   1.964   3.749   0.722 -1.2539  0.2941 -0.3694
  870MPD2     C12815   2.242   3.093   1.533 -0.1256  0.4091 -0.5094
  870MPD2    C112816   2.132   3.016   1.505  0.2330  0.2138  0.2721
  870MPD2    C212817   2.007   3.051   1.561  0.0836  0.6828  0.1051
  870MPD2    C312818   1.992   3.177   1.614  0.0134 -0.2916  0.4467
  870MPD2    C412819   2.106   3.253   1.646 -0.1797  0.0215 -0.3792
  870MPD2    C512820   2.229   3.208   1.606  0.4757 -0.1113  0.0553
  870MPD2     H12821   1.920   2.988   1.549 -0.9871  2.2618 -0.4090
  870MPD2    H112822   2.100   3.340   1.710  0.6068 -1.7354  2.0803
  870MPD2    H212823   2.342   3.075   1.494  0.3876 -0.9653  1.4466
  870MPD2    H312824   2.317   3.269   1.621  0.6282  0.1460 -1.8432
  870MPD2     N12825   1.856   3.214   1.648  0.5094 -0.3496  0.0258
  870MPD2    H512826   1.784   3.150   1.614 -0.6302  1.6657 -1.4182
  870MPD2    N112827   2.159   2.889   1.441 -0.2777 -1.2944  0.3103
  870MPD2    H712828   2.252   2.867   1.407  0.1910 -0.7658  1.2488
  871MPD2     C12829   2.352   3.012  16.399 -0.2520 -0.3343  0.0445
  871MPD2    C112830   2.360   2.929  16.512 -0.2647  0.7184  0.3592
  871MPD2    C212831   2.360   2.790  16.489 -0.5904  0.0295 -0.5663
  871MPD2    C312832   2.350   2.733  16.366 -0.8178  0.8496  0.1796
  871MPD2    C412833   2.344   2.821  16.256 -0.2748  0.1573  0.2798
  871MPD2    C512834   2.340   2.952  16.275  0.3502 -0.0283 -0.8123
  871MPD2     H12835   2.359   2.730  16.579  0.2033 -0.4989 -0.9147
  871MPD2    H112836   2.328   2.793  16.153 -0.5381  1.7028 -0.0994
  871MPD2    H212837   2.358   3.120  16.406  3.2594 -0.5209 -0.0090
  871MPD2    H312838   2.322   3.021  16.194 -0.1087  0.7280 -0.0704
  871MPD2     N12839   2.355   2.591  16.361  0.0336  0.2889 -0.9072
  871MPD2    H512840   2.380   2.537  16.443  1.7510 -0.3824 -1.8706
  871MPD2    N112841   2.376   2.994  16.641  0.4891  0.7704 -0.2567
  871MPD2    H712842   2.377   3.096  16.643  2.2121  0.7859 -1.7066
  872MPD2     C12843   3.433   0.110  14.485 -0.2017  0.4111  0.4728
  872MPD2    C112844   3.383   0.191  14.384  0.7906 -0.1396 -0.4872
  872MPD2    C212845   3.256   0.243  14.396  0.7569 -0.7203  0.2337
  872MPD2    C312846   3.183   0.202  14.496 -0.0893  0.3999 -0.2323
  872MPD2    C412847   3.231   0.121  14.594 -0.4058 -0.1383  0.1707
  872MPD2    C512848   3.357   0.086  14.597  0.3517  0.4571 -0.6634
  872MPD2     H12849   3.223   0.305  14.313  0.3877 -0.8942  0.2466
  872MPD2    H112850   3.170   0.096  14.681 -0.9723  0.9420  0.0864
  872MPD2    H212851   3.539   0.091  14.502 -0.3348 -0.4942  0.2813
  872MPD2    H312852   3.397   0.031  14.681  0.8423  1.1274 -0.4523
  872MPD2     N12853   3.050   0.244  14.514  0.7481  0.0385  0.6166
  872MPD2    H512854   3.006   0.216  14.601  0.2238  1.1180  0.6986
  872MPD2    N112855   3.465   0.217  14.265  0.2999  0.0816  0.1635
  872MPD2    H712856   3.411   0.270  14.197 -0.0243  1.8787  1.8101
  873MPD2     C12857   4.465   0.297   0.760  0.3267  0.3572  0.1203
  873MPD2    C112858   4.582   0.284   0.832  0.6709  0.0529 -0.1984
  873MPD2    C212859   4.664   0.167   0.824 -0.4412 -0.6660  0.0519
  873MPD2    C312860   4.624   0.067   0.744  0.0046  0.6037 -0.0501
  873MPD2    C412861   4.504   0.076   0.680 -0.4136  0.4202 -0.7884
  873MPD2    C512862   4.425   0.187   0.689 -0.2003 -0.1976 -0.5565
  873MPD2     H12863   0.019   0.169   0.883 -0.6513  3.5205  0.2503
  873MPD2    H112864   4.472   4.731   0.615  0.8787 -1.0528  0.3962
  873MPD2    H212865   4.398   0.382   0.759 -0.0905  0.0238 -0.3092
  873MPD2    H312866   4.332   0.201   0.635  0.2545 -0.9910 -1.5607
  873MPD2     N12867   4.711   4.689   0.728 -0.3147  0.0924  0.7145
  873MPD2    H512868   4.671   4.605   0.687 -0.7486  0.4532  0.3915
  873MPD2    N112869   4.612   0.398   0.908 -0.0659  1.2071  0.0839
  873MPD2    H712870   4.555   0.476   0.880  0.8137  1.9989  0.5116
  874MPD2     C12871   0.099   0.414  16.248  0.2146  0.3618 -0.6103
  874MPD2    C112872   0.188   0.399  16.355 -1.3642  0.4869 -0.1538
  874MPD2    C212873   0.309   0.458  16.338  0.3353  0.2624  0.2403
  874MPD2    C312874   0.347   0.528  16.229 -1.0564  1.2583  0.1211
  874MPD2    C412875   0.258   0.545  16.129 -0.5408  0.5246 -0.1421
  874MPD2    C512876   0.129   0.493  16.144  0.3485  0.2564  0.3852
  874MPD2     H12877   0.391   0.456  16.408  0.1279 -3.6201  0.3771
  874MPD2    H112878   0.274   0.617  16.049  0.3756 -2.7768 -2.9552
  874MPD2    H212879   4.734   0.371  16.250  0.6127 -0.6126 -1.5665
  874MPD2    H312880   0.053   0.503  16.067 -0.4554  0.5743  1.2187
  874MPD2     N12881   0.478   0.589  16.241 -0.8003 -0.2244 -0.7914
  874MPD2    H512882   0.532   0.567  16.324 -0.5368 -0.4533 -1.0218
  874MPD2    N112883   0.161   0.314  16.456  0.0032 -0.1502  0.2519
  874MPD2    H712884   0.071   0.269  16.466 -0.1869  0.5276  1.6601
  875MPD2     C12885   1.400   3.253  14.435 -0.0067  0.0573 -0.4109
  875MPD2    C112886   1.307   3.281  14.532 -0.8907  0.2659  0.6012
  875MPD2    C212887   1.347   3.303  14.662  0.0664 -0.5698  0.0131
  875MPD2    C312888   1.487   3.307  14.686 -0.3610 -0.7274 -0.2080
  875MPD2    C412889   1.579   3.277  14.588  0.2021  0.2557  0.5408
  875MPD2    C512890   1.531   3.261  14.464  1.3202  0.2066  0.4475
  875MPD2     H12891   1.269   3.310  14.737  1.5965  1.2602  1.4386
  875MPD2    H112892   1.684   3.291  14.612  0.8158 -0.1030 -1.8986
  875MPD2    H212893   1.369   3.231  14.333 -1.1738  1.2021 -0.3093
  875MPD2    H312894   1.605   3.223  14.394  0.6103 -2.1422  0.9832
  875MPD2     N12895   1.542   3.353  14.810  0.6161 -0.5809 -0.1399
  875MPD2    H512896   1.643   3.368  14.815  0.1385  2.1709  1.3312
  875MPD2    N112897   1.168   3.267  14.518 -0.9660  0.5694 -0.2102
  875MPD2    H712898   1.114   3.298  14.598 -1.0917 -4.6126  1.6917
  876MPD2     C12899   4.634   4.542  16.323  0.0770 -0.4259 -0.3361
  876MPD2    C112900   0.039   4.579  16.319 -0.8346  0.0860  0.5596
  876MPD2    C212901   0.132   4.500  16.394 -0.5445  0.7700  0.1257
  876MPD2    C312902   0.086   4.391  16.466 -0.4767  0.4445  0.4816
  876MPD2    C412903   4.685   4.353  16.463 -0.2757 -0.2656 -0.1591
  876MPD2    C512904   4.595   4.434  16.398  1.4863  0.4576  0.7579
  876MPD2     H12905   0.238   4.520  16.399 -0.2431 -0.9420  0.8688
  876MPD2    H112906   4.651   4.271  16.525 -1.0965 -0.7843 -1.2865
  876MPD2    H212907   4.555   4.604  16.282  0.2998  0.9257  1.2928
  876MPD2    H312908   4.491   4.410  16.413  1.2993  0.3895 -0.5949
  876MPD2     N12909   0.179   4.304  16.527 -0.1447 -0.1065  0.5409
  876MPD2    H512910   0.274   4.340  16.523 -0.5465  0.8316 -0.4498
  876MPD2    N112911   0.071   4.677  16.227 -0.1343  0.0453 -0.0200
  876MPD2    H712912   4.735   4.734  16.182 -0.1699 -1.2120 -1.5523
  877MPD2     C12913   4.578   0.281  15.575 -0.2697  0.1266 -0.1384
  877MPD2    C112914   4.713   0.301  15.575  0.6415  0.0720  0.0875
  877MPD2    C212915   0.038   0.320  15.453 -0.5270 -0.1750 -0.1678
  877MPD2    C312916   4.701   0.313  15.334 -0.1108  0.1541  0.2380
  877MPD2    C412917   4.567   0.308  15.337 -0.3976 -0.0010 -0.0163
  877MPD2    C512918   4.509   0.284  15.460  0.3443  0.4720 -0.0192
  877MPD2     H12919   0.145   0.312  15.442 -0.6510 -2.3671  0.3527
  877MPD2    H112920   4.507   0.304  15.246  2.3482  2.4658 -1.9488
  877MPD2    H212921   4.531   0.259  15.671 -0.7584  1.1581 -0.1480
  877MPD2    H312922   4.402   0.280  15.474  0.0413  0.4793 -2.4379
  877MPD2     N12923   0.024   0.316  15.205  0.1016  0.5679  0.5358
  877MPD2    H512924   4.700   0.282  15.130  1.1174 -0.6602  0.2763
  877MPD2    N112925   0.062   0.298  15.689  0.1911 -0.5007  0.0379
  877MPD2    H712926   0.162   0.303  15.675  0.4578 -0.1952  2.0548
  878MPD2     C12927   4.578   4.258  13.565  0.6379 -0.5183 -0.0274
  878MPD2    C112928   4.603   4.392  13.574 -0.6973  0.3972 -0.5884
  878MPD2    C212929   4.600   4.448  13.699 -0.4429  0.0618 -1.1409
  878MPD2    C312930   4.552   4.374  13.809 -0.0774  0.1463 -0.4767
  878MPD2    C412931   4.497   4.249  13.782  0.5317 -0.0147 -0.5287
  878MPD2    C512932   4.517   4.191  13.665  0.2132  0.1677  0.0317
  878MPD2     H12933   4.619   4.553  13.719  0.4023 -0.0441 -1.3780
  878MPD2    H112934   4.468   4.187  13.866  2.7214 -1.8323 -1.0963
  878MPD2    H212935   4.594   4.202  13.473  0.0846 -0.4606 -0.1580
  878MPD2    H312936   4.500   4.084  13.659 -0.3161  0.0468  3.4516
  878MPD2     N12937   4.566   4.432  13.934  0.7307 -0.3517 -0.9656
  878MPD2    H512938   4.607   4.525  13.945 -2.1297  0.6450  1.3040
  878MPD2    N112939   4.615   4.465  13.457  0.0257 -0.3130  0.7038
  878MPD2    H712940   4.598   4.414  13.371  1.1828  1.0055 -0.3032
  879MPD2     C12941   0.410   1.084  16.401 -0.3230  0.1704  0.1177
  879MPD2    C112942   0.385   1.045  16.530  0.2524  0.0192  0.1042
  879MPD2    C212943   0.311   0.929  16.565 -0.1146 -0.1229  0.5571
  879MPD2    C312944   0.246   0.852  16.464 -0.2422  0.0067 -0.6715
  879MPD2    C412945   0.273   0.895  16.334  0.2523  0.4769 -0.9745
  879MPD2    C512946   0.359   1.002  16.300 -0.1179  0.0589  0.2180
  879MPD2     H12947   0.283   0.900  16.666 -2.2574  0.9235  0.2720
  879MPD2    H112948   0.240   0.836  16.249 -2.2686  1.8596 -0.9595
  879MPD2    H212949   0.471   1.171  16.378 -0.7265  0.2990 -0.4585
  879MPD2    H312950   0.377   1.032  16.197 -0.5274  1.1653  0.4631
  879MPD2     N12951   0.156   0.744  16.479 -0.0751 -0.0161 -0.6041
  879MPD2    H512952   0.111   0.716  16.393 -1.6205 -1.5019  0.6916
  879MPD2    N112953   0.429   1.142  16.624 -0.0233 -0.6460  0.1820
  879MPD2    H712954   0.458   1.231  16.585 -2.6048  0.0955  0.0167
  880MPD2     C12955   1.145   2.487   0.768  1.0123  0.3011  0.1317
  880MPD2    C112956   1.242   2.564   0.706 -0.0008  0.8158 -0.0478
  880MPD2    C212957   1.374   2.510   0.708  0.1556  0.3796 -1.1722
  880MPD2    C312958   1.395   2.379   0.751  0.3635 -0.1058  0.1985
  880MPD2    C412959   1.292   2.302   0.810  0.3001 -0.0756 -0.3403
  880MPD2    C512960   1.168   2.363   0.817  0.1711  0.4943 -1.2135
  880MPD2     H12961   1.457   2.564   0.663  0.3107  2.0199  1.1068
  880MPD2    H112962   1.300   2.205   0.857  1.4112  0.2503  0.1281
  880MPD2    H212963   1.042   2.519   0.778  1.1055  0.0911  1.7548
  880MPD2    H312964   1.085   2.307   0.858 -0.0324  0.7621 -1.2593
  880MPD2     N12965   1.531   2.344   0.765 -0.3665  0.4660 -0.0268
  880MPD2    H512966   1.594   2.412   0.723 -0.6265  0.1227 -0.9926
  880MPD2    N112967   1.203   2.694   0.655 -0.3810 -0.5607  0.2216
  880MPD2    H712968   1.112   2.725   0.686 -0.4586  0.0731 -0.6688
  881MPD2     C12969   1.977   3.383   0.358 -0.6286  1.1320 -0.0003
  881MPD2    C112970   1.861   3.356   0.288 -0.5192 -0.1498 -0.6658
  881MPD2    C212971   1.756   3.295   0.354  0.5383  0.8276  0.1582
  881MPD2    C312972   1.762   3.266   0.485  0.4860  0.2754 -0.5154
  881MPD2    C412973   1.861   3.321   0.560  0.3978 -0.4502  0.3891
  881MPD2    C512974   1.966   3.388   0.491  0.3420 -0.0836  0.1834
  881MPD2     H12975   1.674   3.268   0.288  1.1953  0.6642 -0.6029
  881MPD2    H112976   1.863   3.316   0.669 -1.6691 -0.4083  0.4269
  881MPD2    H212977   2.066   3.423   0.309 -0.0669  1.8372  1.5837
  881MPD2    H312978   2.042   3.442   0.546  0.1696 -0.8994  1.2003
  881MPD2     N12979   1.660   3.194   0.548 -0.2877 -0.7521  0.1911
  881MPD2    H512980   1.679   3.162   0.642  0.8060 -0.1676  0.1705
  881MPD2    N112981   1.845   3.365   0.149  0.1525 -0.0528  0.6029
  881MPD2    H712982   1.755   3.343   0.107  0.4913  0.5657 -0.4417
  882MPD2     C12983   0.238   0.165  14.377 -0.8248 -0.0880  0.7374
  882MPD2    C112984   0.141   0.199  14.472 -0.7416 -0.3328  0.1072
  882MPD2    C212985   0.008   0.199  14.447  0.2800 -0.1681  0.0918
  882MPD2    C312986   4.706   0.167  14.321  0.0641  0.3333 -1.0685
  882MPD2    C412987   0.059   0.126  14.227  0.1202 -0.0391  0.0275
  882MPD2    C512988   0.193   0.133  14.250  0.8469  0.0959 -0.4518
  882MPD2     H12989   4.678   0.240  14.524  1.0984 -0.4366  0.9289
  882MPD2    H112990   0.013   0.115  14.129  1.1362  1.4904 -0.6172
  882MPD2    H212991   0.344   0.176  14.400 -0.1232 -1.2212 -1.9120
  882MPD2    H312992   0.266   0.133  14.171  1.3379 -0.4114  0.0039
  882MPD2     N12993   4.567   0.157  14.308 -0.6582 -0.1928 -0.6198
  882MPD2    H512994   4.518   0.156  14.397 -0.7106 -0.4634 -0.6516
  882MPD2    N112995   0.191   0.230  14.596  0.4405 -0.3143  0.7794
  882MPD2    H712996   0.284   0.269  14.597  0.4441 -0.3071 -0.0154
  883MPD2     C12997   1.944   1.197  16.684  0.3513 -0.0778  0.1249
  883MPD2    C112998   2.025   1.125  16.599 -0.6831  0.0168  0.5940
  883MPD2    C212999   2.160   1.119  16.631  0.5276  0.4943 -0.2676
  883MPD2    C313000   2.216   1.162  16.742  0.3261 -0.2726  0.0493
  883MPD2    C413001   2.139   1.228  16.828  0.2460  0.2085  0.4176
  883MPD2    C513002   2.004   1.239  16.798 -0.0145 -0.0882  0.2888
  883MPD2     H13003   2.219   1.078  16.550  0.3186  0.5360 -0.4424
  883MPD2    H113004   2.174   1.267  16.924  0.1420  1.5383 -0.0812
  883MPD2    H213005   1.836   1.201  16.674  0.2107 -1.5143  1.1050
  883MPD2    H313006   1.936   1.290  16.866  0.6558 -1.7134  2.1802
  883MPD2     N13007   2.351   1.134  16.773 -0.0688  0.1701  0.3373
  883MPD2    H513008   2.406   1.085  16.703  1.0147  0.0040  1.2876
  883MPD2    N113009   1.983   1.067  16.472 -0.2003 -0.0629 -0.4019
  883MPD2    H713010   2.051   1.015  16.418 -0.4194 -3.1286  2.2620
  884MPD2     C13011   4.151   0.754  15.001  0.3882 -0.0282  0.4124
  884MPD2    C113012   4.154   0.897  15.016 -0.6073 -0.1630 -0.2645
  884MPD2    C213013   4.051   0.949  15.083 -0.0482 -0.1239 -0.0588
  884MPD2    C313014   3.959   0.881  15.156  0.6295 -0.1776 -0.4040
  884MPD2    C413015   3.967   0.744  15.150  0.1177 -0.4017  0.1332
  884MPD2    C513016   4.055   0.685  15.064  0.3499  0.4099 -0.2381
  884MPD2     H13017   4.057   1.057  15.091 -2.7020  0.0507 -0.2998
  884MPD2    H113018   3.895   0.681  15.201 -0.3538  0.5581  0.6422
  884MPD2    H213019   4.228   0.699  14.948 -0.9354 -1.3916 -0.1164
  884MPD2    H313020   4.045   0.577  15.057 -0.9846  0.4821  0.5051
  884MPD2     N13021   3.865   0.951  15.241  0.4905  0.3919  0.0657
  884MPD2    H513022   3.862   1.050  15.218  0.0342  0.5371  0.7553
  884MPD2    N113023   4.257   0.981  14.960  0.3405 -0.0412  0.7569
  884MPD2    H713024   4.260   1.078  14.989  0.2721 -0.4262  2.0458
  885MPD2     C13025   1.887   1.721   0.408 -0.3010  0.2615 -0.1728
  885MPD2    C113026   1.971   1.620   0.365 -0.4022  0.1267 -0.1999
  885MPD2    C213027   1.994   1.589   0.227  0.3546  0.0494  0.4215
  885MPD2    C313028   1.925   1.674   0.140 -0.0991  0.0473 -0.3426
  885MPD2    C413029   1.839   1.774   0.189 -0.2835  0.3042 -0.5724
  885MPD2    C513030   1.817   1.797   0.321  0.8038  0.2651 -0.1971
  885MPD2     H13031   2.064   1.513   0.194  1.5969  1.6788 -0.7193
  885MPD2    H113032   1.775   1.835   0.127 -0.5586  0.7280  0.1250
  885MPD2    H213033   1.887   1.743   0.514 -0.8090  0.2604 -0.1707
  885MPD2    H313034   1.746   1.872   0.352 -0.4037 -0.6639 -0.7151
  885MPD2     N13035   1.937   1.657  17.738 -0.3791 -0.1600  0.3110
  885MPD2    H513036   1.996   1.580  17.706 -0.8849 -0.9980  1.3955
  885MPD2    N113037   2.024   1.558   0.477  0.2367  0.2767  0.0093
  885MPD2    H713038   1.995   1.596   0.567 -0.3530  1.0691 -0.5194
  886MPD2     C13039   3.473   4.124  15.470 -1.0233 -0.4701  0.3625
  886MPD2    C113040   3.582   4.194  15.520 -0.3264  0.2145  0.2519
  886MPD2    C213041   3.604   4.327  15.487  0.1265  0.3364  0.1995
  886MPD2    C313042   3.518   4.386  15.399 -0.3928  0.6963 -0.3548
  886MPD2    C413043   3.404   4.319  15.351  0.7873  0.5295 -0.0787
  886MPD2    C513044   3.385   4.187  15.390 -0.1150 -0.4843  0.3893
  886MPD2     H13045   3.686   4.388  15.521  2.3904 -2.4936 -0.2007
  886MPD2    H113046   3.331   4.370  15.289  0.9171  1.5066  0.5786
  886MPD2    H213047   3.454   4.020  15.496 -1.8676 -0.0492  1.4348
  886MPD2    H313048   3.303   4.138  15.338 -0.3550  0.0442  0.2690
  886MPD2     N13049   3.550   4.526  15.378 -0.7408  0.0793 -0.2869
  886MPD2    H513050   3.638   4.561  15.416 -0.2733  1.2239 -2.4280
  886MPD2    N113051   3.686   4.133  15.594  0.1652 -0.2862  0.5466
  886MPD2    H713052   3.766   4.192  15.613  1.0991 -1.0924 -0.8449
  887MPD2     C13053   4.230   4.331  16.059 -0.3460 -0.1047 -0.1057
  887MPD2    C113054   4.120   4.357  15.984 -0.0935 -0.1957 -0.1736
  887MPD2    C213055   4.070   4.489  15.984  0.2566 -0.5664 -0.0916
  887MPD2    C313056   4.132   4.588  16.057  0.4142 -0.3102  0.4289
  887MPD2    C413057   4.252   4.558  16.117  0.7489  0.0050  0.4085
  887MPD2    C513058   4.298   4.429  16.120 -0.2770  0.3727  0.1050
  887MPD2     H13059   3.975   4.502  15.934  0.4782  3.5499  0.6300
  887MPD2    H113060   4.312   4.641  16.153  1.3361  0.1358 -0.8448
  887MPD2    H213061   4.281   4.235  16.058  0.1051  0.1272  0.2130
  887MPD2    H313062   4.392   4.405  16.168 -1.4527 -1.1868  1.6190
  887MPD2     N13063   4.062   4.709  16.072 -0.6753 -0.7011  0.0623
  887MPD2    H513064   3.968   4.708  16.033 -0.5657 -2.3865 -0.1457
  887MPD2    N113065   4.047   4.252  15.920 -0.3957 -0.3927 -0.2844
  887MPD2    H713066   3.981   4.284  15.850 -1.0804 -2.0473 -0.3969
  888MPD2     C13067   1.000   4.486  15.446  0.4999 -0.0214 -0.0434
  888MPD2    C113068   1.032   4.553  15.560 -0.5459 -0.1720  0.4214
  888MPD2    C213069   1.111   4.667  15.559 -0.9227  0.4023  0.4205
  888MPD2    C313070   1.162   4.714  15.438  0.3752 -0.1236 -0.2274
  888MPD2    C413071   1.146   4.629  15.331 -0.7565 -0.3685  0.6067
  888MPD2    C513072   1.068   4.515  15.332 -0.3613  0.1861 -0.9490
  888MPD2     H13073   1.125   4.712  15.657  2.1755 -1.8171  0.9859
  888MPD2    H113074   1.184   4.654  15.232 -0.2475 -0.0965  0.8685
  888MPD2    H213075   0.932   4.402  15.438 -0.1047  0.3611  1.0538
  888MPD2    H313076   1.058   4.455  15.242  1.0679 -2.2463  0.5157
  888MPD2     N13077   1.224   0.106  15.423  0.3007 -0.2750  0.0093
  888MPD2    H513078   1.204   0.168  15.500  0.6379 -1.7769  1.2984
  888MPD2    N113079   0.971   4.521  15.679 -0.2227 -0.0524 -0.5202
  888MPD2    H713080   0.980   4.599  15.744  1.2789 -2.1383  1.7744
  889MPD2     C13081   0.183   4.232  13.142 -0.0930  0.5242  0.2443
  889MPD2    C113082   0.193   4.166  13.266  0.4527 -0.1082 -0.2904
  889MPD2    C213083   0.239   4.242  13.375 -0.2969 -0.0559 -0.7267
  889MPD2    C313084   0.241   4.379  13.358 -0.7829  0.1053 -0.4691
  889MPD2    C413085   0.223   4.439  13.234 -0.0935  1.0469 -0.4908
  889MPD2    C513086   0.193   4.363  13.127  0.7381 -0.4389  1.2339
  889MPD2     H13087   0.273   4.187  13.462  0.4212  1.3798 -0.1177
  889MPD2    H113088   0.229   4.546  13.218 -1.6052  1.4199  1.4699
  889MPD2    H213089   0.176   4.174  13.051 -0.1782  0.9289 -0.0121
  889MPD2    H313090   0.176   4.403  13.028 -1.8337 -0.0617  1.8341
  889MPD2     N13091   0.273   4.453  13.477 -0.3450  0.4458  0.9662
  889MPD2    H513092   0.299   4.396  13.557  0.0540 -0.6370  0.0626
  889MPD2    N113093   0.213   4.028  13.279  0.2571  0.2066  0.1265
  889MPD2    H713094   0.265   3.993  13.359 -1.4978 -1.0997  0.6825
  890MPD2     C13095   0.052   0.765  14.685 -0.3824  0.4580 -0.3096
  890MPD2    C113096   0.157   0.796  14.764  0.7668  0.1862  0.5536
  890MPD2    C213097   0.161   0.745  14.891 -0.1398  0.3347  0.0652
  890MPD2    C313098   0.053   0.679  14.944 -0.1202 -0.6583 -0.2824
  890MPD2    C413099   4.686   0.636  14.859  0.0447  0.5740  0.2294
  890MPD2    C513100   4.685   0.683  14.729  0.1669 -0.4832 -0.0997
  890MPD2     H13101   0.227   0.787  14.966  0.2269 -0.8890  0.4266
  890MPD2    H113102   4.601   0.579  14.894 -0.4998 -0.1982 -2.3281
  890MPD2    H213103   0.041   0.813  14.588 -1.5048 -1.0908 -0.9533
  890MPD2    H313104   4.601   0.664  14.664 -0.2369  1.3619 -0.1115
  890MPD2     N13105   0.050   0.645  15.084  0.6006 -0.0077 -0.0315
  890MPD2    H513106   0.134   0.661  15.138 -0.3847 -0.5921  1.6478
  890MPD2    N113107   0.253   0.884  14.710 -0.0722 -0.0012  0.0534
  890MPD2    H713108   0.236   0.922  14.617 -0.2837  0.4876  0.2919
  891MPD2     C13109   3.149   3.894  17.046 -0.4873  0.0505 -0.1320
  891MPD2    C113110   3.157   4.007  17.120  0.3304  1.0810 -0.0170
  891MPD2    C213111   3.194   3.998  17.254  0.1066 -0.7057 -0.1611
  891MPD2    C313112   3.246   3.879  17.296  0.0910 -0.4980 -0.4927
  891MPD2    C413113   3.234   3.766  17.226 -0.5011 -0.3263  0.1011
  891MPD2    C513114   3.183   3.774  17.095 -0.5751  0.1965  0.3788
  891MPD2     H13115   3.214   4.081  17.320 -0.9581  0.0067 -0.7247
  891MPD2    H113116   3.247   3.665  17.260  2.0894  0.0534  0.2081
  891MPD2    H213117   3.127   3.901  16.940  1.1373  0.0505 -0.4661
  891MPD2    H313118   3.168   3.690  17.027  0.4461  0.6143 -0.3727
  891MPD2     N13119   3.291   3.875  17.428  0.5865  0.3054  0.4265
  891MPD2    H513120   3.291   3.962  17.480 -1.0538 -0.1189  1.1590
  891MPD2    N113121   3.126   4.131  17.056 -0.1050  0.6792 -0.2779
  891MPD2    H713122   3.102   4.137  16.957 -2.3288  2.4423  0.3733
  892MPD2     C13123   4.072   0.351  14.975 -0.0647 -0.0197 -0.3027
  892MPD2    C113124   3.981   0.372  14.873  0.2645  0.0590 -0.7933
  892MPD2    C213125   4.012   0.328  14.744  0.1257  0.5216  0.3257
  892MPD2    C313126   4.134   0.263  14.716  0.0666 -0.4281  0.0744
  892MPD2    C413127   4.216   0.235  14.818  0.4905 -0.6549  0.3819
  892MPD2    C513128   4.184   0.275  14.946 -0.0465 -0.1761  0.2485
  892MPD2     H13129   3.937   0.343  14.667  1.7616 -1.3417 -1.6434
  892MPD2    H113130   4.314   0.197  14.792 -0.1238 -1.4814 -0.6734
  892MPD2    H213131   4.066   0.378  15.080  0.9075 -0.0922 -0.2243
  892MPD2    H313132   4.250   0.265  15.031  1.1063  2.4209 -0.3406
  892MPD2     N13133   4.173   0.201  14.591 -0.4354 -0.2912 -0.2858
  892MPD2    H513134   4.263   0.153  14.593  0.6844  1.8050 -0.0116
  892MPD2    N113135   3.854   0.438  14.890  0.5389 -0.4643  0.7485
  892MPD2    H713136   3.797   0.441  14.807 -0.7625 -0.2566  1.6388
  893MPD2     C13137   0.781   3.414   1.091  0.2416  0.0194 -1.0659
  893MPD2    C113138   0.854   3.390   1.206 -0.2308 -0.2649  0.5791
  893MPD2    C213139   0.806   3.306   1.310 -0.3634  0.2615 -0.6227
  893MPD2    C313140   0.696   3.230   1.296 -0.3550 -0.6634  0.2839
  893MPD2    C413141   0.623   3.245   1.177  0.3101  0.2945 -0.8938
  893MPD2    C513142   0.656   3.348   1.079  0.4928  0.6947  0.2495
  893MPD2     H13143   0.875   3.285   1.391  0.9411  2.1554 -1.2644
  893MPD2    H113144   0.535   3.184   1.160  0.6083 -0.6476  0.9718
  893MPD2    H213145   0.814   3.485   1.016  0.7721  2.2182  1.2554
  893MPD2    H313146   0.605   3.344   0.984  1.6917  4.2830 -0.5305
  893MPD2     N13147   0.661   3.120   1.375  0.1180 -1.0585 -0.0966
  893MPD2    H513148   0.572   3.080   1.347 -1.3513  1.9679  0.1619
  893MPD2    N113149   0.990   3.438   1.208  0.2767  0.0320  0.1709
  893MPD2    H713150   1.017   3.485   1.123  1.2859  0.4177  0.6924
  894MPD2     C13151   3.817   1.151   0.757  0.1547  0.5273 -0.2131
  894MPD2    C113152   3.785   1.206   0.878 -0.0044  0.4427 -0.8967
  894MPD2    C213153   3.794   1.342   0.895  0.1834 -0.3968 -0.4839
  894MPD2    C313154   3.831   1.427   0.793 -0.6043  0.6082 -0.1849
  894MPD2    C413155   3.864   1.374   0.667  0.2575  0.1684  0.4164
  894MPD2    C513156   3.848   1.236   0.655  0.1165 -0.1804  0.2207
  894MPD2     H13157   3.763   1.393   0.986  0.1121 -1.0477 -0.1437
  894MPD2    H113158   3.890   1.440   0.585 -1.0753  1.3183  0.9245
  894MPD2    H213159   3.816   1.044   0.737  0.7388  0.8390 -1.8914
  894MPD2    H313160   3.874   1.194   0.559 -1.8242  0.7843 -0.7277
  894MPD2     N13161   3.835   1.564   0.818  0.0541  0.2191 -0.6157
  894MPD2    H513162   3.833   1.596   0.914  1.5243 -0.4072 -0.3771
  894MPD2    N113163   3.733   1.126   0.979  1.1191 -0.1349  1.2277
  894MPD2    H713164   3.693   1.178   1.056 -1.1966 -1.7071  1.0948
  895MPD2     C13165   3.314   4.656  13.972 -0.3926 -0.1932  0.2935
  895MPD2    C113166   3.258   4.647  13.846  0.2763 -0.3692 -1.2634
  895MPD2    C213167   3.224   4.517  13.798 -1.1911  0.2166 -0.0090
  895MPD2    C313168   3.266   4.402  13.861 -0.2956 -0.5136 -0.3074
  895MPD2    C413169   3.344   4.412  13.973  1.0277  0.0091 -0.0934
  895MPD2    C513170   3.363   4.538  14.028  0.4053  0.0742  0.3466
  895MPD2     H13171   3.164   4.517  13.707 -1.9818  2.9010  0.5144
  895MPD2    H113172   3.383   4.325  14.024 -1.2431 -0.9997 -0.1004
  895MPD2    H213173   3.327   0.014  14.026  1.5698 -2.1275  3.1854
  895MPD2    H313174   3.413   4.539  14.124 -1.2757 -0.4224  1.2261
  895MPD2     N13175   3.247   4.276  13.797 -0.8391 -0.0949  0.0309
  895MPD2    H513176   3.299   4.197  13.833  0.8255  0.3652 -1.3864
  895MPD2    N113177   3.204   0.015  13.776  0.5596 -0.1299  0.3393
  895MPD2    H713178   3.154   4.712  13.697 -1.3055  2.3665  0.3430
  896MPD2     C13179   0.937   2.633   1.671 -0.1936 -0.5850 -0.2707
  896MPD2    C113180   0.861   2.628   1.561  0.0666  0.0839 -0.0696
  896MPD2    C213181   0.733   2.573   1.563 -0.8973 -0.3368  0.1984
  896MPD2    C313182   0.688   2.523   1.685 -0.6184 -0.8237  0.0487
  896MPD2    C413183   0.767   2.533   1.800  0.5912 -0.1516  0.7668
  896MPD2    C513184   0.889   2.589   1.791  0.7102  0.6616 -0.6787
  896MPD2     H13185   0.676   2.563   1.471 -1.4766  1.1968  0.3865
  896MPD2    H113186   0.721   2.503   1.893 -3.0957  1.1819 -0.6238
  896MPD2    H213187   1.025   2.696   1.675 -0.6857  0.0089  1.1797
  896MPD2    H313188   0.943   2.610   1.883 -0.8089  0.9621  0.1614
  896MPD2     N13189   0.557   2.468   1.687 -0.1972 -0.3024  0.0105
  896MPD2    H513190   0.507   2.475   1.599  2.9478 -1.8269 -1.8664
  896MPD2    N113191   0.921   2.671   1.444  0.3368 -0.5122 -0.1013
  896MPD2    H713192   1.023   2.669   1.443  0.3129 -1.5582 -1.6666
  897MPD2     C13193   0.980   3.674  11.127 -0.0334  0.3975 -0.7398
  897MPD2    C113194   0.943   3.784  11.057  0.0198 -0.0073  0.6396
  897MPD2    C213195   0.853   3.870  11.118  0.4506  0.1728 -0.2869
  897MPD2    C313196   0.807   3.850  11.249  0.2646  0.2228 -0.4553
  897MPD2    C413197   0.852   3.742  11.325 -0.3435  0.1739  0.3066
  897MPD2    C513198   0.934   3.659  11.255  0.2035 -0.5115  0.1406
  897MPD2     H13199   0.829   3.963  11.069 -1.2815 -0.5361 -0.7975
  897MPD2    H113200   0.833   3.723  11.430 -0.5382  0.8768  0.3971
  897MPD2    H213201   1.040   3.603  11.071  1.0811  1.3452 -0.7495
  897MPD2    H313202   0.975   3.572  11.304 -0.6733 -0.0045  1.7473
  897MPD2     N13203   0.713   3.951  11.297 -0.0991 -0.5982 -0.5540
  897MPD2    H513204   0.683   4.017  11.226  1.1686 -0.0426 -0.5841
  897MPD2    N113205   0.977   3.809  10.924 -0.3334 -0.3312 -0.3746
  897MPD2    H713206   0.932   3.892  10.886 -0.5857  1.3406  3.5570
  898MPD2     C13207   2.858   0.118  17.654 -0.1345  0.6423 -0.6859
  898MPD2    C113208   2.972   0.101  17.736 -1.0309  0.7280  0.0026
  898MPD2    C213209   3.083   0.183  17.708 -0.0377  0.0631 -0.0885
  898MPD2    C313210   3.072   0.279  17.605 -0.4005 -0.3627  0.5124
  898MPD2    C413211   2.954   0.295  17.543  0.3503  0.6962  0.7532
  898MPD2    C513212   2.840   0.212  17.563  0.0124 -0.6383  0.5430
  898MPD2     H13213   3.172   0.179   0.029 -1.2610 -2.1763  1.5075
  898MPD2    H113214   2.943   0.380  17.477 -0.4305  0.3427  0.4337
  898MPD2    H213215   2.775   0.049  17.670  1.1317 -0.8003 -0.3111
  898MPD2    H313216   2.751   0.237  17.507  0.6370  2.3144  0.8813
  898MPD2     N13217   3.188   0.356  17.574  0.5331  0.3902 -0.2616
  898MPD2    H513218   3.274   0.332  17.622 -0.8935 -0.2569  1.9566
  898MPD2    N113219   2.976   0.004   0.098 -0.0129 -0.2253  0.2262
  898MPD2    H713220   3.070   4.727   0.134  0.0076 -0.8012 -0.0231
  899MPD2     C13221   4.592   0.763  17.049  0.0531 -0.3689  0.3639
  899MPD2    C113222   4.599   0.873  17.130 -0.3527 -0.8673 -0.7032
  899MPD2    C213223   4.596   0.868  17.271 -0.3112 -0.1752  0.0665
  899MPD2    C313224   4.578   0.747  17.333  0.3652 -0.2367  0.3872
  899MPD2    C413225   4.561   0.635  17.256  0.0780 -0.3484  0.1752
  899MPD2    C513226   4.570   0.641  17.115 -0.3095 -0.2900  0.3353
  899MPD2     H13227   4.605   0.954  17.336 -2.5492 -0.8459  1.2778
  899MPD2    H113228   4.541   0.537  17.297 -0.1319 -0.5115 -0.3175
  899MPD2    H213229   4.596   0.769  16.941 -0.7984  0.7449  0.3873
  899MPD2    H313230   4.555   0.550  17.057 -0.1455  0.0151 -0.1902
  899MPD2     N13231   4.535   0.740  17.472  0.1013  0.5718 -0.2933
  899MPD2    H513232   4.510   0.650  17.512 -1.0511  2.0652  2.4158
  899MPD2    N113233   4.606   0.999  17.064 -0.5115 -0.7731 -0.5280
  899MPD2    H713234   4.642   0.995  16.970 -0.1392 -0.1333 -0.4094
  900MPD2     C13235   3.540   2.329  12.710 -0.2617  0.4527 -0.0770
  900MPD2    C113236   3.466   2.220  12.690  0.2466 -0.0655 -0.3755
  900MPD2    C213237   3.337   2.230  12.630 -0.2556  0.2637  0.3262
  900MPD2    C313238   3.292   2.360  12.606  0.0226  0.6029  0.2711
  900MPD2    C413239   3.376   2.470  12.614  0.6321 -0.5787 -0.0147
  900MPD2    C513240   3.501   2.450  12.672  0.4882 -0.1392  0.8235
  900MPD2     H13241   3.269   2.146  12.628  0.9544 -0.7090 -0.5674
  900MPD2    H113242   3.344   2.569  12.586  0.4782 -0.5253  0.3478
  900MPD2    H213243   3.633   2.330  12.766 -0.8385  0.8536  0.8812
  900MPD2    H313244   3.566   2.535  12.693 -0.6779  0.8212  0.5177
  900MPD2     N13245   3.156   2.390  12.576  0.3796  0.8489  0.0110
  900MPD2    H513246   3.145   2.490  12.559 -1.9979  0.6138  0.1600
  900MPD2    N113247   3.511   2.097  12.733  0.1621  0.7271 -0.2422
  900MPD2    H713248   3.606   2.092  12.769 -0.4116 -2.5610  0.8505
  901MPD2     C13249   3.492   1.136  13.215  0.6152 -0.8542  0.6018
  901MPD2    C113250   3.592   1.149  13.120  0.0729 -0.3121 -0.9496
  901MPD2    C213251   3.616   1.274  13.069 -0.3711  0.6415  0.0073
  901MPD2    C313252   3.545   1.389  13.118  0.4275 -0.4417  0.0318
  901MPD2    C413253   3.447   1.369  13.208 -0.3089  0.9546  0.6504
  901MPD2    C513254   3.416   1.244  13.257 -0.6455 -0.6868 -0.0184
  901MPD2     H13255   3.697   1.302  13.002  0.1243 -1.4217 -0.2610
  901MPD2    H113256   3.383   1.449  13.245 -1.9052 -0.0428  0.0514
  901MPD2    H213257   3.470   1.036  13.252  0.0811 -2.1067 -3.0563
  901MPD2    H313258   3.334   1.232  13.327  0.4524 -2.8491  0.9245
  901MPD2     N13259   3.576   1.517  13.057 -0.3245 -0.0108 -0.0197
  901MPD2    H513260   3.651   1.519  12.990  2.5744  2.5563  3.2966
  901MPD2    N113261   3.660   1.033  13.066 -0.6716 -0.5830 -0.6659
  901MPD2    H713262   3.634   0.947  13.114  0.5622 -0.4147  0.3068
  902MPD2     C13263   2.506   0.287  13.419  0.1808  0.4545 -0.7812
  902MPD2    C113264   2.552   0.415  13.450  0.2614 -0.0520  0.6630
  902MPD2    C213265   2.668   0.466  13.397 -0.4711 -0.6777 -0.2532
  902MPD2    C313266   2.728   0.397  13.295 -0.2693 -0.4961  0.8626
  902MPD2    C413267   2.680   0.274  13.257  0.4253  0.3874  0.5357
  902MPD2    C513268   2.569   0.230  13.314 -0.2529 -0.3206 -0.6974
  902MPD2     H13269   2.704   0.563  13.430  0.7942 -0.7961 -1.2745
  902MPD2    H113270   2.737   0.217  13.184 -1.6179 -0.2439 -0.5509
  902MPD2    H213271   2.412   0.251  13.457  0.4028 -1.3056 -1.9409
  902MPD2    H313272   2.534   0.132  13.284  0.0022 -0.4327 -0.6287
  902MPD2     N13273   2.848   0.434  13.231  0.4100  1.0522 -0.1175
  902MPD2    H513274   2.896   0.363  13.176 -3.2202  0.5057 -2.5914
  902MPD2    N113275   2.477   0.483  13.552 -0.2282 -0.2293 -0.3834
  902MPD2    H713276   2.409   0.428  13.604  2.1342 -2.4718  0.3086
  903MPD2     C13277   3.223   0.481  12.513 -0.3354 -0.1124  0.0137
  903MPD2    C113278   3.117   0.496  12.601  0.2727  0.7467  0.2819
  903MPD2    C213279   2.986   0.474  12.561 -0.2830 -0.8371  0.4990
  903MPD2    C313280   2.960   0.429  12.432 -0.0240 -0.2625  0.1221
  903MPD2    C413281   3.067   0.410  12.347  0.3324  0.5080 -0.5953
  903MPD2    C513282   3.194   0.440  12.384 -0.3259  0.8525 -0.3318
  903MPD2     H13283   2.911   0.488  12.638 -1.2084  3.5969 -1.2133
  903MPD2    H113284   3.047   0.373  12.247  0.1052 -1.0566  0.0326
  903MPD2    H213285   3.329   0.496  12.533 -0.3983 -0.4476  0.6374
  903MPD2    H313286   3.273   0.422  12.313 -0.5937  4.3878 -1.5416
  903MPD2     N13287   2.828   0.401  12.393  0.0391 -0.3385  0.4516
  903MPD2    H513288   2.759   0.445  12.453 -0.0910 -0.8350  0.6632
  903MPD2    N113289   3.148   0.541  12.727  0.4663 -0.0091  0.8263
  903MPD2    H713290   3.246   0.554  12.750  0.8833 -2.3749  0.4058
  904MPD2     C13291   2.697   4.244  13.958 -0.5169 -0.3076 -0.1039
  904MPD2    C113292   2.649   4.158  14.055  0.2726  0.2766 -0.1376
  904MPD2    C213293   2.736   4.078  14.130 -0.7532 -0.3858  0.3606
  904MPD2    C313294   2.870   4.084  14.104 -0.2309 -0.3212 -0.2555
  904MPD2    C413295   2.922   4.173  14.008 -0.1174 -0.2781 -0.1189
  904MPD2    C513296   2.835   4.252  13.935  0.1375 -0.4662  0.5783
  904MPD2     H13297   2.704   4.011  14.209  0.4670  0.8044  1.8766
  904MPD2    H113298   3.025   4.207  14.002  0.1108 -0.8627  0.5934
  904MPD2    H213299   2.640   4.311  13.895  0.4059  1.2454  0.7274
  904MPD2    H313300   2.868   4.327  13.864  0.3632  0.0979  1.2815
  904MPD2     N13301   2.945   3.997  14.185 -0.7032 -0.5759  0.0977
  904MPD2    H513302   2.895   3.937  14.250 -0.8289  1.1971  1.6549
  904MPD2    N113303   2.508   4.150  14.088 -0.0728  0.8778 -0.8596
  904MPD2    H713304   2.482   4.063  14.132  0.8990 -0.0345 -2.0996
  905MPD2     C13305   2.395   4.223  13.487 -0.2864  0.1133  0.6455
  905MPD2    C113306   2.484   4.303  13.558  0.2732 -0.1569  0.5866
  905MPD2    C213307   2.622   4.274  13.553  0.4074  0.1538 -0.4229
  905MPD2    C313308   2.666   4.158  13.496 -0.6777 -0.8914  0.0836
  905MPD2    C413309   2.571   4.079  13.433 -0.5151  0.1119 -0.1906
  905MPD2    C513310   2.437   4.108  13.427  0.0518 -0.1658 -0.2887
  905MPD2     H13311   2.696   4.336  13.604 -0.1239  1.5236 -1.3181
  905MPD2    H113312   2.608   3.983  13.399 -2.2088 -0.3724 -0.6527
  905MPD2    H213313   2.290   4.244  13.476 -0.9376 -2.7941  1.3480
  905MPD2    H313314   2.379   4.074  13.343  1.8358 -2.4755 -0.5887
  905MPD2     N13315   2.804   4.122  13.505  0.7839 -0.5034 -0.2611
  905MPD2    H513316   2.857   4.198  13.547 -1.6181  1.3500 -0.5661
  905MPD2    N113317   2.428   4.398  13.645  0.5188 -0.4020  0.1134
  905MPD2    H713318   2.327   4.390  13.651  0.2829  0.4387 -3.1514
  906MPD2     C13319   4.457   4.294  11.487  0.7891  0.4779  0.1831
  906MPD2    C113320   4.428   4.179  11.418 -0.0636 -0.1437  0.4814
  906MPD2    C213321   4.415   4.059  11.487  0.8535  0.2933  0.5645
  906MPD2    C313322   4.398   4.056  11.624  0.4957  0.4446  0.7820
  906MPD2    C413323   4.444   4.167  11.694  0.4155  0.1452 -0.0433
  906MPD2    C513324   4.477   4.284  11.629  0.3124  0.3242 -0.2279
  906MPD2     H13325   4.390   3.969  11.431 -0.5090  1.5714 -0.8700
  906MPD2    H113326   4.451   4.171  11.802  0.4492 -1.0411  0.0017
  906MPD2    H213327   4.462   4.394  11.446 -2.8285  1.4999  2.2742
  906MPD2    H313328   4.503   4.369  11.691  4.4822 -0.6533 -0.6753
  906MPD2     N13329   4.368   3.937  11.696  0.0589 -0.6038 -0.2609
  906MPD2    H513330   4.353   3.937  11.796 -0.4506 -1.6548 -0.3463
  906MPD2    N113331   4.423   4.174  11.273 -0.0142  0.2079  0.2468
  906MPD2    H713332   4.356   4.110  11.232  0.0836 -0.2456  0.7960
  907MPD2     C13333   3.474   3.099  15.714 -0.2360  0.0838 -0.4886
  907MPD2    C113334   3.575   3.004  15.709 -0.1601  0.4847 -0.3082
  907MPD2    C213335   3.639   2.974  15.824 -0.7222 -0.1461  0.1365
  907MPD2    C313336   3.614   3.047  15.939 -0.4155  0.3537 -0.0646
  907MPD2    C413337   3.510   3.142  15.935 -0.7191 -0.0954 -0.4192
  907MPD2    C513338   3.436   3.165  15.827 -0.3631  0.2541 -0.4797
  907MPD2     H13339   3.705   2.889  15.815  1.1500  1.2324  0.9100
  907MPD2    H113340   3.482   3.199  16.022  0.6207  0.4648 -0.3530
  907MPD2    H213341   3.410   3.127  15.630  1.1832  2.4594 -0.7819
  907MPD2    H313342   3.348   3.229  15.827 -1.2900 -1.0220  0.3902
  907MPD2     N13343   3.686   3.012  16.054  0.3157  0.1062  0.0575
  907MPD2    H513344   3.763   2.946  16.055 -1.7145 -2.3060 -2.1610
  907MPD2    N113345   3.597   2.920  15.597 -0.4948 -1.0959  0.4461
  907MPD2    H713346   3.666   2.846  15.606 -1.1622 -1.6396  1.1255
  908MPD2     C13347   0.854   3.313  10.059  0.1232  0.5542  0.0930
  908MPD2    C113348   0.915   3.274  10.175  0.3647 -0.7539  0.5247
  908MPD2    C213349   0.924   3.364  10.278 -0.5367 -0.6770 -0.8871
  908MPD2    C313350   0.880   3.493  10.261  0.4282 -0.3096 -0.3197
  908MPD2    C413351   0.815   3.528  10.149  0.3280  0.8313  0.1536
  908MPD2    C513352   0.806   3.440  10.045 -0.5069  0.3769  0.5880
  908MPD2     H13353   0.974   3.345  10.372 -1.2728 -2.5526 -0.8777
  908MPD2    H113354   0.774   3.628  10.141 -1.7363  0.1350  1.9790
  908MPD2    H213355   0.825   3.251   9.975  3.5497 -1.5560  0.4586
  908MPD2    H313356   0.748   3.468   9.958  0.1742 -0.9256 -0.2995
  908MPD2     N13357   0.912   3.580  10.367  0.1973 -0.2541 -0.7978
  908MPD2    H513358   0.954   3.536  10.448 -0.9277 -1.6412 -0.9675
  908MPD2    N113359   0.965   3.142  10.185 -0.0219  0.3926  0.3578
  908MPD2    H713360   0.930   3.090  10.105  0.4847  0.4116  0.1251
  909MPD2     C13361   1.972   2.080  12.348  0.0179  0.4758 -0.3090
  909MPD2    C113362   1.921   2.198  12.296 -0.0191  0.2598  0.1989
  909MPD2    C213363   1.797   2.236  12.346 -0.0974  0.3425 -0.0416
  909MPD2    C313364   1.721   2.150  12.427 -0.6438  0.0686  0.2828
  909MPD2    C413365   1.771   2.025  12.471 -0.2608  0.2760 -0.4681
  909MPD2    C513366   1.899   1.998  12.431 -0.2952 -0.4250  0.0170
  909MPD2     H13367   1.750   2.322  12.299  1.5956 -1.0255 -4.2719
  909MPD2    H113368   1.712   1.953  12.526  0.0020  0.1776 -0.3136
  909MPD2    H213369   2.076   2.057  12.326 -0.3689 -1.1289 -0.4807
  909MPD2    H313370   1.928   1.895  12.444  1.2002 -0.3520 -2.7121
  909MPD2     N13371   1.590   2.195  12.453 -0.4506 -0.0055 -0.6582
  909MPD2    H513372   1.554   2.279  12.408  1.1795  0.0836 -1.8004
  909MPD2    N113373   1.979   2.285  12.198  0.0474 -0.1800 -0.2232
  909MPD2    H713374   1.935   2.374  12.178  1.0232 -0.0507 -1.7543
  910MPD2     C13375   3.268   3.884  16.091  0.5706 -1.1069  0.2069
  910MPD2    C113376   3.310   3.751  16.070  0.0430 -0.0385  0.1257
  910MPD2    C213377   3.302   3.711  15.939  0.4265  0.5903 -0.6500
  910MPD2    C313378   3.252   3.782  15.830  0.0045  0.5192  0.2953
  910MPD2    C413379   3.215   3.914  15.858 -0.1875  0.0654 -0.6974
  910MPD2    C513380   3.238   3.967  15.983 -0.0526 -0.1319  0.6995
  910MPD2     H13381   3.338   3.612  15.916  1.0886  0.9296 -1.0572
  910MPD2    H113382   3.180   3.987  15.786 -0.1737  1.1420  0.3896
  910MPD2    H213383   3.274   3.942  16.182 -1.7292 -0.6422  0.0771
  910MPD2    H313384   3.222   4.074  15.994 -0.5079 -0.0538 -0.7107
  910MPD2     N13385   3.240   3.730  15.693 -0.0818 -0.0670 -0.2561
  910MPD2    H513386   3.198   3.795  15.626 -0.3639  0.9748  0.9203
  910MPD2    N113387   3.367   3.663  16.171  0.5129 -0.3177 -0.1902
  910MPD2    H713388   3.401   3.573  16.139  2.6697  1.3727 -2.6697
  911MPD2     C13389   1.615   0.472  16.768  0.8564  0.4509  0.3877
  911MPD2    C113390   1.701   0.430  16.669 -0.1882  1.1104  0.0136
  911MPD2    C213391   1.657   0.417  16.533 -0.1841  0.1652  0.3880
  911MPD2    C313392   1.542   0.482  16.494  0.0785  0.2511 -0.2738
  911MPD2    C413393   1.455   0.521  16.594 -0.3087  0.2043 -0.6466
  911MPD2    C513394   1.495   0.514  16.728 -0.4879 -0.2591  0.9847
  911MPD2     H13395   1.714   0.375  16.450  1.0281 -0.0384  1.3300
  911MPD2    H113396   1.358   0.560  16.564 -0.7046 -0.5324 -0.3238
  911MPD2    H213397   1.637   0.452  16.872  2.6684  1.0833  0.1278
  911MPD2    H313398   1.416   0.535  16.799 -0.6460  0.2657  0.6570
  911MPD2     N13399   1.503   0.501  16.359 -0.0202  0.4208 -0.0906
  911MPD2    H513400   1.406   0.528  16.347 -0.5725 -0.2459  2.9564
  911MPD2    N113401   1.819   0.368  16.717 -0.2036 -0.1131  0.1773
  911MPD2    H713402   1.822   0.339  16.814 -0.0606 -1.1617 -0.1440
  912MPD2     C13403   1.440   0.009  15.778  0.3172  0.5187  0.0898
  912MPD2    C113404   1.357   0.063  15.879 -0.5144  0.6035 -0.5107
  912MPD2    C213405   1.271   4.718  15.950 -0.0247  0.1488  0.2141
  912MPD2    C313406   1.274   4.583  15.931 -1.1382  0.2066  0.0561
  912MPD2    C413407   1.327   4.537  15.810  0.5609 -0.1581 -0.7316
  912MPD2    C513408   1.412   4.618  15.742  0.3345 -0.0844  0.1758
  912MPD2     H13409   1.214   0.015  16.037  0.7542  1.0273  0.3920
  912MPD2    H113410   1.322   4.434  15.776 -0.9564 -0.9509  1.9164
  912MPD2    H213411   1.518   0.064  15.727 -0.2508 -0.3940 -1.7821
  912MPD2    H313412   1.466   4.576  15.658  0.1241 -0.8959  0.4399
  912MPD2     N13413   1.209   4.508  16.027  0.7088  0.3502  0.1003
  912MPD2    H513414   1.191   4.558  16.113 -0.6203  1.1260 -0.6346
  912MPD2    N113415   1.376   0.197  15.908  0.0931 -0.5691 -0.2590
  912MPD2    H713416   1.453   0.239  15.857  0.7090  0.0990  1.1901
  913MPD2     C13417   0.821   0.255  10.777  0.0137  0.3374  0.1451
  913MPD2    C113418   0.865   0.357  10.856  0.5981 -0.0088 -0.3669
  913MPD2    C213419   0.867   0.489  10.824 -0.5703  0.2925  0.5976
  913MPD2    C313420   0.849   0.515  10.691  0.2150  0.2573  1.0964
  913MPD2    C413421   0.824   0.412  10.605 -0.2749  0.3033  0.3069
  913MPD2    C513422   0.802   0.285  10.649 -1.2764 -0.8239 -0.3834
  913MPD2     H13423   0.898   0.571  10.887  2.2180 -0.1716 -0.1474
  913MPD2    H113424   0.804   0.436  10.501 -0.6213  0.2909  0.3718
  913MPD2    H213425   0.798   0.157  10.815 -1.1454  0.2772 -0.7120
  913MPD2    H313426   0.767   0.215  10.574 -0.4009 -0.1302 -1.4344
  913MPD2     N13427   0.875   0.640  10.629 -0.1174  0.3976 -0.3357
  913MPD2    H513428   0.849   0.650  10.531  0.7017  1.3852 -0.4571
  913MPD2    N113429   0.903   0.320  10.988  0.7739 -0.1212 -0.2106
  913MPD2    H713430   0.916   0.221  11.001  1.7153 -0.1893 -1.6155
  914MPD2     C13431   4.231   0.906  12.262 -0.2313  0.6417 -0.2590
  914MPD2    C113432   4.231   1.010  12.354  0.4124 -0.2482 -0.3180
  914MPD2    C213433   4.169   0.976  12.482  0.8618 -0.2858 -0.0849
  914MPD2    C313434   4.106   0.855  12.510 -0.4308 -0.7119 -0.1542
  914MPD2    C413435   4.096   0.763  12.408 -0.0141  0.0647 -0.7561
  914MPD2    C513436   4.153   0.794  12.288  0.5110  0.3191  0.2524
  914MPD2     H13437   4.179   1.037  12.571  2.4414 -1.5250  0.5939
  914MPD2    H113438   4.040   0.672  12.421 -1.9002  1.1141 -1.5744
  914MPD2    H213439   4.278   0.915  12.165 -2.1723 -2.2206 -1.4721
  914MPD2    H313440   4.147   0.714  12.215  3.5535  0.9979 -0.7666
  914MPD2     N13441   4.043   0.843  12.637 -0.1730 -0.0572 -0.0368
  914MPD2    H513442   4.036   0.929  12.691 -0.3043  0.6045 -1.0861
  914MPD2    N113443   4.299   1.132  12.320  0.1500 -0.1643 -0.8166
  914MPD2    H713444   4.319   1.153  12.223  0.0705 -0.1784 -0.8364
  915MPD2     C13445   2.209   0.845  15.835  0.0792 -0.0790  0.8560
  915MPD2    C113446   2.159   0.932  15.742 -0.0890  0.1231 -0.3040
  915MPD2    C213447   2.117   1.057  15.777  0.4360 -0.0196 -0.2362
  915MPD2    C313448   2.135   1.101  15.904  0.2910 -0.9300 -0.2341
  915MPD2    C413449   2.222   1.033  15.986  0.1515  0.4497 -0.2609
  915MPD2    C513450   2.247   0.900  15.956 -0.0920 -0.0747  0.3640
  915MPD2     H13451   2.058   1.124  15.714 -2.2191 -1.5510  0.6379
  915MPD2    H113452   2.256   1.071  16.081 -0.7997  2.3678 -0.6784
  915MPD2    H213453   2.225   0.739  15.816 -0.5985 -0.1875  0.8948
  915MPD2    H313454   2.315   0.840  16.016  0.5900 -0.2787 -0.6090
  915MPD2     N13455   2.076   1.220  15.950 -0.3290 -0.3304 -0.1283
  915MPD2    H513456   2.026   1.280  15.885 -0.6417  2.7428  2.9347
  915MPD2    N113457   2.123   0.883  15.611  0.2627 -0.3683  0.1061
  915MPD2    H713458   2.138   0.784  15.594 -1.3211 -0.7555  1.0207
  916MPD2     C13459   0.668   4.215  16.200 -0.2463 -0.2595  0.3656
  916MPD2    C113460   0.660   4.088  16.263  0.2392  0.3930  0.0678
  916MPD2    C213461   0.736   3.982  16.214 -0.9218  0.4727 -0.9441
  916MPD2    C313462   0.816   4.006  16.101 -0.1791 -0.2932  0.6131
  916MPD2    C413463   0.816   4.125  16.035 -0.4168  0.1479 -0.5851
  916MPD2    C513464   0.755   4.233  16.090 -0.2891  0.2689 -0.9468
  916MPD2     H13465   0.712   3.884  16.254  0.8384  0.2736 -0.3733
  916MPD2    H113466   0.853   4.134  15.934  0.3951  2.3867 -0.0812
  916MPD2    H213467   0.619   4.304  16.237 -2.1090 -1.3653  0.6099
  916MPD2    H313468   0.753   4.328  16.039  1.6308  0.0191 -1.4808
  916MPD2     N13469   0.882   3.898  16.044 -0.2434 -0.4502 -0.1437
  916MPD2    H513470   0.864   3.802  16.070 -3.1272  0.2059  0.3669
  916MPD2    N113471   0.557   4.069  16.360 -0.2324 -0.1540  0.3347
  916MPD2    H713472   0.501   4.151  16.381  1.7027  0.8925  1.3436
  917MPD2     C13473   0.218   1.333  11.458 -0.2794 -0.0858 -0.3138
  917MPD2    C113474   0.272   1.430  11.542  0.6840  0.2835 -0.0151
  917MPD2    C213475   0.326   1.550  11.489 -0.3215 -0.3551  0.0213
  917MPD2    C313476   0.318   1.572  11.353 -0.3439  0.3909 -0.8983
  917MPD2    C413477   0.257   1.480  11.276  0.7762  0.0268  0.2561
  917MPD2    C513478   0.218   1.358  11.326 -0.4664 -0.1144  0.1612
  917MPD2     H13479   0.362   1.630  11.553 -2.9497 -0.7225  1.9718
  917MPD2    H113480   0.248   1.498  11.169 -1.4048 -0.7625  0.3039
  917MPD2    H213481   0.182   1.238  11.495  0.8958  0.4025  2.0729
  917MPD2    H313482   0.179   1.290  11.251  0.9024  0.0404 -0.7096
  917MPD2     N13483   0.370   1.689  11.288  0.1409  0.1582  0.2583
  917MPD2    H513484   0.344   1.697  11.190 -1.5016 -0.5656  0.6251
  917MPD2    N113485   0.249   1.411  11.676 -0.0436 -0.1596 -0.4497
  917MPD2    H713486   0.224   1.317  11.705 -2.0320  0.8903  1.2237
  918MPD2     C13487   0.536   1.806  12.573 -0.4138  0.4425  0.7634
  918MPD2    C113488   0.603   1.719  12.489 -0.3048 -1.0608 -0.5113
  918MPD2    C213489   0.546   1.660  12.377  0.0813 -0.3187 -0.0938
  918MPD2    C313490   0.408   1.663  12.363  0.3697 -0.0788  0.0459
  918MPD2    C413491   0.335   1.748  12.450 -0.2712  0.0534 -0.4958
  918MPD2    C513492   0.398   1.816  12.549  0.0952 -0.1008 -0.3869
  918MPD2     H13493   0.611   1.613  12.304 -1.4857 -0.7238 -1.2295
  918MPD2    H113494   0.228   1.767  12.451 -0.8052 -2.9495 -0.8008
  918MPD2    H213495   0.575   1.855  12.661  0.6697  1.9814 -0.5551
  918MPD2    H313496   0.334   1.882  12.606 -1.1403 -0.5253 -1.3009
  918MPD2     N13497   0.345   1.587  12.259 -0.0236 -0.1374  0.3263
  918MPD2    H513498   0.409   1.543  12.193 -1.6953  0.2492 -1.5138
  918MPD2    N113499   0.747   1.690  12.513  0.0420 -0.7790 -0.6728
  918MPD2    H713500   0.781   1.629  12.440  0.1960 -0.0489 -1.2184
  919MPD2     C13501   1.165   0.677  12.057  0.0337  0.1486  0.5373
  919MPD2    C113502   1.107   0.558  12.031  0.0469  0.1666  0.0559
  919MPD2    C213503   1.029   0.549  11.921 -0.2566  0.7902 -0.2126
  919MPD2    C313504   1.008   0.658  11.833  0.0288  0.1813 -0.4617
  919MPD2    C413505   1.065   0.778  11.867 -0.1588  0.3893  0.2490
  919MPD2    C513506   1.134   0.786  11.983  1.1956 -0.5293  0.1882
  919MPD2     H13507   0.968   0.463  11.896  1.6286 -0.4755 -0.4500
  919MPD2    H113508   1.051   0.867  11.808 -1.9872 -0.1876 -0.1951
  919MPD2    H213509   1.245   0.696  12.127  0.8157 -4.3811  0.8755
  919MPD2    H313510   1.190   0.878  11.988  1.3884 -0.6019 -0.6803
  919MPD2     N13511   0.924   0.659  11.718  0.1590  0.0777 -0.1568
  919MPD2    H513512   0.929   0.749  11.671 -0.6677 -0.4604 -1.2733
  919MPD2    N113513   1.120   0.435  12.102  0.0679  0.3640  0.7659
  919MPD2    H713514   1.065   0.356  12.068  0.0577  1.7751 -2.4502
  920MPD2     C13515   0.799   1.138  10.886 -0.2181  0.0206  0.5156
  920MPD2    C113516   0.719   1.029  10.851 -0.8427 -0.1523  0.5915
  920MPD2    C213517   0.712   0.912  10.932 -0.2349  0.0308 -0.2690
  920MPD2    C313518   0.771   0.910  11.056  0.5966 -0.1055  0.5538
  920MPD2    C413519   0.839   1.025  11.082  0.7476 -0.1187 -0.5246
  920MPD2    C513520   0.854   1.136  11.001 -0.3093  0.4507 -0.0853
  920MPD2     H13521   0.657   0.826  10.896  0.1449  0.4348 -1.8122
  920MPD2    H113522   0.885   1.043  11.179  1.6600 -1.7701 -0.6361
  920MPD2    H213523   0.810   1.224  10.822 -2.1734  0.4013  0.6847
  920MPD2    H313524   0.896   1.229  11.038  2.7210 -0.2526 -1.7544
  920MPD2     N13525   0.752   0.803  11.144 -0.3408  0.2120 -0.1185
  920MPD2    H513526   0.697   0.720  11.120  0.1730 -0.9264  2.6057
  920MPD2    N113527   0.625   1.037  10.743 -0.2982 -0.0621 -0.4283
  920MPD2    H713528   0.573   0.952  10.723  0.5302 -0.9283  1.1753
  921MPD2     C13529   2.741   0.171  17.215  0.4233 -0.3289 -1.1801
  921MPD2    C113530   2.752   0.081  17.110  0.0307  0.7221  0.3304
  921MPD2    C213531   2.645   0.090  17.012 -0.2224 -0.8684  0.0083
  921MPD2    C313532   2.532   0.177  17.025 -0.0516 -0.4504  0.0285
  921MPD2    C413533   2.527   0.272  17.128  0.0472 -0.0726  0.8638
  921MPD2    C513534   2.639   0.266  17.219  0.3518 -0.0464 -1.1033
  921MPD2     H13535   2.651   0.028  16.923  0.3272 -2.9009  1.4504
  921MPD2    H113536   2.448   0.346  17.131 -0.8046 -0.9580  0.0095
  921MPD2    H213537   2.815   0.199  17.289 -0.0776  1.5652 -1.3938
  921MPD2    H313538   2.657   0.349  17.285 -0.2004 -1.3772  0.7434
  921MPD2     N13539   2.428   0.166  16.926  0.1377 -0.5775 -0.4574
  921MPD2    H513540   2.450   0.097  16.854 -1.9550 -0.9464 -0.7447
  921MPD2    N113541   2.864   4.730  17.111 -0.2793 -0.3560  0.2043
  921MPD2    H713542   2.932   0.004  17.186 -1.4739 -0.8873  1.3709
  922MPD2     C13543   2.582   2.554  17.098 -0.0336  0.6865 -0.2093
  922MPD2    C113544   2.488   2.576  17.194 -0.3560 -0.6961 -0.9399
  922MPD2    C213545   2.406   2.468  17.230 -0.2709 -0.4216 -0.0996
  922MPD2    C313546   2.402   2.352  17.159  0.7850 -0.9507 -0.6894
  922MPD2    C413547   2.498   2.331  17.055 -0.1611 -0.5635 -0.1449
  922MPD2    C513548   2.591   2.432  17.033  0.3181 -0.1288 -0.1064
  922MPD2     H13549   2.326   2.493  17.299  0.6726 -1.2673  1.2907
  922MPD2    H113550   2.521   2.237  17.005  0.4342 -0.6139  0.2207
  922MPD2    H213551   2.651   2.636  17.081  0.4827 -0.0945 -1.9044
  922MPD2    H313552   2.672   2.414  16.964 -1.0666 -0.3512 -1.6596
  922MPD2     N13553   2.317   2.252  17.198 -0.0953  0.5745 -0.0609
  922MPD2    H513554   2.264   2.261  17.284 -1.1387 -2.1788 -0.4285
  922MPD2    N113555   2.480   2.697  17.266  0.0853 -0.6225  0.0631
  922MPD2    H713556   2.408   2.697  17.337 -1.5478  0.4487 -1.5900
  923MPD2     C13557   3.019   4.033   9.365  0.4024 -0.1204  0.3618
  923MPD2    C113558   2.967   4.097   9.476  0.4818  0.1229  0.7009
  923MPD2    C213559   3.052   4.123   9.579  0.6774  0.2659 -0.5501
  923MPD2    C313560   3.189   4.089   9.575  0.4374  0.9993  0.2750
  923MPD2    C413561   3.242   4.023   9.464 -0.1676 -0.2391  0.3626
  923MPD2    C513562   3.156   4.001   9.357  0.3763  0.1587 -0.4792
  923MPD2     H13563   3.006   4.164   9.668  2.1041 -1.8736  1.1949
  923MPD2    H113564   3.346   3.993   9.455 -0.2967 -1.1866  2.1286
  923MPD2    H213565   2.956   4.009   9.281 -0.3199  0.4406  0.7372
  923MPD2    H313566   3.206   3.955   9.274  1.4713 -1.7863  1.2589
  923MPD2     N13567   3.280   4.119   9.681 -0.3341  0.0912  0.3936
  923MPD2    H513568   3.376   4.087   9.674 -0.5650 -0.6772  0.8033
  923MPD2    N113569   2.824   4.120   9.472 -0.1164  0.7298  0.2204
  923MPD2    H713570   2.772   4.084   9.393  0.4836  0.1905  0.0707
  924MPD2     C13571   3.958   2.250  16.335 -1.0316  0.7509  0.0159
  924MPD2    C113572   3.962   2.330  16.443 -0.2748  0.7305  0.2744
  924MPD2    C213573   3.952   2.465  16.418  0.6671  0.2746 -0.5973
  924MPD2    C313574   3.917   2.514  16.291  0.9964 -0.0506  0.0368
  924MPD2    C413575   3.886   2.428  16.194 -0.3436 -0.2554 -0.6195
  924MPD2    C513576   3.913   2.297  16.216  0.0169  0.3285  0.1390
  924MPD2     H13577   3.969   2.532  16.502 -1.7204  0.2440 -0.0870
  924MPD2    H113578   3.862   2.468  16.096  1.2482  0.9155 -0.5144
  924MPD2    H213579   3.979   2.144  16.350 -0.4807  0.9275  0.4919
  924MPD2    H313580   3.909   2.231  16.131 -0.9383  0.1053  0.3567
  924MPD2     N13581   3.912   2.654  16.264  0.1074 -0.7016  0.2400
  924MPD2    H513582   3.867   2.675  16.176 -0.2856 -0.8906  0.3924
  924MPD2    N113583   3.974   2.279  16.574 -0.1799  0.1620 -0.1564
  924MPD2    H713584   4.002   2.182  16.581  0.4412  0.4342  1.0350
  925MPD2     C13585   2.871   0.248  15.138 -0.2589  0.0521 -0.4852
  925MPD2    C113586   2.748   0.286  15.088  0.5828 -0.2682 -0.4490
  925MPD2    C213587   2.641   0.272  15.177 -0.2043  0.1039 -0.3275
  925MPD2    C313588   2.661   0.218  15.307 -0.8473  0.0295  0.1897
  925MPD2    C413589   2.786   0.183  15.352  0.4083  0.0425  0.7784
  925MPD2    C513590   2.890   0.208  15.270 -0.4244 -0.0217  0.1091
  925MPD2     H13591   2.540   0.295  15.145 -0.8799 -0.1819  1.6019
  925MPD2    H113592   2.796   0.147  15.453  0.8959  0.8397  1.0136
  925MPD2    H213593   2.958   0.252  15.073  0.7683 -0.2702  0.8751
  925MPD2    H313594   2.987   0.168  15.295 -0.7363 -1.3525 -0.7929
  925MPD2     N13595   2.554   0.187  15.398  0.2827 -0.2246 -0.6563
  925MPD2    H513596   2.570   0.117  15.469 -2.1958 -1.4342 -1.2830
  925MPD2    N113597   2.725   0.336  14.959  0.0616 -0.2348 -0.1728
  925MPD2    H713598   2.628   0.333  14.932  0.3078  2.4267 -1.4372
  926MPD2     C13599   1.603   3.562  13.847  0.1232  1.1524 -0.6917
  926MPD2    C113600   1.516   3.674  13.842  0.9504  0.2434 -1.1944
  926MPD2    C213601   1.517   3.760  13.729 -0.3625 -0.5181  0.6962
  926MPD2    C313602   1.601   3.730  13.620 -0.1674 -0.3742 -0.4605
  926MPD2    C413603   1.679   3.625  13.628 -0.7437  0.3418  0.3115
  926MPD2    C513604   1.676   3.540  13.733 -0.0606  0.2101 -0.3853
  926MPD2     H13605   1.438   3.831  13.708 -0.9173 -1.5164 -0.5673
  926MPD2    H113606   1.735   3.594  13.541 -2.8559  0.5777 -1.1259
  926MPD2    H213607   1.601   3.484  13.921  0.0848  1.3383 -0.4964
  926MPD2    H313608   1.723   3.443  13.721 -1.0654 -0.4272  0.9169
  926MPD2     N13609   1.594   3.801  13.494 -0.0540  0.0735  0.1172
  926MPD2    H513610   1.668   3.778  13.428 -1.8576  0.7079 -2.1590
  926MPD2    N113611   1.414   3.685  13.942  0.8624 -0.1815 -0.0312
  926MPD2    H713612   1.350   3.761  13.923  1.2429  0.1127 -0.1282
  927MPD2     C13613   0.946   1.663   0.515 -1.0017 -0.0026 -0.8820
  927MPD2    C113614   1.007   1.549   0.553  0.1192  0.2720 -0.2752
  927MPD2    C213615   1.147   1.541   0.529 -0.3170  0.8243 -0.0614
  927MPD2    C313616   1.213   1.633   0.452 -0.6702  0.4263  0.6252
  927MPD2    C413617   1.140   1.743   0.406  0.4825 -0.2961 -0.0511
  927MPD2    C513618   1.011   1.762   0.439 -0.4328 -0.6659 -0.2035
  927MPD2     H13619   1.204   1.458   0.568  0.0027  0.7023 -0.7913
  927MPD2    H113620   1.193   1.824   0.355 -2.9363  2.0456  0.0862
  927MPD2    H213621   0.850   1.687   0.559  0.6814  0.9180  2.3088
  927MPD2    H313622   0.958   1.850   0.405  1.8839  0.8878  0.2452
  927MPD2     N13623   1.352   1.614   0.439  0.0006  0.2209  0.1675
  927MPD2    H513624   1.390   1.526   0.474  0.8071  0.0520 -1.1096
  927MPD2    N113625   0.930   1.445   0.610  0.4036  0.2381  0.7671
  927MPD2    H713626   0.832   1.465   0.626  0.6465  1.0047  1.2559
  928MPD2     C13627   4.117   3.696   0.852  0.6703 -0.0746  0.6963
  928MPD2    C113628   4.094   3.828   0.876  0.4422 -0.1978  0.6812
  928MPD2    C213629   4.073   3.922   0.778 -0.3219  0.4198  0.1345
  928MPD2    C313630   4.070   3.870   0.648  0.2508  0.3691  0.1744
  928MPD2    C413631   4.088   3.745   0.617  0.2324 -0.6698 -0.4019
  928MPD2    C513632   4.111   3.659   0.719 -0.8988 -0.3480  0.0390
  928MPD2     H13633   4.087   4.027   0.797  1.3073  0.0836  0.7979
  928MPD2    H113634   4.091   3.706   0.516  0.9085 -2.7724  0.4438
  928MPD2    H213635   4.125   3.636   0.942  1.3864 -0.6848  0.2290
  928MPD2    H313636   4.118   3.555   0.690  2.0511 -0.3169  0.6095
  928MPD2     N13637   4.048   3.965   0.545  0.4031  0.2826 -0.3125
  928MPD2    H513638   4.073   4.060   0.573 -0.2638 -0.4527  2.8300
  928MPD2    N113639   4.082   3.861   1.017 -0.3936  0.2933 -0.4373
  928MPD2    H713640   4.110   3.792   1.086  1.9566  1.3098 -0.3892
  929MPD2     C13641   2.937   3.449   9.899  0.2589 -0.3265  0.0218
  929MPD2    C113642   2.977   3.523  10.005  0.4350  0.2047  0.0795
  929MPD2    C213643   2.886   3.601  10.077  0.6038  0.5342  0.3228
  929MPD2    C313644   2.750   3.610  10.034 -0.1979  0.6387 -0.2628
  929MPD2    C413645   2.720   3.526   9.928  0.3965  0.3768  0.1912
  929MPD2    C513646   2.810   3.455   9.857  0.1333 -0.5253  0.3722
  929MPD2     H13647   2.918   3.669  10.155  1.0269  1.6673 -0.8338
  929MPD2    H113648   2.619   3.523   9.887  0.7211  1.7187 -0.6862
  929MPD2    H213649   2.995   3.397   9.823 -0.9362 -0.1452 -1.0045
  929MPD2    H313650   2.775   3.413   9.764  3.6398 -3.2698  0.2969
  929MPD2     N13651   2.650   3.685  10.094 -0.1568  0.4332  0.3336
  929MPD2    H513652   2.553   3.673  10.069  0.0890 -2.7201  0.9046
  929MPD2    N113653   3.119   3.517  10.035  1.0344  0.3219 -0.9976
  929MPD2    H713654   3.177   3.464   9.971  1.0455 -0.7749 -0.0768
  930MPD2     C13655   0.672   1.566  14.187 -0.0847  0.1730  0.6095
  930MPD2    C113656   0.806   1.524  14.201  0.0870 -0.1643  0.6020
  930MPD2    C213657   0.840   1.399  14.151  0.0961 -0.0375 -0.4152
  930MPD2    C313658   0.754   1.326  14.086  0.5021 -0.1439 -0.4415
  930MPD2    C413659   0.624   1.373  14.071 -0.8082  0.1511 -0.6617
  930MPD2    C513660   0.580   1.489  14.131  0.0982 -0.2970 -0.6736
  930MPD2     H13661   0.939   1.357  14.166  0.1004  0.0906 -0.0756
  930MPD2    H113662   0.546   1.322  14.016  1.1732 -2.9705 -0.5755
  930MPD2    H213663   0.639   1.663  14.222 -0.9072  0.0109  0.2877
  930MPD2    H313664   0.484   1.537  14.123  0.4522  0.1149 -2.3654
  930MPD2     N13665   0.780   1.207  14.019  0.0602 -0.0890 -0.8328
  930MPD2    H513666   0.706   1.177  13.956 -1.0297  1.6080 -0.3386
  930MPD2    N113667   0.906   1.607  14.256 -0.1003  0.2611 -0.5690
  930MPD2    H713668   0.877   1.698  14.292  0.8299  0.2507  0.2396
  931MPD2     C13669   1.210   0.734   0.587 -0.4664 -0.4283 -0.4761
  931MPD2    C113670   1.081   0.717   0.635  0.0834  0.1183 -0.9773
  931MPD2    C213671   1.038   0.594   0.685  0.2098 -0.1995  0.8773
  931MPD2    C313672   1.123   0.491   0.707  0.4885  0.6219 -0.0490
  931MPD2    C413673   1.254   0.511   0.667  0.6302 -0.2044  0.0276
  931MPD2    C513674   1.297   0.632   0.614  0.5587 -0.3031  0.6333
  931MPD2     H13675   0.943   0.585   0.736 -0.4989  2.5740  0.0602
  931MPD2    H113676   1.319   0.429   0.696 -0.8265 -1.3498  0.1209
  931MPD2    H213677   1.254   0.822   0.543  1.9925 -1.2911  0.2749
  931MPD2    H313678   1.404   0.649   0.607  0.4604  0.0632  0.0284
  931MPD2     N13679   1.101   0.370   0.770 -0.0820 -0.2583  0.2333
  931MPD2    H513680   1.184   0.315   0.790 -0.4511 -1.3044 -1.0788
  931MPD2    N113681   1.007   0.832   0.633 -0.4096 -0.1549  0.8000
  931MPD2    H713682   1.045   0.914   0.587 -0.0484 -0.2134  0.9939
  932MPD2     C13683   3.102   0.159  11.738  0.4635 -0.1370 -0.7407
  932MPD2    C113684   2.976   0.196  11.786 -0.2427  0.0590 -0.0270
  932MPD2    C213685   2.912   0.139  11.895  0.4115  0.4853  0.5701
  932MPD2    C313686   2.977   0.037  11.964  0.3099  1.4054 -0.4244
  932MPD2    C413687   3.103   4.731  11.919 -0.0160 -0.4512  0.0930
  932MPD2    C513688   3.160   0.055  11.810  1.3544 -0.3772 -0.6840
  932MPD2     H13689   2.816   0.177  11.925  0.2560  0.6567 -0.1413
  932MPD2    H113690   3.154   4.650  11.971  1.4437 -0.1278 -0.8373
  932MPD2    H213691   3.151   0.208  11.655 -0.4247  1.6669 -0.1983
  932MPD2    H313692   3.260   0.020  11.787  1.4538  0.2121 -1.1635
  932MPD2     N13693   2.927   4.718  12.081 -0.2738 -0.2963 -0.6015
  932MPD2    H513694   2.978   4.650  12.137 -1.7493 -0.7466  0.1941
  932MPD2    N113695   2.921   0.310  11.727 -0.0810 -0.0112  0.2125
  932MPD2    H713696   2.859   0.364  11.788 -1.3413 -1.7249  0.4460
  933MPD2     C13697   3.548   4.058   1.579  0.0968  0.2873 -0.0215
  933MPD2    C113698   3.590   4.135   1.475  0.1633 -0.1533 -0.0497
  933MPD2    C213699   3.503   4.223   1.418 -0.3250 -0.3841 -0.1607
  933MPD2    C313700   3.368   4.234   1.466 -0.0782  0.1855 -0.1966
  933MPD2    C413701   3.337   4.163   1.580  0.4310  0.5106  0.7361
  933MPD2    C513702   3.423   4.066   1.632 -0.2785 -0.2477 -0.5395
  933MPD2     H13703   3.544   4.287   1.341  1.2025 -1.1178  0.0539
  933MPD2    H113704   3.242   4.167   1.633  0.1227  1.6077  0.1024
  933MPD2    H213705   3.624   3.989   1.615  3.0678  1.8411 -3.3363
  933MPD2    H313706   3.410   4.010   1.723 -2.1132 -3.6864 -2.9388
  933MPD2     N13707   3.285   4.335   1.418 -0.3342  0.0165  0.6833
  933MPD2    H513708   3.330   4.386   1.342  2.9977 -1.0650  1.9391
  933MPD2    N113709   3.724   4.140   1.427 -0.0904  0.1070 -0.1207
  933MPD2    H713710   3.737   4.191   1.340 -0.8682  2.0019  0.8761
  934MPD2     C13711   0.543   2.077   1.832 -1.0543 -0.0007 -0.6531
  934MPD2    C113712   0.565   2.053   1.700 -0.9096  0.0511 -0.4210
  934MPD2    C213713   0.469   1.986   1.626  0.4966 -0.1526 -0.5230
  934MPD2    C313714   0.356   1.940   1.680  0.0997  0.3541  0.3217
  934MPD2    C413715   0.339   1.959   1.817 -0.4967  0.4269 -0.4752
  934MPD2    C513716   0.435   2.028   1.889 -0.3154  0.0394 -0.0242
  934MPD2     H13717   0.483   1.983   1.519 -2.4871  0.4430 -0.9507
  934MPD2    H113718   0.255   1.927   1.878  0.0386 -0.1781 -0.0560
  934MPD2    H213719   0.613   2.135   1.893 -0.2473 -2.6969  0.9580
  934MPD2    H313720   0.425   2.040   1.996 -2.0495 -3.5077  0.2112
  934MPD2     N13721   0.265   1.866   1.608  0.0117  0.2804 -0.0270
  934MPD2    H513722   0.175   1.841   1.648  0.0273 -3.1640 -2.1359
  934MPD2    N113723   0.678   2.105   1.634 -0.0841  0.1800  1.1488
  934MPD2    H713724   0.684   2.100   1.533  1.5087 -2.4955  1.3587
  935MPD2     C13725   0.407   0.979   1.261  0.1009  0.5226  0.1307
  935MPD2    C113726   0.342   1.036   1.152  0.0881  0.8308 -0.3913
  935MPD2    C213727   0.275   1.165   1.165  0.1577  0.5012 -0.7690
  935MPD2    C313728   0.262   1.219   1.291  0.3111  0.2657 -0.1153
  935MPD2    C413729   0.318   1.155   1.397 -0.2860 -0.2236 -0.2691
  935MPD2    C513730   0.392   1.040   1.382  0.0842 -0.5382  0.8887
  935MPD2     H13731   0.233   1.207   1.074  2.0306  0.7005 -1.5339
  935MPD2    H113732   0.319   1.202   1.495 -1.1695 -2.0474  0.6175
  935MPD2    H213733   0.459   0.884   1.255 -1.3907 -0.3819  1.8445
  935MPD2    H313734   0.446   1.000   1.467  0.6400 -3.3423 -0.7680
  935MPD2     N13735   0.213   1.349   1.320  0.2740  0.0097  0.5493
  935MPD2    H513736   0.198   1.375   1.417  0.3601 -0.9664  0.8189
  935MPD2    N113737   0.353   0.977   1.026  0.0719 -0.8034  0.5728
  935MPD2    H713738   0.327   1.035   0.947  1.2132 -0.8298  0.1827
  936MPD2     C13739   3.316   3.098  12.812 -0.6549  0.2203 -0.3605
  936MPD2    C113740   3.306   3.197  12.912 -0.1810  0.0084  0.5406
  936MPD2    C213741   3.203   3.287  12.891 -0.5013 -0.5827 -0.8378
  936MPD2    C313742   3.122   3.298  12.783  0.8970 -0.5735 -0.1822
  936MPD2    C413743   3.147   3.208  12.676  0.1319  0.0832 -0.3825
  936MPD2    C513744   3.244   3.113  12.699 -0.0107  0.6315  0.3656
  936MPD2     H13745   3.184   3.357  12.971 -1.8091 -1.5068 -0.3431
  936MPD2    H113746   3.087   3.208  12.586  0.5025 -2.3252 -0.6217
  936MPD2    H213747   3.381   3.013  12.828  0.5103  1.2194  0.2563
  936MPD2    H313748   3.252   3.033  12.627  0.9508 -0.2083  1.4159
  936MPD2     N13749   3.018   3.396  12.780 -0.3123  0.1941 -0.3147
  936MPD2    H513750   2.999   3.452  12.863 -0.5024  1.1409 -0.9929
  936MPD2    N113751   3.392   3.211  13.025  0.1060  0.0050  0.2927
  936MPD2    H713752   3.359   3.274  13.098 -3.9622 -1.7256 -0.0455
  937MPD2     C13753   1.116   4.481  11.917  0.3856 -0.0725  0.5428
  937MPD2    C113754   1.131   4.619  11.891  0.2971  0.2214 -0.2983
  937MPD2    C213755   1.208   4.649  11.780  0.6412 -0.1385  0.6774
  937MPD2    C313756   1.258   4.567  11.682 -0.8899 -0.0278 -0.0645
  937MPD2    C413757   1.235   4.433  11.703  0.5050 -0.0791  0.3934
  937MPD2    C513758   1.171   4.397  11.824 -0.1847 -0.2661  0.0841
  937MPD2     H13759   1.220   0.020  11.760 -0.4351 -0.4269 -1.5814
  937MPD2    H113760   1.274   4.359  11.634 -1.0036 -1.7123  1.3099
  937MPD2    H213761   1.050   4.445  11.995 -1.1186 -1.2532 -1.2839
  937MPD2    H313762   1.167   4.288  11.830  0.0765 -0.2814 -0.0083
  937MPD2     N13763   1.304   4.627  11.564 -1.2666  0.4619  0.3166
  937MPD2    H513764   1.316   4.728  11.559 -1.3853  0.4877  0.5526
  937MPD2    N113765   1.113   4.719  11.985  0.0912 -0.2686  0.4833
  937MPD2    H713766   1.115   0.077  11.947 -0.6741  0.4860  2.3345
  938MPD2     C13767   4.311   1.665   0.459 -0.2262  0.1493  0.2933
  938MPD2    C113768   4.301   1.672   0.597 -0.9115 -0.5161  0.2608
  938MPD2    C213769   4.261   1.555   0.664  0.0124  0.0023  0.0937
  938MPD2    C313770   4.246   1.436   0.592 -0.6690 -0.1049 -0.4449
  938MPD2    C413771   4.257   1.438   0.457  0.2786 -0.2436  0.2617
  938MPD2    C513772   4.281   1.552   0.390 -0.4009 -0.3366 -0.0629
  938MPD2     H13773   4.257   1.554   0.772  0.1367 -2.8449  0.0676
  938MPD2    H113774   4.224   1.347   0.408 -2.1499  1.1851 -0.7656
  938MPD2    H213775   4.346   1.744   0.393 -1.5502  0.3744 -0.1356
  938MPD2    H313776   4.302   1.553   0.284  2.0967 -1.0104  0.4134
  938MPD2     N13777   4.211   1.314   0.651 -0.6054 -0.4065  0.7348
  938MPD2    H513778   4.196   1.239   0.585  0.7729 -0.0151 -0.0061
  938MPD2    N113779   4.322   1.799   0.653 -0.3433  0.5703  0.0825
  938MPD2    H713780   4.318   1.797   0.754 -3.3743  0.4043 -0.0307
  939MPD2     C13781   0.259   3.035   0.456 -1.6946  0.3900  0.3740
  939MPD2    C113782   0.136   2.979   0.469  0.4700 -0.8676  0.8366
  939MPD2    C213783   0.088   2.895   0.372 -0.8911 -0.3527  0.5115
  939MPD2    C313784   0.174   2.858   0.266  1.0429  0.6541  0.6857
  939MPD2    C413785   0.303   2.906   0.258 -0.2253 -0.4000 -0.4603
  939MPD2    C513786   0.344   2.994   0.355  0.2758 -0.0323  1.0595
  939MPD2     H13787   4.722   2.859   0.370 -0.9809 -0.1523  1.5717
  939MPD2    H113788   0.378   2.868   0.189  0.6802  0.9983 -0.2553
  939MPD2    H213789   0.301   3.112   0.520 -1.8730 -0.7946  1.9183
  939MPD2    H313790   0.439   3.044   0.349 -0.2602  1.0258  1.3629
  939MPD2     N13791   0.115   2.766   0.169 -0.5019  0.2778 -0.2372
  939MPD2    H513792   0.017   2.743   0.173 -0.7025  1.2353  0.3351
  939MPD2    N113793   0.065   3.012   0.587 -0.1500  0.1071  0.4366
  939MPD2    H713794   0.123   3.071   0.646  1.2571  0.2087 -1.0172
  940MPD2     C13795   4.028   3.399  13.461  0.4276 -0.1939 -0.2382
  940MPD2    C113796   4.000   3.273  13.406  0.3246  1.0147  0.1029
  940MPD2    C213797   3.992   3.261  13.271  0.1420 -0.1792 -0.7551
  940MPD2    C313798   3.995   3.374  13.186 -0.6961 -0.5078  0.5794
  940MPD2    C413799   4.025   3.493  13.237 -0.4854 -0.4286 -0.2407
  940MPD2    C513800   4.041   3.507  13.377  0.9307 -0.5887  0.1053
  940MPD2     H13801   3.977   3.162  13.231 -0.8070 -0.7728  1.0661
  940MPD2    H113802   4.036   3.579  13.171 -3.1511  0.4620  0.4673
  940MPD2    H213803   4.048   3.410  13.567  4.1241 -0.7151 -0.8871
  940MPD2    H313804   4.075   3.605  13.408 -1.6509  0.7608 -1.3003
  940MPD2     N13805   3.981   3.374  13.045 -0.4911 -0.0283  0.1406
  940MPD2    H513806   3.995   3.462  12.997  2.6662 -0.5775  0.0640
  940MPD2    N113807   3.998   3.149  13.480 -0.1084  0.1826  0.7586
  940MPD2    H713808   4.012   3.063  13.427 -1.1308 -0.0397  0.8588
  941MPD2     C13809   3.028   2.652  10.300  0.3798 -0.1774  0.2146
  941MPD2    C113810   3.008   2.600  10.172 -0.3565  0.5979  0.4692
  941MPD2    C213811   2.904   2.522  10.145  0.3417 -0.4565  0.3375
  941MPD2    C313812   2.817   2.484  10.239  0.0825  0.4942  0.2025
  941MPD2    C413813   2.835   2.533  10.364 -0.1877 -0.5505 -0.3110
  941MPD2    C513814   2.936   2.619  10.391 -0.8422 -0.8839 -0.0944
  941MPD2     H13815   2.905   2.475  10.047  1.7261  1.0233 -0.3625
  941MPD2    H113816   2.784   2.490  10.450  1.0969 -0.4646  0.5031
  941MPD2    H213817   3.106   2.724  10.323 -3.0658  3.1726  1.4123
  941MPD2    H313818   2.958   2.656  10.491  3.0442  0.6735 -1.5141
  941MPD2     N13819   2.727   2.373  10.226  0.3347 -0.1230 -0.2686
  941MPD2    H513820   2.659   2.363  10.301 -1.5962  0.2895 -1.9660
  941MPD2    N113821   3.092   2.635  10.067 -0.1862 -0.5878  0.2929
  941MPD2    H713822   3.057   2.606   9.976  0.3256 -0.8061  0.1677
  942MPD2     C13823   2.234   3.071  10.204  0.3169  0.3965 -0.1551
  942MPD2    C113824   2.168   3.056  10.082 -0.8094  0.3131 -0.8262
  942MPD2    C213825   2.097   3.162  10.035  0.5777  0.6068  0.6866
  942MPD2    C313826   2.098   3.283  10.092 -0.4109 -0.1015  0.0977
  942MPD2    C413827   2.158   3.295  10.219 -0.5631  0.1733  0.5828
  942MPD2    C513828   2.231   3.193  10.274 -0.1681 -0.5078 -0.5839
  942MPD2     H13829   2.034   3.140   9.949 -0.2020  2.1861  0.8603
  942MPD2    H113830   2.158   3.390  10.272  2.3320  0.1311  0.6352
  942MPD2    H213831   2.287   2.985  10.243  1.1632  1.1093  0.2789
  942MPD2    H313832   2.283   3.203  10.368 -3.7258 -1.6596  1.5135
  942MPD2     N13833   2.023   3.392  10.041  0.0350  0.6131 -0.7383
  942MPD2    H513834   2.040   3.479  10.091 -2.2760  0.9622 -0.5393
  942MPD2    N113835   2.152   2.933  10.015  0.0565 -0.7527 -0.0976
  942MPD2    H713836   2.061   2.917   9.972 -0.1709 -2.2525  0.9639
  943MPD2     C13837   1.212   2.356  10.487 -0.0241 -0.2233 -0.9204
  943MPD2    C113838   1.207   2.218  10.481  0.4547 -0.0660 -0.0732
  943MPD2    C213839   1.100   2.156  10.420 -0.3516  0.1740  0.6129
  943MPD2    C313840   0.991   2.225  10.375  0.7990  0.3060 -0.1299
  943MPD2    C413841   1.008   2.359  10.367  0.0510 -0.7162  0.2520
  943MPD2    C513842   1.110   2.424  10.425  0.8893  0.6532 -0.1905
  943MPD2     H13843   1.094   2.050  10.397 -2.2033  0.3019  0.5050
  943MPD2    H113844   0.936   2.414  10.307  1.0961  0.1716 -0.1726
  943MPD2    H213845   1.293   2.413  10.532  0.0282 -0.3701 -0.8267
  943MPD2    H313846   1.117   2.532  10.421 -0.5480  0.8171  1.5515
  943MPD2     N13847   0.881   2.166  10.316 -0.6116 -0.2975  0.1213
  943MPD2    H513848   0.825   2.225  10.255 -0.0232  0.1395  0.0083
  943MPD2    N113849   1.312   2.149  10.547  0.7200  0.0693  0.0154
  943MPD2    H713850   1.376   2.202  10.606  3.2677  0.6680 -3.2563
  944MPD2     C13851   2.116   1.926  11.476  0.1151  0.9974 -0.4189
  944MPD2    C113852   2.026   1.840  11.540 -0.6634 -1.2023  0.6456
  944MPD2    C213853   1.957   1.894  11.643  0.0283  0.7942 -0.0372
  944MPD2    C313854   1.986   2.017  11.697 -0.4755 -0.0664  0.8725
  944MPD2    C413855   2.085   2.095  11.636  0.4513  0.1666  0.3152
  944MPD2    C513856   2.146   2.052  11.522 -0.1511 -0.5449 -1.1771
  944MPD2     H13857   1.880   1.834  11.690 -0.7259  2.6289  1.0733
  944MPD2    H113858   2.103   2.197  11.668  3.3536 -0.5319  0.9285
  944MPD2    H213859   2.177   1.895  11.391 -2.0758  0.1797 -1.7060
  944MPD2    H313860   2.212   2.118  11.466  0.2347  1.1714  1.2978
  944MPD2     N13861   1.900   2.063  11.805 -0.9026 -0.5422  0.3150
  944MPD2    H513862   1.825   2.002  11.837 -1.0971 -1.5147 -1.9599
  944MPD2    N113863   2.005   1.706  11.498  0.2040 -0.4154 -0.2796
  944MPD2    H713864   2.060   1.672  11.420 -0.9605 -0.7788 -0.9518
    1TMC1    C113865   4.062   2.699  14.461  0.2852  0.1911 -0.2643
    1TMC1    C213866   4.183   2.646  14.428 -0.3729  0.4545  0.2919
    1TMC1    C313867   4.190   2.602  14.301 -0.4743 -0.0093  0.0454
    1TMC1    C413868   3.949   2.695  14.385  0.3900  0.1736  0.0946
    1TMC1    C513869   3.964   2.636  14.263  0.7191 -0.0818 -0.2766
    1TMC1    C613870   4.089   2.592  14.213  0.2925  0.5754  0.5590
    1TMC1     C13871   4.040   2.765  14.594 -0.0943 -0.6656  0.1263
    1TMC1     O13872   3.920   2.776  14.631 -0.5417 -0.4107  0.2411
    1TMC1     H13873   4.263   2.655  14.501  0.7435  1.8319 -1.1180
    1TMC1    H113874   3.855   2.733  14.424  0.5773  0.9561 -0.2362
    1TMC1    H213875   4.103   2.564  14.109 -0.7103 -1.3991  0.9488
    1TMC1    C713876   3.847   2.621  14.178 -0.1244  0.1336 -0.0187
    1TMC1    C813877   4.328   2.555  14.262 -0.2067 -0.1216  0.3925
    1TMC1    O113878   3.851   2.690  14.082 -0.3214 -0.0801  0.1438
    1TMC1    O213879   4.425   2.559  14.336  0.4600 -0.2439  0.5074
    1TMC1    O313880   3.738   2.602  14.254 -0.2198 -0.2182 -0.1277
    1TMC1    H313881   3.756   2.521  14.306 -2.2143  0.0275  0.9131
    1TMC1    O513882   4.310   2.459  14.172  0.2938  0.2536  0.0437
    1TMC1    H513883   4.222   2.437  14.135  0.7168 -3.0333  0.9521
    2MPD2     C13884   4.226   2.944  15.048 -0.2562 -0.4014  0.1692
    2MPD2    C113885   4.333   2.914  14.966 -0.5115  0.9162 -0.6865
    2MPD2    C213886   4.306   2.867  14.840 -0.0198  0.0544  0.8669
    2MPD2    C313887   4.177   2.851  14.796  0.5041  0.2404 -0.5839
    2MPD2    C413888   4.074   2.867  14.883 -0.0882 -0.6131  0.7280
    2MPD2    C513889   4.099   2.921  15.011  0.5155  0.4524 -0.6153
    2MPD2     H13890   4.389   2.850  14.773  0.6198  0.8769  1.4538
    2MPD2    H113891   3.969   2.852  14.862 -0.2008 -0.2644  1.0484
    2MPD2    H213892   4.234   2.990  15.146 -0.0795  1.1802 -0.5816
    2MPD2    H313893   4.018   2.929  15.082 -0.9445  3.3464 -2.6128
    2MPD2     N13894   4.158   2.797  14.665 -0.4343  0.1992 -0.1387
    2MPD2    H513895   4.245   2.775  14.616  0.3915  0.4616  1.2137
    2MPD2    N113896   4.465   2.930  15.008  0.6191  0.2975 -0.2535
    2MPD2    H713897   4.538   2.919  14.939  1.3373  1.5550  0.3232
    3TMC2    C113898   4.604   3.059  15.142 -0.0611  0.2585  0.3191
    3TMC2    C213899   4.677   3.064  15.262  0.3003 -0.3886  0.4627
    3TMC2    C313900   0.061   3.133  15.253  0.3146 -0.0161 -0.4843
    3TMC2    C413901   4.634   3.137  15.032 -0.0470  0.2599  0.1316
    3TMC2    C513902   0.005   3.213  15.038  0.1132 -0.4902 -0.1874
    3TMC2    C613903   0.098   3.208  15.141  0.1888  0.2191 -0.2455
    3TMC2     C13904   4.492   2.970  15.136 -0.3341 -0.2588 -0.3723
    3TMC2     O13905   4.438   2.952  15.242 -0.5276  0.3860  0.1041
    3TMC2     H13906   4.635   3.001  15.339  0.2660  0.3630  1.0599
    3TMC2    H113907   4.590   3.117  14.936 -0.2358  0.6446  0.1373
    3TMC2    H213908   0.184   3.273  15.151  0.8200 -0.4956 -1.0018
    3TMC2    C713909   4.720   3.325  14.950 -0.1303  0.0851 -0.2713
    3TMC2    C813910   0.159   3.102  15.358  0.3119  0.0127 -0.3962
    3TMC2    O113911   4.603   3.338  14.913  0.3598  0.9840  0.0451
    3TMC2    O213912   0.277   3.099  15.322 -0.1316 -0.6388  0.3558
    3TMC2    O513913   0.106   3.151  15.479  0.3495  0.0529  0.4114
    3TMC2    H513914   0.009   3.141  15.485  0.3036  1.5634  2.1116
    4TMC2    C113915   4.222   3.671  14.340  0.3752 -0.4612 -0.1696
    4TMC2    C213916   4.247   3.795  14.281 -0.5935 -0.4413  0.5347
    4TMC2    C313917   4.350   3.871  14.324  0.0262 -0.5916  0.3554
    4TMC2    C413918   4.307   3.630  14.439  0.4465 -0.0798 -0.2187
    4TMC2    C513919   4.413   3.711  14.480 -0.1401 -0.2477 -0.1403
    4TMC2    C613920   4.430   3.838  14.431 -0.6035  0.4570 -0.0523
    4TMC2     C13921   4.109   3.584  14.294 -0.3483 -0.3505 -0.6900
    4TMC2     O13922   4.094   3.472  14.337 -0.4080  0.2826 -0.1734
    4TMC2     H13923   4.189   3.837  14.199 -1.4746 -2.8371 -0.0702
    4TMC2    H113924   4.268   3.545  14.492  0.4425  1.1756  1.7787
    4TMC2    H213925   4.507   3.907  14.463  0.5797 -0.9595  0.0998
    4TMC2    C713926   4.500   3.652  14.582 -0.0415  0.3544 -0.7018
    4TMC2    C813927   4.343   4.013  14.293 -0.1727 -0.4199 -0.4479
    4TMC2    O113928   4.466   3.542  14.615 -0.0859 -0.1612 -0.1435
    4TMC2    O213929   4.277   4.050  14.197 -0.4050  0.6920  1.5585
    4TMC2    O513930   4.324   4.068  14.416 -0.0424  0.5217  0.0474
    4TMC2    H513931   4.376   4.033  14.491  1.0709  2.5258  0.2189
    5MPD2     C13932   3.698   3.502  13.987  0.3048 -0.4115 -0.2014
    5MPD2    C113933   3.783   3.595  13.927  0.1849  0.1213  0.3430
    5MPD2    C213934   3.900   3.638  13.995 -0.1607  0.8553 -0.1053
    5MPD2    C313935   3.933   3.587  14.119  0.4254  0.1434 -0.2173
    5MPD2    C413936   3.837   3.507  14.183 -0.0908 -0.0066 -0.9767
    5MPD2    C513937   3.722   3.467  14.121  0.2441 -0.2415 -0.9694
    5MPD2     H13938   3.959   3.715  13.945 -0.1196  0.7875 -0.1616
    5MPD2    H113939   3.851   3.489  14.289  0.7071  1.3647 -0.8449
    5MPD2    H213940   3.608   3.469  13.936  1.8735 -2.1070 -1.8444
    5MPD2    H313941   3.665   3.403  14.186  2.0143 -0.6303  0.1830
    5MPD2     N13942   4.051   3.630  14.178 -0.0032 -0.0144 -0.4252
    5MPD2    H513943   4.096   3.704  14.126 -0.3295 -0.6076 -1.5572
    5MPD2    N113944   3.751   3.640  13.800  0.4126  0.6435 -0.2715
    5MPD2    H713945   3.656   3.615  13.773  0.9373 -0.3120 -1.2137
    6MPD1     C13946   3.704   4.277  12.027 -0.0692 -0.5130  1.3404
    6MPD1    C113947   3.594   4.279  12.104  0.6359  0.5599 -0.5125
    6MPD1    C213948   3.602   4.341  12.226  0.0923  0.7568 -0.1443
    6MPD1    C313949   3.720   4.388  12.282  0.5397 -0.3768  0.2583
    6MPD1    C413950   3.835   4.361  12.210 -0.3288  0.3824 -0.8206
    6MPD1    C513951   3.830   4.313  12.080  0.6478  0.6096  0.1229
    6MPD1     H13952   3.512   4.354  12.284 -1.2040  1.6030 -2.3416
    6MPD1    H113953   3.933   4.384  12.249 -0.3585  0.0083 -0.5246
    6MPD1    H213954   3.707   4.222  11.933 -0.9237  0.6524  0.6313
    6MPD1    H313955   3.927   4.301  12.033  0.5080 -1.9797  0.5016
    6MPD1     N13956   3.744   4.429  12.411  0.6674 -0.9151 -0.1556
    6MPD1    H513957   3.836   4.461  12.441  0.3305  0.2963 -0.4169
    6MPD1    N113958   3.472   4.240  12.045 -0.4551 -0.2616 -0.0034
    6MPD1    H613959   3.409   4.204  12.116 -0.3008 -0.5357 -0.0076
    6MPD1    H713960   3.480   4.162  11.980 -1.5603 -0.3505 -0.0372
    7MPD2     C13961   3.439   4.383  13.261 -0.2019 -0.8827  0.8615
    7MPD2    C113962   3.518   4.303  13.178  0.6009 -0.4046 -0.1374
    7MPD2    C213963   3.536   4.175  13.215  0.2695 -0.2888  0.4215
    7MPD2    C313964   3.482   4.126  13.337  0.2576  0.1764  0.8363
    7MPD2    C413965   3.403   4.206  13.412 -0.6862 -0.1278 -0.5319
    7MPD2    C513966   3.379   4.340  13.377 -0.5817  0.2280 -0.4343
    7MPD2     H13967   3.605   4.110  13.163  0.7173  0.1273  0.5037
    7MPD2    H113968   3.364   4.184  13.511  0.5728 -0.3800 -0.0962
    7MPD2    H213969   3.422   4.486  13.232  0.1520 -1.4952 -1.5704
    7MPD2    H313970   3.327   4.408  13.443 -1.8354 -0.0604 -1.1140
    7MPD2     N13971   3.528   4.000  13.369 -0.5763 -1.2168 -0.4090
    7MPD2    H513972   3.601   3.959  13.313  2.6126  1.9934  1.4531
    7MPD2    N113973   3.574   4.353  13.057  0.3514 -0.4173  0.3212
    7MPD2    H713974   3.629   4.286  13.004 -1.5962 -3.0039  1.5851
    8TMC3    C113975   3.552   3.797  13.488  0.4520  0.5724 -0.0409
    8TMC3    C213976   3.621   3.767  13.604 -1.0426 -0.6041 -0.8324
    8TMC3    C313977   3.757   3.756  13.594 -0.2361  0.0139 -0.3005
    8TMC3    C413978   3.613   3.782  13.367 -0.5788  0.1727  0.6986
    8TMC3    C513979   3.748   3.750  13.362  0.3100 -0.5347 -0.2580
    8TMC3    C613980   3.828   3.746  13.475  0.4882  0.5952 -0.4189
    8TMC3     C13981   3.484   3.928  13.477  0.0377 -0.0708  0.1290
    8TMC3     O13982   3.417   3.963  13.574  0.4532 -0.3371 -1.0295
    8TMC3     H13983   3.570   3.772  13.700 -1.9105  2.0846 -1.4389
    8TMC3    H113984   3.553   3.775  13.277  0.6239 -1.3444  0.0188
    8TMC3    H213985   3.934   3.764  13.469  0.2625  1.8502 -0.7236
    8TMC3    C713986   3.791   3.829  13.253 -0.9349  0.6369 -0.2924
    8TMC3    C813987   3.828   3.697  13.702 -0.1133  0.2209  0.1705
    8TMC3    O113988   3.707   3.907  13.200 -0.7135 -0.4864  0.0913
    8TMC3    O213989   3.948   3.717  13.683 -0.1238 -0.0756 -0.4110
    9TMC3    C113990   3.696   4.478  12.646  0.5016 -0.0469  0.0860
    9TMC3    C213991   3.817   4.424  12.680  0.0549 -0.1661  0.2838
    9TMC3    C313992   3.840   4.394  12.812 -0.6900  0.0958 -0.6239
    9TMC3    C413993   3.598   4.501  12.747 -0.1190  0.2970 -0.2083
    9TMC3    C513994   3.630   4.491  12.882 -0.6088 -0.1175  0.5601
    9TMC3    C613995   3.756   4.431  12.911 -0.9450  0.1212  0.8345
    9TMC3     C13996   3.646   4.442  12.507  0.5185 -0.2180 -0.1774
    9TMC3     O13997   3.523   4.443  12.496 -0.3491  0.1895  0.4420
    9TMC3     H13998   3.886   4.374  12.613 -0.7746  0.8375 -1.3089
    9TMC3    H113999   3.500   4.540  12.723  0.0997  0.1463 -1.3715
    9TMC3    H214000   3.793   4.416  13.012 -3.2368 -0.3233  1.6035
    9TMC3    C714001   3.540   4.463  12.993  1.1972  0.2323  0.6351
    9TMC3    C814002   3.951   4.297  12.839  0.3973  0.2553 -0.2287
    9TMC3    O114003   3.447   4.541  12.996  0.0234 -0.0769  0.0320
    9TMC3    O214004   4.038   4.289  12.758  0.0297  0.0069 -0.7096
   10MPD2     C14005   4.107   3.879  13.066 -0.7175 -0.0870 -0.1726
   10MPD2    C114006   3.982   3.909  13.121  0.1071 -0.5208  1.0376
   10MPD2    C214007   3.928   4.030  13.076 -1.0758 -0.3003  0.2402
   10MPD2    C314008   3.992   4.112  12.987  0.0937  0.6158  0.0692
   10MPD2    C414009   4.115   4.081  12.937 -0.2842 -0.3950  0.0780
   10MPD2    C514010   4.170   3.960  12.973 -0.5113 -0.5620 -0.1170
   10MPD2     H14011   3.836   4.070  13.118 -2.0420 -2.3766  0.1078
   10MPD2    H114012   4.172   4.152  12.877 -1.9357  0.7677 -0.1032
   10MPD2    H214013   4.158   3.784  13.078  0.9736  0.8755  0.3252
   10MPD2    H314014   4.264   3.921  12.935 -0.1438  1.4719 -1.2891
   10MPD2     N14015   3.923   4.229  12.954 -0.1390  0.1928 -0.2259
   10MPD2    H514016   3.822   4.223  12.966 -0.3604 -1.2103 -2.9510
   10MPD2    N114017   3.921   3.826  13.221 -1.1041  0.4384 -0.7377
   10MPD2    H714018   3.987   3.753  13.246 -0.1797  1.5347 -0.0020
   11MPD2     C14019   0.210   3.572  14.818 -0.0030  0.3340 -1.2795
   11MPD2    C114020   0.092   3.504  14.821 -0.0893  0.1448 -0.0761
   11MPD2    C214021   4.717   3.552  14.753  0.2534  0.2686  0.0968
   11MPD2    C314022   4.725   3.666  14.681 -0.0532  0.3459  0.2159
   11MPD2    C414023   0.117   3.726  14.662 -0.1827 -0.4078 -0.0016
   11MPD2    C514024   0.222   3.684  14.744 -0.1576 -0.0710 -0.5305
   11MPD2     H14025   4.618   3.509  14.767  0.2867 -0.2606 -1.3002
   11MPD2    H114026   0.138   3.808  14.594 -1.4378  0.2046  0.3632
   11MPD2    H214027   0.299   3.535  14.867 -0.7255  0.4168  0.1087
   11MPD2    H314028   0.317   3.734  14.731 -0.9729  1.1722 -1.6729
   11MPD2     N14029   4.619   3.713  14.605 -0.0856 -0.3776 -0.2208
   11MPD2    H514030   4.626   3.803  14.559  1.2866  0.5481  1.8183
   11MPD2    N114031   0.090   3.405  14.918  0.2880 -0.2641  0.4438
   11MPD2    H714032   0.183   3.375  14.947 -0.1814 -1.7898  0.3468
    1MPD1     C14033   2.662   0.665  17.099 -0.1408  0.3160  0.2627
    1MPD1    C114034   2.773   0.581  17.091  0.4930  0.6266  0.1953
    1MPD1    C214035   2.793   0.529  16.961  0.1851  0.0715  0.5125
    1MPD1    C314036   2.705   0.549  16.852 -0.4022  0.1346 -0.5532
    1MPD1    C414037   2.606   0.645  16.868  0.7003  0.1492 -0.3363
    1MPD1    C514038   2.582   0.695  16.988 -0.7478  0.0418 -0.3175
    1MPD1     H14039   2.885   0.473  16.950  0.6843  0.6693  1.5766
    1MPD1    H114040   2.555   0.692  16.784 -0.9548 -3.1361 -1.1621
    1MPD1    H214041   2.629   0.694  17.198  0.3147 -1.7202  1.0016
    1MPD1    H314042   2.505   0.771  16.996 -1.8350 -1.1149  0.1638
    1MPD1     N14043   2.711   0.489  16.726 -0.0690  0.0947 -0.0477
    1MPD1    H514044   2.638   0.515  16.660  1.4034  1.4923 -1.1334
    1MPD1    N114045   2.856   0.562  17.205  0.0720 -0.2241 -0.1019
    1MPD1    H614046   2.878   0.463  17.204 -0.2418 -0.3116  1.0274
    1MPD1    H714047   2.805   0.588  17.290  1.1484  0.3980  0.3518
    2MPD1     C14048   3.479   4.656  16.510  0.6094  0.2191 -0.2940
    2MPD1    C114049   3.434   4.722  16.621 -0.4822 -0.3426 -0.5012
    2MPD1    C214050   3.305   0.046  16.611 -0.4081  0.7986 -0.0360
    2MPD1    C314051   3.216   0.021  16.506  0.2541  0.0848 -0.0575
    2MPD1    C414052   3.256   4.669  16.410  0.4771 -0.9978  0.5698
    2MPD1    C514053   3.388   4.630  16.405 -0.9295  0.0849  0.6623
    2MPD1     H14054   3.264   0.104  16.693  1.2477  1.3558  0.3893
    2MPD1    H114055   3.195   4.650  16.323  0.1593 -0.0623  0.5917
    2MPD1    H214056   3.584   4.637  16.489 -0.0095 -1.4707 -1.8387
    2MPD1    H314057   3.430   4.581  16.318 -0.9846  0.7933  0.2285
    2MPD1     N14058   3.090   0.091  16.505 -0.3380  0.0189  0.3890
    2MPD1    H514059   3.078   0.172  16.565 -1.6320  1.1010 -1.3621
    2MPD1    N114060   3.523   0.026  16.725 -0.3367  0.3509 -0.1548
    2MPD1    H614061   3.480   0.062  16.809  1.1249  3.7062 -0.8318
    2MPD1    H714062   3.580   4.679  16.742 -1.7486 -0.3716  1.0469
    3TMC3    C114063   2.872   0.163  16.428  0.2241 -0.2400 -0.0687
    3TMC3    C214064   2.830   0.227  16.315 -0.1127 -0.5072 -0.2904
    3TMC3    C314065   2.768   0.348  16.323  0.2966 -0.3684  0.2545
    3TMC3    C414066   2.838   0.218  16.552 -0.0828  0.4022  0.5347
    3TMC3    C514067   2.772   0.335  16.563  0.0463 -0.1746 -0.0683
    3TMC3    C614068   2.753   0.410  16.445 -0.4106  0.1935 -0.2458
    3TMC3     C14069   2.982   0.071  16.418  0.5576  0.5604 -0.0860
    3TMC3     O14070   2.979   0.002  16.318  0.2943 -0.4613  0.0095
    3TMC3     H14071   2.853   0.195  16.214  1.6475 -1.3878  0.3913
    3TMC3    H114072   2.875   0.169  16.641 -0.6266  1.1531  1.1737
    3TMC3    H214073   2.706   0.507  16.452  0.6299  0.4534  3.4768
    3TMC3    C714074   2.811   0.400  16.689  0.0206  0.1632 -0.0419
    3TMC3    C814075   2.762   0.428  16.201 -0.1283 -0.5214 -0.3389
    3TMC3    O114076   2.904   0.360  16.756 -0.1874 -0.0574 -0.0241
    3TMC3    O214077   2.717   0.376  16.099  0.0100  0.4724  0.0914
    4MPD1     C14078   2.672   0.900  16.014 -0.4439 -0.4035  0.7865
    4MPD1    C114079   2.745   0.916  16.128 -0.2015 -0.4639 -0.3020
    4MPD1    C214080   2.778   0.797  16.194 -0.1244 -0.0303  0.3580
    4MPD1    C314081   2.744   0.674  16.144 -0.5624  0.0613 -0.2026
    4MPD1    C414082   2.665   0.664  16.033 -0.2170 -0.0550  0.0324
    4MPD1    C514083   2.628   0.782  15.967 -0.0171 -0.0270 -0.7410
    4MPD1     H14084   2.827   0.803  16.291  0.8274 -0.5686 -0.0852
    4MPD1    H114085   2.626   0.574  15.987 -0.5502  0.9102 -1.5630
    4MPD1    H214086   2.639   0.977  15.946  0.8137 -0.1431  0.4744
    4MPD1    H314087   2.570   0.773  15.876  1.9175 -1.5447 -1.8136
    4MPD1     N14088   2.789   0.563  16.223  0.6880  0.6073  0.8163
    4MPD1    H514089   2.844   0.582  16.306  1.2529 -0.1805  0.6291
    4MPD1    N114090   2.772   1.046  16.181  0.1563  0.0025 -0.2393
    4MPD1    H614091   2.864   1.055  16.224  0.3722 -5.9725  0.5314
    4MPD1    H714092   2.776   1.125  16.117  2.5210 -2.0244 -2.6198
    1TCq1    O114093   3.955   1.646  12.085 -0.0640  0.1955 -0.2138
    1TCq1    C114094   3.986   1.629  11.954 -1.1508 -0.4046 -0.7095
    1TCq1    O214095   3.915   1.586  11.864  0.5675  0.2407  0.8124
    1TCq1    C214096   4.121   1.668  11.922  0.8059  0.3619  0.3656
    1TCq1    C314097   4.180   1.783  11.986  0.0795  0.1034  0.1812
    1TCq1    C414098   4.302   1.824  11.939 -0.1836  0.0559 -0.2347
    1TCq1    C514099   4.343   1.796  11.810 -0.6176 -0.1918 -0.5064
    1TCq1    C614100   4.276   1.694  11.745 -0.2364  0.5148 -0.1050
    1TCq1    C714101   4.165   1.628  11.798  0.4077  0.7387  0.1966
    1TCq1    C814102   4.317   1.663  11.611 -0.4987  0.6316 -0.0041
    1TCq1    O414103   4.249   1.575  11.557 -0.0514  0.7253 -0.0646
    1TCq1    C914104   4.349   1.946  11.995 -0.0257  0.1913 -0.1830
    1TCq1    O514105   4.285   1.984  12.095  0.4939 -0.2894  0.7255
    1TCq1    O614106   4.460   1.989  11.951  0.9427  0.1304 -0.3952
    1TCq1    H114107   4.033   1.650  12.144  1.3034  0.2848 -2.0388
    1TCq1    H214108   4.140   1.815  12.082 -1.5718 -0.4151 -0.3285
    1TCq1    H314109   4.440   1.836  11.783 -0.9163  0.7018 -0.2731
    1TCq1    H414110   4.123   1.541  11.750  0.4450 -0.3650  2.1899
    2MPD1     C14111   4.687   1.644  11.263 -0.1702 -0.3337  0.7033
    2MPD1    C114112   4.693   1.769  11.326  0.1150 -0.0215 -0.2499
    2MPD1    C214113   4.607   1.794  11.433 -0.2104  0.7446  0.5688
    2MPD1    C314114   4.504   1.709  11.458  0.5597  0.4603  0.3109
    2MPD1    C414115   4.488   1.599  11.382  0.0447  0.0272 -0.4941
    2MPD1    C514116   4.578   1.566  11.288 -0.4486 -0.6860 -0.2569
    2MPD1     H14117   4.628   1.879  11.496  1.2219  1.7914 -1.3344
    2MPD1    H114118   4.409   1.526  11.396 -0.9766  1.6416  2.0423
    2MPD1    H214119   0.021   1.614  11.185  0.4077 -0.0107  1.0901
    2MPD1    H314120   4.566   1.465  11.251 -0.4672 -0.3243 -1.2466
    2MPD1     N14121   4.418   1.735  11.569 -0.2113  0.4466 -0.4445
    2MPD1    H514122   4.436   1.830  11.602  0.9270 -0.9145  2.8774
    2MPD1    N114123   0.060   1.861  11.305  0.0594 -0.2964 -0.2000
    2MPD1    H614124   0.046   1.960  11.321  1.5209 -0.2894  1.0211
    2MPD1    H714125   0.092   1.847  11.210 -0.3555 -1.1329 -0.2213
    1TMC1    C114126   2.525   1.954   1.339  0.6245 -0.4349  0.0863
    1TMC1    C214127   2.498   2.062   1.418 -0.1724  0.1806  0.0709
    1TMC1    C314128   2.586   2.099   1.517  0.1835 -0.3076  0.0668
    1TMC1    C414129   2.642   1.885   1.346  0.7580 -0.8902  0.7688
    1TMC1    C514130   2.729   1.929   1.441  0.2925 -0.3401  1.0095
    1TMC1    C614131   2.707   2.039   1.515  0.0462  0.0740 -0.1589
    1TMC1     C14132   2.431   1.896   1.243 -1.1867 -0.1264 -0.0313
    1TMC1     O14133   2.464   1.793   1.186 -0.2988 -0.3038 -0.1897
    1TMC1     H14134   2.402   2.112   1.407  0.9118  1.7711 -2.0568
    1TMC1    H114135   2.655   1.809   1.270 -1.4532 -0.9348  0.4301
    1TMC1    H214136   2.775   2.071   1.594  0.4072  0.4096 -0.6089
    1TMC1    C714137   2.871   1.879   1.439  0.0261  0.3980  0.7272
    1TMC1    C814138   2.564   2.209   1.600 -0.6399  0.1778  0.2028
    1TMC1    O114139   2.973   1.936   1.472 -0.7436  0.3298 -0.0631
    1TMC1    O214140   2.654   2.285   1.640  0.0195 -0.2537 -0.0763
    1TMC1    O314141   2.872   1.760   1.375  0.3533 -0.1489 -0.5481
    1TMC1    H314142   2.782   1.721   1.379  1.0791 -1.7717 -0.4124
    1TMC1    O514143   2.439   2.192   1.649 -0.0309 -0.1076  0.0440
    1TMC1    H514144   2.383   2.119   1.614 -2.6434  1.6915  0.5050
    2MPD1     C14145   1.958   1.846   1.040  0.9724  0.8459  0.0634
    2MPD1    C114146   1.969   1.963   1.115 -0.7360  0.0313 -0.0957
    2MPD1    C214147   2.092   2.005   1.164 -0.4491 -0.6442  0.8118
    2MPD1    C314148   2.201   1.923   1.154  0.4098  0.0995  0.1945
    2MPD1    C414149   2.194   1.816   1.069 -0.1778 -0.4352  0.5698
    2MPD1    C514150   2.079   1.784   1.006 -0.3398  0.6332  0.0031
    2MPD1     H14151   2.093   2.094   1.224  1.4989 -1.5094  2.0929
    2MPD1    H114152   2.279   1.752   1.045  0.4211  0.2122  1.0068
    2MPD1    H214153   1.865   1.808   1.001  0.4130 -0.6194  2.8256
    2MPD1    H314154   2.087   1.699   0.939  0.8857  2.1373 -1.7689
    2MPD1     N14155   2.310   1.961   1.236  0.3299  0.3019  0.4771
    2MPD1    H514156   2.290   2.041   1.295  1.1028  1.2792 -0.5771
    2MPD1    N114157   1.852   2.027   1.161 -0.0366  0.1866  0.1033
    2MPD1    H614158   1.858   2.129   1.160  0.7684  0.1224 -1.5281
    2MPD1    H714159   1.775   1.999   1.100  0.8480 -0.4707 -0.6991
    1MPD1     C14160   4.599   0.385  13.097  0.5283 -0.0752 -0.0809
    1MPD1    C114161   4.581   0.446  12.977 -0.2746 -0.1367  0.9038
    1MPD1    C214162   4.653   0.400  12.867  0.3881  0.1166  0.6803
    1MPD1    C314163   0.005   0.298  12.878  0.3330  0.3815  0.3453
    1MPD1    C414164   0.019   0.231  12.999 -0.0461  0.9074  0.3411
    1MPD1    C514165   4.692   0.282  13.113  1.0295  0.3354 -0.3112
    1MPD1     H14166   4.653   0.456  12.774 -1.7545  0.4455  0.8751
    1MPD1    H114167   0.102   0.166  13.024 -0.2539  0.2078 -0.8198
    1MPD1    H214168   4.548   0.416  13.188  1.0884  1.9958 -0.4880
    1MPD1    H314169   4.715   0.251  13.214  0.1853  0.3497 -0.1132
    1MPD1     N14170   0.084   0.265  12.769  0.0284 -0.0805 -0.3350
    1MPD1    H514171   0.087   0.333  12.693 -1.9276  0.8307  0.3974
    1MPD1    N114172   4.524   0.575  12.972 -0.0776 -0.3398  0.0091
    1MPD1    H614173   4.443   0.590  13.031  1.6536  0.1939  2.2653
    1MPD1    H714174   4.474   0.592  12.885 -0.5659  2.0752  0.7674
    2MPD1     C14175   4.452   0.261  11.628  0.0089 -0.2383  0.0943
    2MPD1    C114176   4.535   0.156  11.613 -0.3134 -0.2275  0.5646
    2MPD1    C214177   4.547   0.103  11.486  0.0506  0.0384 -0.2908
    2MPD1    C314178   4.488   0.157  11.376 -0.2448 -0.0415  0.2121
    2MPD1    C414179   4.408   0.272  11.399  0.3337 -0.7733 -0.1148
    2MPD1    C514180   4.408   0.329  11.520  0.2242  0.4723  0.0359
    2MPD1     H14181   4.613   0.017  11.480  0.4694  0.2781  0.9227
    2MPD1    H114182   4.350   0.325  11.325  1.9810  2.2038  0.7146
    2MPD1    H214183   4.435   0.304  11.726 -2.6812  0.0472 -0.4842
    2MPD1    H314184   4.353   0.421  11.537 -0.3528 -0.2261  2.0179
    2MPD1     N14185   4.524   0.111  11.252 -0.5673 -0.2519  0.0343
    2MPD1    H514186   4.590   0.034  11.255  1.5252  1.5734  0.6914
    2MPD1    N114187   4.587   0.088  11.721 -0.4362 -0.3681 -0.2460
    2MPD1    H614188   4.580   0.139  11.809  1.7773  3.1113 -2.1048
    2MPD1    H714189   4.682   0.051  11.713  0.2570  1.2682  0.2634
    3MPD1     C14190   4.551   0.323  10.183 -0.6925 -0.5062 -0.3557
    3MPD1    C114191   4.629   0.211  10.202 -0.2619  0.2803  0.3089
    3MPD1    C214192   4.645   0.154  10.326  0.2841 -0.7218  0.0783
    3MPD1    C314193   4.595   0.215  10.429  0.1607  0.3262  0.5853
    3MPD1    C414194   4.530   0.339  10.417 -0.0713 -0.1302 -0.5090
    3MPD1    C514195   4.510   0.399  10.294  0.3776 -0.0545 -0.5277
    3MPD1     H14196   4.699   0.061  10.340  0.6192 -0.6322 -0.5869
    3MPD1    H114197   4.478   0.389  10.498  0.3242 -0.2243 -0.1942
    3MPD1    H214198   4.535   0.360  10.082 -0.3355  0.4246 -0.0724
    3MPD1    H314199   4.451   0.489  10.277  1.8663  0.8772 -0.8128
    3MPD1     N14200   4.606   0.148  10.555  0.6306 -0.4214 -1.0023
    3MPD1    H514201   4.651   0.058  10.571  1.0378 -0.2170 -0.9783
    3MPD1    N114202   4.669   0.142  10.086  0.8133  0.2581 -0.2195
    3MPD1    H614203   0.018   0.088  10.104 -0.0440 -1.1706 -0.5307
    3MPD1    H714204   4.697   0.207  10.013  1.5570 -2.3542 -2.2576
    4MPD2     C14205   0.186   0.322  11.983 -0.3537  0.4213 -0.3127
    4MPD2    C114206   0.306   0.306  12.043  0.4636  0.0366  0.8808
    4MPD2    C214207   0.425   0.303  11.966 -0.0541 -0.3365 -0.6272
    4MPD2    C314208   0.409   0.293  11.829  0.1960 -0.3497  0.6594
    4MPD2    C414209   0.284   0.301  11.774 -0.9209  0.2478  0.1417
    4MPD2    C514210   0.167   0.314  11.851 -0.5526 -0.0479  0.1471
    4MPD2     H14211   0.523   0.313  12.011 -0.2990 -1.8150  0.2443
    4MPD2    H114212   0.270   0.290  11.667 -1.5064 -3.0855  0.5574
    4MPD2    H214213   0.094   0.330  12.040 -0.6002  1.4599 -0.8387
    4MPD2    H314214   0.068   0.317  11.807 -1.0921  3.1128  1.6074
    4MPD2     N14215   0.519   0.273  11.742  0.2509 -0.2307  0.1819
    4MPD2    H514216   0.493   0.268  11.644 -1.6157 -1.8224  0.7577
    4MPD2    N114217   0.320   0.284  12.182 -0.1772 -0.2162  0.3290
    4MPD2    H714218   0.416   0.283  12.215  0.0084  2.2285 -0.0781
    5TMC3    C114219   0.285   0.240  12.408 -0.6833  0.3422  0.6352
    5TMC3    C214220   0.206   0.254  12.522  0.0120 -0.4276  0.5185
    5TMC3    C314221   0.237   0.158  12.617  0.0706  0.0873  0.4163
    5TMC3    C414222   0.386   0.147  12.394 -0.4135 -0.0482 -0.1012
    5TMC3    C514223   0.416   0.061  12.498  0.0527  0.2753 -0.0276
    5TMC3    C614224   0.339   0.070  12.613 -0.6025  1.0138  0.4836
    5TMC3     C14225   0.231   0.293  12.282 -0.3451  0.1452 -0.2984
    5TMC3     O14226   0.112   0.317  12.287  0.2412  0.0261 -0.7721
    5TMC3     H14227   0.120   0.320  12.531  0.6892  0.7184 -1.5348
    5TMC3    H114228   0.430   0.126  12.296  0.1502  0.3763  0.0622
    5TMC3    H214229   0.350   4.729  12.689 -0.6113 -0.7494 -1.2847
    5TMC3    C714230   0.500   4.683  12.477 -0.1467  0.2967 -0.6341
    5TMC3    C814231   0.162   0.150  12.741 -0.4834  0.1377 -0.4290
    5TMC3    O114232   0.465   4.579  12.530 -0.2711 -0.3650 -0.5871
    5TMC3    O214233   0.171   0.051  12.815  0.2318  0.2360 -0.1298
    6TMC3    C114234   4.544   0.107  11.013  0.3348 -0.5525  0.0913
    6TMC3    C214235   4.493   0.148  10.892  0.3164 -0.3417 -0.2259
    6TMC3    C314236   4.573   0.117  10.781 -0.3805 -0.4241  0.1263
    6TMC3    C414237   4.669   0.044  11.021  0.1984 -0.0539 -0.0704
    6TMC3    C514238   4.728   0.005  10.905  0.1168  0.0781  0.5506
    6TMC3    C614239   4.680   0.034  10.782 -0.2565  0.0451  0.5109
    6TMC3     C14240   4.483   0.164  11.132  0.4225 -0.0038  0.2336
    6TMC3     O14241   4.398   0.247  11.112 -0.2266 -0.0982  0.1850
    6TMC3     H14242   4.406   0.212  10.886  0.4917 -0.1509 -0.6992
    6TMC3    H114243   4.695   0.019  11.123 -0.5916 -1.4031 -0.1929
    6TMC3    H214244   0.007   0.009  10.697 -0.5489  1.8050 -0.2179
    6TMC3    C714245   0.113   4.658  10.914  0.0774  0.2987  0.2402
    6TMC3    C814246   4.545   0.192  10.667  0.0512  0.2581 -0.4792
    6TMC3    O114247   0.140   4.587  10.814 -0.2432  0.2695 -0.3219
    6TMC3    O214248   4.466   0.285  10.684 -0.1389  0.0051  0.0366
    7MPD2     C14249   0.787   4.467  12.107  0.6480  0.2749 -0.3290
    7MPD2    C114250   0.758   4.599  12.077 -0.4386  0.5000  0.5404
    7MPD2    C214251   0.713   4.678  12.180 -0.2131 -0.0272 -0.1760
    7MPD2    C314252   0.660   4.627  12.296 -0.2468 -0.1353 -0.0084
    7MPD2    C414253   0.670   4.494  12.316 -0.1280 -0.5705 -0.2010
    7MPD2    C514254   0.738   4.414  12.227  0.5114 -0.3335  0.2479
    7MPD2     H14255   0.711   0.048  12.152  1.6347  0.5046  1.7242
    7MPD2    H114256   0.626   4.444  12.401 -1.4925 -1.3996 -1.3831
    7MPD2    H214257   0.828   4.397  12.035  0.7906  0.2225 -0.1961
    7MPD2    H314258   0.741   4.306  12.235 -0.1002 -0.2562  1.7289
    7MPD2     N14259   0.587   4.717  12.367 -0.1487  0.1249 -0.7365
    7MPD2    H514260   0.596   0.078  12.339 -2.2243  0.6521  0.4957
    7MPD2    N114261   0.752   4.654  11.950 -0.4288 -0.1092  0.1856
    7MPD2    H714262   0.735   0.019  11.946  1.4534  0.1807 -0.3718
    8TMC3    C114263   0.744   4.678  11.721  0.2269  0.5430 -0.6343
    8TMC3    C214264   0.657   4.643  11.620  0.4023  0.5920 -0.0457
    8TMC3    C314265   0.603   0.012  11.545  0.2336 -0.4634 -0.3090
    8TMC3    C414266   0.785   0.073  11.742 -0.5922 -0.0440  0.2205
    8TMC3    C514267   0.713   0.175  11.683 -0.0638  0.1923 -0.2904
    8TMC3    C614268   0.630   0.145  11.572 -0.1849 -0.3608 -1.1334
    8TMC3     C14269   0.752   4.586  11.831  0.3854  0.4680 -0.5636
    8TMC3     O14270   0.735   4.464  11.808 -0.3749 -0.0420  0.2325
    8TMC3     H14271   0.631   4.538  11.611  1.0571  0.4326 -0.0262
    8TMC3    H114272   0.861   0.094  11.817 -0.2522 -0.6298  0.0421
    8TMC3    H214273   0.571   0.222  11.525  2.3816  2.1052 -0.3387
    8TMC3    C714274   0.645   0.245  11.786  0.3725 -0.6831  0.2057
    8TMC3    C814275   0.515   4.733  11.427  0.5130  0.3701 -0.5842
    8TMC3    O114276   0.694   0.239  11.899  0.2812  0.0661 -0.5885
    8TMC3    O214277   0.432   0.084  11.398  0.4423 -0.1437  0.3637
    9MPD2     C14278   0.545   4.508  11.149 -0.9189 -0.2472  0.0332
    9MPD2    C114279   0.476   4.583  11.238  0.4265  0.1835  0.0547
    9MPD2    C214280   0.359   4.638  11.195 -0.4368 -0.5691 -0.1937
    9MPD2    C314281   0.306   4.613  11.066  0.3197 -0.3324 -0.4665
    9MPD2    C414282   0.384   4.545  10.981  0.0583  0.6918  0.3517
    9MPD2    C514283   0.497   4.480  11.028  0.2461  0.1021  0.4695
    9MPD2     H14284   0.285   4.685  11.259  0.8519 -0.5547  1.3005
    9MPD2    H114285   0.355   4.525  10.879 -0.4684 -0.1463  0.6719
    9MPD2    H214286   0.642   4.468  11.176 -0.4252  0.7313 -0.2762
    9MPD2    H314287   0.557   4.423  10.958 -0.4733  0.2244 -0.2582
    9MPD2     N14288   0.178   4.667  11.034  0.4127 -0.0017  0.3751
    9MPD2    H514289   0.139   4.718  11.113  0.3660  0.5090  0.0274
    9MPD2    N114290   0.538   4.618  11.361 -0.7821  0.7104 -0.3434
    9MPD2    H714291   0.619   4.565  11.391 -0.8325  1.4845  1.1319
    1MPD1     C14292   0.273   3.024  17.071 -0.0916 -0.1094 -0.2182
    1MPD1    C114293   0.147   3.032  17.122 -0.0677 -0.3854 -1.0639
    1MPD1    C214294   0.050   3.109  17.057  0.2020  0.1515 -0.3148
    1MPD1    C314295   0.094   3.202  16.962  1.2097  0.9652 -0.6611
    1MPD1    C414296   0.224   3.202  16.924  0.7105  0.5059 -0.0742
    1MPD1    C514297   0.309   3.113  16.979  0.3255  0.2530  1.1382
    1MPD1     H14298   4.681   3.104  17.084 -0.0111 -0.2831 -1.2222
    1MPD1    H114299   0.270   3.263  16.847  0.5096  1.9478  0.9357
    1MPD1    H214300   0.344   2.953  17.112  0.0431 -0.7984 -1.6658
    1MPD1    H314301   0.412   3.116  16.944 -0.4802  2.4307 -1.0369
    1MPD1     N14302   0.010   3.283  16.887  0.4830 -0.0902 -0.3448
    1MPD1    H514303   0.055   3.348  16.824 -2.0640  0.5172 -1.5422
    1MPD1    N114304   0.107   2.941  17.218  0.4310  0.5564  0.1588
    1MPD1    H614305   0.028   2.971  17.275  2.4430  1.2186  2.5768
    1MPD1    H714306   0.184   2.919  17.280  0.8648 -0.4968 -0.7389
    2TMC2    C114307   4.586   3.499  16.580  0.8694 -0.0617 -0.9019
    2TMC2    C214308   4.449   3.504  16.562  0.7646  0.0833 -0.5162
    2TMC2    C314309   4.371   3.423  16.651 -0.5046 -0.3954  0.1594
    2TMC2    C414310   4.635   3.422  16.682  0.0098  0.8433  0.7782
    2TMC2    C514311   4.553   3.350  16.771  0.2621  0.3872  0.5027
    2TMC2    C614312   4.417   3.345  16.750 -0.8351  0.0335 -0.0419
    2TMC2     C14313   4.673   3.581  16.489  0.4255 -0.5354 -0.0817
    2TMC2     O14314   4.617   3.649  16.406  0.0653 -0.0510  0.4421
    2TMC2     H14315   4.409   3.562  16.479 -1.9559  0.3599  0.9751
    2TMC2    H114316   0.007   3.412  16.696  0.0239  0.2872  0.2605
    2TMC2    H214317   4.345   3.283  16.803 -1.5580 -0.7271 -1.9152
    2TMC2    C714318   4.608   3.265  16.873  0.4964 -0.5593 -0.0646
    2TMC2    C814319   4.236   3.394  16.605  0.4371 -0.3958 -0.0795
    2TMC2    O114320   4.526   3.202  16.940  0.6710  0.1136  0.5154
    2TMC2    O214321   4.136   3.418  16.673 -0.2902  0.0899 -0.3447
    2TMC2    O514322   4.248   3.280  16.534 -0.0015 -0.2756  0.5125
    2TMC2    H514323   4.324   3.285  16.472 -1.5955  1.5990 -1.2941
    3MPD1     C14324   0.348   3.718  16.242 -0.0669  0.2466  0.6409
    3MPD1    C114325   0.389   3.623  16.337  0.4768  0.1445  0.2187
    3MPD1    C214326   0.298   3.571  16.424 -0.0682  0.2561 -0.5479
    3MPD1    C314327   0.171   3.627  16.423 -0.0465 -0.8177 -0.4866
    3MPD1    C414328   0.143   3.739  16.346  0.1072  0.5248 -0.4589
    3MPD1    C514329   0.223   3.772  16.245 -0.5260  0.6491  0.2051
    3MPD1     H14330   0.322   3.492  16.494 -0.1351  0.3379 -0.4319
    3MPD1    H114331   0.044   3.782  16.344 -0.3942 -0.6000  0.0234
    3MPD1    H214332   0.411   3.742  16.157 -1.1664  1.7888  0.2547
    3MPD1    H314333   0.197   3.844  16.168 -1.4637  0.4805  0.3751
    3MPD1     N14334   0.072   3.569  16.509  0.1717 -0.9771  0.1713
    3MPD1    H514335   0.111   3.503  16.575  1.7387 -0.3889 -0.1721
    3MPD1    N114336   0.508   3.553  16.325  0.1795  0.2960 -0.7789
    3MPD1    H614337   0.551   3.527  16.414 -0.4565 -0.5666 -0.7249
    3MPD1    H714338   0.585   3.595  16.273  0.1295  2.1870  0.6465
    1TMC1    C114339   2.412   2.953  13.054  0.0070 -0.6644 -0.3100
    1TMC1    C214340   2.386   2.879  13.164  0.4516  0.2655 -0.4357
    1TMC1    C314341   2.277   2.791  13.159  0.5266  0.0149  0.4706
    1TMC1    C414342   2.327   2.949  12.944 -0.0265 -0.6295 -0.1676
    1TMC1    C514343   2.219   2.861  12.947  0.1227  0.1075 -0.0121
    1TMC1    C614344   2.200   2.775  13.045  0.0183 -0.3210  0.1837
    1TMC1     C14345   2.538   3.027  13.045  0.1308 -0.8865  0.3164
    1TMC1     O14346   2.553   3.129  12.983 -1.0199  0.1794 -0.3500
    1TMC1     H14347   2.422   2.910  13.261  1.5455 -2.0656 -0.0809
    1TMC1    H114348   2.356   3.008  12.858 -1.1678 -0.2992 -0.3290
    1TMC1    H214349   2.136   2.688  13.038  1.1480 -1.0349 -1.4407
    1TMC1    C714350   2.181   2.814  12.813 -0.4490  0.1225 -0.6565
    1TMC1    C814351   2.215   2.774  13.292  0.1338  0.8616  0.0893
    1TMC1    O114352   2.251   2.828  12.719  0.4781  0.5221 -0.0815
    1TMC1    O214353   2.232   2.859  13.382 -0.1097 -0.3400 -0.1428
    1TMC1    O314354   2.063   2.750  12.828  0.0236  0.2134 -0.1392
    1TMC1    H314355   2.017   2.776  12.910  0.8284  2.8072 -0.5247
    1TMC1    O514356   2.168   2.647  13.302  0.2268  0.4358  0.7597
    1TMC1    H514357   2.159   2.605  13.214  3.5155 -0.6783  0.9537
    2MPD2     C14358   2.817   3.120  13.077  0.7323 -0.9562  0.0969
    2MPD2    C114359   2.767   2.996  13.120  0.5457 -0.2269 -0.1188
    2MPD2    C214360   2.852   2.904  13.187  0.9529  0.0008 -0.8586
    2MPD2    C314361   2.982   2.937  13.210 -0.3852 -0.1681 -0.2088
    2MPD2    C414362   3.034   3.060  13.171 -0.0849  0.8660  0.2991
    2MPD2    C514363   2.950   3.145  13.105 -0.8288  0.4122 -0.2007
    2MPD2     H14364   2.826   2.804  13.219  0.6384  0.8229  1.4271
    2MPD2    H114365   3.139   3.081  13.190  0.5254  0.3431 -2.5041
    2MPD2    H214366   2.753   3.196  13.035 -0.5710 -2.2709 -0.3079
    2MPD2    H314367   2.999   3.237  13.077  0.8188 -0.8073 -1.3092
    2MPD2     N14368   3.058   2.841  13.282 -0.1459  0.0773  0.2826
    2MPD2    H514369   3.003   2.763  13.316  1.2844  0.1830  2.8359
    2MPD2    N114370   2.633   2.962  13.113  0.0340  0.2381 -0.7031
    2MPD2    H714371   2.595   2.882  13.162  0.8889  0.9236  1.0818
    3TCq1    O114372   3.157   2.769  13.777 -0.8360 -0.4097 -0.3572
    3TCq1    C114373   3.121   2.647  13.735  1.0016  0.2699 -0.4097
    3TCq1    O214374   3.001   2.623  13.738 -0.3355  0.4227  0.2366
    3TCq1    C214375   3.196   2.641  13.607  0.2378  0.3725  0.8271
    3TCq1    C314376   3.323   2.600  13.623 -0.1182 -0.2749  0.1775
    3TCq1    C414377   3.412   2.634  13.528  0.1016 -0.4978  0.0106
    3TCq1    C514378   3.370   2.707  13.414  0.4600  0.3954  0.0897
    3TCq1    C614379   3.239   2.744  13.407 -0.0343  0.5625 -0.1686
    3TCq1    C714380   3.150   2.704  13.502 -0.6030  0.4488  0.1017
    3TCq1    C814381   3.197   2.852  13.311  0.2301  0.6298 -0.1716
    3TCq1    O414382   3.283   2.916  13.253  0.4266 -0.8230  0.0939
    3TCq1    C914383   3.553   2.602  13.547  0.0584  0.8574  0.0404
    3TCq1    O514384   3.572   2.493  13.606  0.2763  0.5595  0.1787
    3TCq1    O614385   3.641   2.688  13.516  0.3191 -0.4409  0.2551
    3TCq1    H114386   3.254   2.778  13.765 -0.9094  0.3397 -0.3659
    3TCq1    H214387   3.355   2.541  13.708  0.6175 -3.3521 -2.2321
    3TCq1    H314388   3.439   2.732  13.335  3.5121 -1.0897  2.2937
    3TCq1    H414389   3.048   2.741  13.510 -0.6101  0.2666  0.8851
    1MPD2     C14390   2.958   3.473  14.829 -0.4454 -0.2145 -0.8038
    1MPD2    C114391   2.849   3.424  14.891  0.4862  0.0026 -0.1446
    1MPD2    C214392   2.868   3.319  14.983 -0.0222 -0.4050  0.4458
    1MPD2    C314393   2.997   3.261  15.002 -1.5756 -0.1455 -0.1345
    1MPD2    C414394   3.102   3.308  14.932  0.6728  0.3858 -0.4591
    1MPD2    C514395   3.078   3.421  14.854 -0.1094  0.0443 -0.1233
    1MPD2     H14396   2.780   3.279  15.032  0.8369 -1.5104  1.1053
    1MPD2    H114397   3.200   3.261  14.935 -1.5799 -4.2397  2.4907
    1MPD2    H214398   2.941   3.549  14.753  0.7085  1.1040  0.2472
    1MPD2    H314399   3.159   3.456  14.792  2.2517 -1.1771  2.2619
    1MPD2     N14400   3.001   3.146  15.084 -0.5826 -0.4617  0.1979
    1MPD2    H514401   2.908   3.111  15.106 -0.4418 -1.6975 -1.2308
    1MPD2    N114402   2.720   3.482  14.871  0.0992 -0.5347 -0.3798
    1MPD2    H714403   2.701   3.550  14.798  0.1833 -2.4811 -2.2123
    2TMC3    C114404   2.488   3.529  14.906 -0.3214 -0.9146 -0.4077
    2TMC3    C214405   2.374   3.475  14.963  0.0517 -0.6725  0.0485
    2TMC3    C314406   2.263   3.449  14.885 -0.0541  1.0925 -0.1596
    2TMC3    C414407   2.475   3.573  14.776 -0.4341  0.1366  0.3275
    2TMC3    C514408   2.363   3.551  14.700  0.2779  0.4136 -0.2923
    2TMC3    C614409   2.256   3.482  14.755 -0.0396  0.6834 -0.2164
    2TMC3     C14410   2.607   3.447  14.937  0.0263 -0.0593  0.4899
    2TMC3     O14411   2.579   3.352  15.009 -0.1418 -0.0729 -0.4573
    2TMC3     H14412   2.372   3.443  15.067 -1.5132 -0.4842  0.0685
    2TMC3    H114413   2.568   3.601  14.728 -0.7853  1.3700  0.3715
    2TMC3    H214414   2.170   3.450  14.698  0.6518 -3.1756  0.9416
    2TMC3    C714415   2.323   3.652  14.603  0.0925 -0.3692 -0.5325
    2TMC3    C814416   2.215   3.314  14.914 -0.2966 -0.2633 -0.4835
    2TMC3    O114417   2.204   3.644  14.571 -0.2500  0.2055  0.0862
    2TMC3    O214418   2.103   3.273  14.871 -0.2768 -0.3473 -0.4766
    3TCq1    O114419   2.942   4.719  14.691  0.4757 -0.2512 -0.4091
    3TCq1    C114420   2.880   4.688  14.576  0.1179  0.1468 -0.4154
    3TCq1    O214421   2.803   0.028  14.520  0.2161 -0.3016  0.0452
    3TCq1    C214422   2.860   4.547  14.577  0.0513 -0.0192  0.9075
    3TCq1    C314423   2.957   4.470  14.645  0.1348 -0.2656  0.2697
    3TCq1    C414424   2.925   4.343  14.667  0.1309 -0.2649 -0.5441
    3TCq1    C514425   2.807   4.291  14.625 -0.0133  0.8533  0.0466
    3TCq1    C614426   2.721   4.364  14.547 -0.9029 -0.2049 -0.1216
    3TCq1    C714427   2.739   4.502  14.534 -0.2323 -0.2971  0.2438
    3TCq1    C814428   2.610   4.308  14.485 -0.8141 -0.0474  0.3060
    3TCq1    O414429   2.518   4.375  14.435 -0.0347 -0.3000  0.1603
    3TCq1    C914430   3.007   4.262  14.755  0.4088  0.6090 -0.0496
    3TCq1    O514431   3.120   4.313  14.776  0.5082  0.6001 -0.5866
    3TCq1    O614432   2.959   4.154  14.805 -0.3863 -0.1166 -0.4050
    3TCq1    H114433   2.947   4.643  14.753  3.0094 -0.8961 -1.4145
    3TCq1    H214434   3.054   4.511  14.672 -1.0969  1.7784  1.4659
    3TCq1    H314435   2.781   4.191  14.656 -1.4949  0.9338 -0.9439
    3TCq1    H414436   2.668   4.569  14.488 -0.7514  0.6998  2.5038
    4MPD2     C14437   2.384   4.132  14.403  0.3882 -0.6324 -0.4489
    4MPD2    C114438   2.499   4.087  14.472  0.1124  0.5360 -0.3739
    4MPD2    C214439   2.508   3.957  14.516  0.1510  0.6078 -0.1924
    4MPD2    C314440   2.399   3.874  14.517 -0.1908  0.0298 -0.7976
    4MPD2    C414441   2.279   3.919  14.455  0.3323  0.0920 -0.9199
    4MPD2    C514442   2.282   4.038  14.396 -0.7122  0.5351 -0.1437
    4MPD2     H14443   2.597   3.925  14.569  0.7952  3.7447  0.6275
    4MPD2    H114444   2.192   3.856  14.450 -0.6455  1.3921 -0.3141
    4MPD2    H214445   2.364   4.228  14.356  2.6259 -0.1054 -0.3461
    4MPD2    H314446   2.186   4.066  14.353 -0.1829 -0.6058 -2.0488
    4MPD2     N14447   2.411   3.754  14.588  0.2311 -0.3449 -1.0864
    4MPD2    H514448   2.504   3.743  14.628 -0.0424 -0.5880 -0.5188
    4MPD2    N114449   2.612   4.169  14.493 -0.0166 -0.2940  0.4648
    4MPD2    H714450   2.697   4.120  14.518  1.8351  1.4758 -2.3769
    5TMC2    C114451   2.827   2.864  15.159 -0.4245 -0.2342 -0.1145
    5TMC2    C214452   2.844   2.766  15.064 -0.1339  0.0900 -0.3710
    5TMC2    C314453   2.975   2.753  15.024 -0.0692 -0.2752  0.3551
    5TMC2    C414454   2.930   2.942  15.214  0.5709  0.5057  0.2581
    5TMC2    C514455   3.054   2.929  15.154  0.3645 -0.1469  0.0762
    5TMC2    C614456   3.079   2.829  15.063  0.4008  0.3723  0.2611
    5TMC2     C14457   2.704   2.940  15.140  0.7312 -0.3798  0.2452
    5TMC2     O14458   2.710   3.055  15.172 -0.5060 -0.6434  0.4066
    5TMC2     H14459   2.762   2.730  15.003 -1.6420  0.5023  1.4489
    5TMC2    H114460   2.916   3.018  15.290  1.1656 -0.4642  1.3343
    5TMC2    H214461   3.182   2.814  15.031  0.6382 -0.1708  1.2827
    5TMC2    C714462   3.103   3.054  15.093 -0.1327 -1.3967  0.0480
    5TMC2    C814463   3.013   2.652  14.927 -0.6568  0.1180  0.5948
    5TMC2    O114464   3.222   3.065  15.078  0.2154  0.0931 -0.2688
    5TMC2    O214465   2.941   2.552  14.926  0.8011  0.4989  0.0773
    5TMC2    O514466   3.061   2.719  14.820  0.4480  0.1792 -0.4121
    5TMC2    H514467   3.084   2.813  14.837  1.0779 -0.3380  1.5246
    6MPD2     C14468   2.221   3.008  14.993  0.2448 -0.2396  0.3994
    6MPD2    C114469   2.332   3.096  14.986  0.4704  0.4539  0.2903
    6MPD2    C214470   2.457   3.047  15.019  0.3470 -0.1353 -0.4858
    6MPD2    C314471   2.474   2.912  15.059  0.2077  0.5483 -0.3898
    6MPD2    C414472   2.360   2.828  15.066  0.3803  0.5847  0.8394
    6MPD2    C514473   2.237   2.880  15.030  0.1062 -0.1516 -0.1737
    6MPD2     H14474   2.549   3.105  15.024 -0.6350  1.3269  0.5393
    6MPD2    H114475   2.369   2.723  15.093 -0.0607 -0.3166 -2.5680
    6MPD2    H214476   2.123   3.048  14.972  1.2784  0.7926 -2.5450
    6MPD2    H314477   2.152   2.813  15.036  1.0304 -1.3333 -0.4569
    6MPD2     N14478   2.599   2.867  15.092  0.0851  0.0123 -0.5017
    6MPD2    H514479   2.609   2.769  15.116 -2.5984 -0.1990 -0.1954
    6MPD2    N114480   2.322   3.235  14.964  0.0630  0.3540  0.0555
    6MPD2    H714481   2.407   3.287  14.984 -0.4814  1.0402  0.6244
  945NH4     N114482   2.621   3.327  15.285 -0.2431 -0.3187 -0.1976
  945NH4     H214483   2.531   3.300  15.330 -0.7622 -0.9768 -1.6197
  945NH4     H314484   2.685   3.355  15.362 -0.7869  0.1683  0.0816
  945NH4     H414485   2.599   3.404  15.219  0.1692 -0.3303 -0.3472
  945NH4     H514486   2.640   3.241  15.231  0.5396  0.1762 -0.7069
  946SOD     NA14487   3.618   0.087   8.713 -0.4387 -0.0105 -0.1008
  947SOD     NA14488   2.097   1.710  16.742 -0.3075 -0.0795  0.5453
  948SOD     NA14489   1.552   1.903  12.788  0.5717 -0.4001  0.2931
  949SOD     NA14490   3.738   4.289  17.172 -0.1886 -0.6134 -0.0791
  950SOD     NA14491   1.637   2.810  10.780  0.0629  0.1233  0.2231
  951SOD     NA14492   0.534   0.575   5.370 -0.5916  0.1480 -0.4835
  952SOD     NA14493   4.459   2.469  11.441  0.4113 -0.1008 -0.4431
  953SOL     OW14494   2.422   3.603   7.389 -0.4135 -0.1081 -0.0098
  953SOL    HW114495   2.412   3.612   7.294 -1.5369  0.4056  0.1676
  953SOL    HW214496   2.461   3.516   7.390 -0.4421 -0.1045  0.8703
  954SOL     OW14497   2.349   4.034   5.781 -0.0577  0.0775 -0.3998
  954SOL    HW114498   2.414   4.068   5.719  1.1859 -1.3075  0.1432
  954SOL    HW214499   2.321   3.946   5.756  0.6623  0.7063 -3.3876
  955SOL     OW14500   3.146   2.416   3.595  1.1257  0.0171  0.7074
  955SOL    HW114501   3.236   2.447   3.588  0.6608  1.6627  2.0016
  955SOL    HW214502   3.125   2.384   3.508  1.4180  0.9403  0.2993
  956SOL     OW14503   2.323   3.313   6.568  0.0573  0.9916  0.0149
  956SOL    HW114504   2.265   3.258   6.621  0.3029 -1.7923 -2.5706
  956SOL    HW214505   2.339   3.390   6.623 -0.7420  0.0883  1.5038
  957SOL     OW14506   1.238   1.260  13.952 -0.2161  0.6564  0.6466
  957SOL    HW114507   1.150   1.288  13.975 -0.3407  0.0837  0.8751
  957SOL    HW214508   1.292   1.321  14.002 -0.3800 -0.0513  1.6965
  958SOL     OW14509   4.382   2.707   6.475 -0.3656  0.3252  0.0464
  958SOL    HW114510   4.298   2.746   6.500  0.3395  1.5528  0.4580
  958SOL    HW214511   4.411   2.769   6.408  1.2860  0.0798  0.5331
  959SOL     OW14512   1.655   0.390   3.641  0.2955 -0.0555  0.1501
  959SOL    HW114513   1.661   0.329   3.715 -1.3038  0.1158  0.4334
  959SOL    HW214514   1.586   0.345   3.591  1.5771 -0.6856 -1.0337
  960SOL     OW14515   0.080   1.188  12.420 -0.1694  0.1861  0.0673
  960SOL    HW114516   0.025   1.178  12.342  0.2454 -0.7950 -0.0984
  960SOL    HW214517   0.013   1.201  12.487 -0.2125  0.3608 -0.0114
  961SOL     OW14518   0.838   0.016  10.240  0.4007 -0.2386 -0.5165
  961SOL    HW114519   0.773   4.685  10.260 -0.5436  0.0508 -2.7013
  961SOL    HW214520   0.791   0.062  10.171 -2.2198 -2.7776 -0.4246
  962SOL     OW14521   3.401   3.003  10.565  0.5169  0.0307 -0.8572
  962SOL    HW114522   3.477   3.061  10.571  0.1060  0.3950  0.7980
  962SOL    HW214523   3.432   2.938  10.501  1.3020 -0.2871 -0.1514
  963SOL     OW14524   4.379   3.396   3.891 -0.1952 -0.1340 -0.2352
  963SOL    HW114525   4.439   3.428   3.958 -1.4730 -0.4877  1.0951
  963SOL    HW214526   4.302   3.379   3.946  0.4419 -0.0335  0.6836
  964SOL     OW14527   0.121   4.352   0.507 -0.1520 -0.2215 -0.2272
  964SOL    HW114528   0.194   4.349   0.445  1.0825 -0.1824  1.2189
  964SOL    HW214529   0.074   4.422   0.463 -0.0334  0.4100  0.6633
  965SOL     OW14530   3.004   1.708   6.092  0.3841  0.2563 -0.1848
  965SOL    HW114531   3.035   1.697   6.002 -0.4165 -1.5226 -0.2316
  965SOL    HW214532   3.024   1.802   6.094 -2.1111  0.7796  0.7688
  966SOL     OW14533   1.598   3.204   5.880 -0.6484  0.5152  0.2119
  966SOL    HW114534   1.624   3.248   5.961 -0.4649  0.4590  0.1820
  966SOL    HW214535   1.686   3.221   5.847 -0.3245 -3.2609 -0.8540
  967SOL     OW14536   3.933   4.117  15.293  0.2469  0.2738  0.0143
  967SOL    HW114537   3.890   4.043  15.337 -0.1285  0.3765 -0.1812
  967SOL    HW214538   3.976   4.158  15.368  0.2062 -1.8999  1.2278
  968SOL     OW14539   0.329   0.952  13.325  0.1456 -0.3551 -0.0004
  968SOL    HW114540   0.307   0.950  13.232  1.5885 -1.4313 -0.3121
  968SOL    HW214541   0.403   0.892  13.327  0.4750  0.0714  0.5030
  969SOL     OW14542   0.924   1.702   5.354  0.0440 -0.3077 -0.1795
  969SOL    HW114543   0.897   1.794   5.352  0.8475 -0.0849 -1.0739
  969SOL    HW214544   0.992   1.701   5.421  0.4614  1.1875 -0.5943
  970SOL     OW14545   4.549   0.640   3.030  0.2477  0.1672 -0.7013
  970SOL    HW114546   4.546   0.731   3.058 -0.4312 -0.4697  1.3208
  970SOL    HW214547   4.591   0.633   2.945 -0.9444  1.2639 -1.3865
  971SOL     OW14548   1.257   0.634   3.204 -0.0863  0.5219 -0.0378
  971SOL    HW114549   1.212   0.659   3.285 -1.0218  1.0655 -0.7227
  971SOL    HW214550   1.347   0.658   3.224 -0.6041 -0.0521  3.0071
  972SOL     OW14551   0.312   4.533   2.764  0.0257  0.4801  0.1788
  972SOL    HW114552   0.225   4.503   2.741 -0.1390  0.7546  0.4429
  972SOL    HW214553   0.347   4.549   2.676 -0.1155  0.2692  0.0858
  973SOL     OW14554   3.715   0.110   0.256  0.1321  0.6182 -0.3956
  973SOL    HW114555   3.743   0.022   0.234 -2.1692 -1.0726  3.4022
  973SOL    HW214556   3.658   0.129   0.182 -1.7615 -2.8978  0.1505
  974SOL     OW14557   1.077   1.618   6.702  0.5911  0.6970 -0.1793
  974SOL    HW114558   1.134   1.675   6.754 -0.8599  1.9595  0.0285
  974SOL    HW214559   1.079   1.541   6.758 -1.3845  1.3147  0.7271
  975SOL     OW14560   0.998   4.516   0.859  0.2728  0.6219 -0.0154
  975SOL    HW114561   1.047   4.514   0.941  2.7347  1.2660 -1.4672
  975SOL    HW214562   0.906   4.507   0.885 -0.1527  1.3407 -1.2177
  976SOL     OW14563   3.663   3.089   0.791  0.3795 -0.8223 -0.4601
  976SOL    HW114564   3.748   3.046   0.784  1.1759  0.4307  1.4981
  976SOL    HW214565   3.651   3.074   0.697  0.4665 -0.2987 -0.5574
  977SOL     OW14566   1.546   2.350   5.582 -0.1528 -0.2457 -0.1122
  977SOL    HW114567   1.468   2.399   5.608 -0.6934 -1.3564  0.3102
  977SOL    HW214568   1.552   2.291   5.657 -2.3404 -1.1117 -0.6223
  978SOL     OW14569   2.031   4.620  16.919 -0.5661  0.7112  0.0979
  978SOL    HW114570   2.063   4.534  16.945 -0.5434 -0.2932 -3.2035
  978SOL    HW214571   1.973   4.646  16.991 -0.9995 -1.3456  0.4840
  979SOL     OW14572   2.850   2.316   8.578  0.3538  0.6099  0.2424
  979SOL    HW114573   2.908   2.381   8.618 -0.9510 -0.2829  3.6524
  979SOL    HW214574   2.869   2.240   8.633  0.1847 -0.0346 -0.5924
  980SOL     OW14575   4.537   3.383   6.585  0.1157  0.0348 -0.1864
  980SOL    HW114576   4.625   3.368   6.617 -0.9694 -2.0465  1.8334
  980SOL    HW214577   4.563   3.432   6.507  3.4745  2.2295  2.3576
  981SOL     OW14578   0.370   0.768   8.679 -0.3527  0.5704  0.0683
  981SOL    HW114579   0.429   0.696   8.701 -0.8764  0.9515  2.7948
  981SOL    HW214580   0.389   0.785   8.587  0.6702 -1.6341 -0.1279
  982SOL     OW14581   1.880   0.763   8.872 -0.1345 -0.2265  0.2528
  982SOL    HW114582   1.803   0.807   8.835  0.9857  0.3541 -1.4148
  982SOL    HW214583   1.833   0.691   8.914 -0.4402  0.7709  1.6178
  983SOL     OW14584   1.208   2.817  10.932 -0.0864 -0.0602  0.3123
  983SOL    HW114585   1.145   2.766  10.881 -0.4759 -1.1358  1.8594
  983SOL    HW214586   1.217   2.774  11.018  0.5268 -0.6780 -0.0558
  984SOL     OW14587   4.201   1.042   3.533 -0.5167  0.2453 -0.1953
  984SOL    HW114588   4.295   1.038   3.514 -0.7219 -0.7320 -1.0241
  984SOL    HW214589   4.167   0.986   3.463  1.4009  1.3065 -1.9510
  985SOL     OW14590   0.348   2.776   2.911  0.4814  0.5690  0.0273
  985SOL    HW114591   0.262   2.789   2.951 -0.0257 -1.2936 -0.4616
  985SOL    HW214592   0.328   2.797   2.820 -1.4613 -0.9943  0.0756
  986SOL     OW14593   3.036   0.525  13.560 -0.1228  0.0954  0.0559
  986SOL    HW114594   2.957   0.563  13.520  0.1329  1.5148  0.9227
  986SOL    HW214595   3.014   0.544  13.651 -0.0312 -0.3958  0.1804
  987SOL     OW14596   3.885   4.161   3.325 -0.0166  0.1240 -0.3129
  987SOL    HW114597   3.843   4.096   3.268  1.6041 -0.4464 -0.8524
  987SOL    HW214598   3.967   4.180   3.280 -0.1996  2.0731  0.1820
  988SOL     OW14599   3.358   2.758   5.381  0.6068  0.6406  0.1333
  988SOL    HW114600   3.348   2.851   5.358  3.8548  0.6437 -1.3477
  988SOL    HW214601   3.269   2.757   5.415  0.4834 -0.6012 -0.2499
  989SOL     OW14602   2.179   4.255   0.526 -0.1371  0.2977 -0.2583
  989SOL    HW114603   2.153   4.272   0.617  0.3279 -1.4081  0.2044
  989SOL    HW214604   2.171   4.159   0.522  2.1277  0.2718 -4.1622
  990SOL     OW14605   0.129   4.033   2.778 -0.3776 -0.3731 -1.0196
  990SOL    HW114606   0.139   3.968   2.709 -0.1779 -2.7225  1.2409
  990SOL    HW214607   0.213   4.077   2.769 -0.8694  0.4657 -1.5653
  991SOL     OW14608   4.699   3.735   2.622  0.4193 -0.0567 -0.3860
  991SOL    HW114609   4.672   3.800   2.557  0.7678 -1.6987 -2.1547
  991SOL    HW214610   0.016   3.686   2.559 -2.6539 -2.0927 -1.3872
  992SOL     OW14611   0.249   2.632   9.138  0.7722 -0.2428  0.1854
  992SOL    HW114612   0.336   2.655   9.106  1.5773 -0.7083  2.1054
  992SOL    HW214613   0.191   2.689   9.086  1.4151  0.2528  0.0070
  993SOL     OW14614   2.564   2.332   0.255  0.1037 -0.1542 -0.0351
  993SOL    HW114615   2.569   2.347   0.161  0.2241  1.2493  0.1878
  993SOL    HW214616   2.487   2.384   0.280  0.6078  0.8963 -0.6752
  994SOL     OW14617   2.765   4.685   8.287  0.0879 -0.2120  0.6797
  994SOL    HW114618   2.784   4.596   8.315 -1.1578 -1.4789 -2.4881
  994SOL    HW214619   2.826   4.691   8.214 -1.8972 -0.5758 -1.0367
  995SOL     OW14620   4.101   0.260  17.654  0.6848  0.4780 -0.3766
  995SOL    HW114621   4.088   0.283  17.562  0.1161  0.9418 -0.1792
  995SOL    HW214622   4.053   0.328  17.702  0.1922 -0.6198  0.6710
  996SOL     OW14623   0.874   0.563   5.076  0.1009  0.0924 -0.1409
  996SOL    HW114624   0.923   0.609   5.145  0.9566  0.0791 -0.7435
  996SOL    HW214625   0.881   0.626   5.004 -1.5519  0.2229 -0.1858
  997SOL     OW14626   1.966   4.275  16.864  0.3172 -0.0163 -0.1611
  997SOL    HW114627   2.026   4.325  16.920  1.5932 -0.3202 -1.2673
  997SOL    HW214628   2.025   4.220  16.813 -1.7143 -0.6998 -1.7526
  998SOL     OW14629   0.654   3.063  13.088 -0.5239 -0.3598 -0.7226
  998SOL    HW114630   0.569   3.028  13.063 -0.9490  1.0714 -1.3254
  998SOL    HW214631   0.695   3.048  13.002  1.3994 -1.0433  0.3179
  999SOL     OW14632   3.742   4.717   1.910 -0.0383  0.3907  0.2704
  999SOL    HW114633   3.812   4.686   1.852 -0.9732  2.2731 -1.8408
  999SOL    HW214634   3.790   0.042   1.966 -0.3984 -0.9885  2.0679
 1000SOL     OW14635   1.839   1.873   8.608 -0.0770 -0.1392 -0.4063
 1000SOL    HW114636   1.848   1.880   8.703 -1.3440 -1.0419 -0.2169
 1000SOL    HW214637   1.910   1.923   8.568  2.7235 -2.7991  1.2732
 1001SOL     OW14638   0.985   1.180   6.776 -0.0137 -0.0610 -0.6659
 1001SOL    HW114639   0.968   1.133   6.694 -1.4310  0.6249 -0.7615
 1001SOL    HW214640   1.051   1.248   6.764 -0.5096  1.1209  3.4751
 1002SOL     OW14641   0.042   1.916   5.444  0.2004  0.0746  0.0803
 1002SOL    HW114642   0.010   2.002   5.471 -1.5120 -0.8417  0.9902
 1002SOL    HW214643   0.015   1.925   5.352  1.3356 -3.4229 -0.6096
 1003SOL     OW14644   4.133   0.842   2.156  0.1534 -0.1763  0.0822
 1003SOL    HW114645   4.039   0.859   2.147  0.3045  1.0921  0.8903
 1003SOL    HW214646   4.136   0.770   2.220  3.7196 -1.2046 -1.2877
 1004SOL     OW14647   1.642   2.459   0.071 -0.2704  0.1081  0.0102
 1004SOL    HW114648   1.561   2.461   0.020  0.0415 -0.7326 -0.5264
 1004SOL    HW214649   1.687   2.535   0.034 -0.4695  0.4286  0.4305
 1005SOL     OW14650   2.978   0.989   3.424  0.1706  0.2184 -0.3523
 1005SOL    HW114651   3.055   0.979   3.480 -0.9985  1.4541  1.4899
 1005SOL    HW214652   2.905   0.976   3.485  0.8011  0.3853  0.4397
 1006SOL     OW14653   1.307   3.590   3.362 -0.3093  0.1325 -0.5581
 1006SOL    HW114654   1.323   3.670   3.311  1.0579 -0.0509 -0.4267
 1006SOL    HW214655   1.212   3.598   3.368 -0.2231 -0.2653  1.2626
 1007SOL     OW14656   3.646   2.143   8.124 -0.9129 -0.2148 -0.1248
 1007SOL    HW114657   3.620   2.083   8.194 -1.8587 -0.7604 -0.9346
 1007SOL    HW214658   3.621   2.225   8.167 -0.2402  0.1715 -0.4816
 1008SOL     OW14659   0.776   1.539   7.018 -0.1182 -0.6592  0.5181
 1008SOL    HW114660   0.777   1.445   7.001  0.1237 -0.5627 -0.0132
 1008SOL    HW214661   0.838   1.540   7.091 -0.9499  1.7361  1.1773
 1009SOL     OW14662   2.860   0.349  15.640  0.2852  0.6516  0.0681
 1009SOL    HW114663   2.950   0.324  15.618  0.2902 -1.0352  2.1068
 1009SOL    HW214664   2.850   0.424  15.581  0.0288 -1.4933 -2.6261
 1010SOL     OW14665   0.960   4.323   3.587  0.5905 -0.2178  0.3720
 1010SOL    HW114666   0.946   4.406   3.632  3.3173 -0.8057  2.3095
 1010SOL    HW214667   0.913   4.279   3.658 -0.1271 -1.3847 -0.8164
 1011SOL     OW14668   1.205   3.242   2.795 -0.0562  0.3649 -0.5107
 1011SOL    HW114669   1.169   3.160   2.828 -0.4156 -0.1954 -2.3097
 1011SOL    HW214670   1.137   3.304   2.823  0.0160 -0.2339  1.0326
 1012SOL     OW14671   0.817   4.607   1.284  0.1158  0.3622  0.0855
 1012SOL    HW114672   0.901   4.569   1.262 -0.2001 -0.0894 -0.3238
 1012SOL    HW214673   0.785   4.627   1.196 -0.0980  2.4936  0.6535
 1013SOL     OW14674   4.315   4.105   4.467 -0.0923 -0.7250 -0.0093
 1013SOL    HW114675   4.248   4.055   4.513  1.0249 -2.3713 -0.1486
 1013SOL    HW214676   4.375   4.037   4.435  1.5838  0.0871  1.3881
 1014SOL     OW14677   3.239   4.441  12.448  0.1682 -0.3696  0.0068
 1014SOL    HW114678   3.242   4.390  12.367  0.9073 -0.1304 -0.1209
 1014SOL    HW214679   3.324   4.406  12.475  0.3057 -0.7496 -0.9149
 1015SOL     OW14680   4.242   3.405  15.046  0.4198 -0.4857  0.7557
 1015SOL    HW114681   4.193   3.353  15.110 -0.4774 -2.1803 -1.3380
 1015SOL    HW214682   4.261   3.335  14.984 -0.9461  0.0422 -0.2504
 1016SOL     OW14683   3.677   1.737   6.647 -0.4107  0.1178  0.5566
 1016SOL    HW114684   3.653   1.825   6.617  2.5143  0.5336 -0.6045
 1016SOL    HW214685   3.672   1.738   6.742 -1.1462  2.3840  0.4932
 1017SOL     OW14686   3.257   2.589   4.562  0.9239  0.3886 -1.0528
 1017SOL    HW114687   3.192   2.654   4.590 -1.9096 -3.0383  0.2977
 1017SOL    HW214688   3.265   2.611   4.470  1.9281  1.6867 -0.6577
 1018SOL     OW14689   1.765   3.171   6.328 -0.4643 -0.0281 -0.2777
 1018SOL    HW114690   1.802   3.128   6.251 -0.4044  0.3959 -0.4858
 1018SOL    HW214691   1.828   3.144   6.395 -1.2843  0.6428  0.7693
 1019SOL     OW14692   1.245   2.981   7.033 -0.4507 -0.0936  0.5014
 1019SOL    HW114693   1.233   3.074   7.052 -0.5558  0.1377 -0.7097
 1019SOL    HW214694   1.215   2.936   7.112 -1.7924  0.4610  0.3147
 1020SOL     OW14695   2.508   0.363   6.513  0.3565  0.4027  0.1318
 1020SOL    HW114696   2.541   0.327   6.596  4.8997 -0.3207 -1.9759
 1020SOL    HW214697   2.576   0.428   6.497  0.0631  0.6003 -0.2888
 1021SOL     OW14698   0.357   3.465   2.389  0.1628  0.2045 -0.3131
 1021SOL    HW114699   0.399   3.518   2.457  0.5456 -0.6599  0.1244
 1021SOL    HW214700   0.352   3.375   2.421  2.1866  0.6724  1.2909
 1022SOL     OW14701   4.012   3.630   7.376 -0.0490 -0.6037 -0.0950
 1022SOL    HW114702   4.017   3.602   7.467  1.9933 -1.7016 -0.5446
 1022SOL    HW214703   4.079   3.699   7.377 -1.4467  0.7487  0.3336
 1023SOL     OW14704   3.743   2.213  12.163 -0.0919  0.1473  0.7126
 1023SOL    HW114705   3.694   2.223  12.245  0.3094 -0.5893  1.0435
 1023SOL    HW214706   3.686   2.252  12.097  1.0673  0.3198 -0.1837
 1024SOL     OW14707   1.174   2.760   8.691 -0.6337  0.4401  0.6667
 1024SOL    HW114708   1.222   2.713   8.760 -0.7352  0.9443  1.0784
 1024SOL    HW214709   1.228   2.729   8.618 -1.9291  1.2686 -0.6144
 1025SOL     OW14710   0.442   0.831   7.502 -0.8199  0.7248 -0.3134
 1025SOL    HW114711   0.491   0.895   7.553  0.3036 -0.0451 -0.4106
 1025SOL    HW214712   0.406   0.769   7.566  0.5917  1.0171  0.7695
 1026SOL     OW14713   3.187   0.245   9.773  0.3015 -0.5116 -0.4793
 1026SOL    HW114714   3.128   0.315   9.801 -0.7805 -1.7064  0.2355
 1026SOL    HW214715   3.146   0.166   9.808  0.1318 -1.6076 -3.1233
 1027SOL     OW14716   0.180   1.071   6.041  0.2657 -0.3537 -0.3502
 1027SOL    HW114717   0.107   1.025   6.083  1.6805 -0.9954  1.4389
 1027SOL    HW214718   0.200   1.011   5.969 -0.7057  0.3255 -1.1770
 1028SOL     OW14719   2.511   4.538   9.354 -0.0982  0.0518 -0.3929
 1028SOL    HW114720   2.580   4.548   9.419 -1.1601 -3.2663  1.2618
 1028SOL    HW214721   2.454   4.610   9.379  1.9643  1.1266  1.1626
 1029SOL     OW14722   4.589   3.285   0.877 -0.4480 -0.7605  0.7605
 1029SOL    HW114723   4.513   3.331   0.842  1.0767  0.7957 -0.5146
 1029SOL    HW214724   4.664   3.342   0.855 -0.2390 -1.3114  0.0383
 1030SOL     OW14725   0.732   1.585   8.907  0.5329  0.5244 -0.6854
 1030SOL    HW114726   0.646   1.578   8.949  1.0690  0.3025  0.3688
 1030SOL    HW214727   0.749   1.679   8.907  0.4340  0.5300  2.1505
 1031SOL     OW14728   1.614   3.321   2.298 -0.1647  0.2777 -0.2840
 1031SOL    HW114729   1.530   3.296   2.338  0.1920 -1.6010 -0.6706
 1031SOL    HW214730   1.673   3.329   2.373  0.1432  2.7230 -0.8122
 1032SOL     OW14731   3.964   3.212  14.909 -0.2857  0.0310 -0.5228
 1032SOL    HW114732   3.876   3.183  14.935  0.8618 -2.5433  0.4395
 1032SOL    HW214733   4.004   3.212  14.996 -1.1600 -0.3254 -0.1199
 1033SOL     OW14734   2.081   3.197   9.104 -0.8363  0.1795  0.0485
 1033SOL    HW114735   2.014   3.128   9.096  0.1470 -0.5205 -2.2747
 1033SOL    HW214736   2.157   3.139   9.097 -0.6978  0.3953 -0.2132
 1034SOL     OW14737   0.058   4.473   3.429  0.1526 -0.0442  0.3862
 1034SOL    HW114738   4.718   4.421   3.402  0.7556 -1.5129  1.5170
 1034SOL    HW214739   0.103   4.416   3.493 -0.8768  0.1342  1.2666
 1035SOL     OW14740   1.455   3.816   6.811  0.5345  0.3326  0.1949
 1035SOL    HW114741   1.518   3.880   6.845  0.2944 -0.4711  2.2042
 1035SOL    HW214742   1.380   3.837   6.866  0.0974 -1.4121  0.2699
 1036SOL     OW14743   2.442   3.149   0.713 -0.2189  0.3501  0.0827
 1036SOL    HW114744   2.370   3.088   0.701  1.0642 -0.6496 -2.4961
 1036SOL    HW214745   2.418   3.212   0.644 -0.3229 -1.7692 -1.7930
 1037SOL     OW14746   3.210   3.129  10.437 -0.0931 -0.1156  0.2802
 1037SOL    HW114747   3.283   3.101  10.493 -0.5341 -1.5205  0.1685
 1037SOL    HW214748   3.139   3.067  10.455 -0.5532  0.1811 -0.5301
 1038SOL     OW14749   1.371   4.552   3.685 -0.4000 -0.1662 -0.3862
 1038SOL    HW114750   1.294   4.580   3.735 -0.6609 -0.9006 -0.3815
 1038SOL    HW214751   1.374   4.457   3.692  2.4019 -0.0609  0.1004
 1039SOL     OW14752   2.438   4.414   2.306 -0.4696 -0.2748 -0.2643
 1039SOL    HW114753   2.350   4.447   2.322 -0.4660 -2.1665  3.6037
 1039SOL    HW214754   2.465   4.375   2.389 -1.8067 -1.1772 -0.2544
 1040SOL     OW14755   0.676   2.068   6.613 -0.0644  0.2424 -0.0193
 1040SOL    HW114756   0.702   1.982   6.579  1.2085  0.5046  0.2840
 1040SOL    HW214757   0.708   2.057   6.703  0.4629 -1.1257 -0.3796
 1041SOL     OW14758   0.765   0.713   3.517 -0.4564 -0.3761 -0.7776
 1041SOL    HW114759   0.815   0.637   3.548  0.6850 -0.3977 -2.6887
 1041SOL    HW214760   0.708   0.745   3.587  2.5478  2.0441  0.5710
 1042SOL     OW14761   0.159   3.178  15.751 -0.0331  0.1495 -0.3664
 1042SOL    HW114762   0.200   3.198  15.835 -1.8020 -0.6340  0.6778
 1042SOL    HW214763   0.119   3.092  15.764 -0.0713 -0.1334 -2.3515
 1043SOL     OW14764   3.765   0.444   8.215 -0.1270  0.2529 -0.3977
 1043SOL    HW114765   3.722   0.522   8.250 -1.4086 -0.6636  0.0360
 1043SOL    HW214766   3.735   0.383   8.282  0.6126  0.5659  0.2225
 1044SOL     OW14767   1.749   4.476   4.450  0.5315 -0.5832 -1.1161
 1044SOL    HW114768   1.790   4.462   4.365 -2.4462 -3.0818 -2.1446
 1044SOL    HW214769   1.659   4.479   4.418  0.5302  0.7118 -0.9876
 1045SOL     OW14770   2.397   2.189  14.109 -0.4557  0.3560  0.1355
 1045SOL    HW114771   2.379   2.283  14.108 -2.8776 -0.1246  0.0754
 1045SOL    HW214772   2.394   2.182  14.204 -0.1367 -1.8072 -0.0244
 1046SOL     OW14773   0.884   0.469  17.218  0.1554  0.4096  0.0897
 1046SOL    HW114774   0.887   0.518  17.136 -1.5936  1.2731  0.5347
 1046SOL    HW214775   0.813   0.405  17.206  0.3915  0.4928 -1.7615
 1047SOL     OW14776   4.622   0.743  11.134 -0.5707  0.4034  0.5894
 1047SOL    HW114777   4.644   0.758  11.226  0.7825  1.8403  0.0312
 1047SOL    HW214778   4.538   0.697  11.131 -2.5598  4.1991 -1.2807
 1048SOL     OW14779   4.247   1.996   5.618  0.2563  0.2002 -0.0314
 1048SOL    HW114780   4.218   1.973   5.707 -0.8062 -2.8663 -1.1774
 1048SOL    HW214781   4.301   1.919   5.598 -0.5806 -0.8036  1.5509
 1049SOL     OW14782   2.046   2.038   8.484  0.3531  0.6803  0.1339
 1049SOL    HW114783   2.018   2.101   8.418  0.3280  0.7767  0.2368
 1049SOL    HW214784   2.057   1.953   8.442  1.6704  0.1520  1.5376
 1050SOL     OW14785   4.397   0.560   1.742 -0.0066  0.3114  0.1004
 1050SOL    HW114786   4.371   0.481   1.694  0.1765  0.5761 -0.4379
 1050SOL    HW214787   4.315   0.601   1.767  0.3760 -0.0838  2.0054
 1051SOL     OW14788   3.481   0.745   0.405 -0.6636 -0.5805  0.2882
 1051SOL    HW114789   3.492   0.806   0.479 -1.9877  1.8310 -1.4895
 1051SOL    HW214790   3.565   0.700   0.403  0.0517  0.9250 -2.5118
 1052SOL     OW14791   1.034   1.076  10.046  0.2328 -0.4493 -0.7444
 1052SOL    HW114792   1.001   1.152  10.094  0.1513 -1.4503  0.7954
 1052SOL    HW214793   1.123   1.095  10.014  1.0087 -0.5584  1.3558
 1053SOL     OW14794   4.497   4.038   2.590  0.4358 -0.4239 -0.4357
 1053SOL    HW114795   4.453   4.055   2.507 -1.2054 -0.6787  0.3840
 1053SOL    HW214796   4.473   3.947   2.601  1.8722 -0.7072  0.4206
 1054SOL     OW14797   4.047   3.043  15.648 -0.2226 -0.5937  0.4238
 1054SOL    HW114798   3.971   3.078  15.601 -1.4245 -1.9466  1.3793
 1054SOL    HW214799   4.046   3.097  15.727 -1.3448  1.0540 -0.7222
 1055SOL     OW14800   0.597   1.447  13.750 -0.5065 -0.8428  0.0869
 1055SOL    HW114801   0.612   1.506  13.676  1.2072  0.8306  1.7805
 1055SOL    HW214802   0.571   1.515  13.812 -0.8429  0.3413 -1.3560
 1056SOL     OW14803   1.291   3.771  11.291 -0.5854  0.1520 -0.2944
 1056SOL    HW114804   1.318   3.772  11.383 -0.4934 -2.1376 -0.2737
 1056SOL    HW214805   1.220   3.834  11.289 -1.2394 -0.5237  1.1127
 1057SOL     OW14806   4.403   0.076   5.064  0.4333  0.3458 -0.0553
 1057SOL    HW114807   4.445   0.008   5.011 -0.4243 -0.4105  0.2367
 1057SOL    HW214808   4.463   0.085   5.138  0.1928  1.0892  0.0538
 1058SOL     OW14809   0.253   2.651   5.632 -0.0854 -0.4905 -0.1322
 1058SOL    HW114810   0.244   2.589   5.559 -1.0137 -1.0535  0.4655
 1058SOL    HW214811   0.281   2.726   5.580  0.0213 -0.0315  0.5971
 1059SOL     OW14812   3.216   2.194   0.401 -0.2770 -0.1271  0.3515
 1059SOL    HW114813   3.161   2.165   0.474  1.5346  0.1544  1.8355
 1059SOL    HW214814   3.270   2.261   0.442  1.4161 -1.2128 -0.1200
 1060SOL     OW14815   4.455   1.472   4.450 -0.5016 -0.7501  0.3274
 1060SOL    HW114816   4.524   1.455   4.514  0.1698 -1.2186 -0.5101
 1060SOL    HW214817   4.382   1.484   4.510  0.4889  1.5226  1.1128
 1061SOL     OW14818   3.761   0.259  16.734 -0.2911 -0.7032  0.0162
 1061SOL    HW114819   3.705   0.181  16.738  1.0122 -1.6525 -0.1805
 1061SOL    HW214820   3.850   0.226  16.747 -0.4022 -0.2987  1.8874
 1062SOL     OW14821   2.972   3.674   1.913 -0.2490 -0.2167 -0.0479
 1062SOL    HW114822   2.897   3.617   1.929 -0.9345  0.7375  0.1237
 1062SOL    HW214823   2.959   3.700   1.822  0.7138  1.4090  0.2697
 1063SOL     OW14824   3.073   2.623   6.894  0.2752 -0.5524  0.3308
 1063SOL    HW114825   3.066   2.527   6.904 -1.4994 -0.5156 -0.5396
 1063SOL    HW214826   3.121   2.631   6.812  0.1282  1.1176  0.4200
 1064SOL     OW14827   0.460   4.438  14.677  0.0072  0.4427  0.1660
 1064SOL    HW114828   0.502   4.440  14.591  0.6680  3.0534  0.5512
 1064SOL    HW214829   0.402   4.514  14.678  0.1336  0.5635 -1.3882
 1065SOL     OW14830   2.194   3.476  11.662  0.9117  0.0910  0.5115
 1065SOL    HW114831   2.252   3.468  11.738  0.1347 -0.8114  1.0126
 1065SOL    HW214832   2.228   3.562  11.636 -3.3454  1.5041 -0.4562
 1066SOL     OW14833   4.696   4.457   3.963  0.2556  0.1319  0.0073
 1066SOL    HW114834   4.696   4.398   3.888  0.5118 -0.8336  0.7617
 1066SOL    HW214835   4.686   4.401   4.040 -1.7113 -2.4955 -2.1610
 1067SOL     OW14836   3.640   4.566  14.854 -0.1106 -0.2727  0.1199
 1067SOL    HW114837   3.645   4.535  14.944 -1.8985 -0.3840  0.1920
 1067SOL    HW214838   3.546   4.580  14.839  0.3776  1.5361 -1.1439
 1068SOL     OW14839   3.830   4.657   2.751  1.0550 -0.1804  0.3212
 1068SOL    HW114840   3.789   4.735   2.787  0.4772 -0.8862  1.1796
 1068SOL    HW214841   3.881   4.633   2.829  0.8884 -0.6429  0.2871
 1069SOL     OW14842   3.929   4.584   4.126 -0.1771 -0.4406 -0.2675
 1069SOL    HW114843   3.951   4.532   4.203  0.4587 -1.3153 -1.0414
 1069SOL    HW214844   3.927   4.515   4.059  0.0877 -3.7460  3.1785
 1070SOL     OW14845   0.725   4.079  16.767 -0.1424  0.1864  0.1991
 1070SOL    HW114846   0.792   4.112  16.827 -0.9236  0.1296  1.0950
 1070SOL    HW214847   0.731   3.988  16.796  2.5298 -0.9686 -4.0426
 1071SOL     OW14848   0.244   1.450   9.573  0.2171 -0.1115  0.2516
 1071SOL    HW114849   0.180   1.432   9.642  1.3511  0.6957  1.5172
 1071SOL    HW214850   0.254   1.543   9.596 -0.5919  0.2301 -0.7872
 1072SOL     OW14851   0.632   2.499   2.148 -0.8955 -0.5465 -0.9352
 1072SOL    HW114852   0.598   2.456   2.069 -0.5199 -1.1647 -0.7634
 1072SOL    HW214853   0.720   2.462   2.149 -1.1131 -1.0759 -1.3959
 1073SOL     OW14854   2.949   4.651   6.964  0.7441  0.7123  0.6913
 1073SOL    HW114855   2.912   4.659   6.877 -0.0230  2.4604  1.1958
 1073SOL    HW214856   2.978   4.559   6.966  0.3330  0.5583 -0.7642
 1074SOL     OW14857   0.502   2.749   4.819  0.4530  0.2372 -0.0934
 1074SOL    HW114858   0.500   2.760   4.724 -1.1987 -0.4341 -0.1230
 1074SOL    HW214859   0.421   2.791   4.846  0.2671 -1.7830  2.5486
 1075SOL     OW14860   0.908   2.246   5.278  0.1495  1.0266  0.0111
 1075SOL    HW114861   0.817   2.268   5.259 -0.1858 -1.0895 -0.7808
 1075SOL    HW214862   0.940   2.239   5.188  0.7334  0.2510  0.2769
 1076SOL     OW14863   2.056   1.392  15.660  0.5161  0.0462  0.4999
 1076SOL    HW114864   2.059   1.477  15.616 -0.4393  1.0320  2.3396
 1076SOL    HW214865   1.985   1.348  15.613  0.2740  1.5573 -0.5448
 1077SOL     OW14866   1.299   3.737   8.662  0.0792  0.0300 -0.3329
 1077SOL    HW114867   1.239   3.665   8.642 -0.7200  0.5547  0.1495
 1077SOL    HW214868   1.237   3.786   8.716  1.2605  1.5389 -0.3457
 1078SOL     OW14869   2.025   0.245   8.309  0.4316 -0.4513 -0.1732
 1078SOL    HW114870   2.116   0.274   8.315  0.0734  0.7945 -0.7053
 1078SOL    HW214871   2.024   0.211   8.220  0.6857 -0.4080 -0.1920
 1079SOL     OW14872   3.141   4.400   1.879 -0.5952  0.3012 -0.2461
 1079SOL    HW114873   3.080   4.381   1.808 -1.1291 -1.5789  0.7144
 1079SOL    HW214874   3.093   4.376   1.958  1.7954  0.5565  1.2903
 1080SOL     OW14875   0.381   0.786   1.636 -0.2544  0.5284 -0.1109
 1080SOL    HW114876   0.336   0.755   1.557 -0.1211 -2.1860  0.8612
 1080SOL    HW214877   0.471   0.790   1.602 -0.2741  1.5491 -0.0481
 1081SOL     OW14878   3.834   2.807   4.695  0.3214  0.1261  0.2804
 1081SOL    HW114879   3.908   2.747   4.688  0.4602  0.6928 -3.2459
 1081SOL    HW214880   3.836   2.810   4.790 -0.0789  3.1887  0.1822
 1082SOL     OW14881   2.006   3.038   4.068  0.2677 -0.1855  0.2363
 1082SOL    HW114882   1.911   3.036   4.080  0.3201  0.0658  0.6898
 1082SOL    HW214883   2.030   2.974   4.135  1.2843  2.1416  2.0842
 1083SOL     OW14884   1.612   1.796   7.260 -0.4791  0.0011  0.1722
 1083SOL    HW114885   1.607   1.853   7.183  3.0512 -1.7445 -1.3540
 1083SOL    HW214886   1.683   1.838   7.308 -0.6014  0.2763  0.1146
 1084SOL     OW14887   3.554   4.119   9.383  0.0981 -0.5140 -0.3574
 1084SOL    HW114888   3.494   4.178   9.338  1.5155  0.9754 -0.2661
 1084SOL    HW214889   3.639   4.162   9.374  1.2076 -2.3808  1.1779
 1085SOL     OW14890   1.809   0.790   1.375  0.0478 -0.3996  0.6703
 1085SOL    HW114891   1.849   0.785   1.288  0.7769 -3.3969  1.1632
 1085SOL    HW214892   1.816   0.697   1.397  1.9694 -0.3344  0.3241
 1086SOL     OW14893   0.445   2.222   6.165  0.1027 -0.2221 -0.1196
 1086SOL    HW114894   0.530   2.267   6.169  0.5659 -0.8520 -2.7364
 1086SOL    HW214895   0.388   2.292   6.195 -0.8838 -1.1649  0.2052
 1087SOL     OW14896   0.283   2.913   4.846 -0.2091 -0.1100 -0.3005
 1087SOL    HW114897   0.218   2.875   4.787 -0.0772  2.2422 -1.9503
 1087SOL    HW214898   0.229   2.922   4.923  0.6723 -2.6645  0.6263
 1088SOL     OW14899   4.175   2.895  15.433  0.5380 -0.0233  0.6004
 1088SOL    HW114900   4.269   2.906  15.445  0.8336 -2.3346  0.3704
 1088SOL    HW214901   4.136   2.960  15.492  1.5560  0.3062  0.9085
 1089SOL     OW14902   1.625   3.298   2.017 -0.3492 -0.2143 -0.1575
 1089SOL    HW114903   1.701   3.356   2.021 -0.4943 -0.1097  1.2361
 1089SOL    HW214904   1.602   3.292   2.110  0.1416  0.0603 -0.0191
 1090SOL     OW14905   4.389   0.628   0.684 -0.2778  0.0829  0.0051
 1090SOL    HW114906   4.406   0.711   0.730 -1.7001  0.2790  0.1804
 1090SOL    HW214907   4.471   0.618   0.635 -1.6834 -2.3941 -1.8015
 1091SOL     OW14908   4.528   1.033   3.806 -0.2337 -0.3938  0.5569
 1091SOL    HW114909   4.486   1.043   3.891  0.3229 -0.0435  0.7941
 1091SOL    HW214910   4.596   1.100   3.811 -1.5318  1.1342 -2.3565
 1092SOL     OW14911   4.537   0.307   7.853 -0.3312  0.4148 -0.0886
 1092SOL    HW114912   4.573   0.345   7.934  0.3877  3.6167 -1.8970
 1092SOL    HW214913   4.444   0.329   7.854 -0.0008  1.7565  0.5189
 1093SOL     OW14914   4.385   3.961   7.850  0.0093 -0.5582  0.5501
 1093SOL    HW114915   4.443   3.977   7.925  0.0737  0.6750  0.2451
 1093SOL    HW214916   4.344   4.047   7.840  0.2712 -0.5353 -0.2597
 1094SOL     OW14917   0.809   1.460   6.363 -0.5622  0.2250  0.6190
 1094SOL    HW114918   0.867   1.405   6.310 -0.3756 -0.6141  1.6862
 1094SOL    HW214919   0.723   1.430   6.334 -0.0031 -0.5840 -0.2184
 1095SOL     OW14920   0.755   2.461  13.252  0.2769 -0.5711 -0.1900
 1095SOL    HW114921   0.773   2.552  13.275  0.6562 -0.6572 -0.1436
 1095SOL    HW214922   0.691   2.442  13.320 -0.3551 -0.4721 -0.7568
 1096SOL     OW14923   0.413   1.656  15.883  0.7969  0.3295  0.2788
 1096SOL    HW114924   0.409   1.593  15.955  0.0919  0.6593  0.5273
 1096SOL    HW214925   0.482   1.713  15.920  0.8881  0.5188 -0.1848
 1097SOL     OW14926   2.981   0.625   9.641  0.4139 -0.2001 -0.3764
 1097SOL    HW114927   2.903   0.569   9.639  0.2253 -0.0113  1.8927
 1097SOL    HW214928   3.031   0.570   9.580  0.0846 -0.9114  0.0021
 1098SOL     OW14929   3.203   0.366   8.507 -0.5028 -0.1665  0.0665
 1098SOL    HW114930   3.142   0.430   8.470  0.5537  0.9910  0.3148
 1098SOL    HW214931   3.236   0.415   8.582  0.5233  0.4152 -0.7603
 1099SOL     OW14932   3.974   4.438  15.389 -0.2200 -0.1482 -0.1859
 1099SOL    HW114933   4.019   4.523  15.380  0.4680 -0.5660 -0.7323
 1099SOL    HW214934   3.905   4.442  15.323  1.4434 -2.4705 -2.0776
 1100SOL     OW14935   0.146   0.372   3.302 -0.2898 -0.0554  0.5010
 1100SOL    HW114936   0.115   0.425   3.376 -1.5295 -1.9701  1.3568
 1100SOL    HW214937   0.166   0.441   3.239  2.7308 -1.1619  0.2296
 1101SOL     OW14938   2.649   4.237   8.053 -0.3260 -0.5596  0.0247
 1101SOL    HW114939   2.661   4.303   7.984 -0.5959 -0.6641 -0.1232
 1101SOL    HW214940   2.557   4.217   8.035 -0.3894 -1.1770  1.0525
 1102SOL     OW14941   4.237   4.073   7.082 -0.9759  0.0379 -0.2907
 1102SOL    HW114942   4.189   4.116   7.010 -1.5954 -0.2825 -0.0716
 1102SOL    HW214943   4.263   4.147   7.136 -1.5069 -0.1260  0.1866
 1103SOL     OW14944   0.529   3.504   5.245 -0.3768 -0.0580  0.4084
 1103SOL    HW114945   0.535   3.465   5.158 -1.3634  2.5159 -0.8181
 1103SOL    HW214946   0.455   3.563   5.229  0.3573  1.3537  2.2041
 1104SOL     OW14947   4.733   4.172   7.836 -0.5916  0.5636 -0.2068
 1104SOL    HW114948   0.010   4.148   7.927 -0.7139  0.4531 -0.2196
 1104SOL    HW214949   0.057   4.114   7.788  0.2738 -0.5582  2.2677
 1105SOL     OW14950   3.333   1.052  15.635  0.1559  0.3376 -0.8516
 1105SOL    HW114951   3.309   1.079  15.723 -0.0092 -1.0259 -0.4726
 1105SOL    HW214952   3.427   1.037  15.635  0.3157  1.4025 -0.1095
 1106SOL     OW14953   0.497   2.837   3.694  0.0528 -0.4841  0.1790
 1106SOL    HW114954   0.501   2.755   3.644 -2.2984 -1.9943  2.5157
 1106SOL    HW214955   0.402   2.853   3.695  0.1785  0.2205  0.5392
 1107SOL     OW14956   0.211   2.308   3.623 -0.0800 -0.0449  0.4818
 1107SOL    HW114957   0.251   2.380   3.574 -0.1015  0.3995  1.1212
 1107SOL    HW214958   0.283   2.245   3.623  0.7074  0.8753  1.7298
 1108SOL     OW14959   2.189   2.364   5.832 -0.0541  0.8597 -0.2706
 1108SOL    HW114960   2.194   2.458   5.850 -0.5024  0.7651  0.3482
 1108SOL    HW214961   2.171   2.327   5.919  1.3268  0.5377 -0.1127
 1109SOL     OW14962   2.599   1.221   5.853  0.2903  0.6042  0.0026
 1109SOL    HW114963   2.553   1.138   5.867  0.0502  1.1308  2.3775
 1109SOL    HW214964   2.676   1.203   5.907 -0.2444  1.5334  1.0771
 1110SOL     OW14965   0.579   3.292   5.500 -0.6346  0.3023  0.6304
 1110SOL    HW114966   0.655   3.259   5.549 -1.6260  0.9726  2.6419
 1110SOL    HW214967   0.617   3.375   5.473  2.3353 -1.1083  0.4249
 1111SOL     OW14968   4.207   3.834   9.168 -0.3845  0.0222  0.0179
 1111SOL    HW114969   4.256   3.917   9.164 -1.2992  0.5575  0.0029
 1111SOL    HW214970   4.149   3.838   9.092 -3.5422 -0.7322  2.4239
 1112SOL     OW14971   0.859   2.372  14.324 -0.2937 -0.4541 -0.0475
 1112SOL    HW114972   0.871   2.397  14.232 -0.2279  0.1904  0.1395
 1112SOL    HW214973   0.848   2.451  14.377  0.0828  0.2125 -0.9702
 1113SOL     OW14974   2.712   4.198   1.310 -0.1396 -0.1875 -0.0853
 1113SOL    HW114975   2.784   4.162   1.258 -0.1702  0.7201 -0.7488
 1113SOL    HW214976   2.690   4.128   1.372  1.3838  0.9176  1.6940
 1114SOL     OW14977   0.734   2.507   6.629  0.2510  0.1700  0.2069
 1114SOL    HW114978   0.782   2.510   6.712 -0.1207  0.2954  0.4195
 1114SOL    HW214979   0.666   2.439   6.629  0.1300  0.2860  1.4946
 1115SOL     OW14980   0.005   3.500   2.491 -0.4059 -0.2727  0.5748
 1115SOL    HW114981   0.063   3.527   2.420  1.0859 -2.1032  1.1012
 1115SOL    HW214982   4.652   3.518   2.456 -0.1169 -0.2591 -0.1515
 1116SOL     OW14983   4.651   2.365  11.354 -0.0598  0.4181  0.1435
 1116SOL    HW114984   4.689   2.284  11.322 -0.3446  1.4203 -2.7622
 1116SOL    HW214985   4.732   2.395  11.396  0.0982  2.0790 -1.3442
 1117SOL     OW14986   3.402   2.128  15.118  0.5907 -0.0686 -0.2198
 1117SOL    HW114987   3.405   2.044  15.072 -1.3575 -0.2778  0.0460
 1117SOL    HW214988   3.465   2.111  15.189  2.0076 -1.0886 -1.7040
 1118SOL     OW14989   2.225   1.705   8.877 -1.1670 -0.1842  0.3104
 1118SOL    HW114990   2.290   1.639   8.852  0.0456  2.2722 -3.1906
 1118SOL    HW214991   2.262   1.750   8.953 -1.4577 -2.3952  1.7575
 1119SOL     OW14992   0.816   3.448   6.351 -0.6478  0.1990 -0.2262
 1119SOL    HW114993   0.822   3.360   6.387 -0.7182 -0.1225 -0.9950
 1119SOL    HW214994   0.836   3.440   6.258  0.4838  4.0582 -0.2959
 1120SOL     OW14995   0.241   0.111   0.176  0.1044 -0.3786 -0.2534
 1120SOL    HW114996   0.325   0.121   0.221 -0.0463  0.4846 -0.1663
 1120SOL    HW214997   0.260   0.018   0.161  1.4372 -0.0656 -0.4710
 1121SOL     OW14998   2.873   4.562  15.474 -0.7401  0.6572 -0.6055
 1121SOL    HW114999   2.902   4.595  15.389  0.8991 -2.2441 -1.1824
 1121SOL    HW215000   2.826   4.638  15.508  0.6106  1.8792 -1.4797
 1122SOL     OW15001   3.066   1.066   2.034  0.0195  0.4833 -0.1759
 1122SOL    HW115002   3.038   1.094   1.947  2.3028 -2.8043 -1.9790
 1122SOL    HW215003   2.994   1.004   2.046 -0.3115  0.7558 -0.7278
 1123SOL     OW15004   2.289   3.514   9.739  0.2274 -0.0424  0.2099
 1123SOL    HW115005   2.370   3.473   9.708  0.1170  0.7733 -1.1672
 1123SOL    HW215006   2.230   3.481   9.672  0.1291  0.2609  0.1487
 1124SOL     OW15007   1.266   4.147   6.586  0.2237 -0.4665  0.0346
 1124SOL    HW115008   1.345   4.094   6.590 -0.2887 -1.0284  2.8427
 1124SOL    HW215009   1.309   4.224   6.622 -1.1081 -0.9059  2.5778
 1125SOL     OW15010   1.909   0.148   3.602 -0.0822 -0.2856  0.5165
 1125SOL    HW115011   1.830   0.130   3.551 -1.1428  0.4877  1.8698
 1125SOL    HW215012   1.927   0.059   3.635 -0.1254 -0.8848 -1.0900
 1126SOL     OW15013   0.527   3.614   3.088  0.1208 -0.1115  0.3564
 1126SOL    HW115014   0.535   3.709   3.101 -1.1832 -0.1055  1.0646
 1126SOL    HW215015   0.614   3.592   3.123  1.3803  2.1052 -1.3604
 1127SOL     OW15016   4.658   3.154  10.815 -0.4853 -0.1011  0.3094
 1127SOL    HW115017   4.647   3.207  10.894 -0.0664  0.6346 -0.1283
 1127SOL    HW215018   4.734   3.100  10.838 -0.9972 -0.2230  1.7164
 1128SOL     OW15019   4.109   4.571   5.483 -0.2779  0.5646  0.4622
 1128SOL    HW115020   4.023   4.609   5.501 -0.5572 -0.9161  2.2175
 1128SOL    HW215021   4.069   4.495   5.439  0.9912  0.4462 -0.4812
 1129SOL     OW15022   4.557   4.160   4.591  0.0721 -0.0000 -0.5231
 1129SOL    HW115023   4.544   4.068   4.613 -0.0934  0.7828  2.6581
 1129SOL    HW215024   4.471   4.158   4.547  0.3703  0.0215 -1.1092
 1130SOL     OW15025   2.101   0.542   9.156  0.2161 -0.1712  0.6788
 1130SOL    HW115026   2.122   0.593   9.078 -1.5716 -0.8703 -0.2697
 1130SOL    HW215027   2.185   0.537   9.201 -1.0160  2.5447  3.2820
 1131SOL     OW15028   3.214   1.706  11.648  0.6417 -0.5196 -0.2199
 1131SOL    HW115029   3.306   1.685  11.629  0.3945 -0.4454 -1.5362
 1131SOL    HW215030   3.225   1.773  11.715  0.3918 -0.9118  0.2099
 1132SOL     OW15031   2.205   2.972   5.013 -0.0623  0.6559  0.5012
 1132SOL    HW115032   2.136   2.997   5.074 -1.5410  3.5871 -2.3403
 1132SOL    HW215033   2.195   2.877   5.013 -0.4009  0.6946  2.5560
 1133SOL     OW15034   4.600   4.123   1.819  0.5141  0.5146 -0.3374
 1133SOL    HW115035   4.630   4.185   1.752  1.2801  1.1054  0.5471
 1133SOL    HW215036   4.605   4.042   1.769  1.4553  0.0657  0.4889
 1134SOL     OW15037   0.008   3.817   4.373  0.3113 -0.0099  0.1661
 1134SOL    HW115038   0.030   3.847   4.461 -0.5600 -1.9632  1.0365
 1134SOL    HW215039   0.066   3.742   4.367  0.5451  0.1934 -0.0895
 1135SOL     OW15040   3.810   2.052   6.516 -0.3507 -0.2265  0.6602
 1135SOL    HW115041   3.890   2.012   6.550 -0.2532  0.5944  1.3892
 1135SOL    HW215042   3.841   2.064   6.427  0.2581 -1.8567  0.6431
 1136SOL     OW15043   1.858   4.660   8.601  0.3238  0.5108  0.1685
 1136SOL    HW115044   1.858   4.688   8.693 -1.5688  0.5697  0.1387
 1136SOL    HW215045   1.767   4.634   8.591  0.1943  1.4159 -0.9611
 1137SOL     OW15046   1.812   1.368   0.720  0.1704  0.0945 -0.0562
 1137SOL    HW115047   1.890   1.314   0.723 -0.8911 -1.4444 -0.0891
 1137SOL    HW215048   1.776   1.321   0.645  3.0599 -2.9653  0.4901
 1138SOL     OW15049   3.286   4.275  14.995 -0.0314  0.2329 -0.0331
 1138SOL    HW115050   3.240   4.291  14.913 -1.2852  1.6761  0.9536
 1138SOL    HW215051   3.291   4.180  14.991  3.3685  0.4299 -0.5788
 1139SOL     OW15052   4.082   2.482   8.132 -0.1654 -0.0776  0.1197
 1139SOL    HW115053   3.995   2.454   8.104  0.1553 -1.0362  0.1035
 1139SOL    HW215054   4.119   2.396   8.150 -1.4344 -0.7679 -0.5466
 1140SOL     OW15055   4.127   2.138  15.344  0.0270 -0.5561  0.2904
 1140SOL    HW115056   4.130   2.223  15.387  1.0754  0.1189 -1.1406
 1140SOL    HW215057   4.116   2.157  15.250  2.4172  1.8036  0.5263
 1141SOL     OW15058   3.138   3.896  10.145  0.3296 -0.1647  0.6711
 1141SOL    HW115059   3.065   3.944  10.185  1.4374  1.6339  0.4961
 1141SOL    HW215060   3.167   3.855  10.226  0.0876 -1.1295  0.2752
 1142SOL     OW15061   2.035   2.354   7.761  0.7412 -0.0497  0.2940
 1142SOL    HW115062   1.995   2.440   7.773 -0.9794 -0.6053 -1.4372
 1142SOL    HW215063   2.037   2.333   7.854 -0.0241 -1.8501 -0.0852
 1143SOL     OW15064   4.605   1.687   3.131  0.5776  0.3486 -0.0817
 1143SOL    HW115065   4.651   1.691   3.215 -0.6636  0.4711  0.5926
 1143SOL    HW215066   4.672   1.652   3.073 -0.0658  0.4382 -0.8704
 1144SOL     OW15067   4.714   3.795  13.844  0.0727  0.3383 -0.3017
 1144SOL    HW115068   4.662   3.774  13.766 -3.1013  0.2743  1.8070
 1144SOL    HW215069   4.680   3.736  13.912 -0.9799  2.0081  0.6315
 1145SOL     OW15070   2.631   1.158  12.647  0.2898 -0.6887 -0.5978
 1145SOL    HW115071   2.590   1.091  12.593 -0.0764 -1.7191  0.9622
 1145SOL    HW215072   2.726   1.149  12.641  0.5882  2.5039 -1.0128
 1146SOL     OW15073   4.684   1.196   7.613  0.2670 -0.4649  0.2321
 1146SOL    HW115074   4.683   1.280   7.566  0.9528  0.1210  1.2713
 1146SOL    HW215075   4.712   1.146   7.536 -1.2227 -3.0662  1.3790
 1147SOL     OW15076   0.781   0.573  13.149 -0.1058  0.2854  0.6361
 1147SOL    HW115077   0.805   0.506  13.212 -0.8970  0.2732  0.9292
 1147SOL    HW215078   0.687   0.559  13.161 -0.5035  1.9181 -0.4189
 1148SOL     OW15079   1.666   3.125   7.785  0.5934  0.0547  0.3425
 1148SOL    HW115080   1.720   3.124   7.863  0.1135  1.4353  0.6906
 1148SOL    HW215081   1.644   3.218   7.773  1.1656  0.4960  2.7580
 1149SOL     OW15082   3.243   0.124   2.530  1.1302 -0.5357  0.0627
 1149SOL    HW115083   3.294   0.044   2.547  3.5413  1.1965  0.9476
 1149SOL    HW215084   3.205   0.102   2.445  0.0879 -2.6061  1.0587
 1150SOL     OW15085   2.079   1.920   4.868  0.0623  0.7689  0.0379
 1150SOL    HW115086   1.987   1.947   4.868 -0.2511 -0.2577 -1.7719
 1150SOL    HW215087   2.089   1.911   4.963  0.2555  2.1133  0.1391
 1151SOL     OW15088   1.413   1.842   4.583 -0.4608  0.5492  0.2211
 1151SOL    HW115089   1.442   1.928   4.611 -0.2239  0.5966 -0.1788
 1151SOL    HW215090   1.417   1.791   4.664 -0.1032 -0.3558 -0.3576
 1152SOL     OW15091   4.447   3.187   4.246  0.0814 -0.0440  0.3183
 1152SOL    HW115092   4.366   3.193   4.298 -0.1211 -0.3925  0.0447
 1152SOL    HW215093   4.479   3.277   4.239  3.2678 -1.2463 -0.1388
 1153SOL     OW15094   0.895   0.010   7.123 -0.3617  0.3629 -0.0311
 1153SOL    HW115095   0.938   4.669   7.084 -1.2013  1.2265 -2.6410
 1153SOL    HW215096   0.810   4.718   7.158 -0.8957 -0.4596 -1.9661
 1154SOL     OW15097   1.912   1.923  10.121  0.0733 -0.0850  0.4320
 1154SOL    HW115098   1.994   1.895  10.080  0.4650  0.2712  0.9822
 1154SOL    HW215099   1.936   1.992  10.183 -2.0528 -0.0020  1.1438
 1155SOL     OW15100   1.252   2.624   7.180 -0.4015  0.5312 -0.2241
 1155SOL    HW115101   1.285   2.624   7.270  2.5743 -1.9573 -1.3122
 1155SOL    HW215102   1.301   2.553   7.138 -0.8608 -0.1089  0.3196
 1156SOL     OW15103   2.438   1.451   6.848 -0.2516 -0.2565 -0.1377
 1156SOL    HW115104   2.418   1.380   6.910 -1.6328 -0.6414 -1.0518
 1156SOL    HW215105   2.534   1.454   6.850 -0.1284 -2.5528 -2.2024
 1157SOL     OW15106   1.801   2.572   5.967  0.1564 -0.4195 -0.3834
 1157SOL    HW115107   1.752   2.619   6.035  0.0241  1.2594 -1.6522
 1157SOL    HW215108   1.887   2.609   5.987 -0.2028 -1.4322  3.1622
 1158SOL     OW15109   2.389   0.515   1.140 -0.4149 -0.2766 -0.5635
 1158SOL    HW115110   2.321   0.474   1.193  0.0423 -0.2072  0.0826
 1158SOL    HW215111   2.404   0.580   1.209  5.6379 -0.2074 -1.9061
 1159SOL     OW15112   1.982   2.934   9.752 -0.0592  0.5353  0.3188
 1159SOL    HW115113   2.055   2.969   9.701 -0.6340  1.5776  0.1932
 1159SOL    HW215114   1.907   2.988   9.724 -0.4472 -0.2356 -0.1137
 1160SOL     OW15115   2.189   0.954   1.418  0.3854 -0.3925 -0.1509
 1160SOL    HW115116   2.228   1.036   1.388  3.4011 -1.7329  0.0526
 1160SOL    HW215117   2.214   0.976   1.508 -0.3766 -1.3990  0.3056
 1161SOL     OW15118   0.277   0.162   3.187 -0.5780 -0.3073 -0.6811
 1161SOL    HW115119   0.235   0.231   3.238 -0.1909  0.7389 -1.7944
 1161SOL    HW215120   0.229   0.079   3.199 -0.8213  0.0352  0.8143
 1162SOL     OW15121   0.400   4.362   7.296  0.4887 -0.5146  0.3321
 1162SOL    HW115122   0.380   4.455   7.306 -1.1412 -0.7835 -0.4579
 1162SOL    HW215123   0.461   4.355   7.369  0.6939 -1.4767  0.0688
 1163SOL     OW15124   3.477   1.506   5.675 -0.1453  0.8979 -0.3216
 1163SOL    HW115125   3.533   1.522   5.599  0.4991  1.2385  0.2319
 1163SOL    HW215126   3.412   1.575   5.665 -0.3537  0.8523  0.7800
 1164SOL     OW15127   3.747   4.634   7.804  0.3526  0.2718  0.0208
 1164SOL    HW115128   3.747   4.636   7.709 -2.5966  0.9782  0.0442
 1164SOL    HW215129   3.705   4.549   7.815  2.2566 -0.8102 -1.2165
 1165SOL     OW15130   1.625   2.187   3.007 -0.3425  0.2045  0.2993
 1165SOL    HW115131   1.671   2.105   2.993  0.5784  0.8379 -0.4470
 1165SOL    HW215132   1.672   2.229   3.079 -0.2194  1.2064 -0.3567
 1166SOL     OW15133   1.194   1.604  17.645 -0.4591  0.2634  0.1816
 1166SOL    HW115134   1.124   1.661  17.614 -0.2316 -0.0975 -0.9994
 1166SOL    HW215135   1.255   1.670  17.679  0.6997  0.0800 -1.5650
 1167SOL     OW15136   2.235   2.630   8.631  0.1521 -0.1466 -0.8811
 1167SOL    HW115137   2.271   2.717   8.645  0.8295 -0.6687  0.5921
 1167SOL    HW215138   2.175   2.649   8.559 -1.0823  0.6954  0.3656
 1168SOL     OW15139   3.861   2.594   6.061 -0.5386 -0.1660 -0.0565
 1168SOL    HW115140   3.871   2.636   5.976 -1.9673 -0.1786 -0.2268
 1168SOL    HW215141   3.894   2.662   6.119 -1.3313  0.8873 -0.8492
 1169SOL     OW15142   1.405   1.546   8.945 -0.5896  0.2866  0.4281
 1169SOL    HW115143   1.391   1.529   8.852  1.7797  0.7256  0.0029
 1169SOL    HW215144   1.496   1.574   8.940 -0.6713  0.4488 -0.1162
 1170SOL     OW15145   0.636   0.871   7.069  0.3595  0.3999  0.4532
 1170SOL    HW115146   0.618   0.840   6.980 -1.0154 -0.4995  1.0519
 1170SOL    HW215147   0.555   0.905   7.106  0.1599  0.5637 -0.1429
 1171SOL     OW15148   3.346   3.023   5.288  0.0456 -0.3308 -0.0068
 1171SOL    HW115149   3.262   3.023   5.244  0.9759  0.4307 -1.7949
 1171SOL    HW215150   3.389   3.098   5.247  0.4672 -0.6515 -0.1529
 1172SOL     OW15151   4.612   2.861   8.059 -0.3273 -0.4165 -0.5800
 1172SOL    HW115152   4.610   2.933   7.996 -1.3421  0.8641  0.9353
 1172SOL    HW215153   4.532   2.818   8.029  0.3676  0.4820 -3.7385
 1173SOL     OW15154   4.680   4.419   3.095  0.3512 -0.1369 -0.1656
 1173SOL    HW115155   4.612   4.439   3.031 -0.6145 -2.0437  0.2535
 1173SOL    HW215156   4.660   4.491   3.155  1.3321 -0.0578  0.0694
 1174SOL     OW15157   1.444   2.903  11.278  0.1482  0.0623 -0.6646
 1174SOL    HW115158   1.393   2.844  11.224  1.4798 -2.5481  0.9328
 1174SOL    HW215159   1.469   2.846  11.351  1.2721  0.3724 -0.8063
 1175SOL     OW15160   1.213   0.026   7.253 -0.0138 -0.0917 -0.9294
 1175SOL    HW115161   1.302   0.052   7.274 -0.4563  1.3185 -0.7892
 1175SOL    HW215162   1.214   4.666   7.257  0.2197 -0.0838 -0.8523
 1176SOL     OW15163   4.008   4.051  15.038  0.0153 -0.2590 -0.4966
 1176SOL    HW115164   3.937   4.065  14.976 -0.9270  0.9931  0.8669
 1176SOL    HW215165   3.977   4.077  15.125  1.2234 -1.1089  0.1884
 1177SOL     OW15166   0.772   3.607   5.645  0.3774 -0.5754  0.2483
 1177SOL    HW115167   0.694   3.595   5.591  0.2174  0.0363  0.3320
 1177SOL    HW215168   0.809   3.677   5.592  0.4937  1.7108  3.2876
 1178SOL     OW15169   2.495   1.572   8.039  0.1116 -0.2257  0.4952
 1178SOL    HW115170   2.443   1.507   7.991 -0.5602  0.9351 -0.3398
 1178SOL    HW215171   2.469   1.656   8.002  1.3665 -0.0255  0.0674
 1179SOL     OW15172   1.344   4.044  16.766  0.8178  0.0345 -0.0388
 1179SOL    HW115173   1.377   4.059  16.855 -0.1607  2.0021 -0.0070
 1179SOL    HW215174   1.251   4.030  16.782  1.0942  0.7238  2.1492
 1180SOL     OW15175   2.520   3.266  16.546 -0.4320  0.6776  0.3002
 1180SOL    HW115176   2.592   3.294  16.490 -0.2285  0.2983  0.3729
 1180SOL    HW215177   2.447   3.288  16.489  0.2470  2.3153  0.0796
 1181SOL     OW15178   4.124   2.138  11.943 -0.9380 -0.2343  0.3397
 1181SOL    HW115179   4.071   2.183  12.008  0.2008 -0.7553  1.6190
 1181SOL    HW215180   4.189   2.094  11.999  0.0335 -0.3776 -0.8969
 1182SOL     OW15181   3.194   2.217   5.371  0.2713 -0.2773 -0.3640
 1182SOL    HW115182   3.249   2.154   5.325  1.1374  0.5949 -0.5251
 1182SOL    HW215183   3.113   2.198   5.323 -0.3890  1.1473  0.2030
 1183SOL     OW15184   3.490   3.913   6.055 -0.4242 -0.1965 -0.1648
 1183SOL    HW115185   3.395   3.924   6.065 -0.6026 -1.8510 -0.0801
 1183SOL    HW215186   3.519   3.872   6.137 -1.1941  1.5203  0.9889
 1184SOL     OW15187   0.957   3.907   9.294 -0.8746  0.5159 -0.1021
 1184SOL    HW115188   1.023   3.838   9.286 -0.1432  1.2390 -0.3899
 1184SOL    HW215189   0.934   3.901   9.201 -0.8354 -0.4074 -0.0499
 1185SOL     OW15190   3.346   2.973   7.905 -0.1124 -0.3012 -0.4066
 1185SOL    HW115191   3.350   2.911   7.977 -1.1963 -2.0847 -1.8932
 1185SOL    HW215192   3.296   3.050   7.934  0.8076 -0.4248  1.4522
 1186SOL     OW15193   0.512   1.626   3.974  0.2516  0.1444 -0.2876
 1186SOL    HW115194   0.544   1.713   3.998 -0.3059 -0.2210  1.7996
 1186SOL    HW215195   0.589   1.583   4.010 -0.4077  1.4877  2.6864
 1187SOL     OW15196   0.877   2.612   9.189  0.1325  0.2351 -0.3314
 1187SOL    HW115197   0.904   2.671   9.260  0.8697 -0.3377 -0.1412
 1187SOL    HW215198   0.784   2.594   9.204  0.0494  1.0595  0.1424
 1188SOL     OW15199   0.675   4.039   4.329 -0.7488 -0.7075 -0.1155
 1188SOL    HW115200   0.723   4.103   4.381 -0.0587 -0.6522 -0.8187
 1188SOL    HW215201   0.603   4.095   4.301 -1.9741 -2.1390  0.1548
 1189SOL     OW15202   1.958   3.211   9.456 -0.1467  0.7880 -0.5122
 1189SOL    HW115203   1.900   3.194   9.529  0.2815  1.9297  0.0958
 1189SOL    HW215204   1.958   3.126   9.413 -0.6450  0.2210  0.6237
 1190SOL     OW15205   2.517   3.869   4.437  0.1704 -0.0206 -0.0791
 1190SOL    HW115206   2.520   3.937   4.504 -0.2777 -1.4666  1.3928
 1190SOL    HW215207   2.565   3.796   4.477 -0.8522 -0.6763 -0.0585
 1191SOL     OW15208   0.604   1.764   1.273 -0.1445 -0.2692 -0.7255
 1191SOL    HW115209   0.632   1.694   1.332  2.1353  0.1113 -1.3621
 1191SOL    HW215210   0.523   1.783   1.319  0.9195 -2.8767  2.1941
 1192SOL     OW15211   2.761   2.334   0.848  0.1670  0.3694 -0.1628
 1192SOL    HW115212   2.730   2.424   0.837 -1.3495  0.0094  1.1667
 1192SOL    HW215213   2.776   2.312   0.756  0.6814  0.0408  0.0061
 1193SOL     OW15214   2.593   1.836   8.577  0.1323  0.3277  0.1245
 1193SOL    HW115215   2.639   1.791   8.648 -1.9297 -1.3340  0.3860
 1193SOL    HW215216   2.520   1.881   8.620 -0.2636 -0.7214  0.5320
 1194SOL     OW15217   1.559   3.856  14.275  0.0576  0.0612 -0.1046
 1194SOL    HW115218   1.645   3.821  14.251 -0.2971 -0.6835 -0.2691
 1194SOL    HW215219   1.535   3.790  14.339  1.3016 -0.6410 -0.3620
 1195SOL     OW15220   3.226   4.542   5.343  0.0687 -0.0704 -0.0592
 1195SOL    HW115221   3.210   4.528   5.250 -1.2474  1.8263 -0.1039
 1195SOL    HW215222   3.315   4.575   5.360 -0.6340  0.4971  2.4922
 1196SOL     OW15223   4.163   0.383   9.872  0.1559 -0.1169 -0.3847
 1196SOL    HW115224   4.242   0.332   9.854 -0.0072 -0.6679  0.4397
 1196SOL    HW215225   4.168   0.452   9.806  0.2408  1.1649  0.9498
 1197SOL     OW15226   1.599   1.483   2.693 -0.1166 -0.1442 -0.4038
 1197SOL    HW115227   1.610   1.417   2.762  1.4636 -1.1278 -1.5845
 1197SOL    HW215228   1.598   1.432   2.612  1.8974  1.6298 -1.5349
 1198SOL     OW15229   3.549   0.331   1.804 -0.4350  0.3653  0.2821
 1198SOL    HW115230   3.535   0.401   1.867 -1.5715  1.4998 -1.2168
 1198SOL    HW215231   3.643   0.343   1.792 -0.6908  1.4364 -0.6439
 1199SOL     OW15232   2.734   1.393   8.917 -0.5758 -0.1377  0.3797
 1199SOL    HW115233   2.697   1.324   8.972 -0.7073 -1.1201 -0.9337
 1199SOL    HW215234   2.725   1.466   8.978  0.1331  0.7130 -0.5328
 1200SOL     OW15235   2.005   0.418   1.027 -0.2905  0.2117  0.6127
 1200SOL    HW115236   2.002   0.446   1.119  2.0719  0.3018  0.6540
 1200SOL    HW215237   2.088   0.460   1.008  0.8896 -0.6363  3.8491
 1201SOL     OW15238   0.197   1.468   9.040 -0.4366 -0.5794  0.1751
 1201SOL    HW115239   0.214   1.376   9.019 -0.6752 -0.6951  0.5002
 1201SOL    HW215240   0.276   1.509   9.005 -2.4141  2.2525 -0.9777
 1202SOL     OW15241   2.817   1.002  12.366 -0.0459  0.6153 -0.6364
 1202SOL    HW115242   2.802   1.053  12.287  0.6483 -0.5048 -1.4915
 1202SOL    HW215243   2.908   0.971  12.357  0.7244  2.1966  1.7146
 1203SOL     OW15244   0.348   2.017   8.967  0.3427 -0.7490  0.2547
 1203SOL    HW115245   0.419   1.986   8.910  1.0920  0.2896  0.6248
 1203SOL    HW215246   0.310   2.077   8.904  1.8743  1.0972  1.0938
 1204SOL     OW15247   3.967   1.416   6.339  0.4294 -0.1320  0.7533
 1204SOL    HW115248   3.958   1.500   6.292 -0.5812 -0.4138  0.4425
 1204SOL    HW215249   3.917   1.433   6.419 -1.8374 -0.9026 -0.4768
 1205SOL     OW15250   4.054   1.345   5.153 -0.5436  0.8695 -0.2847
 1205SOL    HW115251   3.991   1.288   5.110  1.2093 -0.7321 -0.6942
 1205SOL    HW215252   3.998   1.423   5.149 -3.5033 -1.2088  0.7080
 1206SOL     OW15253   0.110   2.380   4.675  0.5492 -0.0858  0.0090
 1206SOL    HW115254   0.082   2.458   4.627 -0.6633 -0.3085  0.3491
 1206SOL    HW215255   0.204   2.396   4.677  0.1399  2.2517  0.1008
 1207SOL     OW15256   4.565   2.487  16.342 -0.1719  0.3585  0.1702
 1207SOL    HW115257   4.573   2.581  16.323  1.3615  0.1118 -0.4108
 1207SOL    HW215258   4.656   2.464  16.362  0.4187  1.8060 -0.8876
 1208SOL     OW15259   0.873   3.979  16.559  0.1989 -0.0985 -0.3687
 1208SOL    HW115260   0.800   3.923  16.532 -0.3686  0.8513 -0.8145
 1208SOL    HW215261   0.830   4.045  16.613 -2.6549 -3.7112  1.8073
 1209SOL     OW15262   1.524   1.017   9.293 -0.5723 -1.0472  0.0067
 1209SOL    HW115263   1.467   1.009   9.216 -1.5353  4.2205  0.2003
 1209SOL    HW215264   1.607   1.002   9.248 -1.5204  0.6233 -2.3420
 1210SOL     OW15265   0.091   0.726   7.635  0.3505 -0.1148 -0.3276
 1210SOL    HW115266   0.106   0.726   7.541 -2.1955  0.3039 -0.7323
 1210SOL    HW215267   0.035   0.648   7.639  1.6255 -0.9419  1.5602
 1211SOL     OW15268   3.349   1.836   4.873  0.4096 -0.8053 -0.6761
 1211SOL    HW115269   3.396   1.874   4.946 -0.1607  0.1534 -0.8107
 1211SOL    HW215270   3.353   1.899   4.802 -1.0020 -1.8180 -1.6714
 1212SOL     OW15271   0.479   1.673  17.492 -0.1749 -0.0950 -0.3822
 1212SOL    HW115272   0.405   1.661  17.552 -0.5967  1.2775 -0.6330
 1212SOL    HW215273   0.552   1.636  17.542  2.6209  1.5282 -3.2672
 1213SOL     OW15274   1.788   0.767   3.930 -0.0370  0.0289 -0.1566
 1213SOL    HW115275   1.739   0.841   3.894  0.9687  0.3462 -0.8597
 1213SOL    HW215276   1.808   0.730   3.844 -0.3277 -1.0086  0.2202
 1214SOL     OW15277   3.267   4.679  11.040 -0.0245  0.2354 -0.0498
 1214SOL    HW115278   3.208   4.685  11.116 -0.1109  1.6752 -0.2298
 1214SOL    HW215279   3.205   4.678  10.968  1.3442 -1.5173 -1.2041
 1215SOL     OW15280   3.498   4.600   6.246 -0.4042 -0.8127  0.3064
 1215SOL    HW115281   3.460   4.668   6.190  1.4004  1.0206  1.3168
 1215SOL    HW215282   3.581   4.583   6.202 -0.6791 -0.5076 -0.3244
 1216SOL     OW15283   0.172   0.053   5.647  0.6883 -0.8880 -0.2860
 1216SOL    HW115284   0.157   0.021   5.737  1.5232  1.7134  0.7667
 1216SOL    HW215285   0.099   0.017   5.596  0.8970 -1.7616  0.0210
 1217SOL     OW15286   2.566   0.316   4.175 -0.2081  0.2596  0.1874
 1217SOL    HW115287   2.475   0.293   4.196 -0.0735 -0.8944 -0.4938
 1217SOL    HW215288   2.596   0.232   4.140 -0.6907 -0.8237  2.3417
 1218SOL     OW15289   0.492   2.542   5.293 -0.1937  0.0365 -0.1248
 1218SOL    HW115290   0.521   2.476   5.355 -3.5341 -2.2403 -0.9728
 1218SOL    HW215291   0.571   2.557   5.240  0.1788 -0.4495  0.3021
 1219SOL     OW15292   3.784   4.301   6.782  0.2795 -0.3081 -0.6336
 1219SOL    HW115293   3.760   4.378   6.730  0.6578  1.2208  1.4264
 1219SOL    HW215294   3.739   4.329   6.862 -1.3276  0.2128 -1.7191
 1220SOL     OW15295   2.412   1.952  13.662  0.6148  0.0323 -0.1496
 1220SOL    HW115296   2.332   1.992  13.694 -0.1720 -1.1006 -0.6811
 1220SOL    HW215297   2.384   1.864  13.636  0.5104  0.7482 -2.5175
 1221SOL     OW15298   2.338   3.055  13.694  0.4186 -0.3854 -0.3271
 1221SOL    HW115299   2.431   3.079  13.699  0.6920 -1.1730 -1.6832
 1221SOL    HW215300   2.345   2.964  13.666  0.0277  0.4903 -3.2433
 1222SOL     OW15301   3.659   3.942   8.286 -0.1934  0.9250  0.4666
 1222SOL    HW115302   3.659   3.925   8.380 -0.6287  0.9231  0.4682
 1222SOL    HW215303   3.716   4.019   8.293  0.2028  0.6950 -0.2356
 1223SOL     OW15304   3.477   3.716   5.868 -0.5181 -0.3832 -0.2000
 1223SOL    HW115305   3.556   3.749   5.825 -1.0744  2.3911  0.9244
 1223SOL    HW215306   3.501   3.738   5.958  0.4830  2.5360 -1.1558
 1224SOL     OW15307   3.517   0.700   7.881 -1.3051 -0.0304  0.0624
 1224SOL    HW115308   3.529   0.613   7.918  0.6808  0.1387 -0.1856
 1224SOL    HW215309   3.568   0.756   7.940 -2.2491 -0.5598  1.3988
 1225SOL     OW15310   3.872   4.593   1.438  0.0703  0.5837 -0.0077
 1225SOL    HW115311   3.947   4.574   1.382  1.5671  2.0756  1.4841
 1225SOL    HW215312   3.807   4.608   1.370  3.3527  1.4687 -2.9624
 1226SOL     OW15313   3.207   0.117   8.260 -0.3963 -0.1353  0.2016
 1226SOL    HW115314   3.223   0.089   8.170  0.2196 -1.1714  0.6334
 1226SOL    HW215315   3.296   0.137   8.290  0.1424  1.8487 -2.7673
 1227SOL     OW15316   2.022   3.777   3.203 -0.2796  0.0742 -0.5769
 1227SOL    HW115317   2.090   3.781   3.270 -2.2975  2.1880  1.3651
 1227SOL    HW215318   2.019   3.683   3.184 -0.3965  0.3169 -1.7701
 1228SOL     OW15319   0.370   1.122   8.630 -0.1595 -0.6026  0.6525
 1228SOL    HW115320   0.277   1.142   8.639 -0.4873 -2.5020  1.4623
 1228SOL    HW215321   0.402   1.208   8.603 -1.7970  0.3554  1.7228
 1229SOL     OW15322   2.916   3.305   4.562 -0.1013  0.4966  0.0890
 1229SOL    HW115323   3.006   3.303   4.528 -0.0906  3.4121 -0.0582
 1229SOL    HW215324   2.895   3.390   4.525  3.8507  1.5689  0.2470
 1230SOL     OW15325   1.018   4.275  17.702  0.3773 -0.1985  0.5502
 1230SOL    HW115326   0.949   4.336  17.679 -1.8943 -2.8430  0.3835
 1230SOL    HW215327   1.100   4.325  17.696 -0.6135  1.4041  0.6451
 1231SOL     OW15328   2.512   2.497   8.784 -0.2601  0.3674 -0.2136
 1231SOL    HW115329   2.594   2.545   8.792  0.0185  0.1450 -1.7944
 1231SOL    HW215330   2.545   2.408   8.773 -2.4087 -0.4752  0.0938
 1232SOL     OW15331   3.341   0.719   8.573  0.6073  0.4716 -0.2925
 1232SOL    HW115332   3.293   0.696   8.494  0.8135  0.8631 -0.5296
 1232SOL    HW215333   3.413   0.773   8.538  1.1307  1.2818  2.0322
 1233SOL     OW15334   3.143   4.137   6.752 -0.8079  0.3484  0.0995
 1233SOL    HW115335   3.221   4.111   6.705 -0.9529  2.5316 -1.3425
 1233SOL    HW215336   3.182   4.161   6.836 -2.2535 -2.5562  1.6001
 1234SOL     OW15337   4.327   3.222   5.855  0.3199 -0.3664 -0.3432
 1234SOL    HW115338   4.405   3.217   5.911 -0.4382 -1.0302  0.6468
 1234SOL    HW215339   4.372   3.246   5.774  0.1831 -1.1975 -0.6675
 1235SOL     OW15340   4.170   1.234   0.053 -0.1408  0.3196 -0.1667
 1235SOL    HW115341   4.244   1.251  17.736  0.2799  1.0565  0.5820
 1235SOL    HW215342   4.222   1.214   0.131 -2.1021 -0.5724  0.9460
 1236SOL     OW15343   1.083   3.201  13.106  0.1564 -0.3094  0.5250
 1236SOL    HW115344   1.064   3.268  13.171  1.1208  1.3929 -0.9437
 1236SOL    HW215345   1.026   3.131  13.139 -0.4611 -0.0222  0.0757
 1237SOL     OW15346   1.228   4.440   8.653 -0.3217  0.2582 -0.1981
 1237SOL    HW115347   1.264   4.358   8.688 -0.4036  1.0354  1.7226
 1237SOL    HW215348   1.143   4.441   8.696 -0.0622 -0.1996  0.3299
 1238SOL     OW15349   4.013   3.236   9.726 -0.1776 -0.0001 -0.1972
 1238SOL    HW115350   3.932   3.226   9.676  0.0718  0.7585 -0.7506
 1238SOL    HW215351   4.007   3.330   9.743 -1.6210  0.0441 -0.9044
 1239SOL     OW15352   2.470   0.742   4.325 -1.0784  0.3683  0.8090
 1239SOL    HW115353   2.535   0.801   4.287 -1.1306 -1.0065 -1.4367
 1239SOL    HW215354   2.533   0.678   4.357  0.8594  2.2205  0.6625
 1240SOL     OW15355   3.884   2.153   3.340 -0.3575 -0.0646  0.3850
 1240SOL    HW115356   3.873   2.059   3.324  3.6528 -0.2619 -1.2091
 1240SOL    HW215357   3.920   2.186   3.258 -1.3902  1.3427  0.5007
 1241SOL     OW15358   2.998   1.027   2.716  0.0803  0.2936  0.1924
 1241SOL    HW115359   2.927   0.965   2.700  1.3850 -1.6327  1.8524
 1241SOL    HW215360   3.066   0.990   2.661 -0.6315 -2.6892  1.3141
 1242SOL     OW15361   2.552   4.626   3.941  1.2193 -0.1489  0.3455
 1242SOL    HW115362   2.580   4.715   3.921  1.5040  0.1653  2.2439
 1242SOL    HW215363   2.535   4.615   4.034  0.6811 -0.0525  0.2581
 1243SOL     OW15364   0.449   0.558   8.473 -0.4226 -0.8519 -0.0371
 1243SOL    HW115365   0.470   0.593   8.386  2.0398  1.7330  1.6158
 1243SOL    HW215366   0.520   0.494   8.476  0.6011  0.2909  0.1492
 1244SOL     OW15367   3.103   4.540  14.910  0.0707 -0.5822 -0.1271
 1244SOL    HW115368   3.102   4.451  14.875  0.2431 -0.5983 -0.0932
 1244SOL    HW215369   3.054   4.532  14.992 -2.1370 -1.6096 -1.5592
 1245SOL     OW15370   1.462   3.819  10.362 -0.0887  0.2986  0.0171
 1245SOL    HW115371   1.453   3.746  10.423  1.1881  0.6650  0.6460
 1245SOL    HW215372   1.451   3.893  10.423  0.2642  1.5539 -1.4348
 1246SOL     OW15373   3.852   3.333   3.831  0.1908 -0.4450  0.1893
 1246SOL    HW115374   3.847   3.385   3.910 -1.3573 -0.1475 -0.1079
 1246SOL    HW215375   3.767   3.354   3.792  0.3713 -1.0029 -0.5133
 1247SOL     OW15376   2.219   0.245   5.395 -0.4698 -0.1139  0.1810
 1247SOL    HW115377   2.301   0.196   5.388 -0.7710 -0.6864  0.5912
 1247SOL    HW215378   2.179   0.217   5.312  2.6468 -0.6223 -1.1389
 1248SOL     OW15379   3.383   4.307   9.276 -0.3120 -0.3937  0.2651
 1248SOL    HW115380   3.408   4.306   9.184 -1.8373  0.7512 -0.1646
 1248SOL    HW215381   3.292   4.333   9.262 -0.6257 -1.7786 -0.3138
 1249SOL     OW15382   2.842   0.451   1.973  0.4076  0.3094 -0.1117
 1249SOL    HW115383   2.791   0.485   1.899 -2.0406 -0.7179  1.1238
 1249SOL    HW215384   2.903   0.525   1.977  2.7543 -1.6294 -0.5985
 1250SOL     OW15385   3.080   3.311  11.310  0.2960 -0.2634  0.0051
 1250SOL    HW115386   3.030   3.363  11.373 -1.9766 -0.3838 -1.6598
 1250SOL    HW215387   3.110   3.237  11.363 -1.1089  0.1061  1.3229
 1251SOL     OW15388   3.511   4.404   3.258 -0.2387  0.6320 -0.1730
 1251SOL    HW115389   3.543   4.484   3.215  2.3800  0.1065  0.8026
 1251SOL    HW215390   3.478   4.348   3.188  0.1758 -1.4521  1.3104
 1252SOL     OW15391   3.538   3.334  14.816  0.0396 -0.1450 -0.4073
 1252SOL    HW115392   3.558   3.418  14.858  0.3471 -1.4787  2.1141
 1252SOL    HW215393   3.502   3.280  14.886 -1.8834  3.0690  1.0779
 1253SOL     OW15394   3.660   1.796   1.686  0.3730 -0.6392  0.1423
 1253SOL    HW115395   3.655   1.799   1.781 -3.5562 -0.6488 -0.0462
 1253SOL    HW215396   3.574   1.760   1.665  0.1873 -0.9635  1.5036
 1254SOL     OW15397   1.117   4.521   4.255 -0.6847  0.2430  0.0862
 1254SOL    HW115398   1.163   4.578   4.316  0.5247 -0.8161  0.1723
 1254SOL    HW215399   1.121   4.573   4.175  0.5150 -0.8962 -0.5880
 1255SOL     OW15400   0.747   0.609   7.982  0.6276 -0.2505 -0.0827
 1255SOL    HW115401   0.816   0.634   8.045 -0.6424  0.8984  0.8598
 1255SOL    HW215402   0.728   0.518   8.005  1.0845 -0.2659  0.2356
 1256SOL     OW15403   2.119   1.135   3.258  0.0439 -0.5611 -0.0617
 1256SOL    HW115404   2.025   1.122   3.274 -0.3660  2.0170 -0.4072
 1256SOL    HW215405   2.125   1.077   3.182 -1.2599 -1.8773  0.8514
 1257SOL     OW15406   1.374   0.815   7.868 -0.4163 -0.2213  0.1520
 1257SOL    HW115407   1.375   0.871   7.791 -0.1974  0.4732  0.6652
 1257SOL    HW215408   1.389   0.868   7.946  1.2148 -1.7279  0.8659
 1258SOL     OW15409   1.489   2.771  11.797 -0.2736 -0.3094 -0.0149
 1258SOL    HW115410   1.538   2.707  11.849 -0.8694 -1.0517 -0.3612
 1258SOL    HW215411   1.486   2.842  11.861 -0.4112  2.5411 -3.2084
 1259SOL     OW15412   1.860   0.748   6.403 -0.1035  0.4369  0.1391
 1259SOL    HW115413   1.785   0.703   6.364  0.4359 -1.4276  1.2284
 1259SOL    HW215414   1.929   0.686   6.379  0.5819  1.4935 -0.5935
 1260SOL     OW15415   1.609   3.468   5.113  0.0502  0.8393 -0.2423
 1260SOL    HW115416   1.598   3.524   5.035 -1.8530  2.5743  1.2662
 1260SOL    HW215417   1.610   3.535   5.181  2.2396  0.7255 -0.1823
 1261SOL     OW15418   0.953   2.454   3.418  0.4221 -0.6211  0.1685
 1261SOL    HW115419   0.859   2.448   3.433  0.4552 -0.0096  0.6352
 1261SOL    HW215420   0.960   2.383   3.355 -1.3608 -0.6833  0.0604
 1262SOL     OW15421   2.931   0.991  16.467  0.5834  0.0802 -0.5607
 1262SOL    HW115422   2.850   1.037  16.446 -0.0682 -1.5892 -1.7033
 1262SOL    HW215423   2.908   0.940  16.544  0.4700  1.7000  0.4709
 1263SOL     OW15424   2.391   1.395   1.741 -0.0488 -0.1279 -0.2540
 1263SOL    HW115425   2.456   1.360   1.680 -0.8298 -2.7913  0.4740
 1263SOL    HW215426   2.312   1.401   1.686  0.4005  0.9068 -0.7988
 1264SOL     OW15427   4.092   2.827  17.369 -0.1880 -0.4079  0.2959
 1264SOL    HW115428   4.107   2.733  17.376 -0.4811 -0.5676 -1.3865
 1264SOL    HW215429   3.997   2.819  17.367 -0.3190  1.0641  0.5314
 1265SOL     OW15430   3.370   1.012   7.332  0.5106 -0.3547  0.0765
 1265SOL    HW115431   3.446   0.966   7.298  0.2312  0.0076 -1.0424
 1265SOL    HW215432   3.339   0.942   7.389  0.0720  0.4387  0.8240
 1266SOL     OW15433   2.255   1.399   5.236 -0.2431 -0.1864 -0.3184
 1266SOL    HW115434   2.304   1.384   5.317  0.2424  2.9770 -0.0284
 1266SOL    HW215435   2.250   1.315   5.192 -0.9514  0.2637 -1.0912
 1267SOL     OW15436   4.722   1.245   9.164 -0.2844  0.4380 -0.0154
 1267SOL    HW115437   4.718   1.209   9.253 -1.7645  0.5802 -0.0309
 1267SOL    HW215438   0.073   1.209   9.144 -0.2468 -0.0656  1.0252
 1268SOL     OW15439   0.105   1.932   3.814 -0.3619 -0.4677 -0.3222
 1268SOL    HW115440   0.062   1.856   3.851 -0.3052 -0.5332 -0.3903
 1268SOL    HW215441   0.057   1.941   3.731 -0.0963  1.1309 -0.3015
 1269SOL     OW15442   1.839   2.786   7.596 -0.1991  0.0549 -0.2261
 1269SOL    HW115443   1.924   2.829   7.582  0.5709 -0.6005  2.3902
 1269SOL    HW215444   1.773   2.847   7.563  2.0724  2.7730  0.2045
 1270SOL     OW15445   4.283   3.190  10.233  0.0563  0.1681  0.6319
 1270SOL    HW115446   4.322   3.133  10.167  1.6700  2.1976 -0.1367
 1270SOL    HW215447   4.262   3.271  10.187 -1.9323 -0.7473 -0.0591
 1271SOL     OW15448   3.911   2.298  12.438 -0.2221 -0.0977  0.3789
 1271SOL    HW115449   3.886   2.254  12.356 -2.2881  2.7380 -0.5079
 1271SOL    HW215450   3.879   2.243  12.509  0.9594 -0.5262  0.5729
 1272SOL     OW15451   3.276   3.631   2.076  1.0106 -0.1364  0.3636
 1272SOL    HW115452   3.204   3.615   2.016  0.4513  3.1417  0.1229
 1272SOL    HW215453   3.229   3.589   2.148  2.2939  2.0115  2.4912
 1273SOL     OW15454   3.414   2.168  13.105  0.3917 -0.4626 -0.2195
 1273SOL    HW115455   3.440   2.184  13.196  0.9560  0.1100 -0.4804
 1273SOL    HW215456   3.491   2.128  13.064 -0.1509 -3.1060  1.3642
 1274SOL     OW15457   0.743   1.490   5.067  0.3846 -0.1899  0.3141
 1274SOL    HW115458   0.838   1.499   5.059  0.2872  2.2054  2.1020
 1274SOL    HW215459   0.707   1.533   4.990  0.2104  0.1848  0.6075
 1275SOL     OW15460   1.559   4.027   9.545  0.4138  0.0943 -0.0652
 1275SOL    HW115461   1.586   4.081   9.620  1.2947 -1.1375  0.5161
 1275SOL    HW215462   1.468   4.053   9.534  0.9488  1.0385 -2.2751
 1276SOL     OW15463   0.628   0.829   1.558 -0.5574  0.6780  0.2403
 1276SOL    HW115464   0.714   0.833   1.516 -0.6199 -1.7108 -0.0784
 1276SOL    HW215465   0.644   0.767   1.630 -0.7492 -1.4263 -1.5336
 1277SOL     OW15466   0.582   1.927   7.469 -0.1417  0.0869 -0.4773
 1277SOL    HW115467   0.591   1.848   7.521 -1.6736  0.7164  0.7640
 1277SOL    HW215468   0.585   1.994   7.538 -1.1209 -0.2335 -0.1170
 1278SOL     OW15469   4.438   4.090   5.834 -0.3687 -0.2637  0.0582
 1278SOL    HW115470   4.442   4.006   5.790 -0.9945 -1.8521  3.0656
 1278SOL    HW215471   4.350   4.097   5.870 -0.2639 -0.6291  0.3846
 1279SOL     OW15472   4.244   0.459   0.529 -0.5627 -0.4142  0.3054
 1279SOL    HW115473   4.287   0.505   0.601  1.3986  1.6475 -2.1750
 1279SOL    HW215474   4.168   0.418   0.571 -0.9753 -2.3221 -2.2959
 1280SOL     OW15475   3.816   0.166  17.484  0.7372  0.5486 -0.4908
 1280SOL    HW115476   3.892   0.215  17.453 -0.1413  2.4954  0.3876
 1280SOL    HW215477   3.790   0.229  17.552  1.2882 -0.4587  0.6599
 1281SOL     OW15478   3.240   2.025   1.374  0.6992 -0.1833  0.3578
 1281SOL    HW115479   3.169   1.985   1.423 -0.5879  0.5454 -0.9217
 1281SOL    HW215480   3.277   1.952   1.325  1.7620  0.2254  0.5447
 1282SOL     OW15481   2.449   1.722   9.726 -0.3217  0.3434 -0.2708
 1282SOL    HW115482   2.366   1.693   9.762  0.2218 -0.1776  0.5676
 1282SOL    HW215483   2.455   1.812   9.757 -0.8972  0.6195 -0.9548
 1283SOL     OW15484   1.140   1.486   5.241 -0.7702 -0.0095  0.2541
 1283SOL    HW115485   1.204   1.464   5.309 -0.5552 -0.9644 -0.2582
 1283SOL    HW215486   1.083   1.541   5.296 -0.0766  0.3142  0.6621
 1284SOL     OW15487   1.699   2.339  11.611 -0.0389  0.5258  0.1013
 1284SOL    HW115488   1.753   2.276  11.564  1.4890  1.9833 -0.1369
 1284SOL    HW215489   1.620   2.286  11.617  0.8019 -0.9450 -1.6535
 1285SOL     OW15490   0.198   3.373  12.348 -0.8249 -0.2928  0.6459
 1285SOL    HW115491   0.264   3.392  12.281 -1.7088 -0.0262 -0.1486
 1285SOL    HW215492   0.193   3.450  12.403  0.6964 -0.2957  0.7773
 1286SOL     OW15493   0.593   0.610   8.802  0.1156 -0.4302 -0.6755
 1286SOL    HW115494   0.630   0.528   8.836 -2.2651 -1.2199  0.0267
 1286SOL    HW215495   0.641   0.680   8.846 -1.1242 -0.4029  0.6585
 1287SOL     OW15496   3.663   0.767   4.545 -0.0812 -0.2036  0.1985
 1287SOL    HW115497   3.701   0.716   4.473 -1.3745 -0.3098 -0.4122
 1287SOL    HW215498   3.707   0.716   4.612  0.9882  0.3285 -0.1024
 1288SOL     OW15499   0.717   1.220   3.269  0.1630 -0.7471  0.1321
 1288SOL    HW115500   0.657   1.185   3.203  0.5214  1.5808 -1.4740
 1288SOL    HW215501   0.719   1.142   3.323 -0.2227 -0.1347  1.0292
 1289SOL     OW15502   1.878   1.420   9.587 -0.3512 -0.2651  0.1559
 1289SOL    HW115503   1.788   1.448   9.567  0.6279  2.8982  0.1132
 1289SOL    HW215504   1.866   1.341   9.639  2.8448 -0.2681  0.8723
 1290SOL     OW15505   2.262   0.416   1.843  0.1674 -0.1594 -0.0648
 1290SOL    HW115506   2.203   0.351   1.804  0.4313 -0.4083 -0.0488
 1290SOL    HW215507   2.334   0.383   1.789 -0.3723  0.3377 -1.1013
 1291SOL     OW15508   3.806   2.186   9.276 -0.2830  0.4428  1.0632
 1291SOL    HW115509   3.787   2.277   9.253 -1.2600 -0.1992 -0.6441
 1291SOL    HW215510   3.874   2.205   9.340  0.2813  1.2694  0.2167
 1292SOL     OW15511   3.679   3.063   5.321  0.0602  0.0479 -0.1984
 1292SOL    HW115512   3.598   3.032   5.361  0.0465  0.1848 -0.1189
 1292SOL    HW215513   3.648   3.111   5.245  0.7194 -0.9421 -1.0983
 1293SOL     OW15514   3.216   3.242   3.814  0.0960  0.5521 -0.1275
 1293SOL    HW115515   3.308   3.243   3.840  0.4452 -1.7616 -1.2343
 1293SOL    HW215516   3.168   3.221   3.894  1.4336 -2.3075 -0.0804
 1294SOL     OW15517   2.015   4.140   3.457  0.8511  0.3634 -0.0748
 1294SOL    HW115518   2.072   4.114   3.384 -0.8330  1.3398 -1.7158
 1294SOL    HW215519   1.983   4.058   3.495  3.0335 -0.0433  0.9227
 1295SOL     OW15520   4.147   1.008   6.558  0.0624 -0.0055 -0.1417
 1295SOL    HW115521   4.194   1.037   6.479 -0.6941  0.8019 -0.2979
 1295SOL    HW215522   4.141   1.094   6.600 -0.6037 -0.6729  1.1050
 1296SOL     OW15523   3.466   4.294  11.036  0.4178 -1.1651 -0.4948
 1296SOL    HW115524   3.527   4.337  10.976  0.4417  0.2961  0.5885
 1296SOL    HW215525   3.526   4.231  11.078  0.2034 -0.9685  0.1050
 1297SOL     OW15526   0.518   3.410   0.364 -0.7262  0.3304 -0.1902
 1297SOL    HW115527   0.591   3.349   0.354 -0.8887 -0.3683  2.9989
 1297SOL    HW215528   0.531   3.432   0.456 -0.7398  0.7207 -0.2821
 1298SOL     OW15529   0.924   1.181   8.416 -0.4418  0.2712  0.0333
 1298SOL    HW115530   0.978   1.260   8.419  0.5409 -0.5118  2.7145
 1298SOL    HW215531   0.981   1.106   8.429  0.8399  0.8031 -2.3807
 1299SOL     OW15532   2.946   1.441   7.313  0.0768  0.4376  0.3405
 1299SOL    HW115533   3.006   1.398   7.251  0.4169 -1.4831  2.0127
 1299SOL    HW215534   2.876   1.456   7.249 -0.0106 -0.8177  0.1332
 1300SOL     OW15535   2.489   4.318   2.537 -0.2041 -0.7095 -0.1237
 1300SOL    HW115536   2.561   4.256   2.551 -0.7869 -1.7612 -1.7495
 1300SOL    HW215537   2.441   4.310   2.619 -0.1724 -0.2819 -0.0662
 1301SOL     OW15538   3.552   2.926   1.000  0.1591  0.0786  0.5967
 1301SOL    HW115539   3.583   2.999   0.947 -0.6494  0.4725  0.6686
 1301SOL    HW215540   3.637   2.890   1.028  0.4778 -0.7444 -1.4187
 1302SOL     OW15541   0.565   1.920   4.610 -0.3529 -0.0526 -0.0519
 1302SOL    HW115542   0.572   1.968   4.528 -3.5921 -2.7315 -1.8571
 1302SOL    HW215543   0.656   1.896   4.628 -0.3444  0.3696  0.4669
 1303SOL     OW15544   1.802   3.932  12.064  0.3826  0.0669 -0.0018
 1303SOL    HW115545   1.730   3.879  12.029 -0.6714  1.6266 -0.1879
 1303SOL    HW215546   1.777   4.016  12.025 -0.0163 -0.9556 -1.9466
 1304SOL     OW15547   3.916   1.711   6.476  0.1439  0.0526  0.3036
 1304SOL    HW115548   3.834   1.689   6.521  0.0014  0.2773  0.1585
 1304SOL    HW215549   3.946   1.770   6.545 -0.4483  0.5515  0.1369
 1305SOL     OW15550   1.302   3.513  11.199  0.5430 -0.1624 -0.5262
 1305SOL    HW115551   1.287   3.480  11.288 -0.4243 -1.4320 -1.1598
 1305SOL    HW215552   1.307   3.606  11.221  1.6995 -0.3003 -0.2096
 1306SOL     OW15553   0.377   1.166   1.893 -0.0274 -0.0199 -0.1944
 1306SOL    HW115554   0.320   1.111   1.839  0.0046 -0.9330  0.7152
 1306SOL    HW215555   0.427   1.207   1.822  0.3677  0.1246  0.1745
 1307SOL     OW15556   1.204   2.367   8.449 -0.3047  0.0077 -0.3816
 1307SOL    HW115557   1.144   2.293   8.436 -0.0311 -0.4409  0.9474
 1307SOL    HW215558   1.273   2.336   8.391  2.7448  2.7476  1.8088
 1308SOL     OW15559   4.613   3.062   7.882  0.3473 -0.0419  0.2139
 1308SOL    HW115560   4.611   3.038   7.789  1.2556  3.8881 -0.8122
 1308SOL    HW215561   4.518   3.076   7.888  0.5265  1.0559  0.5992
 1309SOL     OW15562   2.188   3.438   2.467 -0.0789 -0.0306 -0.4491
 1309SOL    HW115563   2.111   3.383   2.472 -1.5008  2.0283  0.2891
 1309SOL    HW215564   2.251   3.382   2.422 -1.0056 -1.1306 -0.3710
 1310SOL     OW15565   3.343   0.460  14.170  0.0478  0.3253 -0.1654
 1310SOL    HW115566   3.421   0.511  14.190  0.2879 -0.0739 -0.0919
 1310SOL    HW215567   3.295   0.476  14.251 -0.5174  2.3106 -0.8680
 1311SOL     OW15568   4.028   1.064   0.404  0.0797 -0.0167  0.2751
 1311SOL    HW115569   4.100   1.088   0.346  0.3477 -0.6345  0.3507
 1311SOL    HW215570   4.056   0.979   0.439  1.3915  0.5425  0.5599
 1312SOL     OW15571   2.677   2.397   7.427  0.2692  0.8848  0.1499
 1312SOL    HW115572   2.695   2.459   7.497  0.8635  0.2714  0.5363
 1312SOL    HW215573   2.589   2.362   7.441 -0.5817  3.5080  1.2842
 1313SOL     OW15574   3.145   1.705   4.932 -0.7895  0.7390  0.1823
 1313SOL    HW115575   3.079   1.771   4.954 -2.7034 -1.5339  1.2784
 1313SOL    HW215576   3.228   1.747   4.912  0.5249 -3.1811 -2.6209
 1314SOL     OW15577   3.146   3.955  15.531  0.1677  0.0482 -0.0167
 1314SOL    HW115578   3.101   4.039  15.540  0.7147  0.2985  0.3330
 1314SOL    HW215579   3.104   3.922  15.452 -0.6906 -1.5306  1.0817
 1315SOL     OW15580   1.031   2.854   5.052  0.0479  0.3668  0.1355
 1315SOL    HW115581   1.070   2.903   5.123  1.2431 -0.1632 -0.1518
 1315SOL    HW215582   0.939   2.879   5.058 -0.1529 -0.1561 -0.6112
 1316SOL     OW15583   0.267   2.376  15.362 -0.0761 -0.0446 -0.4044
 1316SOL    HW115584   0.333   2.341  15.421 -1.7646 -3.3931 -0.4640
 1316SOL    HW215585   0.252   2.304  15.300  0.3322 -0.1701 -0.3570
 1317SOL     OW15586   2.679   0.312   0.342 -0.3002  0.2879 -0.3363
 1317SOL    HW115587   2.750   0.288   0.402  0.3429  1.4860 -0.6194
 1317SOL    HW215588   2.702   0.400   0.311  2.9744 -0.8082 -1.0433
 1318SOL     OW15589   4.021   3.991   9.446  0.2684  0.1071 -0.1511
 1318SOL    HW115590   4.034   4.064   9.385  2.0087 -0.0511  0.0414
 1318SOL    HW215591   3.968   4.034   9.513  0.2728 -1.3931  0.8138
 1319SOL     OW15592   4.313   2.559   5.897 -0.2753 -0.2187 -0.2970
 1319SOL    HW115593   4.406   2.537   5.890 -0.9654 -2.7546 -1.5540
 1319SOL    HW215594   4.289   2.488   5.956  0.6257 -0.9069 -0.7715
 1320SOL     OW15595   3.943   2.249   3.883 -0.4559 -0.0701  0.0492
 1320SOL    HW115596   4.017   2.281   3.831 -1.8137 -0.7578 -2.3146
 1320SOL    HW215597   3.895   2.213   3.808 -2.3854  2.4394  0.0928
 1321SOL     OW15598   1.756   0.439   9.316  0.2561 -0.0208  0.5882
 1321SOL    HW115599   1.696   0.425   9.390  1.2355 -2.9266  0.8648
 1321SOL    HW215600   1.839   0.429   9.363  0.8954 -1.5360 -0.8586
 1322SOL     OW15601   1.763   1.540   7.523 -0.0489 -0.1976 -0.1953
 1322SOL    HW115602   1.718   1.464   7.560 -1.5578 -0.4229 -2.5580
 1322SOL    HW215603   1.800   1.501   7.443  0.9370  0.7320 -0.1960
 1323SOL     OW15604   0.409   4.195  10.001 -0.1285 -0.6872 -0.0959
 1323SOL    HW115605   0.361   4.137   9.940 -1.0254 -1.3884  1.2830
 1323SOL    HW215606   0.342   4.254  10.034  1.1148  1.4987 -1.4975
 1324SOL     OW15607   4.632   4.243   4.878  0.2695  0.3049 -0.0947
 1324SOL    HW115608   4.601   4.327   4.843 -0.0830 -0.6521 -2.0100
 1324SOL    HW215609   4.596   4.176   4.820 -0.7746  1.3724 -0.6934
 1325SOL     OW15610   0.369   0.167   2.481 -0.1305 -0.2570  0.1134
 1325SOL    HW115611   0.415   0.217   2.549  0.3759  1.1683 -1.2840
 1325SOL    HW215612   0.364   0.236   2.415 -0.1109  0.6161  1.0195
 1326SOL     OW15613   1.992   3.060   0.387 -0.2675 -0.2068 -0.3496
 1326SOL    HW115614   2.066   3.050   0.328  0.2870 -1.0965  0.4967
 1326SOL    HW215615   1.949   3.139   0.354 -0.0173  0.3146  0.5625
 1327SOL     OW15616   1.268   3.582  15.243  0.3065 -0.3789 -0.2657
 1327SOL    HW115617   1.190   3.545  15.200  0.7275 -0.6714 -0.7861
 1327SOL    HW215618   1.240   3.610  15.330  0.0383 -0.2775 -0.3849
 1328SOL     OW15619   3.143   1.223  15.507  0.3644  0.0659  0.5249
 1328SOL    HW115620   3.203   1.200  15.577  1.1523 -0.0056 -0.1755
 1328SOL    HW215621   3.055   1.214  15.544 -0.2043  4.0295  0.1822
 1329SOL     OW15622   0.831   1.331   5.602  0.8838 -0.4366 -0.0237
 1329SOL    HW115623   0.787   1.388   5.539  1.4993 -2.0194 -1.8649
 1329SOL    HW215624   0.879   1.395   5.656  0.7274 -1.6418  1.5329
 1330SOL     OW15625   0.047   3.462   0.857  0.0718 -0.0428  0.0305
 1330SOL    HW115626   0.029   3.546   0.815  0.7780 -0.3326 -0.8439
 1330SOL    HW215627   0.109   3.481   0.928 -1.6286 -0.4675  1.6358
 1331SOL     OW15628   2.570   3.652   4.184  0.2243 -0.6445 -0.0165
 1331SOL    HW115629   2.655   3.620   4.215  0.0248 -1.1232  0.0288
 1331SOL    HW215630   2.501   3.619   4.242  0.7676 -1.8742 -0.0716
 1332SOL     OW15631   4.311   0.080   1.712  0.5085 -0.2196 -0.0153
 1332SOL    HW115632   4.295   0.155   1.654 -0.9102  0.3297  1.0863
 1332SOL    HW215633   4.225   0.082   1.754 -0.3516  1.2307 -1.8037
 1333SOL     OW15634   1.511   1.282   1.725 -0.2554  0.0514 -0.6319
 1333SOL    HW115635   1.510   1.233   1.643  1.8679 -1.3855  0.1995
 1333SOL    HW215636   1.523   1.373   1.698  2.0220  0.1683  0.7826
 1334SOL     OW15637   3.470   3.320  17.097  0.4251 -0.8372 -0.2694
 1334SOL    HW115638   3.379   3.345  17.111  0.1820 -1.2810 -1.0397
 1334SOL    HW215639   3.514   3.401  17.124  0.1961 -0.9554  0.4710
 1335SOL     OW15640   4.143   3.959   6.773  0.1845  0.0723 -0.3397
 1335SOL    HW115641   4.077   3.995   6.714 -1.8924 -0.4866  1.6562
 1335SOL    HW215642   4.169   4.040   6.818 -0.3208  0.4823 -0.7871
 1336SOL     OW15643   3.505   0.159   9.573 -0.2484 -0.3245  0.1699
 1336SOL    HW115644   3.599   0.149   9.564 -0.2475 -0.1802  0.0185
 1336SOL    HW215645   3.484   0.072   9.540 -0.5390  0.5126 -1.8469
 1337SOL     OW15646   0.206   2.090  10.280 -0.1927 -0.1532  0.1376
 1337SOL    HW115647   0.113   2.109  10.289  0.0552  1.6148 -0.9889
 1337SOL    HW215648   0.236   2.180  10.290  1.9836 -1.0036  1.4133
 1338SOL     OW15649   1.812   0.169  13.678 -0.2666 -0.1759  0.0460
 1338SOL    HW115650   1.753   0.101  13.712 -0.2036 -1.0857 -1.6223
 1338SOL    HW215651   1.893   0.118  13.675 -0.1239 -0.0468  1.7729
 1339SOL     OW15652   4.732   4.425   5.500 -0.6099 -0.1041 -0.1800
 1339SOL    HW115653   4.720   4.520   5.496 -0.3601 -0.0622  0.0060
 1339SOL    HW215654   4.698   4.415   5.589  2.2551 -0.6833  0.8723
 1340SOL     OW15655   4.430   4.258  12.069 -0.3475  0.2964 -0.0702
 1340SOL    HW115656   4.429   4.335  12.012 -2.8693  0.9114  0.7962
 1340SOL    HW215657   4.495   4.195  12.040 -2.1436 -2.1964  1.3160
 1341SOL     OW15658   2.748   1.009   5.028  0.4157  0.3481  0.0093
 1341SOL    HW115659   2.811   0.953   5.074 -0.6666 -0.3781  0.6129
 1341SOL    HW215660   2.809   1.061   4.976  0.9751 -1.5929 -1.2841
 1342SOL     OW15661   4.095   4.162   3.148 -0.5995  0.1216 -0.2667
 1342SOL    HW115662   4.049   4.106   3.087  3.1759 -2.6350 -0.5762
 1342SOL    HW215663   4.119   4.237   3.093  0.4345 -1.2438 -1.6489
 1343SOL     OW15664   3.156   4.669   8.908 -0.2625 -0.2982 -0.3872
 1343SOL    HW115665   3.160   0.027   8.888  0.8973 -0.6870 -1.9147
 1343SOL    HW215666   3.061   4.662   8.905 -0.2933 -1.5201  2.5089
 1344SOL     OW15667   0.981   0.059   2.273 -0.6028  0.3058 -0.0543
 1344SOL    HW115668   0.907   0.119   2.285 -0.1117  1.1338 -1.2274
 1344SOL    HW215669   1.053   0.100   2.321 -0.4006  0.2276 -0.2911
 1345SOL     OW15670   0.329   3.695   5.909  0.0494 -0.1682 -0.0085
 1345SOL    HW115671   0.421   3.706   5.885  0.8667 -2.2204  2.1499
 1345SOL    HW215672   0.322   3.600   5.919  2.3695 -0.5273 -1.6269
 1346SOL     OW15673   2.123   0.696   1.502  0.2940  0.0359  0.6880
 1346SOL    HW115674   2.140   0.774   1.450  0.7627 -0.2407  0.4211
 1346SOL    HW215675   2.095   0.724   1.589  2.2675 -1.6739  1.8836
 1347SOL     OW15676   1.444   3.371   4.451  0.6278 -0.5111 -0.2018
 1347SOL    HW115677   1.446   3.339   4.360 -3.8698 -0.1358 -0.4635
 1347SOL    HW215678   1.421   3.463   4.459  1.4609 -0.3521  0.2604
 1348SOL     OW15679   4.635   0.544   2.259  0.1318 -0.1578  0.1957
 1348SOL    HW115680   4.551   0.555   2.215  1.0207  1.7779 -1.0061
 1348SOL    HW215681   4.681   0.624   2.234 -1.0043  0.5106  0.2706
 1349SOL     OW15682   2.106   4.000  13.221 -0.9564  0.0935 -0.6804
 1349SOL    HW115683   2.013   3.992  13.199 -0.7343 -0.2175 -1.5239
 1349SOL    HW215684   2.142   3.940  13.156 -0.1475  1.8192 -1.8533
 1350SOL     OW15685   1.221   0.352   4.566 -0.3955  0.8134  0.5980
 1350SOL    HW115686   1.143   0.390   4.607 -0.6693 -0.1133  0.9516
 1350SOL    HW215687   1.277   0.353   4.644  0.1115 -0.1683  0.2492
 1351SOL     OW15688   3.871   2.531   2.846  0.0264  0.3938 -0.1368
 1351SOL    HW115689   3.956   2.510   2.884  0.5190  2.2239 -0.2327
 1351SOL    HW215690   3.826   2.576   2.917  2.1967 -0.0563  1.5044
 1352SOL     OW15691   4.126   3.937   3.643  0.3073  0.2872  0.7279
 1352SOL    HW115692   4.120   4.031   3.627 -2.2283  0.4126  2.4861
 1352SOL    HW215693   4.071   3.918   3.719  0.9774 -1.1231  0.8647
 1353SOL     OW15694   1.460   2.533   4.042  0.1894 -0.0218 -0.3360
 1353SOL    HW115695   1.524   2.589   4.087  0.2745  0.1094 -0.6191
 1353SOL    HW215696   1.533   2.477   4.014 -1.6635 -1.4125 -2.3840
 1354SOL     OW15697   2.057   1.958   5.167 -0.0568 -0.2446  0.6887
 1354SOL    HW115698   1.968   1.949   5.135 -0.0229  0.0226  0.5173
 1354SOL    HW215699   2.045   2.046   5.201 -1.9883 -0.3702  0.3204
 1355SOL     OW15700   0.093   2.425  16.422  0.0436 -0.1122 -0.0444
 1355SOL    HW115701   0.040   2.408  16.499  1.2160 -0.2542  0.7323
 1355SOL    HW215702   0.179   2.386  16.442  0.7539  1.8417  0.6461
 1356SOL     OW15703   3.410   0.403   7.223 -0.2122 -0.6621  0.3117
 1356SOL    HW115704   3.442   0.483   7.265  0.9739 -0.7043 -0.5158
 1356SOL    HW215705   3.348   0.378   7.291 -1.7636  0.7331 -0.5647
 1357SOL     OW15706   1.714   2.950   1.320  0.0836  0.1838 -0.1038
 1357SOL    HW115707   1.673   2.939   1.234 -1.1904  2.5669  0.2186
 1357SOL    HW215708   1.795   2.899   1.311  1.1044  1.8723 -0.5840
 1358SOL     OW15709   2.082   1.496   9.088 -0.0001  0.3961 -0.1180
 1358SOL    HW115710   2.055   1.493   9.179  2.5149  2.3723  0.6832
 1358SOL    HW215711   2.136   1.574   9.097 -0.3902  0.9867 -2.8006
 1359SOL     OW15712   3.385   2.345   9.710 -0.2831 -0.3186 -0.0048
 1359SOL    HW115713   3.315   2.280   9.711 -0.8426  0.2855  0.3181
 1359SOL    HW215714   3.339   2.429   9.712  1.0322  0.4071  0.0600
 1360SOL     OW15715   0.234   0.840   8.384 -0.2828  0.2027  0.0367
 1360SOL    HW115716   0.173   0.901   8.341 -1.6973 -0.7281  0.7150
 1360SOL    HW215717   0.193   0.754   8.374 -2.2596  1.3071 -1.3609
 1361SOL     OW15718   2.822   3.230   0.522 -0.5462 -0.7293  0.8445
 1361SOL    HW115719   2.813   3.153   0.465  0.3052  0.2335 -0.5878
 1361SOL    HW215720   2.744   3.282   0.500  0.3272 -0.0728 -0.6754
 1362SOL     OW15721   1.642   1.049  17.320 -0.2908 -0.6259  0.3741
 1362SOL    HW115722   1.555   1.015  17.299 -0.5489  1.0495 -1.2350
 1362SOL    HW215723   1.625   1.072  17.412  0.6184 -0.8238  0.5877
 1363SOL     OW15724   4.182   1.220   6.344  0.4681  0.3627  0.0673
 1363SOL    HW115725   4.148   1.307   6.327 -0.0944  0.4289  1.5113
 1363SOL    HW215726   4.125   1.161   6.294 -1.1410  0.0934  2.2243
 1364SOL     OW15727   3.012   2.680   6.592  0.2476 -0.0431 -0.0767
 1364SOL    HW115728   3.085   2.630   6.555  1.4702  3.2762 -2.0620
 1364SOL    HW215729   2.959   2.609   6.628  1.0851 -1.1174 -0.9604
 1365SOL     OW15730   4.192   3.037  12.212  0.6778  0.2184  0.1891
 1365SOL    HW115731   4.159   3.105  12.153 -0.1945  0.7578  1.2935
 1365SOL    HW215732   4.245   2.989  12.148 -0.8403 -0.2312 -0.7432
 1366SOL     OW15733   3.040   2.448  15.768 -0.2266  0.7360 -0.1632
 1366SOL    HW115734   2.990   2.522  15.733  0.6846  0.4054 -2.1693
 1366SOL    HW215735   3.115   2.453  15.709  0.4227 -0.7794  0.5458
 1367SOL     OW15736   2.580   3.274  10.046  0.3083  0.3778 -0.3520
 1367SOL    HW115737   2.499   3.324  10.031 -0.1390  0.3084  1.8366
 1367SOL    HW215738   2.642   3.327   9.996  1.6229 -1.3146 -0.4856
 1368SOL     OW15739   4.535   2.275   6.764  0.3551 -0.1046  0.4195
 1368SOL    HW115740   4.601   2.271   6.833 -0.4118  3.1639  1.3570
 1368SOL    HW215741   4.544   2.186   6.729  0.7089 -0.2398  0.8570
 1369SOL     OW15742   0.817   0.944  12.521  0.0137  0.2190  0.5380
 1369SOL    HW115743   0.740   1.000  12.527 -0.4988 -0.1784 -1.9769
 1369SOL    HW215744   0.873   0.964  12.596  0.6838 -2.1323  0.6612
 1370SOL     OW15745   1.272   2.147  11.890  0.2959 -0.3280  0.2797
 1370SOL    HW115746   1.206   2.099  11.840  0.2450  1.2103 -1.1323
 1370SOL    HW215747   1.245   2.141  11.982  1.1967 -0.6763  0.5210
 1371SOL     OW15748   4.380   0.001   9.473  0.2563  0.0552  0.0961
 1371SOL    HW115749   4.381   4.652   9.517 -0.2531  0.5814  1.1392
 1371SOL    HW215750   4.468   0.031   9.496  0.3556  1.0105 -1.5549
 1372SOL     OW15751   0.602   1.859  17.314 -0.7614  0.9360 -0.4795
 1372SOL    HW115752   0.589   1.838  17.221 -0.1153  0.7687 -0.5332
 1372SOL    HW215753   0.542   1.800  17.359 -0.2230 -1.2551 -2.6225
 1373SOL     OW15754   2.684   0.597  12.524  0.2621  0.1969  0.4998
 1373SOL    HW115755   2.595   0.607  12.559  1.0019 -1.7374  2.9312
 1373SOL    HW215756   2.723   0.684  12.534  0.0948  0.4611 -1.2020
 1374SOL     OW15757   3.889   2.727   5.786 -0.4718 -0.3231 -0.2676
 1374SOL    HW115758   3.855   2.787   5.720  1.0898  2.2746  1.3167
 1374SOL    HW215759   3.850   2.645   5.756 -0.4600 -0.6433  0.6039
 1375SOL     OW15760   1.665   4.411   1.027  0.0185  0.6787 -0.4942
 1375SOL    HW115761   1.641   4.424   0.935  0.8402  1.1507 -0.6476
 1375SOL    HW215762   1.617   4.475   1.080  1.0680 -0.4731  1.8567
 1376SOL     OW15763   2.613   2.587   9.169 -0.0408  0.0731  0.8442
 1376SOL    HW115764   2.624   2.643   9.092 -1.3102  0.1209  0.6904
 1376SOL    HW215765   2.621   2.499   9.133  1.1591  1.0981 -1.3522
 1377SOL     OW15766   2.743   3.884   2.896 -0.2969  0.2778  0.0458
 1377SOL    HW115767   2.827   3.852   2.927  0.2529  0.4419 -1.2971
 1377SOL    HW215768   2.740   3.825   2.820  3.7880  2.5025 -1.8182
 1378SOL     OW15769   3.396   2.606  11.392  0.6255 -0.4417  0.2657
 1378SOL    HW115770   3.376   2.682  11.446 -0.5840 -1.2471  0.9541
 1378SOL    HW215771   3.461   2.645  11.334 -0.0376 -0.4383 -0.4675
 1379SOL     OW15772   0.150   3.432   4.200  0.5892 -0.5464 -0.5162
 1379SOL    HW115773   0.231   3.446   4.150  0.0839  0.2069 -1.1187
 1379SOL    HW215774   0.170   3.495   4.269 -2.5879  2.3078 -2.1787
 1380SOL     OW15775   3.910   0.867  10.067  0.2319 -0.3303 -0.5013
 1380SOL    HW115776   3.930   0.775  10.052  0.0292 -0.5100  0.3622
 1380SOL    HW215777   3.837   0.852  10.127 -1.7808  0.9260 -2.5994
 1381SOL     OW15778   3.101   1.871   8.925 -0.2562  0.1173  0.6217
 1381SOL    HW115779   3.118   1.904   8.836 -0.1576 -0.6945  0.3447
 1381SOL    HW215780   3.026   1.921   8.958  1.1106  1.9949  0.9395
 1382SOL     OW15781   0.642   0.423  10.024 -0.1278  0.1382  0.2213
 1382SOL    HW115782   0.676   0.468   9.947 -0.3717  0.3849  0.2551
 1382SOL    HW215783   0.615   0.343   9.979 -0.7026  0.8264 -0.6507
 1383SOL     OW15784   0.426   0.808   1.910  0.4747  0.7440 -0.3212
 1383SOL    HW115785   0.446   0.790   1.818 -0.5564  2.8251 -0.9565
 1383SOL    HW215786   0.493   0.872   1.937  1.1497  0.1487 -0.6085
 1384SOL     OW15787   0.547   4.323   2.640 -0.0431  0.5006 -0.5201
 1384SOL    HW115788   0.457   4.333   2.609 -0.1730  0.4430 -0.1625
 1384SOL    HW215789   0.591   4.293   2.561 -0.6913 -0.5860 -0.4730
 1385SOL     OW15790   0.023   1.597   5.826 -0.1918 -0.0523 -0.6283
 1385SOL    HW115791   4.720   1.652   5.894 -0.7994 -0.8092 -0.3589
 1385SOL    HW215792   0.053   1.659   5.759 -0.0220  2.1312  1.4908
 1386SOL     OW15793   2.576   2.446   3.330 -0.5743 -0.5564  0.3264
 1386SOL    HW115794   2.636   2.422   3.259  0.4271  0.6418  0.7714
 1386SOL    HW215795   2.537   2.522   3.286  1.9498  0.8390  0.5281
 1387SOL     OW15796   4.590   1.105  13.232 -0.2478  0.2448  0.0915
 1387SOL    HW115797   4.537   1.040  13.278 -0.1918 -0.9131 -1.4689
 1387SOL    HW215798   4.665   1.091  13.290  0.7665  1.8894 -0.8451
 1388SOL     OW15799   1.984   1.577   8.824 -0.1209  0.2507  0.5703
 1388SOL    HW115800   1.980   1.545   8.914  1.0889 -1.4617  0.0296
 1388SOL    HW215801   2.061   1.632   8.837  0.4727 -0.2107 -0.9168
 1389SOL     OW15802   0.659   3.181   9.269  0.2931  0.5333  0.1813
 1389SOL    HW115803   0.602   3.246   9.311 -0.6373  0.1424 -0.4884
 1389SOL    HW215804   0.736   3.237   9.259  2.0495 -1.7199  1.2234
 1390SOL     OW15805   1.735   3.016  11.433 -0.4106  0.0893  0.3187
 1390SOL    HW115806   1.710   2.974  11.515  1.5649 -1.0056  0.3460
 1390SOL    HW215807   1.705   2.952  11.368 -1.1599  0.2403  0.5171
 1391SOL     OW15808   3.148   2.604   6.077  0.2258 -0.3734 -0.1657
 1391SOL    HW115809   3.156   2.689   6.034  0.4996  0.2585  1.1352
 1391SOL    HW215810   3.078   2.576   6.018 -0.4976 -0.3835  0.6973
 1392SOL     OW15811   1.804   3.397   0.951  0.4446  0.5035  0.3659
 1392SOL    HW115812   1.717   3.431   0.970  1.1008  1.8740  0.9358
 1392SOL    HW215813   1.790   3.305   0.974 -0.2549  0.4528 -0.2631
 1393SOL     OW15814   0.903   0.193   5.789  0.0463 -0.4789  0.2242
 1393SOL    HW115815   0.847   0.198   5.866  1.3247  0.8016  1.0666
 1393SOL    HW215816   0.857   0.252   5.729 -2.7722 -0.2179  2.6736
 1394SOL     OW15817   2.692   0.185   7.833 -0.3099 -0.2448 -0.4011
 1394SOL    HW115818   2.778   0.214   7.802 -0.1537 -1.9911 -1.6396
 1394SOL    HW215819   2.654   0.267   7.863  0.3882  1.0881 -3.1439
 1395SOL     OW15820   4.674   4.177  14.295 -0.3126  0.1490 -0.1879
 1395SOL    HW115821   4.657   4.149  14.205  1.1334 -1.1440 -0.0644
 1395SOL    HW215822   4.642   4.267  14.300  0.2880  0.3107  0.7788
 1396SOL     OW15823   1.992   2.112   7.474  0.2544  0.2003  0.7681
 1396SOL    HW115824   2.066   2.074   7.426  0.1157 -0.5836  1.1796
 1396SOL    HW215825   2.019   2.203   7.487 -1.7614  0.7312  1.1304
 1397SOL     OW15826   1.047   1.404   9.262  0.0327  0.0968 -0.4184
 1397SOL    HW115827   1.021   1.485   9.305 -0.1781 -1.0734  1.6336
 1397SOL    HW215828   1.065   1.439   9.175 -1.1246 -0.0301 -0.7028
 1398SOL     OW15829   0.054   1.038  14.438 -0.2302 -0.3393  0.1158
 1398SOL    HW115830   4.723   1.103  14.414 -1.8349 -2.6009 -1.4639
 1398SOL    HW215831   0.138   1.085  14.429  0.5404 -1.8684 -0.6553
 1399SOL     OW15832   2.515   3.414   0.564 -0.0309 -0.2602  0.7269
 1399SOL    HW115833   2.423   3.427   0.541  0.2159 -2.0045 -1.2620
 1399SOL    HW215834   2.556   3.426   0.478 -0.9573 -0.0595  0.3137
 1400SOL     OW15835   4.393   3.403  12.840 -0.3343  0.2931  0.0708
 1400SOL    HW115836   4.464   3.467  12.837  0.3778 -0.5362 -0.9511
 1400SOL    HW215837   4.436   3.341  12.781  0.0779  1.3137 -0.7009
 1401SOL     OW15838   2.061   4.495   4.597 -0.2291  0.2792  0.2205
 1401SOL    HW115839   2.111   4.497   4.678  1.9041  1.0184 -1.1049
 1401SOL    HW215840   2.034   4.404   4.605 -2.7176  1.0105  0.0461
 1402SOL     OW15841   0.647   0.856   4.637  0.8285 -0.0471 -0.5950
 1402SOL    HW115842   0.742   0.865   4.644  0.7997 -1.1532  1.3484
 1402SOL    HW215843   0.639   0.761   4.635 -2.8747  0.2858 -1.6506
 1403SOL     OW15844   4.396   2.859  16.392  0.0843  0.2607 -0.2651
 1403SOL    HW115845   4.400   2.852  16.296 -0.1971 -2.8005 -0.0421
 1403SOL    HW215846   4.311   2.816  16.403  0.1298  0.5643  1.1877
 1404SOL     OW15847   1.038   4.000  16.806  0.0391 -0.0408  0.0761
 1404SOL    HW115848   0.965   3.979  16.748  0.4080 -1.8661  0.2719
 1404SOL    HW215849   1.042   4.096  16.808  2.5755 -0.1075 -1.1906
 1405SOL     OW15850   2.041   1.396   3.136 -0.1266  0.2099 -0.5077
 1405SOL    HW115851   2.125   1.354   3.119  0.0248 -0.0815  0.9353
 1405SOL    HW215852   2.030   1.383   3.230 -0.4071  0.1558 -0.5455
 1406SOL     OW15853   1.513   4.541   5.839  0.7827  0.1306  0.9320
 1406SOL    HW115854   1.512   4.636   5.850 -0.4262  0.4997 -2.0497
 1406SOL    HW215855   1.547   4.510   5.922 -1.0345 -0.7804  1.3477
 1407SOL     OW15856   0.242   0.532   8.976 -0.0189 -0.4248  0.1420
 1407SOL    HW115857   0.234   0.583   8.895  0.7259 -1.3432 -0.5029
 1407SOL    HW215858   0.157   0.556   9.014 -0.7734 -1.8347 -0.6491
 1408SOL     OW15859   3.383   1.173   4.246 -0.6409  0.7024  0.0142
 1408SOL    HW115860   3.321   1.100   4.244  1.7508 -1.3622  0.5182
 1408SOL    HW215861   3.389   1.187   4.151 -0.6350 -1.0941 -0.2543
 1409SOL     OW15862   3.935   1.315  12.870 -0.1910 -0.9882 -0.1076
 1409SOL    HW115863   3.859   1.259  12.855 -0.3552 -0.9414  0.5544
 1409SOL    HW215864   4.002   1.260  12.829  0.3511 -0.4005 -0.0216
 1410SOL     OW15865   4.002   0.032   4.576  0.0935 -0.2895  0.2582
 1410SOL    HW115866   3.937   0.021   4.507 -0.9249  0.6720  1.0550
 1410SOL    HW215867   3.982   0.117   4.616 -0.8151 -0.1320 -0.5283
 1411SOL     OW15868   4.624   0.919  12.436 -0.3717  0.4358  0.1736
 1411SOL    HW115869   4.595   1.010  12.429 -1.4108 -0.0671 -2.4272
 1411SOL    HW215870   4.717   0.933  12.449  0.1102 -0.6548 -2.0832
 1412SOL     OW15871   0.689   3.602  12.693  0.0253  0.5866  0.0722
 1412SOL    HW115872   0.732   3.557  12.766 -0.1204  0.4796  0.0930
 1412SOL    HW215873   0.621   3.544  12.659 -0.6326  0.7806  1.0652
 1413SOL     OW15874   1.492   1.585   1.595  0.2148  0.6349 -0.3539
 1413SOL    HW115875   1.471   1.676   1.570 -0.0437  0.3076 -1.3376
 1413SOL    HW215876   1.454   1.539   1.520  0.9915 -0.5098 -0.0407
 1414SOL     OW15877   3.620   2.685   3.392  0.0303 -0.0020 -0.0408
 1414SOL    HW115878   3.714   2.667   3.381  0.2210  0.8831  0.0851
 1414SOL    HW215879   3.583   2.614   3.340  1.5099  0.8827 -2.3347
 1415SOL     OW15880   0.880   0.250  17.670 -0.2816  0.1758  0.2562
 1415SOL    HW115881   0.972   0.249  17.695  0.0460 -2.6052 -1.1133
 1415SOL    HW215882   0.877   0.306  17.592  1.8323  1.5763  1.1833
 1416SOL     OW15883   0.758   0.143   3.081 -0.5606  0.3889  0.2004
 1416SOL    HW115884   0.740   0.053   3.054 -2.2518  0.5158  0.9242
 1416SOL    HW215885   0.672   0.186   3.073 -0.4858  0.5677  0.3689
 1417SOL     OW15886   0.283   1.475  14.847  0.1720 -0.8794 -0.1780
 1417SOL    HW115887   0.229   1.409  14.890 -0.1221 -0.5951 -0.1104
 1417SOL    HW215888   0.234   1.547  14.885  2.2977 -0.4689  1.7902
 1418SOL     OW15889   3.754   1.585   4.288  1.1593  0.3015  0.8829
 1418SOL    HW115890   3.724   1.545   4.370  1.8383 -0.7150  0.6384
 1418SOL    HW215891   3.790   1.658   4.338  2.0556  0.5825 -0.1801
 1419SOL     OW15892   0.132   0.909   4.416 -0.1264 -0.2717  0.1320
 1419SOL    HW115893   0.170   0.983   4.368 -1.9739  0.4144 -0.2813
 1419SOL    HW215894   0.168   0.843   4.357  1.3623 -0.2222  0.9941
 1420SOL     OW15895   2.986   1.282  10.939  0.3976  0.1145 -0.1578
 1420SOL    HW115896   2.975   1.195  10.901 -0.5975  1.0367 -2.0373
 1420SOL    HW215897   3.075   1.285  10.974  1.2783  0.6394 -2.4441
 1421SOL     OW15898   0.158   1.491   6.062  0.4302  0.2381  0.0353
 1421SOL    HW115899   0.101   1.501   5.985  1.3420  1.2986 -0.5120
 1421SOL    HW215900   0.087   1.502   6.125 -0.4164 -0.7374 -0.7704
 1422SOL     OW15901   3.112   0.695  17.184  0.6514  0.2097  0.4184
 1422SOL    HW115902   3.033   0.665  17.140  0.2624 -0.4895  1.5883
 1422SOL    HW215903   3.117   0.626  17.251 -0.0481  0.2156  0.4740
 1423SOL     OW15904   1.373   0.410   2.690 -0.4892 -0.0040  0.7707
 1423SOL    HW115905   1.345   0.469   2.761  1.9694 -0.1404  1.8703
 1423SOL    HW215906   1.305   0.435   2.629  1.3230  1.7732 -0.5142
 1424SOL     OW15907   4.587   1.997   9.417 -0.0430  0.0355 -0.1785
 1424SOL    HW115908   4.567   1.907   9.443  3.0001 -0.4538  0.3953
 1424SOL    HW215909   4.591   2.037   9.504 -0.6627  0.2838 -0.2594
 1425SOL     OW15910   4.285   4.305   2.723 -0.1791 -0.1701 -0.2759
 1425SOL    HW115911   4.379   4.322   2.737  0.0379  0.2625 -2.2733
 1425SOL    HW215912   4.272   4.382   2.667 -1.8031  0.5784  1.1115
 1426SOL     OW15913   1.802   1.853   2.401  0.2185  0.1337  0.1503
 1426SOL    HW115914   1.827   1.872   2.491 -1.4812  0.5357  0.5426
 1426SOL    HW215915   1.724   1.904   2.378  0.0616  0.4221  1.3517
 1427SOL     OW15916   4.630   1.658   2.524  0.0612 -0.1671 -0.4181
 1427SOL    HW115917   4.536   1.667   2.542 -0.1477  0.0829 -1.6768
 1427SOL    HW215918   4.642   1.688   2.434  0.8711 -3.0222 -1.2408
 1428SOL     OW15919   2.076   1.133   6.556  0.6901 -0.4479  0.2958
 1428SOL    HW115920   2.107   1.043   6.566  1.7998 -0.3762 -2.4316
 1428SOL    HW215921   2.017   1.134   6.631 -1.4411  5.7386 -1.4159
 1429SOL     OW15922   0.321   3.337   3.139  0.0067  0.2968 -0.0305
 1429SOL    HW115923   0.287   3.425   3.155 -0.5892 -0.3887  2.4191
 1429SOL    HW215924   0.406   3.339   3.182 -0.3401  1.5526  0.5836
 1430SOL     OW15925   3.831   0.284   4.324 -0.2814  0.5305 -0.0400
 1430SOL    HW115926   3.760   0.283   4.388  0.2820 -0.5004  0.5762
 1430SOL    HW215927   3.790   0.340   4.259 -2.3889  0.1976  1.0034
 1431SOL     OW15928   4.711   2.814   9.087 -0.1928 -0.2231  0.0305
 1431SOL    HW115929   4.636   2.808   9.028 -0.9942 -0.8515  1.1220
 1431SOL    HW215930   4.670   2.883   9.140 -0.1581  0.2315 -0.5329
 1432SOL     OW15931   2.650   3.465  11.930 -0.2525  0.1211  0.3848
 1432SOL    HW115932   2.681   3.477  12.020  0.2922  2.5683 -0.1324
 1432SOL    HW215933   2.701   3.386  11.909 -1.0130 -0.1741 -0.3626
 1433SOL     OW15934   4.536   1.322   9.575 -0.3767  0.5921  0.4372
 1433SOL    HW115935   4.585   1.272   9.509 -1.3308  1.1984 -0.7427
 1433SOL    HW215936   4.453   1.351   9.537  0.0323  4.0881  2.2551
 1434SOL     OW15937   3.163   0.603   9.855 -0.7995  0.0174 -0.3759
 1434SOL    HW115938   3.140   0.687   9.894 -2.3780 -0.5003 -0.1758
 1434SOL    HW215939   3.095   0.605   9.787 -0.2645 -0.5535 -0.9240
 1435SOL     OW15940   0.221   0.177   7.594 -0.7237  0.4638  0.6133
 1435SOL    HW115941   0.252   0.262   7.627 -1.2859  0.8742  0.0770
 1435SOL    HW215942   0.210   0.196   7.501  2.8507 -1.1432 -0.1492
 1436SOL     OW15943   0.978   0.408   8.177 -0.2661 -0.7724 -0.1531
 1436SOL    HW115944   0.938   0.495   8.185  1.5082  0.3322 -3.1621
 1436SOL    HW215945   1.044   0.421   8.108  1.5462 -0.0426  1.7139
 1437SOL     OW15946   3.340   1.327   9.386 -0.1308 -0.3520 -0.1825
 1437SOL    HW115947   3.417   1.379   9.408 -0.4264  1.0531 -2.4903
 1437SOL    HW215948   3.271   1.383   9.421  2.6173  2.5726  0.5060
 1438SOL     OW15949   0.929   2.784   3.227  0.3278  0.0089 -0.5318
 1438SOL    HW115950   0.948   2.793   3.134 -1.7207 -1.0145 -1.0483
 1438SOL    HW215951   1.001   2.739   3.270  0.7205  1.7440  0.6392
 1439SOL     OW15952   4.234   0.315  10.126  0.5380  0.3451  0.4380
 1439SOL    HW115953   4.216   0.353  10.040 -0.4434  1.6856  1.2453
 1439SOL    HW215954   4.294   0.381  10.160  2.1790 -0.6558 -0.5077
 1440SOL     OW15955   3.296   3.504   2.351  0.0479 -0.0137 -0.5407
 1440SOL    HW115956   3.264   3.498   2.441  2.8146 -0.9842  0.3967
 1440SOL    HW215957   3.224   3.460   2.306  0.7398 -2.2720  0.5492
 1441SOL     OW15958   3.344   0.674   6.675  0.5860 -0.3874 -0.2302
 1441SOL    HW115959   3.282   0.654   6.745  2.3789 -0.5960  1.2752
 1441SOL    HW215960   3.319   0.762   6.645  1.0422  0.0110  0.5693
 1442SOL     OW15961   2.553   0.833   7.722 -0.0163  0.2862  0.0999
 1442SOL    HW115962   2.595   0.785   7.794  0.2811  0.8975  0.3396
 1442SOL    HW215963   2.602   0.915   7.731 -0.4429  0.3019  2.3487
 1443SOL     OW15964   0.064   3.540   8.489 -0.1919 -0.4458 -0.2785
 1443SOL    HW115965   4.705   3.531   8.489 -0.3239  0.8356  0.7456
 1443SOL    HW215966   0.094   3.505   8.405 -0.6423 -1.1625 -0.1412
 1444SOL     OW15967   2.066   1.794  12.698  0.9193  0.2451 -0.1200
 1444SOL    HW115968   2.150   1.760  12.729  0.1338 -0.2299  1.4882
 1444SOL    HW215969   2.051   1.862  12.763  1.4958  2.9302 -2.8003
 1445SOL     OW15970   3.154   0.600   3.855 -0.0008  0.0511  0.0176
 1445SOL    HW115971   3.063   0.602   3.826 -0.3793  0.5685  1.2534
 1445SOL    HW215972   3.192   0.595   3.767  0.1541 -0.3412  0.1082
 1446SOL     OW15973   0.262   4.169   5.435  0.1652  0.5189 -0.5003
 1446SOL    HW115974   0.238   4.195   5.524  0.5106 -1.1479  0.0703
 1446SOL    HW215975   0.354   4.193   5.443 -0.0084  1.4148 -1.2217
 1447SOL     OW15976   0.223   2.827   7.160  0.4561  0.3409  0.4842
 1447SOL    HW115977   0.171   2.823   7.079 -0.6487 -1.3232  1.2726
 1447SOL    HW215978   0.283   2.759   7.130 -2.4419 -2.3237  0.7538
 1448SOL     OW15979   1.489   4.689   5.045 -0.4560  0.1119  0.5104
 1448SOL    HW115980   1.467   4.636   5.121  1.2917  0.9641  1.6187
 1448SOL    HW215981   1.458   0.040   5.071  0.1999  0.3175  0.6171
 1449SOL     OW15982   1.296   1.445   1.442  0.5650 -0.1161  0.1213
 1449SOL    HW115983   1.224   1.432   1.505  1.8914  2.8456  2.2472
 1449SOL    HW215984   1.348   1.365   1.452  0.3741 -0.1552  0.7980
 1450SOL     OW15985   3.100   4.683   6.071  0.5412 -0.2762 -0.0446
 1450SOL    HW115986   3.060   4.721   6.150  1.5350  1.0422 -0.1714
 1450SOL    HW215987   3.089   0.017   6.006  0.9060  0.5983  0.8277
 1451SOL     OW15988   2.279   4.218   6.839 -0.4072 -0.2977 -0.2900
 1451SOL    HW115989   2.205   4.158   6.847 -1.7621  1.2642 -1.0739
 1451SOL    HW215990   2.257   4.275   6.765 -1.0214  1.1502  1.0088
 1452SOL     OW15991   1.425   1.505   7.683  0.2442 -0.1139 -0.7400
 1452SOL    HW115992   1.370   1.506   7.604 -0.8835  1.2369  0.0636
 1452SOL    HW215993   1.458   1.595   7.682  0.9367 -0.3584  0.2592
 1453SOL     OW15994   0.958   0.186   4.045  0.3049  0.2213  0.3001
 1453SOL    HW115995   0.957   0.242   4.123 -0.2244 -0.5755  0.8697
 1453SOL    HW215996   0.868   0.153   4.050 -0.0467  1.0991 -0.4086
 1454SOL     OW15997   4.071   4.519  13.044  0.5728  0.0969  0.3429
 1454SOL    HW115998   4.160   4.493  13.018  0.3287 -0.6466  0.2771
 1454SOL    HW215999   4.056   4.451  13.109 -0.5189 -0.4029 -0.4407
 1455SOL     OW16000   2.647   1.074  10.852 -0.0431 -0.6749  0.2431
 1455SOL    HW116001   2.554   1.052  10.858 -0.5015  1.1100 -0.3205
 1455SOL    HW216002   2.649   1.167  10.831 -1.6851 -0.4828  0.9575
 1456SOL     OW16003   0.280   0.829  10.026  0.2561 -0.2116  0.1017
 1456SOL    HW116004   0.302   0.747  10.070  0.5704 -0.6158 -0.7954
 1456SOL    HW216005   0.368   0.867  10.028  0.4013 -0.6871  2.0525
 1457SOL     OW16006   0.615   4.228   8.090 -0.5744  0.1100  0.0367
 1457SOL    HW116007   0.658   4.313   8.080  0.6967 -0.4932  0.3120
 1457SOL    HW216008   0.680   4.174   8.135  0.0974  1.5581  0.8068
 1458SOL     OW16009   1.846   2.683  16.282 -0.0140  0.5970 -0.4657
 1458SOL    HW116010   1.837   2.701  16.376  0.1076 -1.8232  0.0055
 1458SOL    HW216011   1.759   2.645  16.267 -0.3159  0.5817  1.2374
 1459SOL     OW16012   2.468   2.813   2.738 -0.2891 -0.1163  0.2996
 1459SOL    HW116013   2.440   2.763   2.815  1.5096 -0.2290  0.8942
 1459SOL    HW216014   2.386   2.832   2.693  0.6543 -0.7697 -1.6954
 1460SOL     OW16015   1.690   4.420   6.849  0.2689 -0.1518 -0.3743
 1460SOL    HW116016   1.691   4.515   6.864  3.0649 -0.1716 -0.5212
 1460SOL    HW216017   1.757   4.391   6.911  0.5289  3.2689  0.9556
 1461SOL     OW16018   3.607   3.967   2.526 -0.2292 -0.0979  0.0795
 1461SOL    HW116019   3.621   4.061   2.513 -1.3283 -0.0998 -1.0286
 1461SOL    HW216020   3.536   3.958   2.462 -1.1092 -0.1368  1.0682
 1462SOL     OW16021   0.878   3.036   7.893 -0.0658 -0.4333  0.5473
 1462SOL    HW116022   0.807   2.979   7.924 -1.7791  1.7604  0.6764
 1462SOL    HW216023   0.836   3.068   7.813  0.4112 -1.0588  0.0479
 1463SOL     OW16024   2.727   1.401   6.339  0.8547 -0.1963  0.0746
 1463SOL    HW116025   2.756   1.444   6.419 -2.3522  2.9357 -0.4163
 1463SOL    HW216026   2.747   1.470   6.275 -0.0627  0.6253  0.6747
 1464SOL     OW16027   1.624   1.118   0.975 -0.5533 -0.4992 -0.3948
 1464SOL    HW116028   1.719   1.111   0.976 -0.4686  0.7280 -0.2388
 1464SOL    HW216029   1.612   1.185   1.042  2.6039  0.0102 -0.3622
 1465SOL     OW16030   4.076   2.823   2.772  0.7143 -0.3070 -0.4568
 1465SOL    HW116031   4.139   2.849   2.839 -1.4423  0.8513  1.1299
 1465SOL    HW216032   4.116   2.742   2.741 -1.2550 -1.6177  0.3993
 1466SOL     OW16033   0.648   1.471  14.507  0.1402 -0.4042  0.0227
 1466SOL    HW116034   0.735   1.431  14.497  0.4371  0.7872 -1.9847
 1466SOL    HW216035   0.675   1.562  14.510 -0.5721 -0.1097 -2.4030
 1467SOL     OW16036   0.870   4.294  10.238 -0.1863  0.6252 -0.4037
 1467SOL    HW116037   0.960   4.294  10.204 -0.1894 -1.3477 -0.4582
 1467SOL    HW216038   0.892   4.251  10.321 -0.7078 -2.1895 -1.7044
 1468SOL     OW16039   1.863   4.735  12.141 -0.6101  0.0769  0.1054
 1468SOL    HW116040   1.957   4.734  12.158 -0.5681 -2.8449 -0.3137
 1468SOL    HW216041   1.825   4.724  12.228 -0.5887  0.4791  0.1692
 1469SOL     OW16042   3.736   1.898   2.454 -0.0568  0.7306  0.1604
 1469SOL    HW116043   3.739   1.986   2.490  0.6741  0.6418  0.3294
 1469SOL    HW216044   3.825   1.874   2.479 -0.0045 -1.5195 -2.1727
 1470SOL     OW16045   1.405   3.865   5.014  0.0238 -0.3571  0.5071
 1470SOL    HW116046   1.401   3.937   4.952 -0.4891  0.0225  0.9769
 1470SOL    HW216047   1.417   3.910   5.098 -1.3595  1.2281 -0.1723
 1471SOL     OW16048   2.576   0.203  15.966  0.1563  0.2977  0.3207
 1471SOL    HW116049   2.636   0.267  16.003 -0.7272 -0.0998  2.3875
 1471SOL    HW216050   2.589   0.213  15.871 -0.2610 -0.7665  0.1421
 1472SOL     OW16051   3.059   4.124   5.405 -1.4313 -0.3071 -0.1927
 1472SOL    HW116052   3.105   4.191   5.456  0.4430 -0.0997 -2.1623
 1472SOL    HW216053   2.994   4.170   5.352 -1.1698 -0.9344 -1.0591
 1473SOL     OW16054   4.361   4.379   4.327  0.2776 -0.1912  0.7129
 1473SOL    HW116055   4.346   4.471   4.347  0.5770  0.1209 -0.5450
 1473SOL    HW216056   4.297   4.332   4.380 -0.3859 -2.4091 -2.0683
 1474SOL     OW16057   0.168   2.542  11.307  0.3362  0.3249  0.1222
 1474SOL    HW116058   0.251   2.556  11.260 -0.2983  1.1420 -0.7761
 1474SOL    HW216059   0.206   2.536  11.394  0.0023  0.6372  0.2885
 1475SOL     OW16060   0.704   1.051   6.265  0.6896  0.5079  0.4956
 1475SOL    HW116061   0.658   1.035   6.183 -0.7568  0.3641  1.3311
 1475SOL    HW216062   0.674   1.135   6.300  1.1416 -0.9770  4.4760
 1476SOL     OW16063   0.671   0.411   8.419  0.5917 -0.1347 -0.0944
 1476SOL    HW116064   0.727   0.340   8.387 -1.7474 -2.0030 -0.0415
 1476SOL    HW216065   0.623   0.438   8.340 -0.0276  2.0299  1.0392
 1477SOL     OW16066   2.376   0.950   8.987 -0.2958  0.8789 -0.6854
 1477SOL    HW116067   2.287   0.935   8.955  0.6564  1.1957 -3.4659
 1477SOL    HW216068   2.418   0.990   8.911  0.0544  2.6220  0.4130
 1478SOL     OW16069   0.805   1.925   3.801 -0.1222 -0.2249 -0.3048
 1478SOL    HW116070   0.738   1.947   3.866  4.0582  4.1747  2.5401
 1478SOL    HW216071   0.883   1.953   3.849 -0.9560  1.0328  0.3107
 1479SOL     OW16072   1.901   2.475   3.719  0.7848  0.2088 -0.6193
 1479SOL    HW116073   1.957   2.551   3.702  1.1453  0.1047  0.0800
 1479SOL    HW216074   1.958   2.428   3.779 -1.8097  0.4605  2.0585
 1480SOL     OW16075   1.594   1.855   0.567 -0.0722 -0.1592 -0.0933
 1480SOL    HW116076   1.514   1.893   0.603  1.0327  1.3324  0.7856
 1480SOL    HW216077   1.610   1.921   0.500  1.6720  0.7153  1.1891
 1481SOL     OW16078   0.606   4.309   9.385  0.2013 -0.0005 -0.3922
 1481SOL    HW116079   0.686   4.359   9.401 -0.0454  0.0964  0.5532
 1481SOL    HW216080   0.573   4.315   9.475  0.3706  0.0086 -0.3319
 1482SOL     OW16081   0.408   1.748   4.452  0.6568 -0.4068  0.0301
 1482SOL    HW116082   0.399   1.689   4.527 -1.8496  0.1618  0.1717
 1482SOL    HW216083   0.441   1.828   4.493 -0.4758  1.3936 -2.5486
 1483SOL     OW16084   0.360   4.626   2.489  0.5680 -0.2306 -0.2244
 1483SOL    HW116085   0.265   4.631   2.479  0.5816 -2.6176 -1.4112
 1483SOL    HW216086   0.384   4.717   2.470 -0.0581 -0.4824 -2.1966
 1484SOL     OW16087   3.958   1.776   5.977  0.0780  0.2275 -0.1328
 1484SOL    HW116088   3.964   1.732   6.062 -0.4301  0.9654  0.2875
 1484SOL    HW216089   3.888   1.841   5.986  1.4634  1.7143  0.0923
 1485SOL     OW16090   3.169   4.235   8.580 -0.2395 -0.1733 -0.1002
 1485SOL    HW116091   3.117   4.303   8.624 -2.5457 -1.6942 -0.5056
 1485SOL    HW216092   3.118   4.209   8.504  0.3557 -0.0844 -0.5305
 1486SOL     OW16093   1.791   2.689  15.411 -0.5170 -0.1711 -0.1788
 1486SOL    HW116094   1.867   2.709  15.466  1.1742 -1.6931 -1.9689
 1486SOL    HW216095   1.809   2.605  15.369  0.2150 -1.4390  2.6981
 1487SOL     OW16096   1.451   2.453  11.494 -0.4633 -0.0616  0.0617
 1487SOL    HW116097   1.514   2.524  11.486  0.7978 -1.1559  0.3830
 1487SOL    HW216098   1.389   2.499  11.551 -1.0511 -1.4743  0.5517
 1488SOL     OW16099   2.812   1.374   9.413 -0.2877 -0.4167  0.9284
 1488SOL    HW116100   2.735   1.419   9.377 -0.5739  0.4491  2.6386
 1488SOL    HW216101   2.785   1.282   9.414  1.6092 -0.9829 -0.4589
 1489SOL     OW16102   1.259   4.688   6.379  0.3796 -0.7548  0.0954
 1489SOL    HW116103   1.173   4.647   6.382 -0.1505  0.4375  1.4085
 1489SOL    HW216104   1.293   4.642   6.302  1.2799 -2.4881  1.5334
 1490SOL     OW16105   3.818   1.867   7.441 -0.0594 -0.1573 -0.1976
 1490SOL    HW116106   3.841   1.863   7.348  0.7787 -1.2176  0.0562
 1490SOL    HW216107   3.853   1.786   7.477 -2.1718 -1.3828 -0.9063
 1491SOL     OW16108   0.921   4.492  17.335 -0.5961  0.6424  0.6409
 1491SOL    HW116109   0.832   4.466  17.308 -0.0171  1.4426 -2.0168
 1491SOL    HW216110   0.911   4.523  17.425  1.6295 -0.4062  1.2338
 1492SOL     OW16111   2.934   2.361   6.336 -0.1009 -0.0727 -0.2338
 1492SOL    HW116112   3.018   2.402   6.317 -0.2825  1.0223  1.3726
 1492SOL    HW216113   2.965   2.279   6.373  0.9825  0.3288 -0.2690
 1493SOL     OW16114   1.133   4.286   3.398  0.0548 -0.6482  0.0113
 1493SOL    HW116115   1.058   4.315   3.450  0.2668 -0.1787  0.0604
 1493SOL    HW216116   1.160   4.213   3.454  2.3660 -0.3069 -0.6597
 1494SOL     OW16117   0.477   2.514   7.395  0.5270  0.0307  0.3559
 1494SOL    HW116118   0.568   2.500   7.369  0.4167 -1.5004  0.8070
 1494SOL    HW216119   0.467   2.455   7.470  2.0308  1.6364  1.8456
 1495SOL     OW16120   3.015   3.514   1.567  0.0613 -0.4405 -0.3615
 1495SOL    HW116121   2.990   3.445   1.506 -0.1580 -0.4481 -0.2637
 1495SOL    HW216122   2.964   3.593   1.549  0.3006 -0.1377  0.3074
 1496SOL     OW16123   0.164   2.099   7.570  0.2984 -0.4410  0.0077
 1496SOL    HW116124   0.140   2.032   7.507 -0.8918 -1.1691  1.2186
 1496SOL    HW216125   0.182   2.175   7.514 -1.3135 -1.1807 -1.5067
 1497SOL     OW16126   1.247   0.678   4.998 -0.7310 -0.1915 -0.9362
 1497SOL    HW116127   1.214   0.686   4.908 -3.2134 -3.1454 -0.2846
 1497SOL    HW216128   1.321   0.739   4.998 -1.3784  0.5827 -1.2139
 1498SOL     OW16129   3.961   3.385   2.671 -0.0896  0.4113  0.4004
 1498SOL    HW116130   3.963   3.319   2.602 -0.2240  1.1511 -0.3124
 1498SOL    HW216131   3.888   3.440   2.643 -1.7611 -1.2091  1.6083
 1499SOL     OW16132   0.640   0.409  10.313 -0.2091  0.2615 -0.0104
 1499SOL    HW116133   0.666   0.399  10.221 -1.3787 -1.4729 -0.1582
 1499SOL    HW216134   0.599   0.324  10.331 -1.2592  0.5600 -0.9932
 1500SOL     OW16135   2.096   2.491   4.638 -0.3963 -0.1565 -0.0460
 1500SOL    HW116136   2.140   2.570   4.668 -0.9227  1.2709 -2.9690
 1500SOL    HW216137   2.171   2.435   4.655  1.6270  3.0690  1.5396
 1501SOL     OW16138   4.334   0.228  17.508  0.2374 -0.4475 -0.1549
 1501SOL    HW116139   4.296   0.168  17.444 -0.0114 -0.4897  0.0309
 1501SOL    HW216140   4.312   0.179  17.588  0.0383 -0.2476 -0.0878
 1502SOL     OW16141   3.694   3.614   1.664 -0.0768 -0.4787 -0.0347
 1502SOL    HW116142   3.634   3.681   1.632 -0.1480  0.0495  1.1929
 1502SOL    HW216143   3.676   3.553   1.593  0.8153  0.2760 -0.8968
 1503SOL     OW16144   1.362   2.699   3.627 -0.3001 -0.4312 -0.6458
 1503SOL    HW116145   1.302   2.634   3.663 -0.9128  1.2106  1.2739
 1503SOL    HW216146   1.446   2.654   3.617 -0.3367 -0.0206 -2.8113
 1504SOL     OW16147   4.312   1.839   4.677 -0.3076  0.3938 -0.4620
 1504SOL    HW116148   4.303   1.907   4.744 -1.3749  1.5744 -1.7907
 1504SOL    HW216149   4.238   1.859   4.619 -0.8123 -0.4553 -0.1067
 1505SOL     OW16150   4.322   2.388  11.858 -0.0418  0.0195  0.1372
 1505SOL    HW116151   4.251   2.325  11.865  0.2262 -0.3656 -0.5857
 1505SOL    HW216152   4.330   2.420  11.948 -0.6105  1.2869 -0.2612
 1506SOL     OW16153   2.995   0.403   2.758 -0.4570 -0.2651  0.7306
 1506SOL    HW116154   2.950   0.324   2.788  0.9786 -1.0600  0.8271
 1506SOL    HW216155   2.918   0.439   2.715  0.2056 -2.2934 -2.2079
 1507SOL     OW16156   3.268   0.838   5.170 -0.5198 -0.5159 -0.5014
 1507SOL    HW116157   3.339   0.781   5.199  0.5149 -0.0213 -2.0360
 1507SOL    HW216158   3.207   0.797   5.232 -1.6689  1.4517 -0.3110
 1508SOL     OW16159   4.312   3.553   5.706  0.1655  0.1714  0.6369
 1508SOL    HW116160   4.226   3.581   5.674  0.5004  0.0058 -0.4263
 1508SOL    HW216161   4.324   3.472   5.656 -0.9008 -0.1449  0.9102
 1509SOL     OW16162   2.612   3.292   3.985  0.2232 -0.4509  0.1176
 1509SOL    HW116163   2.634   3.203   4.011  0.1430 -1.0340 -1.7803
 1509SOL    HW216164   2.582   3.326   4.069 -1.7634 -0.6897 -0.5034
 1510SOL     OW16165   3.056   2.902  10.733  0.1821  0.0773  0.1224
 1510SOL    HW116166   2.973   2.861  10.708  0.8673 -0.1736 -1.7240
 1510SOL    HW216167   3.090   2.929  10.648  2.0630 -0.2328  0.7778
 1511SOL     OW16168   3.573   4.341   4.091  0.8836 -0.2890  0.2177
 1511SOL    HW116169   3.569   4.352   4.186 -1.4281 -2.9084  0.4360
 1511SOL    HW216170   3.492   4.381   4.060  1.0505 -0.9631 -1.0721
 1512SOL     OW16171   0.591   2.920   5.378 -0.0598  0.4737 -0.6208
 1512SOL    HW116172   0.621   3.004   5.344  1.9724  0.8946  2.2262
 1512SOL    HW216173   0.653   2.898   5.448 -1.8646 -1.2108  0.4510
 1513SOL     OW16174   2.176   0.676   5.654  0.3201  0.1457 -0.4123
 1513SOL    HW116175   2.238   0.646   5.721 -1.0558 -2.3480 -0.2448
 1513SOL    HW216176   2.096   0.668   5.705 -0.2493  0.5287 -1.2387
 1514SOL     OW16177   0.802   3.178   3.562  0.1468  0.3011  0.1914
 1514SOL    HW116178   0.758   3.097   3.539 -1.0630  1.3637 -1.2300
 1514SOL    HW216179   0.894   3.167   3.540  0.0196  0.1724 -0.2715
 1515SOL     OW16180   0.005   3.587  17.639 -0.3720  0.1176 -0.8877
 1515SOL    HW116181   0.009   3.534  17.718 -1.7070  0.2162 -0.7531
 1515SOL    HW216182   4.654   3.629  17.638  0.8978  2.7827  2.6260
 1516SOL     OW16183   1.519   4.213   2.320 -0.5695 -0.4995  0.1582
 1516SOL    HW116184   1.539   4.186   2.410  2.1386  0.7693 -0.0565
 1516SOL    HW216185   1.594   4.165   2.286 -1.1843 -1.2405 -0.1369
 1517SOL     OW16186   1.974   2.495  16.167  0.1117 -0.2168  0.2891
 1517SOL    HW116187   1.933   2.558  16.226  1.1927 -1.7010  2.6625
 1517SOL    HW216188   2.051   2.546  16.141  1.5967 -1.6063  1.9603
 1518SOL     OW16189   0.833   2.876   3.683 -0.1262  0.0988  0.4960
 1518SOL    HW116190   0.792   2.794   3.656 -1.1508  1.1744 -1.1972
 1518SOL    HW216191   0.814   2.935   3.610  0.6202  1.0587  1.0787
 1519SOL     OW16192   1.766   2.087   0.004 -0.0817 -0.6742 -0.2300
 1519SOL    HW116193   1.692   2.064   0.060 -0.1558  1.8175  0.6897
 1519SOL    HW216194   1.793   2.002  17.710  1.8718 -0.3703  0.4857
 1520SOL     OW16195   0.425   2.739   2.636 -0.3170  0.5094  0.2984
 1520SOL    HW116196   0.391   2.657   2.601 -0.2962  0.3084  0.7447
 1520SOL    HW216197   0.423   2.791   2.556 -0.6863  1.2679  0.7967
 1521SOL     OW16198   0.167   3.468   8.239  0.1779  0.4361 -0.1370
 1521SOL    HW116199   0.260   3.478   8.259  1.0537 -0.4615 -3.8817
 1521SOL    HW216200   0.165   3.450   8.145 -0.2591 -1.1445  0.1806
 1522SOL     OW16201   3.650   3.691   5.351  0.0761  0.0459  0.8000
 1522SOL    HW116202   3.709   3.722   5.282 -2.8482 -0.6601 -2.0005
 1522SOL    HW216203   3.613   3.773   5.385 -1.3066 -0.7633  1.2323
 1523SOL     OW16204   1.862   1.127   4.530 -0.4517  0.0114  0.0294
 1523SOL    HW116205   1.884   1.047   4.579  2.1597  0.5958 -0.1773
 1523SOL    HW216206   1.773   1.146   4.560 -0.7973 -1.7479  0.1381
 1524SOL     OW16207   3.288   2.792  10.846  0.0415  0.0964 -0.2604
 1524SOL    HW116208   3.271   2.768  10.937 -0.3232 -0.4985 -0.4911
 1524SOL    HW216209   3.199   2.819  10.820  0.1396 -0.8358 -1.5279
 1525SOL     OW16210   1.610   3.229  10.588 -0.0944 -0.2329  0.2687
 1525SOL    HW116211   1.647   3.299  10.641  0.3174 -0.3959  0.1912
 1525SOL    HW216212   1.630   3.239  10.495  0.9363 -1.7048  0.3294
 1526SOL     OW16213   1.982   3.964  12.296 -0.4436  0.0224  0.1120
 1526SOL    HW116214   2.061   3.919  12.266  0.7172  0.3696  2.6645
 1526SOL    HW216215   1.917   3.946  12.228 -1.4955  0.5341  0.9877
 1527SOL     OW16216   3.752   2.651   0.740 -0.3773 -0.0026 -0.4111
 1527SOL    HW116217   3.795   2.616   0.818 -1.6163  0.6361  0.5675
 1527SOL    HW216218   3.779   2.582   0.680  0.6281  2.1849 -2.4694
 1528SOL     OW16219   3.084   1.134  12.461  0.0483  0.0453 -0.6121
 1528SOL    HW116220   3.104   1.222  12.491  2.9539 -0.8357  0.1258
 1528SOL    HW216221   3.162   1.080  12.479 -1.8220 -1.9524  1.4581
 1529SOL     OW16222   4.517   2.961   3.732 -0.6072  0.2494 -0.2556
 1529SOL    HW116223   4.470   2.882   3.708  2.7333 -0.9963 -2.7637
 1529SOL    HW216224   4.447   3.023   3.711  1.1742  1.7219 -1.9139
 1530SOL     OW16225   4.063   2.142   6.056  0.1459  0.1746 -0.1264
 1530SOL    HW116226   4.002   2.216   6.060  0.0312  0.0706  0.0608
 1530SOL    HW216227   4.052   2.110   6.146  2.1744 -1.7336 -0.5566
 1531SOL     OW16228   1.541   4.456   6.456  0.4772 -0.5573  0.4844
 1531SOL    HW116229   1.470   4.471   6.394  1.1614  1.7691  0.2252
 1531SOL    HW216230   1.550   4.544   6.494  2.2956  0.1302 -1.5596
 1532SOL     OW16231   4.308   3.472   2.583  0.0933  0.0928 -0.0235
 1532SOL    HW116232   4.387   3.485   2.637  1.0565 -1.0918 -1.1491
 1532SOL    HW216233   4.281   3.388   2.620  1.6563  0.7996  2.7998
 1533SOL     OW16234   0.503   0.319   6.659 -0.0145  0.7203  0.2521
 1533SOL    HW116235   0.510   0.328   6.754  0.6256 -0.0697  0.2841
 1533SOL    HW216236   0.580   0.263   6.643 -1.3747 -1.4747  1.3184
 1534SOL     OW16237   0.808   0.749   9.269  0.6321  0.4147  0.3180
 1534SOL    HW116238   0.800   0.793   9.354  0.5283  0.5774  0.2244
 1534SOL    HW216239   0.726   0.701   9.258  0.7061  0.1527  0.8998
 1535SOL     OW16240   1.510   0.937   1.978 -0.0715  0.2281 -0.0842
 1535SOL    HW116241   1.466   0.891   2.049 -0.3613 -0.0256 -0.4263
 1535SOL    HW216242   1.531   0.856   1.931 -1.3258 -0.1739  0.0697
 1536SOL     OW16243   4.527   1.474  10.874  0.3450 -0.5812  0.0364
 1536SOL    HW116244   4.556   1.420  10.800  0.4101 -0.2740 -0.1632
 1536SOL    HW216245   4.611   1.499  10.912 -0.7800  2.0293  0.7931
 1537SOL     OW16246   1.181   4.390   1.414  0.6599 -0.1654  0.6399
 1537SOL    HW116247   1.161   4.336   1.491 -1.5388 -1.8489 -1.1253
 1537SOL    HW216248   1.257   4.347   1.375 -1.3258 -2.0465 -1.1783
 1538SOL     OW16249   2.032   4.418   2.955  0.1618 -0.0997  0.3436
 1538SOL    HW116250   2.093   4.483   2.990  0.2272 -0.3332  0.6638
 1538SOL    HW216251   1.984   4.472   2.893  0.2009 -0.5045 -0.0470
 1539SOL     OW16252   4.165   4.261   9.533  0.0615  0.5110  0.0878
 1539SOL    HW116253   4.124   4.340   9.568 -0.1530  1.7484 -2.9036
 1539SOL    HW216254   4.114   4.247   9.453  1.3116 -0.6370 -0.5013
 1540SOL     OW16255   2.448   1.958   3.917  0.3775  0.4952 -0.0405
 1540SOL    HW116256   2.412   2.046   3.910  0.1394  0.2081 -2.3241
 1540SOL    HW216257   2.516   1.954   3.849 -0.1905 -0.9509 -0.5294
 1541SOL     OW16258   4.479   2.041   2.497  0.2934 -0.0564  0.5214
 1541SOL    HW116259   4.450   2.128   2.525  0.6156  0.1398  0.2421
 1541SOL    HW216260   4.438   1.987   2.564  0.8074  1.1740  1.8136
 1542SOL     OW16261   1.521   0.651   3.804 -0.0931 -0.7372  0.7051
 1542SOL    HW116262   1.431   0.643   3.835 -0.2824 -1.9527 -0.1409
 1542SOL    HW216263   1.569   0.582   3.849  1.1979  0.8359  1.7385
 1543SOL     OW16264   2.900   4.071   5.905 -0.5134 -0.2649 -0.1113
 1543SOL    HW116265   2.833   4.033   5.962 -0.2513  0.3054  0.5833
 1543SOL    HW216266   2.850   4.083   5.824 -1.0354  2.1538  0.5592
 1544SOL     OW16267   2.441   2.568   0.374 -0.4221 -0.3712  1.2154
 1544SOL    HW116268   2.368   2.629   0.385 -0.0679  0.5592 -1.7310
 1544SOL    HW216269   2.488   2.576   0.457  1.0769 -2.5332  0.5580
 1545SOL     OW16270   3.533   2.278   9.412  0.1366 -0.1046 -0.0978
 1545SOL    HW116271   3.623   2.297   9.437 -0.3990 -0.2887  1.9894
 1545SOL    HW216272   3.512   2.358   9.364  0.1830 -1.6966 -2.7387
 1546SOL     OW16273   0.763   0.184   1.730  0.3077 -0.0692 -0.4741
 1546SOL    HW116274   0.668   0.182   1.745  0.3055  1.4791 -0.2307
 1546SOL    HW216275   0.788   0.102   1.772 -0.4927 -0.1008 -0.0628
 1547SOL     OW16276   2.131   0.436   5.155 -0.6628 -0.0322  0.6750
 1547SOL    HW116277   2.185   0.513   5.173 -2.9290  1.4678  1.1875
 1547SOL    HW216278   2.167   0.416   5.069 -1.3996  1.2705  0.0620
 1548SOL     OW16279   1.745   1.459   4.759 -0.3743  0.2846  0.2389
 1548SOL    HW116280   1.832   1.473   4.797 -1.2507  0.9925  1.9822
 1548SOL    HW216281   1.686   1.449   4.833 -2.1118  0.7427 -1.0859
 1549SOL     OW16282   0.047   1.431  13.206 -0.5966 -0.3650 -0.2732
 1549SOL    HW116283   0.070   1.474  13.288  1.7416 -0.6200 -0.7967
 1549SOL    HW216284   0.095   1.349  13.218 -1.9817 -0.8114  2.2711
 1550SOL     OW16285   4.456   1.493   2.833  0.3363  0.4217  0.3810
 1550SOL    HW116286   4.508   1.420   2.798 -0.1714  0.1073  0.2774
 1550SOL    HW216287   4.457   1.554   2.759  2.1023  0.9249  0.8216
 1551SOL     OW16288   0.743   2.153   9.000  0.3990  0.7946  0.3059
 1551SOL    HW116289   0.679   2.212   8.961 -0.2087 -0.2207 -0.2374
 1551SOL    HW216290   0.742   2.171   9.094 -0.1260 -0.4326  0.5365
 1552SOL     OW16291   2.520   4.403   0.265  0.3255  0.6618  0.8709
 1552SOL    HW116292   2.481   4.423   0.350  1.3358 -0.5595  1.6079
 1552SOL    HW216293   2.442   4.404   0.210  0.8082  1.1410  0.1952
 1553SOL     OW16294   3.370   2.383  11.557 -0.0770 -0.0224  0.2112
 1553SOL    HW116295   3.393   2.445  11.626 -0.7275 -0.7498  1.0839
 1553SOL    HW216296   3.366   2.445  11.485 -0.1287 -1.0958 -0.7081
 1554SOL     OW16297   3.924   3.574   1.805  0.1286 -0.6297 -0.1416
 1554SOL    HW116298   3.957   3.662   1.786  0.5044 -1.2031 -2.1853
 1554SOL    HW216299   3.835   3.583   1.771 -0.7551  1.3886  2.7272
 1555SOL     OW16300   3.062   2.192   4.797  0.3423  0.3564 -0.2472
 1555SOL    HW116301   3.003   2.200   4.722  0.0084  0.5515  0.0340
 1555SOL    HW216302   3.136   2.250   4.778  0.3530  0.6256  0.6214
 1556SOL     OW16303   1.900   1.166   2.329  0.3133 -0.3264 -0.2044
 1556SOL    HW116304   1.964   1.108   2.371  0.9821  0.8243  0.3742
 1556SOL    HW216305   1.944   1.249   2.346  0.5222 -0.7702  1.4750
 1557SOL     OW16306   0.062   1.274  10.541 -0.1764  0.4977 -0.3418
 1557SOL    HW116307   0.131   1.329  10.576 -1.1292  1.4335  0.0840
 1557SOL    HW216308   0.047   1.218  10.617 -1.6340 -3.2361 -3.3933
 1558SOL     OW16309   0.667   4.160   7.750  0.0101  0.6726 -0.3143
 1558SOL    HW116310   0.708   4.075   7.736 -0.0738  0.5347  0.3056
 1558SOL    HW216311   0.738   4.219   7.777 -0.0129  0.7368 -0.3951
 1559SOL     OW16312   2.141   3.471   4.676 -0.5151  0.0426  0.3518
 1559SOL    HW116313   2.215   3.483   4.616 -0.4830 -1.9303 -0.0093
 1559SOL    HW216314   2.075   3.442   4.613  0.2350  0.5242 -0.6643
 1560SOL     OW16315   3.524   2.767   1.951  0.0424 -0.0602  0.3229
 1560SOL    HW116316   3.555   2.691   1.901 -0.9001 -1.6168  2.0901
 1560SOL    HW216317   3.550   2.747   2.041 -1.6633  0.6712  0.9810
 1561SOL     OW16318   3.896   0.904   7.096 -0.0714 -0.2865 -0.1287
 1561SOL    HW116319   3.876   0.927   7.005  0.4323  1.2489  0.1418
 1561SOL    HW216320   3.952   0.979   7.118 -0.4986 -0.3570  1.1840
 1562SOL     OW16321   2.229   4.654   7.080 -0.5643 -0.2537 -0.3916
 1562SOL    HW116322   2.209   4.710   7.156  3.0144  0.8343 -0.2840
 1562SOL    HW216323   2.318   4.685   7.066 -0.2086 -0.4548  1.3786
 1563SOL     OW16324   4.056   4.465   8.528 -0.4843 -0.3680  0.1615
 1563SOL    HW116325   4.069   4.556   8.503 -2.9476 -0.5776 -1.8303
 1563SOL    HW216326   4.147   4.443   8.550 -0.5367  1.2215  2.0048
 1564SOL     OW16327   2.597   0.554   9.355  0.3852 -0.2786 -0.2759
 1564SOL    HW116328   2.617   0.461   9.368  1.5942  0.0854  0.5530
 1564SOL    HW216329   2.607   0.582   9.446 -0.7050 -0.8415  0.0055
 1565SOL     OW16330   1.765   1.310   5.617  0.1908 -0.8928 -0.0511
 1565SOL    HW116331   1.825   1.311   5.542  0.6792  2.2279  0.3772
 1565SOL    HW216332   1.754   1.404   5.632  0.7556 -1.0122  1.1033
 1566SOL     OW16333   3.815   1.934  11.217  0.4830 -0.1322 -0.3972
 1566SOL    HW116334   3.908   1.919  11.201  0.8486  0.5248  1.0953
 1566SOL    HW216335   3.777   1.955  11.132  0.3309  0.9240 -0.0748
 1567SOL     OW16336   4.457   4.480   6.450  0.2648  0.3476  0.3149
 1567SOL    HW116337   4.459   4.433   6.366  0.6968  0.5387  0.2173
 1567SOL    HW216338   4.435   4.406   6.507 -1.3819 -1.0967 -2.1572
 1568SOL     OW16339   1.464   3.765   8.063 -0.5747  0.4139 -0.1518
 1568SOL    HW116340   1.370   3.764   8.045 -0.3860 -1.3049 -1.0492
 1568SOL    HW216341   1.499   3.788   7.977  0.6008  1.4953  0.6079
 1569SOL     OW16342   0.928   2.488   8.495  0.4747 -0.1277  0.1263
 1569SOL    HW116343   0.953   2.546   8.567  0.6320  0.2747 -0.2528
 1569SOL    HW216344   1.016   2.461   8.468 -0.2211 -2.0899 -0.1343
 1570SOL     OW16345   2.037   0.496   6.687  0.1332  0.2968 -0.0314
 1570SOL    HW116346   2.113   0.451   6.651 -2.5757 -2.6911 -1.9645
 1570SOL    HW216347   1.963   0.450   6.647 -2.3769  2.2543  2.3642
 1571SOL     OW16348   3.476   0.107   9.064 -0.2921  0.4912  0.0624
 1571SOL    HW116349   3.421   0.184   9.079 -0.2433  0.7615 -1.1691
 1571SOL    HW216350   3.414   0.037   9.041  0.3794 -0.5844  1.5148
 1572SOL     OW16351   0.007   3.411  15.624 -0.0330 -0.1189 -0.0377
 1572SOL    HW116352   4.724   3.396  15.531 -0.3544  0.9869 -0.1477
 1572SOL    HW216353   0.047   3.330  15.655  3.1185  1.6733  0.5863
 1573SOL     OW16354   2.599   0.616   7.025  0.1081  0.0778  0.3842
 1573SOL    HW116355   2.531   0.680   7.044 -1.2515 -1.6447  1.2479
 1573SOL    HW216356   2.645   0.620   7.109  0.7578  0.0647  0.0368
 1574SOL     OW16357   3.644   4.139   5.994 -0.4737 -0.8040  0.0911
 1574SOL    HW116358   3.591   4.059   5.996  0.4983 -1.4599 -0.7685
 1574SOL    HW216359   3.733   4.105   5.999 -0.3816 -0.5825 -0.0733
 1575SOL     OW16360   0.292   1.545   5.530 -0.4760 -0.0287  0.2231
 1575SOL    HW116361   0.252   1.628   5.553 -1.5607 -0.2518 -0.8280
 1575SOL    HW216362   0.207   1.506   5.511 -0.7890  1.1842 -0.8186
 1576SOL     OW16363   2.506   0.452   2.762  0.0428  0.4218  0.8776
 1576SOL    HW116364   2.582   0.465   2.704 -0.6420  1.7403  0.2821
 1576SOL    HW216365   2.548   0.392   2.824  0.1031  1.1262  1.5263
 1577SOL     OW16366   2.927   2.893  11.562  0.6756 -0.1321 -0.1454
 1577SOL    HW116367   2.900   2.818  11.508  0.5701 -0.7635  0.7706
 1577SOL    HW216368   2.990   2.853  11.622  2.0503  0.6919 -1.0674
 1578SOL     OW16369   3.885   3.772   4.446 -0.4563  0.5434 -0.1303
 1578SOL    HW116370   3.890   3.857   4.403  0.7593  1.1282  1.1887
 1578SOL    HW216371   3.813   3.744   4.389 -0.5533  0.7939 -0.1294
 1579SOL     OW16372   3.993   1.740   2.881 -0.3690  0.3046  0.3308
 1579SOL    HW116373   4.007   1.784   2.965  0.0596  3.2648 -1.2802
 1579SOL    HW216374   4.060   1.671   2.880  0.2509  0.9024  0.2963
 1580SOL     OW16375   1.133   3.319  16.397  0.5278  0.0634  0.0880
 1580SOL    HW116376   1.189   3.341  16.322 -0.9894  1.2160 -0.6883
 1580SOL    HW216377   1.051   3.362  16.375  0.7754  0.6738  0.3762
 1581SOL     OW16378   4.565   4.438   4.706  0.6660 -0.0315  0.3563
 1581SOL    HW116379   4.595   4.501   4.640  0.8483 -0.6496 -0.1522
 1581SOL    HW216380   4.556   4.358   4.655  2.4816 -0.2457  0.3530
 1582SOL     OW16381   3.744   1.628   2.786 -0.3651 -0.0426 -0.2584
 1582SOL    HW116382   3.819   1.684   2.804 -0.3496 -0.2027  0.1601
 1582SOL    HW216383   3.701   1.625   2.871 -2.2258  2.2635 -1.1173
 1583SOL     OW16384   4.443   2.652   9.192  0.3019 -0.5962 -0.2235
 1583SOL    HW116385   4.528   2.645   9.236 -0.7965 -4.2239  1.3268
 1583SOL    HW216386   4.391   2.667   9.271  1.0962  0.4826  0.0885
 1584SOL     OW16387   0.089   2.893   8.397  0.0258  0.1492  0.5313
 1584SOL    HW116388   0.077   2.818   8.338 -1.7356  1.8335 -1.2609
 1584SOL    HW216389   0.005   2.890   8.442 -0.2432 -1.8017 -0.0719
 1585SOL     OW16390   0.893   2.042   6.225  0.0291 -0.0182 -0.3826
 1585SOL    HW116391   0.827   1.973   6.219 -1.9637  1.8726 -0.4449
 1585SOL    HW216392   0.849   2.099   6.289  2.0750 -0.8491  1.7259
 1586SOL     OW16393   4.543   2.239   7.703  0.4452 -0.1442 -0.2901
 1586SOL    HW116394   4.615   2.180   7.681 -0.4067 -1.1378 -0.4104
 1586SOL    HW216395   4.553   2.239   7.798 -2.5549  1.2429 -0.0016
 1587SOL     OW16396   1.509   2.654   5.498 -0.6376 -0.5070  0.1582
 1587SOL    HW116397   1.422   2.616   5.510  0.3871 -1.6782  3.9693
 1587SOL    HW216398   1.551   2.629   5.581 -1.2292  0.6677  0.8221
 1588SOL     OW16399   3.297   2.191   3.176  0.0580  0.8874 -0.5050
 1588SOL    HW116400   3.226   2.226   3.121  0.8512 -2.7820 -3.8333
 1588SOL    HW216401   3.268   2.104   3.203 -1.5064  2.0701  1.5891
 1589SOL     OW16402   3.718   2.127   2.624  0.8266 -0.0280 -0.1544
 1589SOL    HW116403   3.736   2.214   2.589 -0.3663  0.3130  0.0884
 1589SOL    HW216404   3.661   2.151   2.697  1.3423  2.5513 -0.6091
 1590SOL     OW16405   1.448   3.947   8.279 -0.0239 -0.4807 -0.4825
 1590SOL    HW116406   1.469   3.874   8.220  0.0343 -0.7859 -0.0849
 1590SOL    HW216407   1.534   3.988   8.284 -0.1273 -0.3880  0.4422
 1591SOL     OW16408   3.066   4.077  13.005  0.1174 -0.5146  0.1725
 1591SOL    HW116409   3.127   4.151  13.002  1.8529 -2.0435 -2.2922
 1591SOL    HW216410   3.081   4.049  13.095  1.4675 -0.8083 -0.1404
 1592SOL     OW16411   2.110   2.071   7.982  0.5043  0.0741  0.3513
 1592SOL    HW116412   2.072   2.158   7.996  0.5818  0.1390  0.1606
 1592SOL    HW216413   2.051   2.010   8.025 -2.0616  2.9414  0.8769
 1593SOL     OW16414   2.658   4.415   5.748 -1.1075 -0.0158 -0.0485
 1593SOL    HW116415   2.743   4.372   5.745 -0.4962  0.9271  3.4428
 1593SOL    HW216416   2.674   4.503   5.715  0.1275 -1.0542 -2.1892
 1594SOL     OW16417   4.683   4.397   7.325 -0.5315  0.0544 -0.3124
 1594SOL    HW116418   4.635   4.428   7.248 -0.9839  0.1937  0.0275
 1594SOL    HW216419   4.610   4.377   7.383 -0.0218 -0.4001  0.1721
 1595SOL     OW16420   3.753   0.358  15.401  0.0015 -0.3571  0.3105
 1595SOL    HW116421   3.835   0.373  15.448  0.7095 -1.4885 -0.5591
 1595SOL    HW216422   3.793   0.352  15.314  0.0186 -0.2746  0.3129
 1596SOL     OW16423   0.635   0.627   7.401  0.9118 -1.1675 -0.2248
 1596SOL    HW116424   0.572   0.649   7.470  0.6646 -0.0292 -0.8027
 1596SOL    HW216425   0.639   0.535   7.426 -1.5734 -0.5329  2.5986
 1597SOL     OW16426   2.856   3.796  10.668 -0.1178 -0.4060  0.1623
 1597SOL    HW116427   2.834   3.874  10.618 -1.2369 -1.3421 -0.8245
 1597SOL    HW216428   2.879   3.734  10.599 -1.1085  0.1821 -0.7003
 1598SOL     OW16429   3.053   4.096  16.755 -0.5650 -0.2679  0.2842
 1598SOL    HW116430   3.078   4.170  16.700 -0.0023 -0.3981  0.3586
 1598SOL    HW216431   3.031   4.031  16.689  1.8839  1.1214 -1.9161
 1599SOL     OW16432   1.445   3.572   8.491 -0.0595 -0.3487 -0.3822
 1599SOL    HW116433   1.453   3.494   8.545  1.3717 -0.0157 -0.1281
 1599SOL    HW216434   1.409   3.634   8.555 -3.5202 -1.3612 -1.3199
 1600SOL     OW16435   4.548   2.239   4.524  0.8412 -0.2757 -0.2492
 1600SOL    HW116436   4.595   2.303   4.578  1.1659  0.6625 -1.6337
 1600SOL    HW216437   4.550   2.285   4.440  2.1749  0.5043  0.1922
 1601SOL     OW16438   2.330   1.433   3.978  0.3990  0.0675  0.0652
 1601SOL    HW116439   2.381   1.510   4.002 -1.1748  1.5785 -1.3759
 1601SOL    HW216440   2.240   1.455   4.001  0.5504  1.8435 -0.9807
 1602SOL     OW16441   2.117   3.973   6.813  0.5316  0.3961  0.2981
 1602SOL    HW116442   2.051   3.949   6.878  0.6747  0.4626  0.4687
 1602SOL    HW216443   2.130   3.883   6.784  0.4821  1.0416 -1.7111
 1603SOL     OW16444   2.490   2.119   4.684 -0.7151 -0.3374  0.1318
 1603SOL    HW116445   2.452   2.042   4.642 -1.2086 -0.4777  0.8315
 1603SOL    HW216446   2.563   2.079   4.732  0.7197  1.9110 -0.1705
 1604SOL     OW16447   1.449   0.278  13.061  0.6524 -0.0472 -0.3035
 1604SOL    HW116448   1.423   0.369  13.071 -1.7614 -0.9375  1.4662
 1604SOL    HW216449   1.542   0.295  13.078  0.7712 -2.6187  1.6816
 1605SOL     OW16450   2.459   1.262   8.925 -0.6622 -0.6931 -0.5723
 1605SOL    HW116451   2.370   1.264   8.959 -0.2284  0.6721  0.4890
 1605SOL    HW216452   2.468   1.188   8.865 -1.9989  0.3700 -2.0962
 1606SOL     OW16453   1.738   1.115   2.007 -0.1444 -0.6317  0.3254
 1606SOL    HW116454   1.677   1.045   1.985 -0.4727 -1.2408  3.1434
 1606SOL    HW216455   1.813   1.061   2.029 -0.7889 -1.4344  0.5486
 1607SOL     OW16456   2.041   1.670   5.583  0.7079 -0.2084 -0.3180
 1607SOL    HW116457   2.060   1.577   5.591  1.2412 -0.2291 -1.7301
 1607SOL    HW216458   2.126   1.712   5.600 -0.3307  1.9567 -0.3828
 1608SOL     OW16459   2.648   1.536   9.602  0.2553 -0.0049 -0.2132
 1608SOL    HW116460   2.669   1.458   9.652  0.7286 -0.1170 -0.5842
 1608SOL    HW216461   2.593   1.587   9.662 -1.7853  0.1964 -2.2560
 1609SOL     OW16462   1.609   0.240   2.087 -0.0292 -0.1283 -0.1476
 1609SOL    HW116463   1.663   0.315   2.113  0.9114 -0.3556 -1.4576
 1609SOL    HW216464   1.671   0.169   2.105 -0.5330 -1.0191 -1.9214
 1610SOL     OW16465   2.006   1.373  15.214 -0.2208 -0.0309 -0.5740
 1610SOL    HW116466   2.079   1.386  15.154  0.0259  2.6154  0.3330
 1610SOL    HW216467   2.060   1.387  15.292 -4.1009 -1.8255  2.4708
 1611SOL     OW16468   2.746   2.948   6.173  0.0021 -0.2217 -0.5908
 1611SOL    HW116469   2.808   2.877   6.193  0.5143  0.6552  0.9229
 1611SOL    HW216470   2.766   3.011   6.241 -0.8045  0.7242 -1.2365
 1612SOL     OW16471   1.765   3.241   8.295 -0.3727  0.0226 -0.0855
 1612SOL    HW116472   1.723   3.237   8.381 -0.0013  2.2003  0.1850
 1612SOL    HW216473   1.820   3.318   8.311 -1.4287  0.2915  2.3826
 1613SOL     OW16474   3.985   0.935   4.270  0.8078  0.3216  0.1809
 1613SOL    HW116475   3.899   0.915   4.232  0.0536  3.2513  0.3366
 1613SOL    HW216476   3.945   0.994   4.334 -2.6202 -0.4320 -1.2419
 1614SOL     OW16477   4.692   3.242  12.730 -0.8546 -0.2819 -0.3292
 1614SOL    HW116478   4.725   3.221  12.818  3.0751 -0.3839 -1.7974
 1614SOL    HW216479   4.711   3.336  12.726  2.9786 -1.0262  0.3177
 1615SOL     OW16480   3.752   2.698  12.656  0.1084  0.2628 -0.6035
 1615SOL    HW116481   3.747   2.759  12.730 -2.2668  0.2065 -0.6982
 1615SOL    HW216482   3.785   2.757  12.589 -2.1536  2.1802 -0.0380
 1616SOL     OW16483   1.108   2.682   3.396 -0.1227  0.1721 -0.2637
 1616SOL    HW116484   1.048   2.608   3.408  0.6600  0.1195  3.3670
 1616SOL    HW216485   1.161   2.665   3.474  0.1435  3.7758  0.3069
 1617SOL     OW16486   0.300   2.634   2.093  0.6836  0.0473  0.4260
 1617SOL    HW116487   0.356   2.556   2.099 -1.1653 -1.2042  1.3014
 1617SOL    HW216488   0.352   2.697   2.042 -0.5358  2.3684  2.0879
 1618SOL     OW16489   0.723   1.584   9.282  0.0203  0.3475 -0.1731
 1618SOL    HW116490   0.743   1.577   9.375  1.5767 -0.5975 -0.5751
 1618SOL    HW216491   0.805   1.611   9.240  0.3598  1.3856  1.1624
 1619SOL     OW16492   4.230   4.144   8.847  0.0513 -0.1141 -0.1753
 1619SOL    HW116493   4.142   4.172   8.869 -0.1338  2.2767 -4.0216
 1619SOL    HW216494   4.228   4.179   8.758 -0.0376  0.4426  0.0441
 1620SOL     OW16495   2.441   2.665   3.246  0.3321  0.6150  0.1962
 1620SOL    HW116496   2.456   2.721   3.170 -1.3930 -0.0671 -0.6420
 1620SOL    HW216497   2.350   2.643   3.227  0.8532  0.4844 -2.0784
 1621SOL     OW16498   0.970   1.425  13.153  0.2561  0.1048 -0.4597
 1621SOL    HW116499   0.949   1.407  13.061  0.8984 -1.4324 -0.3003
 1621SOL    HW216500   0.972   1.335  13.185 -2.2636 -0.4685 -1.9146
 1622SOL     OW16501   1.425   1.517  13.181 -0.0757  0.3153 -0.3915
 1622SOL    HW116502   1.392   1.582  13.244  0.3921  0.7725 -0.6100
 1622SOL    HW216503   1.348   1.461  13.178 -0.3724  0.5773  1.9419
 1623SOL     OW16504   1.190   1.011   5.438 -0.3107 -0.1145 -0.1986
 1623SOL    HW116505   1.102   1.049   5.440  0.6295  1.9969  1.4853
 1623SOL    HW216506   1.171   0.928   5.482  3.0056 -1.2798 -1.0052
 1624SOL     OW16507   2.551   2.511   6.565 -0.1393  0.2841  0.3425
 1624SOL    HW116508   2.560   2.431   6.513 -0.2229 -0.1655  1.0085
 1624SOL    HW216509   2.606   2.491   6.641  2.0852 -0.3703 -1.4388
 1625SOL     OW16510   1.691   1.959   2.873 -0.2908 -0.3382  0.4937
 1625SOL    HW116511   1.738   1.875   2.865 -0.3508 -0.2832 -0.4913
 1625SOL    HW216512   1.708   1.995   2.786  1.7741 -1.6549  0.3318
 1626SOL     OW16513   0.506   3.024   4.087  0.7135  0.0087  0.4955
 1626SOL    HW116514   0.515   3.096   4.025  0.8099 -1.7368 -1.5332
 1626SOL    HW216515   0.412   3.018   4.102  0.6733  1.4397  0.7834
 1627SOL     OW16516   4.688   4.586   2.817  0.2848  0.6253 -0.3574
 1627SOL    HW116517   0.019   4.525   2.785 -1.5150 -1.6911  0.3606
 1627SOL    HW216518   4.637   4.596   2.737 -1.8236  2.1448  1.1847
 1628SOL     OW16519   1.811   1.735   5.440  0.2752 -0.2000  0.0711
 1628SOL    HW116520   1.763   1.818   5.441  0.6660  0.0638 -1.4778
 1628SOL    HW216521   1.893   1.750   5.486 -0.2167  1.9207  0.2796
 1629SOL     OW16522   3.802   3.973   8.553 -0.2713  0.6731  0.0183
 1629SOL    HW116523   3.770   4.011   8.635  0.1549  1.7395 -0.3075
 1629SOL    HW216524   3.774   3.882   8.560 -0.8247  0.7491 -1.2360
 1630SOL     OW16525   0.520   4.313   5.676 -0.7564 -0.2920  0.0418
 1630SOL    HW116526   0.560   4.232   5.707 -2.1708 -1.0139 -0.0216
 1630SOL    HW216527   0.512   4.296   5.582  0.1188 -1.9429  0.2818
 1631SOL     OW16528   2.971   3.703  10.424  0.2699  0.2759 -0.1859
 1631SOL    HW116529   2.908   3.760  10.379  0.8162  0.4458 -0.7293
 1631SOL    HW216530   3.018   3.657  10.355  0.3410 -0.2170  0.1917
 1632SOL     OW16531   0.290   3.524   9.095  0.1450 -0.4404  0.4984
 1632SOL    HW116532   0.208   3.501   9.052  0.4394  0.5721 -0.5955
 1632SOL    HW216533   0.332   3.568   9.021 -1.0662  0.1270  0.1560
 1633SOL     OW16534   1.951   0.515   3.986  0.1985 -0.5744  0.0792
 1633SOL    HW116535   1.903   0.433   3.978  0.3938 -0.8725  1.8563
 1633SOL    HW216536   1.892   0.577   3.943  0.9981 -0.2370 -0.5322
 1634SOL     OW16537   1.213   1.864  13.158  0.7693 -0.1802 -0.2978
 1634SOL    HW116538   1.294   1.866  13.210 -0.8013  0.8578  2.1628
 1634SOL    HW216539   1.188   1.956  13.153  0.3240 -0.3420 -0.9127
 1635SOL     OW16540   4.265   2.498  14.999  0.0176  0.2606 -0.2248
 1635SOL    HW116541   4.173   2.525  15.002  0.9568  3.0559  3.1397
 1635SOL    HW216542   4.283   2.503  14.905 -1.4069 -2.8367 -0.6677
 1636SOL     OW16543   4.235   1.401   2.242  0.6200 -0.7227 -0.2451
 1636SOL    HW116544   4.221   1.318   2.197 -1.8829 -0.7923  0.6446
 1636SOL    HW216545   4.160   1.396   2.301  1.2640  0.4901  0.6765
 1637SOL     OW16546   0.427   4.062  14.079  0.6998 -1.0680  0.2313
 1637SOL    HW116547   0.457   4.148  14.049 -0.7199 -0.7470 -0.2453
 1637SOL    HW216548   0.334   4.084  14.082  1.0595  0.5543 -0.4105
 1638SOL     OW16549   4.580   0.095  12.477  0.5685  0.5436  0.1205
 1638SOL    HW116550   4.498   0.130  12.512 -1.0202 -1.7114 -1.3482
 1638SOL    HW216551   4.569   0.003  12.497  2.2443  0.6604  1.6339
 1639SOL     OW16552   4.664   2.698   7.149  0.4077  0.2862 -0.1837
 1639SOL    HW116553   4.599   2.750   7.197 -0.2186  1.4782 -2.3222
 1639SOL    HW216554   0.004   2.729   7.199  1.2514  0.7876 -1.7626
 1640SOL     OW16555   1.085   2.602  12.400 -0.2426 -0.3513 -0.4474
 1640SOL    HW116556   1.161   2.653  12.369 -1.3264  1.0368 -0.8335
 1640SOL    HW216557   1.025   2.673  12.423 -0.1831 -0.6508  0.5932
 1641SOL     OW16558   4.602   0.057   2.376  0.0628 -0.8151 -0.3206
 1641SOL    HW116559   4.570   0.097   2.457  1.3119  1.5517 -1.0068
 1641SOL    HW216560   4.561   0.110   2.308  0.2764  0.1302  0.2822
 1642SOL     OW16561   4.712   4.038   1.550  0.1834 -0.2706 -0.1356
 1642SOL    HW116562   0.066   4.045   1.517  0.2325  2.3033  0.5638
 1642SOL    HW216563   4.670   3.977   1.489  3.1994 -2.3118 -0.1288
 1643SOL     OW16564   3.632   0.693   3.759 -0.2006 -0.2523 -0.5025
 1643SOL    HW116565   3.639   0.786   3.780  1.9352 -0.6958  0.7620
 1643SOL    HW216566   3.723   0.679   3.733 -0.0293 -0.5869  0.2884
 1644SOL     OW16567   3.975   4.654   5.155 -0.0614  0.2955  0.4112
 1644SOL    HW116568   3.883   4.666   5.176 -0.3098  0.2484 -0.6634
 1644SOL    HW216569   4.022   4.727   5.194 -0.5823  0.8728 -0.0437
 1645SOL     OW16570   4.473   3.208   7.507  0.1848  0.4479  0.1400
 1645SOL    HW116571   4.402   3.269   7.523 -0.9231 -0.8854  0.2813
 1645SOL    HW216572   4.489   3.223   7.414 -0.2578  0.7116  0.1107
 1646SOL     OW16573   4.024   3.337   0.848 -0.3059  0.4402  0.3783
 1646SOL    HW116574   4.051   3.361   0.937  2.2616  2.2343 -0.8684
 1646SOL    HW216575   4.039   3.243   0.847  1.4320  0.7345 -2.1581
 1647SOL     OW16576   0.812   1.195  15.433  0.6723  0.0898  0.4322
 1647SOL    HW116577   0.758   1.228  15.361  0.9674  1.6975  0.9458
 1647SOL    HW216578   0.762   1.218  15.511  3.8053  1.7960  1.9365
 1648SOL     OW16579   2.576   1.764   6.147 -0.1280  0.4795  0.5517
 1648SOL    HW116580   2.640   1.694   6.140 -1.7167 -1.1864  2.6687
 1648SOL    HW216581   2.636   1.829   6.185 -0.7914  1.0983  0.5496
 1649SOL     OW16582   4.663   1.448   6.204  0.0361 -0.4080 -0.5805
 1649SOL    HW116583   4.635   1.533   6.169 -0.4484 -0.6655 -0.8195
 1649SOL    HW216584   4.582   1.414   6.243 -1.2995 -1.3979 -4.2552
 1650SOL     OW16585   2.678   0.959   3.842  0.7722  0.4735 -0.3608
 1650SOL    HW116586   2.596   0.913   3.863  0.0578  0.4644 -3.2234
 1650SOL    HW216587   2.676   1.035   3.900 -0.7800 -0.6092  1.0092
 1651SOL     OW16588   0.312   3.394   6.874 -0.2887 -0.3677  0.0361
 1651SOL    HW116589   0.385   3.355   6.922  0.5406  0.2283 -0.7644
 1651SOL    HW216590   0.318   3.373   6.781 -0.4900 -0.6053  0.0743
 1652SOL     OW16591   1.141   4.104   3.836 -0.0841  0.0320  0.0116
 1652SOL    HW116592   1.068   4.106   3.773  0.6631  1.7834 -0.7980
 1652SOL    HW216593   1.096   4.144   3.910 -1.7522  2.0948 -2.0995
 1653SOL     OW16594   2.992   2.724   7.131 -0.4088 -0.3209  0.5294
 1653SOL    HW116595   3.035   2.701   7.048  1.5679 -0.0816  1.4757
 1653SOL    HW216596   2.984   2.638   7.173  1.5566 -0.2387  1.1043
 1654SOL     OW16597   0.228   1.785  15.728 -0.1865 -0.4021 -0.0813
 1654SOL    HW116598   0.246   1.739  15.647 -1.3276  0.8569 -1.0471
 1654SOL    HW216599   0.302   1.756  15.782 -0.1679  0.7540  0.5196
 1655SOL     OW16600   1.375   0.569   5.283  0.0612 -0.1821 -0.0669
 1655SOL    HW116601   1.320   0.537   5.211 -1.5700  0.3093  0.9889
 1655SOL    HW216602   1.447   0.506   5.294  0.5051  0.1281 -1.1633
 1656SOL     OW16603   3.241   1.813   6.294  0.0632  0.3078 -0.4396
 1656SOL    HW116604   3.275   1.867   6.222  2.5145  0.0636  0.5459
 1656SOL    HW216605   3.167   1.867   6.323 -0.3334  0.2774 -1.3676
 1657SOL     OW16606   1.112   4.657   8.534 -0.6890 -0.4007 -0.1774
 1657SOL    HW116607   1.170   4.624   8.602  0.4465  0.5078 -0.7059
 1657SOL    HW216608   1.173   4.653   8.460  1.9663  1.2412  1.9476
 1658SOL     OW16609   3.546   1.475   1.603 -0.4540 -0.3886 -0.4870
 1658SOL    HW116610   3.569   1.389   1.568 -0.0908  0.1862 -1.6484
 1658SOL    HW216611   3.563   1.532   1.529  1.7305 -1.0684 -0.5083
 1659SOL     OW16612   1.199   2.925   7.312  0.5605 -0.0575 -0.0392
 1659SOL    HW116613   1.273   2.865   7.318  2.1864  1.9686  0.2754
 1659SOL    HW216614   1.129   2.872   7.350  0.7895  0.5926  1.3066
 1660SOL     OW16615   2.627   3.609  15.180 -0.1615 -0.4800 -0.2867
 1660SOL    HW116616   2.715   3.608  15.217 -0.4674 -2.0232  0.4018
 1660SOL    HW216617   2.612   3.696  15.142 -1.2972  0.1123  1.5263
 1661SOL     OW16618   3.947   1.272   6.854 -0.6116  0.0824  0.3792
 1661SOL    HW116619   4.015   1.205   6.846  2.7534  3.7896 -1.9315
 1661SOL    HW216620   3.983   1.336   6.792  1.8487 -0.2479  1.4479
 1662SOL     OW16621   3.918   0.271   5.510 -0.0403 -0.1629  0.3977
 1662SOL    HW116622   3.984   0.340   5.506 -0.8238  0.4758 -1.4651
 1662SOL    HW216623   3.940   0.225   5.591 -1.5795 -0.9508  0.3696
 1663SOL     OW16624   0.413   1.183  12.941 -0.0208 -0.4102 -0.2209
 1663SOL    HW116625   0.444   1.206  12.853  1.1744  0.4844  0.4363
 1663SOL    HW216626   0.491   1.211  12.989 -0.5177  2.8895 -1.3249
 1664SOL     OW16627   2.726   3.675   4.566 -0.5075 -0.0249  0.7085
 1664SOL    HW116628   2.699   3.607   4.628 -1.2075 -0.6435 -0.2639
 1664SOL    HW216629   2.805   3.639   4.524 -1.0521  0.6939 -0.9559
 1665SOL     OW16630   3.174   2.697   3.353  0.1821 -0.0878 -0.3845
 1665SOL    HW116631   3.090   2.698   3.399  0.2863 -0.2959 -0.1955
 1665SOL    HW216632   3.173   2.621   3.295  2.4865 -1.0382  0.8537
 1666SOL     OW16633   2.418   1.350   5.427 -0.0200  0.5855 -0.2924
 1666SOL    HW116634   2.387   1.339   5.517 -1.4889 -0.2488 -0.9153
 1666SOL    HW216635   2.470   1.271   5.411 -1.4424 -0.6643  1.2149
 1667SOL     OW16636   1.493   3.051   5.393 -0.0833 -0.0423 -0.3175
 1667SOL    HW116637   1.525   3.132   5.354 -0.0204 -0.1829 -0.5562
 1667SOL    HW216638   1.402   3.077   5.411 -0.6802 -0.9882 -1.9747
 1668SOL     OW16639   2.915   2.745  17.184 -0.2820  0.1300 -0.2638
 1668SOL    HW116640   2.845   2.807  17.163 -2.0034 -1.1458  1.7593
 1668SOL    HW216641   2.934   2.768  17.275 -0.5476  1.2613 -0.4977
 1669SOL     OW16642   4.132   0.843   9.895  0.4309  0.4537  0.7262
 1669SOL    HW116643   4.198   0.904   9.928  0.6433  1.3117 -1.2590
 1669SOL    HW216644   4.067   0.857   9.964 -1.7813  1.4844 -1.5467
 1670SOL     OW16645   3.118   2.686  12.686  0.1269 -0.6913  0.1002
 1670SOL    HW116646   3.137   2.772  12.724 -1.7524  0.2269 -1.0412
 1670SOL    HW216647   3.100   2.629  12.761  2.7374 -1.1320  0.3717
 1671SOL     OW16648   4.600   1.707  15.423  0.2100  0.0716  0.5869
 1671SOL    HW116649   4.513   1.739  15.399  0.3577 -1.0758 -1.4542
 1671SOL    HW216650   4.603   1.614  15.399  0.3955 -0.1654  1.5222
 1672SOL     OW16651   1.224   3.161   7.929 -0.0189 -0.1083 -0.4593
 1672SOL    HW116652   1.151   3.133   7.875  0.0866 -3.2271  0.9766
 1672SOL    HW216653   1.289   3.102   7.891 -0.3275 -1.3554  0.9275
 1673SOL     OW16654   0.255   2.199   4.125  0.2082 -0.1928 -0.3661
 1673SOL    HW116655   0.290   2.110   4.133  1.0215  0.1858  0.2533
 1673SOL    HW216656   0.211   2.196   4.040 -0.0052 -1.3244 -0.2223
 1674SOL     OW16657   0.046   3.922   4.603  0.2496  0.7738  0.1612
 1674SOL    HW116658   0.006   4.003   4.634 -2.2433 -0.2810 -0.2692
 1674SOL    HW216659   0.129   3.918   4.651  0.4698  1.6390 -0.1449
 1675SOL     OW16660   3.948   3.039   5.779 -0.9360  0.1436  0.2640
 1675SOL    HW116661   3.905   3.007   5.700  0.4883  0.7474 -0.7518
 1675SOL    HW216662   3.878   3.046   5.844 -0.7696  2.7546  0.1591
 1676SOL     OW16663   2.174   3.190   3.541  0.5016 -0.1798  0.6259
 1676SOL    HW116664   2.088   3.149   3.546  0.4492 -0.1254  0.1918
 1676SOL    HW216665   2.154   3.263   3.599  0.9085  0.5037 -0.0898
 1677SOL     OW16666   0.870   3.567   9.378  0.4932 -0.1081 -0.2883
 1677SOL    HW116667   0.923   3.624   9.322  0.3542  0.8550  0.5651
 1677SOL    HW216668   0.788   3.615   9.387  0.5300 -0.0703 -0.1535
 1678SOL     OW16669   0.209   4.692   1.609 -0.2312  0.0868  0.1712
 1678SOL    HW116670   0.173   0.007   1.535 -0.5780  0.7018  0.7586
 1678SOL    HW216671   0.184   4.601   1.593 -0.6351 -0.5573  4.4870
 1679SOL     OW16672   2.246   4.568   8.364 -0.0302 -1.3162 -0.7785
 1679SOL    HW116673   2.290   4.614   8.292 -1.8553  1.1280 -0.3459
 1679SOL    HW216674   2.264   4.482   8.327  0.4272 -1.2197 -0.7851
 1680SOL     OW16675   2.937   3.863   4.150  0.5187  0.6967 -0.2368
 1680SOL    HW116676   2.972   3.879   4.062 -1.1551 -1.8994 -1.4056
 1680SOL    HW216677   2.910   3.950   4.179 -0.3714 -0.2783  1.8623
 1681SOL     OW16678   4.573   3.715   9.910  0.5687 -0.2709 -0.1492
 1681SOL    HW116679   4.483   3.700   9.937 -0.6142  4.0536 -1.7085
 1681SOL    HW216680   4.603   3.626   9.894 -1.3348 -0.5820 -1.8961
 1682SOL     OW16681   2.933   1.902  11.821  0.1788 -0.4922  0.5033
 1682SOL    HW116682   2.915   1.841  11.749  0.7038  0.9664 -0.8796
 1682SOL    HW216683   3.024   1.923  11.800  0.7374 -0.7873  2.6854
 1683SOL     OW16684   3.219   3.893   6.076  0.1141  0.0526 -0.1089
 1683SOL    HW116685   3.224   3.797   6.083 -0.0402 -0.0825 -1.8265
 1683SOL    HW216686   3.125   3.906   6.084 -0.2101 -3.4602  2.1235
 1684SOL     OW16687   1.711   3.179   4.226 -0.1967  0.3027 -0.6180
 1684SOL    HW116688   1.728   3.134   4.143  0.0327 -2.4262  0.9069
 1684SOL    HW216689   1.637   3.127   4.256  0.1239 -0.6837 -1.5280
 1685SOL     OW16690   1.616   4.669   9.525  0.1903 -0.5834  0.7589
 1685SOL    HW116691   1.692   4.724   9.547 -1.2060  0.4387  2.9125
 1685SOL    HW216692   1.617   4.619   9.606 -1.0817 -0.0442  1.1042
 1686SOL     OW16693   1.859   4.306   3.330 -0.0736  0.2478  0.3542
 1686SOL    HW116694   1.896   4.240   3.388 -1.6242 -0.8109  0.1369
 1686SOL    HW216695   1.845   4.253   3.252 -0.7724 -0.6023  1.0632
 1687SOL     OW16696   0.921   3.239  16.561 -0.2063  0.3838 -0.1375
 1687SOL    HW116697   0.966   3.180  16.621  0.5082 -2.6446 -3.6263
 1687SOL    HW216698   0.995   3.252  16.501  0.9893 -0.7205  1.1068
 1688SOL     OW16699   3.792   2.817   1.062 -0.0057  0.6482  0.0303
 1688SOL    HW116700   3.770   2.724   1.058  0.8308  0.5867 -2.8340
 1688SOL    HW216701   3.869   2.816   1.006 -2.9390 -2.1266 -3.9941
 1689SOL     OW16702   1.058   1.324  11.879 -0.1487 -0.1572 -0.2294
 1689SOL    HW116703   1.135   1.377  11.900  1.3925 -2.1294 -0.9007
 1689SOL    HW216704   0.999   1.350  11.950  0.9101  1.8808 -0.1078
 1690SOL     OW16705   1.564   0.515   1.374  0.5332  0.3351 -0.1604
 1690SOL    HW116706   1.498   0.535   1.441 -2.6477 -1.2363 -2.8104
 1690SOL    HW216707   1.642   0.547   1.420  1.0733  0.3862 -1.1117
 1691SOL     OW16708   0.382   1.799   9.951  0.2231 -0.2927  0.0550
 1691SOL    HW116709   0.352   1.717   9.992  0.3072  0.1199  0.9432
 1691SOL    HW216710   0.355   1.784   9.860  1.3945 -1.1462 -0.1520
 1692SOL     OW16711   2.467   1.065   8.746 -0.5874  0.0301  0.2558
 1692SOL    HW116712   2.511   1.006   8.686 -1.8995 -0.1007 -0.5699
 1692SOL    HW216713   2.390   1.086   8.694 -1.5577  0.0330  1.6888
 1693SOL     OW16714   2.330   0.689   0.467  0.3651 -0.2863  0.2906
 1693SOL    HW116715   2.328   0.711   0.374  1.6996  2.1204  0.8319
 1693SOL    HW216716   2.412   0.639   0.470 -0.2267 -1.2845 -0.0923
 1694SOL     OW16717   3.417   2.802  10.393  0.3486 -0.1876 -0.6932
 1694SOL    HW116718   3.504   2.780  10.359 -1.1203 -4.7121 -1.3866
 1694SOL    HW216719   3.369   2.804  10.310 -0.7549  2.0671 -0.0015
 1695SOL     OW16720   1.652   4.507   3.434  0.6512  0.9162  0.2579
 1695SOL    HW116721   1.578   4.487   3.378  1.5678 -0.4419 -0.4666
 1695SOL    HW216722   1.712   4.435   3.413  0.3352  0.6341  0.3203
 1696SOL     OW16723   1.102   4.233   2.621  0.1035 -0.2463  0.3377
 1696SOL    HW116724   1.175   4.172   2.616  0.2235  0.0620 -1.6365
 1696SOL    HW216725   1.140   4.319   2.603 -0.6637  0.7567  3.4774
 1697SOL     OW16726   3.215   3.579   8.222  0.0024 -0.2503 -0.3201
 1697SOL    HW116727   3.161   3.648   8.185 -0.2254 -0.4839 -0.4252
 1697SOL    HW216728   3.195   3.516   8.152  3.2499 -2.0247  0.3173
 1698SOL     OW16729   2.769   1.643   8.209  0.4367  0.0956  0.5039
 1698SOL    HW116730   2.687   1.665   8.253 -0.4197 -0.4814 -0.7868
 1698SOL    HW216731   2.759   1.700   8.132  1.9526  2.4304  2.0317
 1699SOL     OW16732   0.347   0.915  13.600 -0.2269  0.0566  0.3481
 1699SOL    HW116733   0.332   0.933  13.508 -1.3114  0.2095  0.5573
 1699SOL    HW216734   0.436   0.950  13.606 -0.6443  1.0555  0.8083
 1700SOL     OW16735   2.304   0.763   6.739 -0.2213 -0.1244 -0.2351
 1700SOL    HW116736   2.326   0.680   6.782 -2.0906 -0.6714 -0.3674
 1700SOL    HW216737   2.383   0.817   6.748  0.0657 -0.6194  0.2660
 1701SOL     OW16738   4.106   4.711  17.662 -0.4781  0.2545 -0.1470
 1701SOL    HW116739   4.093   0.069  17.648 -0.8522  0.2780  0.3311
 1701SOL    HW216740   4.197   4.691  17.641 -0.6695 -1.7026  0.7882
 1702SOL     OW16741   2.557   2.021   7.225  0.0182  0.2881 -0.0578
 1702SOL    HW116742   2.487   2.000   7.288 -1.3791  1.2961 -1.2728
 1702SOL    HW216743   2.627   2.059   7.277  0.4201  0.1307 -0.4884
 1703SOL     OW16744   2.071   3.316   6.374 -0.3538  0.4993 -0.5031
 1703SOL    HW116745   2.041   3.368   6.299 -1.6750 -1.0303 -1.0502
 1703SOL    HW216746   2.129   3.380   6.416  0.0121  0.0004 -0.2455
 1704SOL     OW16747   1.330   2.083   7.034  0.2160  0.4015 -0.1810
 1704SOL    HW116748   1.397   2.126   6.981 -1.7732  0.6279 -2.5016
 1704SOL    HW216749   1.379   2.042   7.105 -1.9968 -2.8716 -0.5237
 1705SOL     OW16750   1.342   0.003   4.679 -0.1076 -0.1312 -1.0487
 1705SOL    HW116751   1.398   0.080   4.671  1.2232 -0.8543  1.3108
 1705SOL    HW216752   1.274   0.032   4.740 -0.5852 -3.0562 -0.1797
 1706SOL     OW16753   3.020   4.265   6.555 -0.0046 -0.3073 -0.7332
 1706SOL    HW116754   3.071   4.218   6.621 -0.5906 -0.6708 -0.5430
 1706SOL    HW216755   3.083   4.331   6.527  0.0219  0.9437  2.2961
 1707SOL     OW16756   1.200   3.779   9.326 -0.2876 -0.0936  0.0279
 1707SOL    HW116757   1.286   3.816   9.348  0.2929 -0.1456 -2.1352
 1707SOL    HW216758   1.227   3.687   9.323  0.5290  0.1395  0.3338
 1708SOL     OW16759   1.870   2.312  15.082  0.0221 -0.0673  0.2940
 1708SOL    HW116760   1.810   2.294  15.010  1.2119  0.0854 -0.7374
 1708SOL    HW216761   1.808   2.348  15.146 -0.0851  2.2470 -1.1123
 1709SOL     OW16762   2.376   1.922   8.709  0.8193  0.0362 -0.1606
 1709SOL    HW116763   2.384   2.010   8.746  0.4059  0.3754 -0.8802
 1709SOL    HW216764   2.290   1.893   8.739 -0.3366  2.3068 -1.2676
 1710SOL     OW16765   3.499   1.820   9.897 -0.0264 -0.1035  0.2281
 1710SOL    HW116766   3.415   1.774   9.891 -0.3041  0.3338  0.7860
 1710SOL    HW216767   3.533   1.827   9.808  2.5766  1.0348  1.2767
 1711SOL     OW16768   2.019   4.230   3.705 -0.3271 -0.1212  0.0997
 1711SOL    HW116769   2.073   4.163   3.746  0.4592 -0.3548 -1.3199
 1711SOL    HW216770   2.011   4.189   3.619  0.7219 -1.3927  0.6117
 1712SOL     OW16771   4.163   4.432   9.119  0.1099 -0.5379 -0.2732
 1712SOL    HW116772   4.250   4.446   9.083 -0.4708  0.1839 -1.3982
 1712SOL    HW216773   4.162   4.509   9.176  1.3513 -0.7818  0.0593
 1713SOL     OW16774   3.412   2.751   6.502  0.0966 -0.3243 -0.2613
 1713SOL    HW116775   3.476   2.681   6.516 -2.3991 -2.8851 -1.8919
 1713SOL    HW216776   3.339   2.711   6.549  0.7907 -1.7264 -0.3680
 1714SOL     OW16777   1.719   0.119   7.571 -0.5409 -0.2874  0.3960
 1714SOL    HW116778   1.624   0.106   7.570 -0.8878  2.3793  0.2111
 1714SOL    HW216779   1.720   0.207   7.608 -1.6147  0.1959 -0.7211
 1715SOL     OW16780   1.837   1.598  13.786 -0.2827  0.0730  0.3171
 1715SOL    HW116781   1.814   1.640  13.869  0.1507 -1.9139  1.4670
 1715SOL    HW216782   1.793   1.513  13.793 -0.2057  0.0546  0.5715
 1716SOL     OW16783   4.119   3.369   1.100  0.1252  0.5890 -0.0013
 1716SOL    HW116784   4.204   3.411   1.111 -1.8107  4.6848 -0.5002
 1716SOL    HW216785   4.124   3.318   1.181 -1.2076 -1.1241 -0.9847
 1717SOL     OW16786   1.607   0.403   9.535 -0.7436  0.1313 -0.2098
 1717SOL    HW116787   1.617   0.468   9.604  2.3929 -0.2753 -0.2620
 1717SOL    HW216788   1.520   0.370   9.559 -0.5836 -0.4892 -0.4748
 1718SOL     OW16789   2.101   0.583   1.241 -0.3892 -0.2254 -0.1819
 1718SOL    HW116790   2.120   0.490   1.252  3.0206  0.9479  3.7371
 1718SOL    HW216791   2.129   0.613   1.327  0.0362 -1.4385  0.1116
 1719SOL     OW16792   1.652   3.942   3.817 -0.7267  0.3454  0.0935
 1719SOL    HW116793   1.731   3.993   3.835 -0.1999 -0.6355  0.5927
 1719SOL    HW216794   1.657   3.872   3.883  3.0666 -0.3125 -0.8805
 1720SOL     OW16795   0.572   2.114   7.690 -0.1662 -0.2715  0.6920
 1720SOL    HW116796   0.544   2.206   7.687  0.1233 -0.1483  1.9205
 1720SOL    HW216797   0.509   2.085   7.755 -1.6324  2.0459  0.2945
 1721SOL     OW16798   4.372   1.328   5.569  0.4238 -0.0261  0.0809
 1721SOL    HW116799   4.286   1.336   5.528  0.5834  2.3018  0.2325
 1721SOL    HW216800   4.361   1.375   5.651 -0.9988  0.0066 -0.1262
 1722SOL     OW16801   1.893   2.409   7.316 -0.2225 -0.4843  0.1316
 1722SOL    HW116802   1.824   2.398   7.382 -1.7944  0.3020 -1.3815
 1722SOL    HW216803   1.850   2.375   7.238 -0.2524 -0.0674 -0.0381
 1723SOL     OW16804   0.904   2.519   0.529 -0.2482 -0.3659 -0.2255
 1723SOL    HW116805   0.971   2.451   0.538  0.9229  0.7025 -0.8787
 1723SOL    HW216806   0.912   2.536   0.435  1.5106 -1.0618 -0.2139
 1724SOL     OW16807   1.414   1.027   2.279 -0.1144  0.2595 -0.2150
 1724SOL    HW116808   1.412   1.122   2.280 -0.5123  0.2341  0.9117
 1724SOL    HW216809   1.505   1.011   2.305  0.2430 -0.3385 -1.7800
 1725SOL     OW16810   0.979   3.570  13.126  0.5936 -0.2229  0.1834
 1725SOL    HW116811   1.003   3.488  13.169  1.5417 -0.2255 -0.3567
 1725SOL    HW216812   1.028   3.627  13.186 -1.0007  0.7127  0.6083
 1726SOL     OW16813   1.016   0.442   4.704  0.0383  0.8205  0.1264
 1726SOL    HW116814   1.034   0.437   4.798  1.9199 -0.3269 -0.2935
 1726SOL    HW216815   0.929   0.402   4.709  0.6053 -0.2514  1.6013
 1727SOL     OW16816   1.642   1.048   4.947  0.2149  0.4919 -0.0787
 1727SOL    HW116817   1.707   1.116   4.929  1.5725 -0.7367  0.2052
 1727SOL    HW216818   1.643   1.059   5.042  1.4204 -1.0371  0.0824
 1728SOL     OW16819   2.135   1.615   4.387  0.5135 -0.0594  0.0629
 1728SOL    HW116820   2.080   1.654   4.455 -2.2216 -1.3272 -1.4099
 1728SOL    HW216821   2.095   1.528   4.385  0.6143 -0.1251  0.7513
 1729SOL     OW16822   2.332   0.607   5.854 -0.1609  0.1958  0.5614
 1729SOL    HW116823   2.427   0.611   5.865  0.0045  2.9600 -2.0331
 1729SOL    HW216824   2.309   0.555   5.932 -1.0913 -0.6892 -0.2973
 1730SOL     OW16825   0.815   0.604   6.434  0.7913  0.4212  0.4849
 1730SOL    HW116826   0.737   0.616   6.488 -1.0919 -0.7169 -1.9555
 1730SOL    HW216827   0.824   0.695   6.406 -0.8623  0.2240 -0.6890
 1731SOL     OW16828   3.893   4.209  17.731  0.0593 -0.7504  0.2333
 1731SOL    HW116829   3.836   4.254   0.053  1.6464 -2.6493  3.0498
 1731SOL    HW216830   3.864   4.117  17.732 -0.5898 -0.5722 -2.0833
 1732SOL     OW16831   3.235   0.180   9.486 -0.0134 -0.4476  0.2650
 1732SOL    HW116832   3.330   0.169   9.491 -0.0921 -0.5830  1.3430
 1732SOL    HW216833   3.232   0.186   9.581  1.1225 -0.4276  0.2966
 1733SOL     OW16834   1.326   3.158   8.342 -0.0385  0.3521 -0.8076
 1733SOL    HW116835   1.358   3.084   8.290  0.9188  0.3386 -0.2158
 1733SOL    HW216836   1.269   3.198   8.277 -0.9311  1.6983  0.8016
 1734SOL     OW16837   2.850   3.999  14.495 -0.1523  0.2460 -0.0674
 1734SOL    HW116838   2.905   3.947  14.553 -0.2944  0.8636  0.6110
 1734SOL    HW216839   2.906   4.077  14.497  1.6610 -1.0475  0.1229
 1735SOL     OW16840   2.344   0.316   9.504  0.1489 -0.6150 -0.2389
 1735SOL    HW116841   2.302   0.397   9.533  0.4660 -0.9105  1.0706
 1735SOL    HW216842   2.307   0.251   9.565  0.0580 -0.6882 -0.3730
 1736SOL     OW16843   3.160   0.407   3.393  0.1360  0.4721  0.3477
 1736SOL    HW116844   3.075   0.405   3.348 -0.6775  0.0722  1.8959
 1736SOL    HW216845   3.187   0.317   3.374 -0.1481  0.4527  0.0466
 1737SOL     OW16846   3.761   3.904   1.933  0.5189 -0.5483  0.2424
 1737SOL    HW116847   3.668   3.883   1.939  0.6968 -1.5747 -0.5778
 1737SOL    HW216848   3.792   3.840   1.998  0.2881  0.0952  0.9791
 1738SOL     OW16849   2.715   3.119   5.311 -0.5845  0.1059 -0.0029
 1738SOL    HW116850   2.699   3.034   5.270  0.1746  0.0421 -0.1686
 1738SOL    HW216851   2.660   3.109   5.388 -2.2347  0.8934 -1.0700
 1739SOL     OW16852   4.038   3.541   3.787 -0.1927  0.6630 -0.6059
 1739SOL    HW116853   3.980   3.468   3.811  0.2598  0.6192  0.3576
 1739SOL    HW216854   4.121   3.512   3.825  0.0850 -0.3291 -2.0103
 1740SOL     OW16855   0.050   0.242   7.365  0.1848  0.5898  0.0935
 1740SOL    HW116856   0.033   0.151   7.392 -2.1378  1.2668  0.9294
 1740SOL    HW216857   0.043   0.233   7.270 -0.3659 -1.5463  0.3352
 1741SOL     OW16858   2.602   3.951   5.449 -0.2732 -0.9299  0.5445
 1741SOL    HW116859   2.589   3.894   5.373 -0.1202  1.0865 -0.9946
 1741SOL    HW216860   2.547   4.023   5.419  1.0727 -0.7123 -1.3683
 1742SOL     OW16861   1.311   0.611   2.887  1.1762 -0.1729  0.2944
 1742SOL    HW116862   1.397   0.615   2.928  2.3181 -0.2225 -2.0896
 1742SOL    HW216863   1.262   0.601   2.968 -0.4460  0.5562 -0.5799
 1743SOL     OW16864   2.168   0.745   2.247 -0.0807 -0.0758  0.6706
 1743SOL    HW116865   2.235   0.813   2.237 -0.4866  0.4965  1.7673
 1743SOL    HW216866   2.215   0.682   2.303  1.7772  0.6838 -0.0270
 1744SOL     OW16867   1.914   4.127  10.097 -0.2207  0.1222 -0.4481
 1744SOL    HW116868   1.913   4.192  10.026 -0.6271 -0.3121 -0.8403
 1744SOL    HW216869   1.941   4.050  10.047  0.7399  1.8996 -2.6704
 1745SOL     OW16870   3.996   2.032  15.001  0.2263 -0.0511  0.4226
 1745SOL    HW116871   4.005   2.119  15.042 -0.6482 -0.5463  1.6625
 1745SOL    HW216872   4.088   2.008  14.988  0.6209  0.8474  1.4952
 1746SOL     OW16873   4.001   4.072   4.002  0.3914  0.4913  0.0825
 1746SOL    HW116874   3.960   4.101   3.921 -0.5717  1.7018  0.9879
 1746SOL    HW216875   3.995   3.978   3.991  1.6474  0.0189  3.4239
 1747SOL     OW16876   0.818   0.659  10.339 -0.1026 -0.7757 -0.1141
 1747SOL    HW116877   0.882   0.589  10.326 -0.8080 -1.3943 -0.2114
 1747SOL    HW216878   0.731   0.623  10.327 -1.2380  2.0468 -0.3894
 1748SOL     OW16879   4.584   1.422  10.619 -0.1571 -0.5332  0.8065
 1748SOL    HW116880   4.549   1.497  10.571  0.6039  0.2655  1.5028
 1748SOL    HW216881   4.660   1.391  10.570  0.4805  0.3001  1.2516
 1749SOL     OW16882   0.484   2.898   5.928  0.5878 -0.2907 -0.4121
 1749SOL    HW116883   0.544   2.834   5.966  0.3594 -1.3663 -1.8786
 1749SOL    HW216884   0.401   2.867   5.965  1.7122 -0.1078  2.2686
 1750SOL     OW16885   0.851   2.977  16.365  0.5097 -0.6288  0.6097
 1750SOL    HW116886   0.841   3.072  16.356 -3.4554 -0.8790  2.1563
 1750SOL    HW216887   0.918   2.950  16.303 -1.0601  0.1877 -1.4525
 1751SOL     OW16888   1.703   3.803   2.191 -0.0769  0.4588 -0.4517
 1751SOL    HW116889   1.782   3.751   2.181 -0.2804  0.2251 -0.8462
 1751SOL    HW216890   1.665   3.791   2.104  1.4218  1.3003 -1.2148
 1752SOL     OW16891   0.182   3.255   8.525 -0.3501  1.0475 -0.2034
 1752SOL    HW116892   0.113   3.268   8.590 -0.9762 -0.0155 -0.6646
 1752SOL    HW216893   0.265   3.293   8.555  0.9889 -0.5603 -1.8346
 1753SOL     OW16894   3.515   1.748  10.911 -0.0280  0.0962 -0.0453
 1753SOL    HW116895   3.480   1.660  10.896  0.7613 -0.3012  0.4029
 1753SOL    HW216896   3.439   1.784  10.955 -0.5201 -2.4271  1.1862
 1754SOL     OW16897   4.715   3.920   7.012 -0.0288 -0.2590 -0.6497
 1754SOL    HW116898   0.072   3.941   7.022 -0.1745 -0.4134  1.0346
 1754SOL    HW216899   4.681   3.939   7.099 -0.1897 -2.4848 -0.2114
 1755SOL     OW16900   1.390   3.579   6.653  0.1728  0.4023  0.0120
 1755SOL    HW116901   1.448   3.553   6.724 -0.3843  1.5240  0.8746
 1755SOL    HW216902   1.385   3.674   6.668  1.8003  0.0281  2.8314
 1756SOL     OW16903   4.514   2.457   9.010  0.3105 -0.3248 -0.2682
 1756SOL    HW116904   4.424   2.427   8.995 -0.4856  1.4955  0.8385
 1756SOL    HW216905   4.489   2.514   9.083 -2.3014 -2.2870  0.3708
 1757SOL     OW16906   0.056   2.059   6.844 -0.0321  0.2700  0.1393
 1757SOL    HW116907   0.010   2.102   6.916 -0.8922 -0.4528  0.0200
 1757SOL    HW216908   0.146   2.091   6.857 -1.3242  4.2210 -0.6850
 1758SOL     OW16909   3.633   1.042   2.225  0.1720 -0.1257 -0.0842
 1758SOL    HW116910   3.616   1.086   2.309  1.8033 -1.1639  0.7851
 1758SOL    HW216911   3.724   1.013   2.232 -0.0518 -1.0451 -0.8993
 1759SOL     OW16912   2.008   1.431   7.111  0.1792 -0.2818  0.2468
 1759SOL    HW116913   2.033   1.342   7.084  0.4692 -0.6623  1.7814
 1759SOL    HW216914   2.041   1.411   7.198 -0.0196 -2.8587 -0.2508
 1760SOL     OW16915   3.984   2.592   6.896  0.2375 -0.1500  0.2806
 1760SOL    HW116916   3.931   2.533   6.949 -1.9427  0.2474 -1.4678
 1760SOL    HW216917   3.929   2.669   6.908  1.4249  0.5423  1.3007
 1761SOL     OW16918   4.363   3.296  14.807  0.3960 -0.5934 -0.7891
 1761SOL    HW116919   4.400   3.266  14.724  0.9753 -2.0383 -0.0088
 1761SOL    HW216920   4.442   3.318  14.857 -0.4138 -0.0512  0.2382
 1762SOL     OW16921   1.588   3.543   8.988  1.0970  0.0731  0.0436
 1762SOL    HW116922   1.635   3.546   9.072  1.8372  0.4839 -0.3886
 1762SOL    HW216923   1.649   3.584   8.927 -1.6293  2.3272 -1.1417
 1763SOL     OW16924   3.198   0.446  14.916  0.7324  0.0656 -0.0785
 1763SOL    HW116925   3.248   0.364  14.917 -2.1734 -1.7131 -2.9076
 1763SOL    HW216926   3.107   0.419  14.911  1.2193 -1.6072  0.2030
 1764SOL     OW16927   2.793   0.184   6.762 -0.5197 -0.2013  0.2506
 1764SOL    HW116928   2.709   0.156   6.724 -0.3546  0.5743 -0.6889
 1764SOL    HW216929   2.823   0.102   6.801  0.6197 -0.4093 -1.0615
 1765SOL     OW16930   1.307   1.315  14.250 -0.8135  0.5469 -0.3063
 1765SOL    HW116931   1.235   1.378  14.243 -1.5070 -0.3492 -1.2631
 1765SOL    HW216932   1.248   1.245  14.280 -0.5479  1.5777  2.6747
 1766SOL     OW16933   2.003   0.341   7.076  0.3454  0.5954 -0.2484
 1766SOL    HW116934   1.994   0.286   7.154  0.6372  0.9520  0.0359
 1766SOL    HW216935   2.062   0.280   7.032 -0.9903 -1.2539  0.4790
 1767SOL     OW16936   1.905   1.841   3.252  0.0895  0.5370 -0.1829
 1767SOL    HW116937   1.958   1.795   3.187 -1.9879 -0.8179 -0.9107
 1767SOL    HW216938   1.812   1.831   3.233 -0.0204 -0.7124  1.0128
 1768SOL     OW16939   4.155   2.116  11.673  0.3103 -0.8416  0.5339
 1768SOL    HW116940   4.074   2.159  11.646  0.4657 -1.1620 -0.4226
 1768SOL    HW216941   4.151   2.140  11.766  0.3584  2.9818 -0.4861
 1769SOL     OW16942   3.854   2.315   2.408 -0.5934  0.1560 -0.4460
 1769SOL    HW116943   3.859   2.403   2.369  1.6935 -0.5949 -1.8810
 1769SOL    HW216944   3.942   2.281   2.390 -0.6545  0.1798 -0.7883
 1770SOL     OW16945   4.108   2.040   0.192 -0.0084  0.8853  0.6809
 1770SOL    HW116946   4.100   2.121   0.142  0.5429  0.1089 -0.6619
 1770SOL    HW216947   4.020   2.005   0.208  1.2565 -1.9001  1.5420
 1771SOL     OW16948   4.597   4.164   2.807 -0.1407  0.2262  0.0897
 1771SOL    HW116949   4.683   4.122   2.812  1.1689  2.8008 -0.8057
 1771SOL    HW216950   4.557   4.121   2.732 -1.2252  1.7296 -0.1984
 1772SOL     OW16951   0.417   3.833   7.320 -0.0084 -0.0769  0.0072
 1772SOL    HW116952   0.473   3.769   7.365  1.3919 -0.4029 -2.2047
 1772SOL    HW216953   0.356   3.769   7.283  2.5844 -2.0397 -0.8402
 1773SOL     OW16954   2.732   1.258   3.169 -0.2717 -0.1207 -0.9973
 1773SOL    HW116955   2.714   1.350   3.149 -0.0388  0.2746  0.6471
 1773SOL    HW216956   2.824   1.251   3.145  0.0008 -2.2384  0.6454
 1774SOL     OW16957   1.153   2.678   9.544 -0.0057 -0.0232  0.4546
 1774SOL    HW116958   1.062   2.662   9.566 -0.3742  1.6956  0.2100
 1774SOL    HW216959   1.193   2.591   9.537  1.5368  0.7327 -0.2254
 1775SOL     OW16960   1.726   4.525   9.730  0.3330  0.2436 -0.2195
 1775SOL    HW116961   1.665   4.504   9.800  2.8591 -1.5752  1.4491
 1775SOL    HW216962   1.761   4.441   9.701  0.1724  0.2450 -0.4147
 1776SOL     OW16963   4.318   1.516   4.152 -0.3790 -0.4084  0.8284
 1776SOL    HW116964   4.364   1.523   4.069  1.5687 -3.4446  1.6557
 1776SOL    HW216965   4.348   1.596   4.194  0.3369 -0.5636  0.6051
 1777SOL     OW16966   2.248   2.278   2.139  0.0137  0.0375  0.5936
 1777SOL    HW116967   2.291   2.292   2.054 -1.2884 -0.4036 -0.1333
 1777SOL    HW216968   2.263   2.185   2.156  2.1301  0.2971  0.1975
 1778SOL     OW16969   3.879   4.349  17.011 -0.2357 -0.4895 -0.0142
 1778SOL    HW116970   3.899   4.284  16.945 -1.6184 -1.1835  0.2607
 1778SOL    HW216971   3.959   4.402  17.005 -0.6581  0.3302  1.5081
 1779SOL     OW16972   3.134   0.125   3.364  0.4506  0.0361 -0.0980
 1779SOL    HW116973   3.064   0.085   3.414  0.8525  1.0253  1.2513
 1779SOL    HW216974   3.110   0.121   3.271 -1.2064  2.5455  0.2451
 1780SOL     OW16975   4.713   4.731  13.926  0.5194 -0.8334  0.4278
 1780SOL    HW116976   4.666   0.033  14.001 -1.0524  0.3618 -1.1429
 1780SOL    HW216977   4.719   0.079  13.879  0.5040 -0.9111  0.2898
 1781SOL     OW16978   0.740   1.999   1.292  0.2467  0.0168 -0.0083
 1781SOL    HW116979   0.693   1.916   1.283  0.7165 -0.1174 -1.3092
 1781SOL    HW216980   0.803   1.968   1.357  0.0723 -1.1188 -0.3711
 1782SOL     OW16981   2.530   1.235  10.520 -0.0593 -0.3487  0.3615
 1782SOL    HW116982   2.451   1.190  10.489  0.1339 -0.9240  0.7095
 1782SOL    HW216983   2.595   1.172  10.489  1.1608  0.9896  0.1956
 1783SOL     OW16984   3.182   1.410  11.694  0.2015  0.0331 -0.2505
 1783SOL    HW116985   3.251   1.464  11.732  0.1436 -0.3444  0.3954
 1783SOL    HW216986   3.164   1.350  11.766  3.1549  1.8005  1.9422
 1784SOL     OW16987   2.244   4.018   3.282  0.0336 -0.5091  0.2365
 1784SOL    HW116988   2.315   4.058   3.332 -1.4435  0.7479  1.3188
 1784SOL    HW216989   2.286   3.984   3.203  0.0623 -1.9087  0.8676
 1785SOL     OW16990   3.193   3.662   5.729  0.1347 -0.0686 -0.0013
 1785SOL    HW116991   3.142   3.732   5.771 -0.5999 -0.5022 -0.1709
 1785SOL    HW216992   3.271   3.661   5.784 -0.1981  0.6867  0.4788
 1786SOL     OW16993   0.288   0.557   9.233  0.3878 -0.2821 -0.2195
 1786SOL    HW116994   0.257   0.646   9.247  1.1973  0.2169 -1.5211
 1786SOL    HW216995   0.302   0.543   9.139 -0.3060 -2.0827 -0.0459
 1787SOL     OW16996   1.079   2.287   6.508 -0.1476  0.2553 -0.2528
 1787SOL    HW116997   1.153   2.277   6.449  0.7544  1.7352  0.6458
 1787SOL    HW216998   1.108   2.360   6.563  3.1671 -0.7207 -0.7087
 1788SOL     OW16999   0.620   0.560   4.930 -0.0897 -0.1177 -0.3826
 1788SOL    HW117000   0.700   0.568   4.982  0.9337 -0.5992 -1.8802
 1788SOL    HW217001   0.588   0.477   4.964  0.4891 -0.2978 -0.2901
 1789SOL     OW17002   2.779   1.735   2.750  0.7850 -0.5084  0.1600
 1789SOL    HW117003   2.852   1.683   2.717  3.0016  2.6089  0.1113
 1789SOL    HW217004   2.801   1.757   2.841 -1.2255  0.5768  0.4022
 1790SOL     OW17005   2.914   2.177   2.192 -0.0289 -0.4913  0.2775
 1790SOL    HW117006   2.894   2.083   2.190  1.5680 -0.7989 -1.0209
 1790SOL    HW217007   2.826   2.213   2.197 -0.5685 -1.9372  1.1457
 1791SOL     OW17008   3.332   0.627   4.251  0.4645  0.3310 -0.0269
 1791SOL    HW117009   3.362   0.537   4.265  0.2101  0.4958  1.6284
 1791SOL    HW217010   3.353   0.631   4.158  2.0004  1.8237  0.3816
 1792SOL     OW17011   1.352   3.613  13.269  0.0924  0.1795  0.0531
 1792SOL    HW117012   1.415   3.586  13.202  0.2341  1.3668 -0.2891
 1792SOL    HW217013   1.321   3.534  13.315  0.0403  0.6949  0.9026
 1793SOL     OW17014   0.323   3.884   3.356  0.2462  0.0893 -0.9686
 1793SOL    HW117015   0.301   3.873   3.448 -0.4409 -1.0232 -1.2704
 1793SOL    HW217016   0.246   3.919   3.310  0.2330  1.5851  0.1862
 1794SOL     OW17017   0.884   2.206   3.072  0.4327 -0.1219 -0.5694
 1794SOL    HW117018   0.949   2.179   3.136  0.4310  0.0246 -0.5045
 1794SOL    HW217019   0.944   2.257   3.018  0.5776 -0.1917 -0.4724
 1795SOL     OW17020   2.066   0.567   8.540 -0.2182 -0.7158  0.2016
 1795SOL    HW117021   2.082   0.515   8.619 -0.6487  0.1375  0.8471
 1795SOL    HW217022   2.103   0.518   8.467  0.7050 -0.4402  0.4909
 1796SOL     OW17023   3.423   0.596   6.978  0.0532 -0.1041 -0.5294
 1796SOL    HW117024   3.412   0.525   7.040 -0.4434  1.0189  0.6662
 1796SOL    HW217025   3.351   0.654   7.006  0.8088 -0.1945  1.5922
 1797SOL     OW17026   0.261   3.148   9.400 -0.1872  0.2738  0.1945
 1797SOL    HW117027   0.225   3.061   9.420  0.8827 -0.1280  0.3751
 1797SOL    HW217028   0.203   3.168   9.326 -0.7454  0.7050  0.7414
 1798SOL     OW17029   2.403   3.657   3.269 -0.5501 -0.6427  0.2481
 1798SOL    HW117030   2.489   3.635   3.304  0.9275  1.0259 -2.4436
 1798SOL    HW217031   2.417   3.638   3.176 -1.1944 -0.7900  0.1792
 1799SOL     OW17032   4.021   4.590   9.306 -0.3068  0.2392 -0.2058
 1799SOL    HW117033   4.022   4.529   9.380  0.2376 -0.0267 -0.4278
 1799SOL    HW217034   3.932   4.621   9.293 -0.5901 -0.0143  1.0714
 1800SOL     OW17035   1.657   3.801  17.740 -0.3164 -0.0566  0.0539
 1800SOL    HW117036   1.593   3.835   0.062 -0.4142 -1.1578  0.5501
 1800SOL    HW217037   1.610   3.779  17.659 -0.4257  4.4608 -1.1345
 1801SOL     OW17038   4.048   4.209  15.521 -1.0196 -0.6262  0.1919
 1801SOL    HW117039   4.115   4.238  15.583 -1.6684  2.8373 -0.7179
 1801SOL    HW217040   4.031   4.294  15.481 -1.6916 -0.0953  1.6135
 1802SOL     OW17041   3.220   2.984   0.987 -0.1239  0.4082  0.1136
 1802SOL    HW117042   3.313   2.968   0.998  0.5678  3.3725 -1.3422
 1802SOL    HW217043   3.210   3.011   0.895 -1.2079 -2.2675 -0.5630
 1803SOL     OW17044   1.220   4.553   5.790  0.2295  0.4026 -0.1776
 1803SOL    HW117045   1.241   4.642   5.762 -0.5761  0.2612 -1.2714
 1803SOL    HW217046   1.304   4.512   5.811  0.0674 -0.2508 -0.7921
 1804SOL     OW17047   0.931   3.494  15.104 -0.3890 -0.6225 -0.3817
 1804SOL    HW117048   0.902   3.584  15.086  0.9203 -0.1348 -0.0600
 1804SOL    HW217049   0.853   3.453  15.068  0.1857 -2.7766  0.8542
 1805SOL     OW17050   2.778   1.384  16.395 -0.2532  0.1669  0.2668
 1805SOL    HW117051   2.856   1.380  16.339 -2.0081 -0.9697 -2.0714
 1805SOL    HW217052   2.719   1.453  16.364 -0.8194 -0.4254  0.0195
 1806SOL     OW17053   3.720   4.345   5.568  0.3138  0.4855  0.0433
 1806SOL    HW117054   3.767   4.351   5.651 -0.3320  2.3853  0.2762
 1806SOL    HW217055   3.739   4.430   5.528  0.2161  0.5114  0.0517
 1807SOL     OW17056   4.167   2.560   6.681 -0.0997 -0.4761  0.0450
 1807SOL    HW117057   4.093   2.567   6.742 -0.2345 -0.8613 -0.0789
 1807SOL    HW217058   4.173   2.646   6.638 -0.8681  1.2464  3.3262
 1808SOL     OW17059   3.866   2.995   2.074  0.4232  0.8081 -0.4913
 1808SOL    HW117060   3.942   3.041   2.110 -0.5744  2.8290 -0.9949
 1808SOL    HW217061   3.883   2.903   2.095 -3.1358  0.1124 -0.7051
 1809SOL     OW17062   3.665   1.004   6.307 -0.1708 -0.0392  0.1089
 1809SOL    HW117063   3.642   1.083   6.356 -0.5817  0.8284 -1.4893
 1809SOL    HW217064   3.755   1.021   6.280 -0.0368 -0.1740  0.4650
 1810SOL     OW17065   0.162   2.368  13.623 -0.1247 -0.3383 -0.1677
 1810SOL    HW117066   0.171   2.292  13.564  2.3494 -0.5155  0.4438
 1810SOL    HW217067   0.206   2.437  13.573  0.8724 -0.1635  0.9463
 1811SOL     OW17068   4.419   3.331  16.063  0.3967 -0.6356 -0.3732
 1811SOL    HW117069   4.390   3.302  16.150 -2.3835  0.3932 -0.9747
 1811SOL    HW217070   4.488   3.389  16.097 -0.9620  0.5389  0.3601
 1812SOL     OW17071   1.357   3.566   7.362 -0.4234 -0.1559 -0.0701
 1812SOL    HW117072   1.366   3.477   7.328  1.8739  0.7302 -1.7509
 1812SOL    HW217073   1.322   3.620   7.292  2.2037  0.0144 -1.2495
 1813SOL     OW17074   0.074   4.584   2.461 -0.1573  0.0608 -0.1604
 1813SOL    HW117075   0.024   4.503   2.457  0.2358 -0.1201 -1.3799
 1813SOL    HW217076   0.005   4.650   2.456  1.2703  1.4840 -1.0097
 1814SOL     OW17077   4.051   1.637   2.508  0.2447  0.2684  0.6371
 1814SOL    HW117078   4.129   1.669   2.462 -0.0804  0.9721  0.5644
 1814SOL    HW217079   4.034   1.713   2.564 -0.4665  0.7943 -0.2911
 1815SOL     OW17080   3.242   2.818   0.263 -0.0335 -0.5891  0.0416
 1815SOL    HW117081   3.162   2.847   0.307  0.4335  1.0929 -0.2446
 1815SOL    HW217082   3.265   2.898   0.217  1.8736 -0.0233  1.9706
 1816SOL     OW17083   1.689   2.823  16.742 -0.3623 -0.4202  0.3328
 1816SOL    HW117084   1.656   2.912  16.755  0.3881 -0.0345 -0.4150
 1816SOL    HW217085   1.645   2.757  16.797 -1.8130 -0.8685 -1.3516
 1817SOL     OW17086   1.888   0.134   4.373 -0.1302  0.4018 -0.1489
 1817SOL    HW117087   1.853   0.167   4.455  1.3728 -0.3267  0.7778
 1817SOL    HW217088   1.972   0.093   4.396  0.0709  0.2145 -1.1962
 1818SOL     OW17089   4.049   0.156   9.071  0.1004 -0.0495 -0.1430
 1818SOL    HW117090   3.995   0.136   9.148 -3.3624 -0.0323 -2.5560
 1818SOL    HW217091   4.137   0.124   9.090  1.3081  2.6049 -1.3187
 1819SOL     OW17092   3.877   0.508   5.048  0.1662 -0.4904 -0.6660
 1819SOL    HW117093   3.866   0.472   4.960 -0.4124  1.4535 -1.3858
 1819SOL    HW217094   3.848   0.436   5.105 -2.9593  1.4117  0.1281
 1820SOL     OW17095   0.050   4.422   7.591 -0.6868 -0.3341  0.4734
 1820SOL    HW117096   4.718   4.490   7.585 -0.9783 -0.7271 -0.7411
 1820SOL    HW217097   0.040   4.372   7.510  1.1104  0.2994 -0.1586
 1821SOL     OW17098   2.940   1.862   5.754 -0.2631 -0.4662 -0.2406
 1821SOL    HW117099   3.026   1.871   5.713 -0.2064  0.2216  0.0202
 1821SOL    HW217100   2.972   1.868   5.844  0.3086 -2.0849 -0.3504
 1822SOL     OW17101   1.184   0.752   8.129 -0.4142 -0.9304  0.5263
 1822SOL    HW117102   1.161   0.695   8.202  0.2207 -0.4683  1.0914
 1822SOL    HW217103   1.120   0.736   8.059  2.2116  2.0067 -2.5528
 1823SOL     OW17104   1.978   1.427   2.427 -0.5534 -0.1723  0.3776
 1823SOL    HW117105   1.902   1.484   2.440 -0.2244  0.4380 -0.3897
 1823SOL    HW217106   1.986   1.402   2.519  2.6387  0.4477  0.2755
 1824SOL     OW17107   2.790   3.773   5.178 -0.0370  0.0356 -0.0246
 1824SOL    HW117108   2.777   3.868   5.174 -1.3272 -0.0957  0.8490
 1824SOL    HW217109   2.755   3.738   5.260  1.5837  2.8382  1.8679
 1825SOL     OW17110   1.054   0.152  16.474 -0.2548  0.2557  0.6245
 1825SOL    HW117111   1.032   0.117  16.560 -2.4487 -0.6255 -0.2889
 1825SOL    HW217112   1.046   0.078  16.413 -2.4240 -0.1329  1.3825
 1826SOL     OW17113   2.068   3.220   5.994 -0.1048  0.0059  1.0483
 1826SOL    HW117114   1.993   3.228   5.934 -0.3649 -1.1427  1.2161
 1826SOL    HW217115   2.068   3.310   6.025 -0.8760  0.3598  0.0057
 1827SOL     OW17116   1.593   1.001   1.316 -0.7109  0.2946  0.0706
 1827SOL    HW117117   1.632   1.034   1.235 -0.2270 -0.5242 -0.0235
 1827SOL    HW217118   1.620   0.910   1.307  2.2686  0.9630  2.1930
 1828SOL     OW17119   4.231   4.224   0.628 -0.3395  0.5217 -0.1940
 1828SOL    HW117120   4.307   4.168   0.617  0.2219  1.2110  0.1721
 1828SOL    HW217121   4.229   4.251   0.720 -4.2160 -0.7425  0.1165
 1829SOL     OW17122   1.038   4.403   6.648  0.1330  0.3611 -0.2504
 1829SOL    HW117123   1.059   4.362   6.564 -2.9996  0.0460 -0.8676
 1829SOL    HW217124   1.123   4.448   6.652  0.4812 -0.4492  1.6238
 1830SOL     OW17125   3.628   2.373   9.052 -0.1426  0.3358  0.2357
 1830SOL    HW117126   3.702   2.421   9.087  0.5201 -0.3335 -0.2246
 1830SOL    HW217127   3.558   2.385   9.116 -0.7640  0.4188 -0.4500
 1831SOL     OW17128   4.544   4.593  10.564  0.1463 -0.2897 -0.5561
 1831SOL    HW117129   4.598   4.588  10.485  0.9659  2.0507 -0.1550
 1831SOL    HW217130   4.556   4.502  10.589 -0.7525 -0.0370  0.8410
 1832SOL     OW17131   2.773   2.819  10.624 -0.7353 -0.0485 -0.0265
 1832SOL    HW117132   2.694   2.773  10.653  0.2827 -1.4583  0.4846
 1832SOL    HW217133   2.742   2.910  10.617 -0.6609  0.1548  2.3231
 1833SOL     OW17134   1.200   0.209   2.410  0.1290 -0.6851  0.3624
 1833SOL    HW117135   1.235   0.172   2.491  0.7723 -1.3402 -0.2224
 1833SOL    HW217136   1.158   0.289   2.443 -1.0150 -1.9861  2.0697
 1834SOL     OW17137   1.617   1.531   9.613 -0.3984  0.0823  0.5707
 1834SOL    HW117138   1.578   1.594   9.674 -0.7087 -1.1217  1.6111
 1834SOL    HW217139   1.604   1.449   9.661 -1.0349 -1.9238 -3.0027
 1835SOL     OW17140   2.136   1.987   3.737  0.4696  0.2606 -0.2335
 1835SOL    HW117141   2.074   2.058   3.719  0.5310  0.4140  0.1592
 1835SOL    HW217142   2.126   1.966   3.830 -1.3625  0.0920 -0.4770
 1836SOL     OW17143   4.436   4.498   3.969  0.0030 -0.3119  0.1837
 1836SOL    HW117144   4.529   4.517   3.963  0.1025 -0.6146  0.7087
 1836SOL    HW217145   4.409   4.584   4.002 -2.6676 -1.3972  0.8680
 1837SOL     OW17146   2.059   0.027   5.477  0.4971  0.0825  0.6017
 1837SOL    HW117147   2.111   0.106   5.462  2.0898 -1.0206  0.3208
 1837SOL    HW217148   1.970   0.062   5.481  1.4425  2.5320  0.3818
 1838SOL     OW17149   4.133   0.301   8.702 -0.2676 -0.2002  0.3233
 1838SOL    HW117150   4.050   0.279   8.745 -0.5885  1.2095  0.4185
 1838SOL    HW217151   4.193   0.312   8.776  0.4695  1.3486 -0.5272
 1839SOL     OW17152   1.346   3.583  10.923  0.4690 -0.3319  0.4350
 1839SOL    HW117153   1.331   3.532  11.002  1.2522  0.6427  1.2191
 1839SOL    HW217154   1.283   3.542  10.864  1.4685 -0.2934 -0.6473
 1840SOL     OW17155   3.994   3.973   6.441 -0.3983 -0.0537 -0.0114
 1840SOL    HW117156   3.955   4.011   6.520 -0.0907 -0.6832  0.4386
 1840SOL    HW217157   3.949   3.892   6.419 -0.4358 -0.6488  2.2734
 1841SOL     OW17158   3.795   4.341   1.201  0.2174  0.4813  0.4504
 1841SOL    HW117159   3.858   4.358   1.131  2.1099  0.6987  2.2055
 1841SOL    HW217160   3.782   4.429   1.236  0.2913  1.5353 -2.1427
 1842SOL     OW17161   1.600   1.910   8.940  0.2083 -0.0200  0.3489
 1842SOL    HW117162   1.586   1.817   8.958  2.3528 -0.8016 -1.9582
 1842SOL    HW217163   1.671   1.897   8.877  0.0458 -1.8595  0.5428
 1843SOL     OW17164   1.379   4.085   4.849  0.0113  0.2457 -0.0522
 1843SOL    HW117165   1.299   4.131   4.873 -0.5829 -0.3026 -1.0226
 1843SOL    HW217166   1.376   4.070   4.755 -0.5603 -1.4353  0.2387
 1844SOL     OW17167   2.705   2.970   9.273  0.1681 -0.0754  0.3310
 1844SOL    HW117168   2.763   2.899   9.301  0.0727 -1.0699 -1.9231
 1844SOL    HW217169   2.646   2.984   9.346  2.4442  2.9412  1.6190
 1845SOL     OW17170   1.317   4.411   0.355  0.6539 -0.1557  0.1607
 1845SOL    HW117171   1.399   4.430   0.310  2.2565 -1.1371  2.7151
 1845SOL    HW217172   1.291   4.322   0.331  0.5382 -0.1154  0.1345
 1846SOL     OW17173   2.013   2.585  15.100  0.2496 -0.2252 -0.2204
 1846SOL    HW117174   1.977   2.497  15.103  1.0396 -0.4664  2.6400
 1846SOL    HW217175   2.008   2.613  15.009 -0.0388 -0.6504 -0.3323
 1847SOL     OW17176   1.508   0.216   4.411  0.2485 -0.7869 -0.4807
 1847SOL    HW117177   1.572   0.276   4.374  1.3106 -1.1795  0.6928
 1847SOL    HW217178   1.520   0.218   4.506 -0.2757  2.8620 -0.5038
 1848SOL     OW17179   0.957   3.150   0.788 -0.3136  0.0937  0.4095
 1848SOL    HW117180   0.881   3.095   0.769 -0.0420  0.6819 -2.3419
 1848SOL    HW217181   0.943   3.232   0.741 -1.3045 -0.8337 -0.8882
 1849SOL     OW17182   0.811   2.118   5.595 -0.3510  0.2222 -0.1843
 1849SOL    HW117183   0.752   2.191   5.614 -1.3123 -0.3158 -1.1652
 1849SOL    HW217184   0.755   2.043   5.613 -0.0978 -0.3335 -1.7597
 1850SOL     OW17185   1.383   1.209   4.938  0.0173  0.1360  0.2290
 1850SOL    HW117186   1.438   1.272   4.985  1.6543 -1.1800  0.1065
 1850SOL    HW217187   1.389   1.142   5.006  0.8642 -0.7270 -0.6915
 1851SOL     OW17188   3.305   1.786   2.218 -0.4676 -0.1807  0.8228
 1851SOL    HW117189   3.376   1.815   2.276 -0.4121  0.5002  0.4160
 1851SOL    HW217190   3.336   1.773   2.129  3.4197 -0.7767  2.2526
 1852SOL     OW17191   4.383   2.923   3.170  0.7505 -0.3226  0.6175
 1852SOL    HW117192   4.385   2.927   3.074 -1.5462 -1.7583  0.5155
 1852SOL    HW217193   4.292   2.938   3.194  0.5881  0.8601 -0.7385
 1853SOL     OW17194   2.978   1.753   3.242 -0.3779  0.0341 -0.2122
 1853SOL    HW117195   2.914   1.710   3.300 -0.7155  1.0146  0.1385
 1853SOL    HW217196   3.052   1.693   3.237  0.6243  1.3804 -1.1296
 1854SOL     OW17197   0.123   0.908  13.922  0.6842  0.1710  0.3705
 1854SOL    HW117198   0.035   0.942  13.933  0.1144 -0.8015 -1.2833
 1854SOL    HW217199   0.116   0.832  13.865 -0.1155  0.1536  0.5036
 1855SOL     OW17200   2.202   4.081   8.379  0.0330 -0.3412  0.2059
 1855SOL    HW117201   2.238   4.081   8.290  2.1994 -1.3964  1.0804
 1855SOL    HW217202   2.108   4.096   8.366 -0.0392  0.4679  1.6910
 1856SOL     OW17203   3.144   2.349   2.580  0.3503 -0.8203  0.4929
 1856SOL    HW117204   3.155   2.257   2.606 -2.3033 -0.9202  1.2901
 1856SOL    HW217205   3.121   2.344   2.488  1.4765 -1.0155  0.2162
 1857SOL     OW17206   3.569   0.201   2.571  0.2472  0.2174 -0.1399
 1857SOL    HW117207   3.496   0.142   2.556 -0.7322  0.9083  1.9977
 1857SOL    HW217208   3.544   0.250   2.650 -2.3724 -0.2733 -0.6568
 1858SOL     OW17209   2.742   1.353   8.312  0.2045  0.2196 -1.1840
 1858SOL    HW117210   2.736   1.403   8.393 -1.0932 -2.1465  0.1696
 1858SOL    HW217211   2.653   1.367   8.279 -0.1905  1.5504  0.4422
 1859SOL     OW17212   2.036   2.877   6.955 -0.4747  0.3401 -0.5048
 1859SOL    HW117213   1.943   2.854   6.960 -0.7764  2.1030  1.8523
 1859SOL    HW217214   2.066   2.879   6.864  2.8764 -0.5598  0.5699
 1860SOL     OW17215   3.637   1.234   2.737 -0.2316  0.7342 -0.3011
 1860SOL    HW117216   3.617   1.148   2.775 -0.0931  0.4095 -0.9587
 1860SOL    HW217217   3.719   1.243   2.785 -1.2408  0.8707  1.4189
 1861SOL     OW17218   3.398   0.147   1.931  0.0654 -0.7941  0.1926
 1861SOL    HW117219   3.424   0.181   2.016 -1.8006 -1.3412  0.9831
 1861SOL    HW217220   3.440   0.209   1.872 -3.7608 -0.9947 -2.8097
 1862SOL     OW17221   2.973   0.916   3.779 -0.4835  0.0926  0.4832
 1862SOL    HW117222   2.928   0.848   3.830 -1.1071 -0.1253 -0.3451
 1862SOL    HW217223   2.908   0.984   3.797  0.3252  0.8378  0.5814
 1863SOL     OW17224   2.580   3.370   7.375 -0.0070 -0.4077  0.1752
 1863SOL    HW117225   2.649   3.397   7.315 -1.1875  3.1527  0.4193
 1863SOL    HW217226   2.555   3.284   7.343 -0.5507 -0.3560  0.4710
 1864SOL     OW17227   3.093   3.434   2.188 -0.3395 -0.5085  0.0842
 1864SOL    HW117228   3.093   3.351   2.140 -3.7939 -1.4509  1.6847
 1864SOL    HW217229   3.004   3.429   2.225 -0.3901 -2.4141 -0.3094
 1865SOL     OW17230   1.502   2.429   6.471 -0.1083 -0.5240  0.3039
 1865SOL    HW117231   1.445   2.445   6.547  1.6623 -0.3418  1.5724
 1865SOL    HW217232   1.449   2.357   6.436  0.2654 -1.7594  2.2491
 1866SOL     OW17233   0.910   0.510  17.499 -0.5517  0.1235 -0.5303
 1866SOL    HW117234   0.908   0.488  17.406 -1.1067  0.1914 -0.5388
 1866SOL    HW217235   0.988   0.466  17.531 -0.1618  1.1735 -0.0200
 1867SOL     OW17236   1.318   1.133   0.186 -0.2041 -0.4837 -0.0008
 1867SOL    HW117237   1.266   1.086   0.121 -2.8707  1.6807  0.5605
 1867SOL    HW217238   1.280   1.221   0.176 -0.5863 -0.6869 -0.3388
 1868SOL     OW17239   4.369   4.734   4.065 -0.1822  0.2870 -0.6808
 1868SOL    HW117240   4.338   0.047   4.142 -0.6647 -0.5092 -0.3809
 1868SOL    HW217241   4.350   0.060   3.993  0.7943 -0.4407 -1.5624
 1869SOL     OW17242   1.152   2.316   7.028 -0.3870 -0.0843  0.3030
 1869SOL    HW117243   1.176   2.223   7.037  1.0051  0.3750  1.4117
 1869SOL    HW217244   1.240   2.350   7.014 -1.1049  2.0385  1.0745
 1870SOL     OW17245   0.194   0.860   6.501 -0.8593  0.5738 -0.5304
 1870SOL    HW117246   0.152   0.828   6.581 -0.2809 -0.7023 -0.7218
 1870SOL    HW217247   0.255   0.920   6.543 -1.5831  1.0403 -0.1603
 1871SOL     OW17248   0.311   1.275   6.255 -0.1360 -0.2041  0.3983
 1871SOL    HW117249   0.273   1.212   6.316 -3.1899  2.0060  0.7929
 1871SOL    HW217250   0.231   1.309   6.216  0.3706  1.0267  0.4238
 1872SOL     OW17251   3.992   2.196   8.673  0.3876  0.3496 -0.1272
 1872SOL    HW117252   4.011   2.141   8.748  0.2088 -0.5801 -0.7693
 1872SOL    HW217253   3.973   2.282   8.711  0.2503  0.4136 -0.3389
 1873SOL     OW17254   0.907   2.694   2.123  0.9681  0.0713  0.6879
 1873SOL    HW117255   0.873   2.689   2.213  1.1132  0.8026  0.7823
 1873SOL    HW217256   0.897   2.788   2.107 -1.6677 -0.1001  1.3561
 1874SOL     OW17257   0.696   1.627   3.108  0.1742  0.4839  0.2588
 1874SOL    HW117258   0.639   1.583   3.045 -0.4080 -0.6221  1.5619
 1874SOL    HW217259   0.680   1.576   3.187 -0.6571 -1.2227 -1.0134
 1875SOL     OW17260   3.767   3.117   7.440 -0.0317 -0.0484 -0.5262
 1875SOL    HW117261   3.678   3.144   7.464 -0.9631 -2.0765 -1.6278
 1875SOL    HW217262   3.744   3.035   7.395 -1.8470  0.0469  0.2260
 1876SOL     OW17263   2.739   0.712   4.539 -0.4595 -0.1509  0.3599
 1876SOL    HW117264   2.724   0.633   4.487  0.3803  0.7002 -1.1746
 1876SOL    HW217265   2.727   0.679   4.628 -1.2059 -0.7545  0.0379
 1877SOL     OW17266   4.103   2.969   3.238 -0.0173 -0.1230 -0.2694
 1877SOL    HW117267   4.017   2.964   3.196 -0.3391  2.9465  0.0137
 1877SOL    HW217268   4.069   2.984   3.327 -1.0810  0.1703 -0.7202
 1878SOL     OW17269   0.059   2.356  12.815  0.1203  0.3173  0.1228
 1878SOL    HW117270   0.149   2.365  12.784  0.3761 -1.1750  0.4261
 1878SOL    HW217271   0.042   2.269  12.851 -0.7626  1.1121  1.6184
 1879SOL     OW17272   2.836   0.181   5.819 -0.0892 -0.2267 -0.2713
 1879SOL    HW117273   2.883   0.211   5.897 -1.2651  0.9306 -0.0063
 1879SOL    HW217274   2.819   0.262   5.771 -0.8595 -2.4135 -3.6452
 1880SOL     OW17275   3.866   1.138   2.465  0.1203 -0.4529  0.2460
 1880SOL    HW117276   3.916   1.217   2.443  2.5821 -2.3590 -1.0060
 1880SOL    HW217277   3.776   1.167   2.479  0.2081 -0.0763  0.0186
 1881SOL     OW17278   4.495   1.472   6.517  0.2208  0.6295  0.0273
 1881SOL    HW117279   4.515   1.559   6.551  1.3603 -0.1692  1.3350
 1881SOL    HW217280   4.520   1.415   6.589 -0.2142  1.0237  0.4914
 1882SOL     OW17281   3.379   0.428   2.336  0.9675  0.2204 -0.2030
 1882SOL    HW117282   3.443   0.499   2.343 -0.0513  0.9733  1.4933
 1882SOL    HW217283   3.345   0.413   2.424 -3.9401  3.1875 -1.6289
 1883SOL     OW17284   2.552   4.134   6.208  0.0716 -0.1449  0.2644
 1883SOL    HW117285   2.506   4.083   6.275 -0.0674 -0.5147 -0.1090
 1883SOL    HW217286   2.481   4.166   6.152  1.9618  0.0652 -2.0063
 1884SOL     OW17287   3.477   4.667   9.374  0.1360  0.4268  0.1736
 1884SOL    HW117288   3.431   4.679   9.290 -0.2583  0.8938  0.4582
 1884SOL    HW217289   3.567   4.664   9.342  0.0087  2.8886 -0.4025
 1885SOL     OW17290   1.698   3.161   2.911  0.2612 -0.5487 -0.5334
 1885SOL    HW117291   1.772   3.107   2.882  0.9278 -0.6198  1.3032
 1885SOL    HW217292   1.747   3.209   2.979 -0.8002  2.6991 -2.0656
 1886SOL     OW17293   3.075   1.196  16.923 -0.0348  0.4858 -0.0117
 1886SOL    HW117294   3.147   1.214  16.985 -0.1625  0.4590  0.1437
 1886SOL    HW217295   3.105   1.258  16.856 -0.4134  1.1664  0.4488
 1887SOL     OW17296   0.907   0.998   6.584  0.0024  0.1513 -0.0150
 1887SOL    HW117297   0.944   0.936   6.646  0.0990  0.5414  0.3128
 1887SOL    HW217298   0.922   0.951   6.502 -3.1960 -0.8179 -0.0305
 1888SOL     OW17299   2.243   2.434   6.686  0.6865 -0.0230 -0.4331
 1888SOL    HW117300   2.332   2.404   6.703  0.2303 -0.1858  1.7599
 1888SOL    HW217301   2.197   2.357   6.654 -0.6419  0.4921  0.2011
 1889SOL     OW17302   1.163   0.631   6.147 -0.0175 -0.1739  0.2944
 1889SOL    HW117303   1.140   0.551   6.193 -0.3864 -0.6510 -0.7445
 1889SOL    HW217304   1.169   0.686   6.225  1.6817  1.3911 -0.9208
 1890SOL     OW17305   0.843   3.122   2.720 -0.1727  0.6483 -0.2817
 1890SOL    HW117306   0.802   3.198   2.761  0.3771 -0.1619  1.7650
 1890SOL    HW217307   0.793   3.109   2.639 -0.5609 -2.6829  0.4622
 1891SOL     OW17308   3.259   2.241   4.010  0.0551 -0.0056 -0.1638
 1891SOL    HW117309   3.324   2.238   3.940  0.6203  0.1146  0.3573
 1891SOL    HW217310   3.178   2.227   3.960 -1.1599  1.2317  1.4792
 1892SOL     OW17311   0.967   1.686   2.742  0.2463  0.1901  0.8260
 1892SOL    HW117312   0.875   1.711   2.753  0.4789  2.0310 -1.2295
 1892SOL    HW217313   0.963   1.591   2.742 -0.5438  0.2149 -1.6204
 1893SOL     OW17314   1.249   3.324   8.943  0.4286 -0.4301  0.1767
 1893SOL    HW117315   1.165   3.291   8.973 -0.0814  0.4704 -0.2733
 1893SOL    HW217316   1.249   3.279   8.859  1.7219 -1.1356  0.5529
 1894SOL     OW17317   4.487   3.688   2.369 -0.2192  0.3387 -0.1619
 1894SOL    HW117318   4.508   3.747   2.296 -0.4344  0.3641 -0.2025
 1894SOL    HW217319   4.439   3.616   2.328 -0.5155 -0.4503  1.5515
 1895SOL     OW17320   0.140   0.021   8.756 -0.4198 -0.3446 -0.4910
 1895SOL    HW117321   0.199   0.083   8.800 -1.9957 -0.0611  1.1950
 1895SOL    HW217322   0.174   4.672   8.784 -0.4157 -0.8354 -2.0020
 1896SOL     OW17323   3.387   3.473  12.254  0.2263 -0.0704 -0.5726
 1896SOL    HW117324   3.474   3.504  12.281  1.4657 -1.6464 -2.8078
 1896SOL    HW217325   3.339   3.508  12.329  0.5755  0.4687 -0.6004
 1897SOL     OW17326   3.807   1.090   4.803 -0.5000  0.2214 -0.2033
 1897SOL    HW117327   3.724   1.047   4.782 -0.1865  0.0733 -1.1401
 1897SOL    HW217328   3.864   1.047   4.740  1.4165  1.0730  0.9558
 1898SOL     OW17329   0.790   1.863   8.936  0.1330  0.4309 -0.3302
 1898SOL    HW117330   0.773   1.928   9.004 -1.4126 -2.3028  1.8496
 1898SOL    HW217331   0.870   1.894   8.893 -0.9555  2.6077 -0.8342
 1899SOL     OW17332   2.262   2.430   9.281 -0.0488  0.3136  0.4514
 1899SOL    HW117333   2.176   2.392   9.296  0.9275 -1.4126  1.7364
 1899SOL    HW217334   2.315   2.358   9.315 -1.6800 -1.1583 -0.1066
 1900SOL     OW17335   2.274   3.756   5.694 -0.2855 -0.1080 -0.0895
 1900SOL    HW117336   2.210   3.727   5.628 -0.5001 -1.6645  0.7942
 1900SOL    HW217337   2.353   3.759   5.640  0.7723 -2.9408  1.3112
 1901SOL     OW17338   4.387   2.650   2.321  0.2193  0.1230  0.0142
 1901SOL    HW117339   4.471   2.605   2.325  0.7308  1.0975 -0.0154
 1901SOL    HW217340   4.330   2.575   2.304 -0.2616  0.3678  0.5541
 1902SOL     OW17341   1.745   0.916  11.817 -0.0971  0.0257 -0.1382
 1902SOL    HW117342   1.651   0.926  11.830 -0.1886  2.2562 -2.6039
 1902SOL    HW217343   1.786   0.983  11.872 -0.0277  1.5829 -2.0967
 1903SOL     OW17344   2.869   2.092   8.753 -0.1631 -0.0443  0.2296
 1903SOL    HW117345   2.956   2.064   8.724 -0.0611  1.3776 -0.8261
 1903SOL    HW217346   2.870   2.076   8.847 -0.0918  1.0477  0.4123
 1904SOL     OW17347   0.759   1.494   5.362 -0.1213  0.3466  0.1761
 1904SOL    HW117348   0.772   1.509   5.269  1.3801  0.5519  0.4147
 1904SOL    HW217349   0.814   1.568   5.387 -1.9556  1.0717  2.0501
 1905SOL     OW17350   4.264   0.334   2.150  0.1236  0.4624 -0.2643
 1905SOL    HW117351   4.196   0.323   2.216  1.0020  0.6592  0.6669
 1905SOL    HW217352   4.339   0.289   2.189 -0.3593 -0.1255 -0.0287
 1906SOL     OW17353   0.629   4.000   3.799  0.2920  0.5338 -0.1003
 1906SOL    HW117354   0.554   4.020   3.742 -0.6949 -1.0954  0.6007
 1906SOL    HW217355   0.583   4.018   3.881  1.2935  0.6389  0.4364
 1907SOL     OW17356   3.318   0.041   6.991 -0.0990 -0.4359 -0.4335
 1907SOL    HW117357   3.363   0.125   6.996  2.6382 -1.9238  0.2597
 1907SOL    HW217358   3.246   0.055   6.930  0.2958 -0.2540 -0.8554
 1908SOL     OW17359   0.444   0.878   5.069  0.5110 -0.0103  1.1803
 1908SOL    HW117360   0.433   0.888   4.974  0.1731  0.3552  1.2563
 1908SOL    HW217361   0.356   0.870   5.105  0.0659 -0.3466  0.0403
 1909SOL     OW17362   2.374   1.363   7.868 -0.6702  0.1882  0.4883
 1909SOL    HW117363   2.361   1.270   7.849 -0.5427  0.4078 -0.6542
 1909SOL    HW217364   2.353   1.412   7.788 -0.5027 -0.4818  0.0379
 1910SOL     OW17365   4.589   2.551   7.767  0.0428  0.2660  0.5624
 1910SOL    HW117366   4.618   2.482   7.707  0.5505  0.5475  0.4792
 1910SOL    HW217367   4.540   2.609   7.709 -0.0296  0.8943  1.2478
 1911SOL     OW17368   4.259   4.102   3.362  0.0684  0.0770 -0.5348
 1911SOL    HW117369   4.300   4.018   3.340  0.0690 -0.4091  1.3075
 1911SOL    HW217370   4.188   4.106   3.299  0.1569 -1.3422 -0.7289
 1912SOL     OW17371   1.763   0.608   4.789  0.3675  0.1724  1.0170
 1912SOL    HW117372   1.852   0.573   4.794 -0.0680 -0.9021  1.0763
 1912SOL    HW217373   1.788   0.700   4.776 -1.5245  0.6335  0.6286
 1913SOL     OW17374   1.187   4.229   1.847  0.2041 -0.1693 -0.1988
 1913SOL    HW117375   1.213   4.211   1.757  1.6677 -0.4325  0.2840
 1913SOL    HW217376   1.178   4.139   1.877 -1.7586  0.5413  1.4041
 1914SOL     OW17377   0.675   2.277   4.233  0.1005  0.3881 -0.0788
 1914SOL    HW117378   0.766   2.256   4.210 -0.0097 -1.4388  1.1692
 1914SOL    HW217379   0.669   2.370   4.214 -0.6766  0.4892  0.6714
 1915SOL     OW17380   0.051   0.785  14.286  0.2300  0.4686 -0.0996
 1915SOL    HW117381   0.035   0.859  14.344  2.2782 -0.7016  1.9645
 1915SOL    HW217382   0.125   0.820  14.238  1.4913 -0.1756  1.3797
 1916SOL     OW17383   0.876   2.864  15.977  0.0762  0.8880 -0.1094
 1916SOL    HW117384   0.821   2.932  16.016  2.1680  0.8203  2.9454
 1916SOL    HW217385   0.896   2.898  15.890 -2.3294 -1.3858 -1.5698
 1917SOL     OW17386   0.701   3.560  13.138 -0.0398 -0.5375 -0.1084
 1917SOL    HW117387   0.681   3.523  13.223 -1.3650 -0.4791 -0.3913
 1917SOL    HW217388   0.794   3.582  13.151 -0.2532  0.6018 -0.4663
 1918SOL     OW17389   3.892   3.540   9.156 -0.0116 -0.2891  0.6063
 1918SOL    HW117390   3.942   3.529   9.237  2.4866 -1.8301 -1.1423
 1918SOL    HW217391   3.869   3.633   9.156 -2.4771 -0.9054  0.8019
 1919SOL     OW17392   2.649   2.464   5.786 -0.0496 -0.1803 -0.9106
 1919SOL    HW117393   2.575   2.492   5.731  0.7025  4.3350  0.3730
 1919SOL    HW217394   2.602   2.419   5.856 -1.6967  2.7168 -0.1730
 1920SOL     OW17395   3.005   1.978   3.664  0.3088 -0.4488  0.4417
 1920SOL    HW117396   2.950   2.024   3.601 -1.1229  0.4911  2.3508
 1920SOL    HW217397   3.001   1.891   3.625 -0.8398  0.1691 -0.8218
 1921SOL     OW17398   3.983   2.876   4.380  0.6442  0.5456 -0.1275
 1921SOL    HW117399   4.067   2.881   4.425  0.3271 -0.5960  0.5666
 1921SOL    HW217400   4.002   2.819   4.306  0.4395 -1.1221  1.1153
 1922SOL     OW17401   0.922   4.018  14.449 -0.0724  0.3680  0.2102
 1922SOL    HW117402   0.845   4.073  14.467  1.0506  2.5728 -1.6814
 1922SOL    HW217403   0.875   3.951  14.399 -1.8700  1.8929 -0.1613
 1923SOL     OW17404   2.495   1.480   9.977  0.2012  0.6647  0.0901
 1923SOL    HW117405   2.419   1.538   9.983 -1.0607 -1.1388  1.3297
 1923SOL    HW217406   2.507   1.456  10.068 -2.5443 -2.9941 -0.5292
 1924SOL     OW17407   0.557   1.617   3.640  0.2466 -0.1833  0.1629
 1924SOL    HW117408   0.652   1.612   3.647  0.1859  0.3445  1.3492
 1924SOL    HW217409   0.522   1.556   3.704 -0.2721  0.7830  0.7896
 1925SOL     OW17410   1.406   1.699   5.716  0.1773 -0.1925 -0.1992
 1925SOL    HW117411   1.432   1.672   5.804 -0.9704  0.0360  0.2146
 1925SOL    HW217412   1.400   1.793   5.733  0.2559 -0.1141 -0.6023
 1926SOL     OW17413   3.551   2.289   7.888  0.3401  0.2011 -0.0964
 1926SOL    HW117414   3.585   2.230   7.955  1.8048 -0.9202 -1.8049
 1926SOL    HW217415   3.481   2.239   7.846 -1.3317  1.6581  1.0262
 1927SOL     OW17416   0.534   0.776  10.650  0.6460  0.0888  0.6734
 1927SOL    HW117417   0.529   0.711  10.719  0.6846  1.0239  1.5569
 1927SOL    HW217418   0.523   0.723  10.571 -4.6347  0.4676  1.1407
 1928SOL     OW17419   4.468   3.543   5.110 -0.1653 -0.5359 -0.3545
 1928SOL    HW117420   4.496   3.451   5.109  0.9066 -0.1623 -3.8566
 1928SOL    HW217421   4.478   3.559   5.204  0.5557 -3.1818  0.0263
 1929SOL     OW17422   3.188   3.182  15.503  0.1222  0.2050 -0.1224
 1929SOL    HW117423   3.272   3.163  15.461  1.2914  2.2959  1.3215
 1929SOL    HW217424   3.162   3.099  15.544  1.6328  0.0652  0.5552
 1930SOL     OW17425   2.251   2.355   8.636 -0.2847 -0.6230 -0.0043
 1930SOL    HW117426   2.245   2.446   8.663 -0.8780 -0.9198  0.8924
 1930SOL    HW217427   2.313   2.351   8.564 -0.1385  1.1458  0.0317
 1931SOL     OW17428   4.002   1.061   4.585 -0.1942  0.0394  0.1532
 1931SOL    HW117429   3.964   1.108   4.510 -1.5314  0.7178  1.2438
 1931SOL    HW217430   4.089   1.100   4.598 -0.3404  0.1987  0.6854
 1932SOL     OW17431   3.717   0.748   9.837  0.4251 -0.2428  0.1169
 1932SOL    HW117432   3.688   0.658   9.821  0.0379 -0.1142  0.1098
 1932SOL    HW217433   3.737   0.742   9.931  0.1030  0.2814  0.2156
 1933SOL     OW17434   0.374   0.606  11.802 -0.3830  0.7480 -0.3853
 1933SOL    HW117435   0.292   0.576  11.843 -0.2483  1.6013  0.5251
 1933SOL    HW217436   0.386   0.541  11.733 -2.4713 -1.2928  1.1689
 1934SOL     OW17437   3.960   0.848   1.859 -0.3125  0.0418 -0.1912
 1934SOL    HW117438   3.910   0.775   1.896 -1.4863  0.7690 -0.3534
 1934SOL    HW217439   3.929   0.933   1.889 -0.2570  0.5262 -1.5232
 1935SOL     OW17440   3.514   0.215   7.767 -0.5801  0.0891 -0.3962
 1935SOL    HW117441   3.520   0.153   7.840  1.1455  0.4822 -0.2086
 1935SOL    HW217442   3.607   0.221   7.748 -0.1067 -2.3251  1.1363
 1936SOL     OW17443   3.119   1.351   3.869  0.0116 -0.1654 -0.0637
 1936SOL    HW117444   3.148   1.412   3.937 -0.0414  4.6962 -4.4101
 1936SOL    HW217445   3.114   1.402   3.788  0.4054 -1.2664 -0.7799
 1937SOL     OW17446   0.196   2.405   7.750 -0.2293  0.2586  0.6609
 1937SOL    HW117447   0.144   2.328   7.774  2.5563 -1.5610  0.9347
 1937SOL    HW217448   0.142   2.472   7.792  0.6774  1.1749  0.3812
 1938SOL     OW17449   2.610   3.352  12.855  0.1105 -0.5060 -0.2596
 1938SOL    HW117450   2.566   3.321  12.776 -1.6743 -0.1141  0.5634
 1938SOL    HW217451   2.593   3.270  12.900 -2.6071  1.2488  1.9181
 1939SOL     OW17452   0.317   0.659  15.170  0.3507 -0.8855  0.0498
 1939SOL    HW117453   0.403   0.643  15.132 -1.1426  0.8375 -4.1216
 1939SOL    HW217454   0.305   0.574  15.213 -0.1943 -0.8586 -0.0482
 1940SOL     OW17455   4.540   3.817  12.888 -0.4438 -0.6056 -0.3139
 1940SOL    HW117456   4.598   3.819  12.812 -0.9927 -1.9100 -0.7569
 1940SOL    HW217457   4.562   3.901  12.929  0.8596 -0.8401 -0.5195
 1941SOL     OW17458   2.650   3.289   0.074 -0.0777 -0.3116 -0.5058
 1941SOL    HW117459   2.738   3.262   0.048  0.2737 -1.5722  2.0573
 1941SOL    HW217460   2.614   3.314  17.729 -3.2948 -0.4197  0.8178
 1942SOL     OW17461   1.531   2.504   2.600  0.0252  0.0751 -0.4587
 1942SOL    HW117462   1.578   2.462   2.672  0.3619 -1.5455 -1.6219
 1942SOL    HW217463   1.507   2.587   2.640 -1.9879 -0.0929 -1.3478
 1943SOL     OW17464   4.559   3.123  15.545 -0.0271 -0.9122  0.0446
 1943SOL    HW117465   4.486   3.061  15.555 -1.6094  0.8741 -0.4156
 1943SOL    HW217466   4.535   3.194  15.604 -1.7768 -0.1115 -1.6180
 1944SOL     OW17467   2.547   0.606   8.127 -0.7314 -0.6545 -0.2640
 1944SOL    HW117468   2.588   0.535   8.177  2.1264  0.5613 -0.8807
 1944SOL    HW217469   2.507   0.655   8.199  0.1693  1.1916 -1.0355
 1945SOL     OW17470   2.515   3.907  17.278 -0.3543 -0.1311 -0.1356
 1945SOL    HW117471   2.475   3.844  17.339 -2.9738 -0.0044 -1.7237
 1945SOL    HW217472   2.475   3.993  17.291  0.1707 -0.0173  0.7284
 1946SOL     OW17473   4.718   2.107  11.186  0.2237 -0.3479  0.3676
 1946SOL    HW117474   4.665   2.156  11.124 -0.8376 -0.6393  1.0587
 1946SOL    HW217475   0.072   2.119  11.154 -0.2050  1.2102 -0.2641
 1947SOL     OW17476   4.325   0.997  10.004 -0.3627  0.1396 -0.6127
 1947SOL    HW117477   4.417   0.993   9.980  0.7198  2.2967  3.0843
 1947SOL    HW217478   4.342   1.050  10.082  0.2348 -0.3928 -0.3804
 1948SOL     OW17479   0.215   3.165  11.799 -0.5060  1.0324  0.1099
 1948SOL    HW117480   0.225   3.137  11.890  0.8177  0.9713 -0.0609
 1948SOL    HW217481   0.120   3.167  11.785 -0.5494 -0.9463  0.1727
 1949SOL     OW17482   4.194   3.741   4.761 -0.3252 -0.2005 -0.3869
 1949SOL    HW117483   4.110   3.696   4.770  0.2065 -1.0462  0.2687
 1949SOL    HW217484   4.234   3.726   4.847 -0.6593 -0.8319 -0.3467
 1950SOL     OW17485   4.056   3.649   8.530  0.6905  0.1338 -0.0519
 1950SOL    HW117486   4.071   3.557   8.512  1.5150  0.1104  0.7506
 1950SOL    HW217487   3.973   3.643   8.576  0.9583 -0.0545  0.4026
 1951SOL     OW17488   3.263   0.059  17.057  0.1297 -0.9231 -0.0834
 1951SOL    HW117489   3.341   0.100  17.019  0.5519 -2.8805 -1.3450
 1951SOL    HW217490   3.195   0.107  17.010  1.5633  0.4435 -0.7616
 1952SOL     OW17491   4.618   3.892   3.449 -0.5056  0.7054  0.6257
 1952SOL    HW117492   4.534   3.854   3.474  0.9798 -1.1845  2.8404
 1952SOL    HW217493   4.587   3.949   3.379 -4.2822 -2.7401 -0.5081
 1953SOL     OW17494   3.977   3.213  15.846 -0.3279 -0.0212 -0.1219
 1953SOL    HW117495   3.887   3.241  15.835 -0.6893 -1.5265 -0.9904
 1953SOL    HW217496   4.025   3.295  15.830  0.6489 -0.4092  0.8100
 1954SOL     OW17497   3.612   0.330   3.539  0.8436  0.4126  0.0840
 1954SOL    HW117498   3.600   0.248   3.491  1.0848  1.7528 -2.2573
 1954SOL    HW217499   3.534   0.331   3.595 -0.8305 -2.9364 -2.1724
 1955SOL     OW17500   2.949   0.551   0.480  0.9600  0.2529  0.3941
 1955SOL    HW117501   2.960   0.463   0.516  1.3423  0.1555  0.0303
 1955SOL    HW217502   2.988   0.599   0.554  0.6991 -1.4764  1.6474
 1956SOL     OW17503   2.091   2.056   4.057  0.4527  0.9023  0.0692
 1956SOL    HW117504   2.170   2.014   4.092  0.0520  2.4888  2.8955
 1956SOL    HW217505   2.035   2.045   4.133  2.4267 -2.1585  1.0637
 1957SOL     OW17506   2.506   1.041   8.460 -0.3782 -0.2103  0.1265
 1957SOL    HW117507   2.427   1.039   8.406  0.4707  0.2685 -1.1395
 1957SOL    HW217508   2.510   1.136   8.471  0.2481 -0.2629  0.3676
 1958SOL     OW17509   4.624   3.585   6.376  0.3645  0.0623 -0.5111
 1958SOL    HW117510   4.588   3.653   6.433 -1.0218  0.1638 -1.5268
 1958SOL    HW217511   4.719   3.591   6.391  0.2916  4.0075 -1.6737
 1959SOL     OW17512   1.011   2.831   0.388 -0.1387 -0.5112 -0.5649
 1959SOL    HW117513   1.082   2.811   0.327 -0.3809 -0.9646 -0.6934
 1959SOL    HW217514   0.951   2.757   0.377  1.9398 -2.6087  2.3469
 1960SOL     OW17515   1.525   0.002   8.291  0.2237 -0.2837  0.1021
 1960SOL    HW117516   1.586   0.051   8.346  0.3634 -1.9797  1.4208
 1960SOL    HW217517   1.566   0.005   8.204 -0.3780  0.8902 -0.1471
 1961SOL     OW17518   4.224   0.523   7.369  0.0454 -0.3089  0.6673
 1961SOL    HW117519   4.257   0.481   7.449 -1.0745  0.1750  1.3953
 1961SOL    HW217520   4.178   0.599   7.407 -0.9874  0.7711 -2.7832
 1962SOL     OW17521   3.955   1.945   7.192  0.2158 -0.2248  0.1642
 1962SOL    HW117522   3.931   2.010   7.127 -2.5374 -1.3028  0.1277
 1962SOL    HW217523   3.975   2.004   7.265  0.7396 -0.2209  0.0223
 1963SOL     OW17524   0.100   0.750   3.365 -0.0818 -0.2272  0.1511
 1963SOL    HW117525   0.156   0.754   3.287 -1.7178 -0.1559 -1.0060
 1963SOL    HW217526   0.012   0.728   3.336 -0.2193  0.2570  0.1894
 1964SOL     OW17527   1.696   0.068  11.410 -0.8797 -0.1062 -0.2402
 1964SOL    HW117528   1.691   0.064  11.505  1.4090  0.4112 -0.1057
 1964SOL    HW217529   1.743   4.721  11.398  0.2820  0.2537  1.7790
 1965SOL     OW17530   1.813   0.543   1.490  0.5244 -0.0878 -0.2763
 1965SOL    HW117531   1.837   0.453   1.468  0.1718 -0.3867  0.5480
 1965SOL    HW217532   1.882   0.567   1.552 -1.1602 -2.0332  2.3890
 1966SOL     OW17533   0.904   0.692   8.208 -0.3328 -0.1062 -0.9391
 1966SOL    HW117534   0.938   0.713   8.295 -0.0793  0.5159 -1.1881
 1966SOL    HW217535   0.815   0.726   8.211  0.8511  2.9088 -0.6581
 1967SOL     OW17536   3.281   1.608   8.213 -0.4239 -0.1347 -0.3474
 1967SOL    HW117537   3.327   1.628   8.295 -0.1947  0.9916 -0.7463
 1967SOL    HW217538   3.189   1.620   8.235 -0.1648  1.5683 -0.1247
 1968SOL     OW17539   3.067   3.934   0.081 -0.3958  0.5109 -0.1531
 1968SOL    HW117540   3.007   3.976   0.143 -0.7475 -0.7512  0.3772
 1968SOL    HW217541   3.006   3.877   0.034 -0.0334 -0.1903  0.2180
 1969SOL     OW17542   1.620   2.162   5.104 -0.5197  0.0363  0.4127
 1969SOL    HW117543   1.609   2.201   5.190  2.2577 -0.2894  0.9422
 1969SOL    HW217544   1.623   2.235   5.043  1.2658 -0.1279  0.2945
 1970SOL     OW17545   4.433   0.906   8.706  0.2631 -0.2028 -0.0242
 1970SOL    HW117546   4.421   0.814   8.730  3.3258 -0.7176 -0.5187
 1970SOL    HW217547   4.406   0.958   8.782  1.6789  0.8427 -0.2428
 1971SOL     OW17548   2.307   4.178   6.011  0.0171 -0.0870  0.5186
 1971SOL    HW117549   2.269   4.112   6.070 -0.4525  0.8109  1.2336
 1971SOL    HW217550   2.318   4.130   5.929 -1.4560  0.8018 -0.2028
 1972SOL     OW17551   0.988   3.910   5.888  0.4106 -0.5358  0.0932
 1972SOL    HW117552   1.063   3.861   5.854  0.9659 -0.9328  1.8871
 1972SOL    HW217553   1.017   4.001   5.886  0.9097 -0.6794  1.1085
 1973SOL     OW17554   2.931   1.484  16.098 -0.3746  0.1271  0.4025
 1973SOL    HW117555   2.910   1.393  16.080  1.2877 -0.4647  1.4451
 1973SOL    HW217556   2.866   1.526  16.042  0.8063  1.0678 -0.2315
 1974SOL     OW17557   1.493   1.338  13.658  0.5655 -0.4476  0.4249
 1974SOL    HW117558   1.560   1.309  13.597 -2.4984 -2.1519 -2.1032
 1974SOL    HW217559   1.423   1.373  13.603 -1.0274 -1.5122  1.7538
 1975SOL     OW17560   1.178   1.442  13.346 -0.4692 -0.0652 -0.5456
 1975SOL    HW117561   1.125   1.379  13.395  2.0897 -1.7334  0.0594
 1975SOL    HW217562   1.109   1.469  13.285 -1.3961  0.7763  0.8716
 1976SOL     OW17563   2.876   0.803   6.981  0.3234 -0.1129 -0.2232
 1976SOL    HW117564   2.811   0.835   7.044 -1.1424 -2.1904 -0.6665
 1976SOL    HW217565   2.883   0.711   7.009  0.1453  0.6828  2.4825
 1977SOL     OW17566   4.713   1.880  13.835  0.7117 -0.0286  0.1532
 1977SOL    HW117567   4.698   1.856  13.926 -2.2331  0.4047 -0.2177
 1977SOL    HW217568   4.722   1.793  13.795 -0.2152 -0.3101  0.5688
 1978SOL     OW17569   0.096   1.257   8.391  0.1198  0.1779 -0.3628
 1978SOL    HW117570   0.104   1.167   8.358  3.4917  0.4391 -0.2707
 1978SOL    HW217571   0.030   1.295   8.333  0.2875 -1.0090 -1.3276
 1979SOL     OW17572   0.731   0.167   7.825  0.2700  0.1732 -0.2743
 1979SOL    HW117573   0.810   0.211   7.856  2.3786 -1.7306 -2.8941
 1979SOL    HW217574   0.760   0.076   7.827  2.0029  0.7379  0.5617
 1980SOL     OW17575   0.614   3.711   4.098  0.3999 -0.2914 -0.1476
 1980SOL    HW117576   0.554   3.718   4.172  0.0518 -0.4124 -0.4203
 1980SOL    HW217577   0.548   3.699   4.030  1.3110  0.5719 -1.1900
 1981SOL     OW17578   3.166   0.486   2.176 -0.2850  0.5549  0.5788
 1981SOL    HW117579   3.168   0.582   2.181 -3.6770  0.6098  1.0580
 1981SOL    HW217580   3.243   0.483   2.233  1.0829 -0.0208 -1.3030
 1982SOL     OW17581   3.106   3.514   2.573  0.1442  0.2765 -0.0765
 1982SOL    HW117582   3.022   3.489   2.611  0.5211  2.3549  2.1482
 1982SOL    HW217583   3.076   3.591   2.526  0.4050  0.5229  0.1561
 1983SOL     OW17584   4.410   4.308   6.227  0.8789  0.8258  0.2686
 1983SOL    HW117585   4.371   4.222   6.208 -0.3539  0.6847  3.5597
 1983SOL    HW217586   4.499   4.294   6.194  0.0185 -0.1065 -1.7136
 1984SOL     OW17587   2.071   0.170   5.165  0.6301  0.3635  0.6759
 1984SOL    HW117588   1.996   0.124   5.129  2.7532 -2.5151 -0.1227
 1984SOL    HW217589   2.047   0.262   5.177  0.9548  0.5039  0.2328
 1985SOL     OW17590   1.039   1.244   5.152  0.4367 -0.2691  0.5012
 1985SOL    HW117591   1.075   1.331   5.171 -0.6200  0.0050  1.2402
 1985SOL    HW217592   1.044   1.199   5.236 -0.1563  0.2613  0.8269
 1986SOL     OW17593   2.436   1.515   1.198  0.2430  0.4796 -0.6970
 1986SOL    HW117594   2.343   1.495   1.201  0.2589  0.2976 -1.4279
 1986SOL    HW217595   2.435   1.609   1.182 -0.1388  0.3881 -1.2115
 1987SOL     OW17596   0.434   4.366   3.732  0.3991 -0.1739  0.4478
 1987SOL    HW117597   0.341   4.355   3.715  0.9267  1.4900 -3.5711
 1987SOL    HW217598   0.464   4.301   3.668  0.1429  1.3420 -1.1991
 1988SOL     OW17599   0.943   0.806   5.801  0.2934  0.3595  0.1412
 1988SOL    HW117600   0.871   0.831   5.860  1.2617  0.9092  1.0840
 1988SOL    HW217601   1.018   0.820   5.859 -0.4687 -0.2723  1.2839
 1989SOL     OW17602   0.083   4.638  12.529  0.2076  0.2042 -0.7194
 1989SOL    HW117603   0.132   4.619  12.449 -2.1107 -1.0566 -1.8411
 1989SOL    HW217604   0.026   4.710  12.500  0.3280  1.0818  1.2252
 1990SOL     OW17605   4.252   4.595   2.868  0.0115  0.1648 -0.0124
 1990SOL    HW117606   4.284   4.681   2.895  1.8900 -0.3258 -0.7007
 1990SOL    HW217607   4.222   4.625   2.782 -0.1951 -0.3715 -0.1249
 1991SOL     OW17608   1.223   2.630   7.565  0.0560  0.2445 -0.1969
 1991SOL    HW117609   1.277   2.563   7.605 -0.6983 -0.3045 -0.0894
 1991SOL    HW217610   1.292   2.681   7.522 -0.3689  0.1202 -1.0337
 1992SOL     OW17611   1.036   4.180  13.326 -0.0899 -0.0196 -0.5201
 1992SOL    HW117612   1.079   4.117  13.268 -1.2390  0.5176 -1.9702
 1992SOL    HW217613   1.107   4.186  13.390  0.3104  0.9242 -1.0374
 1993SOL     OW17614   3.246   4.291  13.021 -0.9456 -0.0058  0.1271
 1993SOL    HW117615   3.209   4.345  13.091 -0.0258 -0.9307  1.3239
 1993SOL    HW217616   3.339   4.296  13.041 -0.8707  0.2412 -0.2952
 1994SOL     OW17617   1.352   0.295   8.724  0.0162  0.4551  0.0783
 1994SOL    HW117618   1.417   0.316   8.791  0.2373 -0.5726  0.1909
 1994SOL    HW217619   1.336   0.204   8.750  1.4925  0.1066 -0.2284
 1995SOL     OW17620   1.101   2.074   3.535 -0.1164  0.4496 -0.0686
 1995SOL    HW117621   1.100   2.115   3.622  2.2250  1.3846 -0.4814
 1995SOL    HW217622   1.030   2.010   3.536 -0.2261  0.5757  0.5120
 1996SOL     OW17623   3.966   1.251  12.514 -0.2688 -0.1639 -0.0387
 1996SOL    HW117624   3.948   1.306  12.438 -0.0840  0.3792  0.3045
 1996SOL    HW217625   3.885   1.255  12.565 -0.8559  0.5642 -1.0504
 1997SOL     OW17626   2.822   2.116   3.011  0.0488 -0.2928  0.0030
 1997SOL    HW117627   2.744   2.172   3.009 -0.5682 -1.0452  1.9939
 1997SOL    HW217628   2.782   2.029   3.005 -1.1442  0.1964  0.8279
 1998SOL     OW17629   4.622   0.703   8.562  0.6678  0.1781 -0.0409
 1998SOL    HW117630   4.669   0.622   8.581  0.6248  0.6107  2.0033
 1998SOL    HW217631   4.533   0.674   8.579  1.1805 -1.5609 -0.3327
 1999SOL     OW17632   3.590   2.264   2.289  0.8515 -0.2533  0.3082
 1999SOL    HW117633   3.541   2.345   2.277  0.2041 -0.7351 -0.3346
 1999SOL    HW217634   3.671   2.281   2.336  1.6086  1.4013 -1.6054
 2000SOL     OW17635   2.176   0.783   6.286  0.1041  0.0782  0.0747
 2000SOL    HW117636   2.169   0.688   6.300 -0.4347  0.0211 -0.5545
 2000SOL    HW217637   2.150   0.800   6.376  0.6756 -0.5995  0.3704
 2001SOL     OW17638   3.153   2.230   7.564  0.1278  0.2903 -0.1098
 2001SOL    HW117639   3.229   2.211   7.618 -0.8721 -0.8192  0.9057
 2001SOL    HW217640   3.079   2.185   7.603  1.0113 -0.4118  0.7327
 2002SOL     OW17641   0.046   2.772   6.663  0.1087  0.2402  0.5222
 2002SOL    HW117642   0.111   2.711   6.627  1.5342  0.4620  2.7484
 2002SOL    HW217643   0.069   2.852   6.616  2.6736 -0.8744 -0.1302
 2003SOL     OW17644   3.963   1.165  10.129  0.2558  0.2558  0.4481
 2003SOL    HW117645   3.975   1.137  10.219  3.5728  1.4615  0.3790
 2003SOL    HW217646   3.940   1.080  10.090  1.1052  0.0519  0.4007
 2004SOL     OW17647   4.147   1.154   7.644  0.7391 -0.3444  0.2221
 2004SOL    HW117648   4.208   1.195   7.705  2.6719 -1.7654 -0.7654
 2004SOL    HW217649   4.212   1.101   7.596  0.1022 -1.8409  1.0223
 2005SOL     OW17650   0.326   3.058  14.127 -0.5018  0.0486 -0.2902
 2005SOL    HW117651   0.297   3.131  14.182 -0.2664  0.2519 -0.4374
 2005SOL    HW217652   0.408   3.025  14.163  0.8689  2.9469 -0.7779
 2006SOL     OW17653   0.666   2.370   6.188 -0.7961  0.0027 -0.0651
 2006SOL    HW117654   0.738   2.431   6.171 -1.5680  0.5434 -1.4290
 2006SOL    HW217655   0.687   2.328   6.271 -1.2309  0.3189  0.2048
 2007SOL     OW17656   0.310   3.402   4.885 -0.0139 -0.3874  0.6165
 2007SOL    HW117657   0.225   3.364   4.866 -0.5149  1.2387 -0.3762
 2007SOL    HW217658   0.289   3.487   4.847 -0.7112 -0.6866  0.3381
 2008SOL     OW17659   3.211   2.521   6.346  0.0860  0.4484  0.0323
 2008SOL    HW117660   3.208   2.560   6.259  0.8437 -0.0746 -0.2234
 2008SOL    HW217661   3.303   2.510   6.368  0.0507 -2.4751 -1.2873
 2009SOL     OW17662   0.166   4.542  12.299 -0.1493 -0.6245 -0.6551
 2009SOL    HW117663   0.231   4.578  12.239  2.8102 -3.0455  1.1079
 2009SOL    HW217664   0.100   4.517  12.234  1.0782 -0.9755 -1.7460
 2010SOL     OW17665   1.792   4.709   3.931  0.7259  0.0406  0.0904
 2010SOL    HW117666   1.751   4.682   3.849 -2.5292  1.1137  1.3585
 2010SOL    HW217667   1.710   4.705   3.981 -0.8837  3.4943 -2.2582
 2011SOL     OW17668   0.934   2.899   7.414 -0.3604 -0.1571 -0.2799
 2011SOL    HW117669   0.942   2.869   7.504 -0.8535  1.4042  0.2739
 2011SOL    HW217670   0.840   2.915   7.413 -0.6683 -2.0001 -1.6283
 2012SOL     OW17671   1.457   2.084   2.794 -0.1231  0.3421  0.4705
 2012SOL    HW117672   1.510   2.078   2.873 -0.4028  3.4444  0.9009
 2012SOL    HW217673   1.520   2.099   2.724  0.1302 -0.1687  0.5915
 2013SOL     OW17674   1.316   4.611  16.293 -0.5501  0.3613 -0.4174
 2013SOL    HW117675   1.346   4.701  16.304 -1.9865  0.6268  1.3876
 2013SOL    HW217676   1.395   4.571  16.258  0.3602  1.5809  0.2530
 2014SOL     OW17677   1.882   4.334   2.071 -0.0321  0.0583  0.3198
 2014SOL    HW117678   1.914   4.257   2.117  4.3529  0.7511 -1.6098
 2014SOL    HW217679   1.836   4.384   2.140 -0.5884 -0.6002  0.4317
 2015SOL     OW17680   1.209   0.831   0.272  0.7712 -0.2274 -0.0218
 2015SOL    HW117681   1.168   0.745   0.282  1.9429 -0.9751 -1.7151
 2015SOL    HW217682   1.284   0.811   0.217  2.8600  3.3713  1.4877
 2016SOL     OW17683   0.939   1.704  10.258 -0.6585  0.2102  0.1292
 2016SOL    HW117684   1.023   1.659  10.252 -1.5129 -1.0404 -2.2837
 2016SOL    HW217685   0.963   1.781  10.310  0.0576  0.0738 -0.0036
 2017SOL     OW17686   2.796   1.798   7.981 -0.1223 -0.7057  0.1269
 2017SOL    HW117687   2.770   1.808   7.890  0.0557 -1.1640  0.0240
 2017SOL    HW217688   2.792   1.887   8.016  1.2093 -0.2048 -0.9671
 2018SOL     OW17689   2.703   3.300   4.918 -0.2850 -0.2246 -0.0008
 2018SOL    HW117690   2.685   3.347   4.837 -3.4499 -1.1303  0.2050
 2018SOL    HW217691   2.686   3.212   4.886 -3.5041  0.4351 -0.0367
 2019SOL     OW17692   2.775   3.945   7.752  0.5401 -0.0961  0.1072
 2019SOL    HW117693   2.731   3.870   7.713 -0.7637  0.8820 -0.3039
 2019SOL    HW217694   2.794   4.000   7.676  4.4105 -1.6732 -0.0553
 2020SOL     OW17695   3.488   1.930   6.808 -0.6389  0.5323  0.6537
 2020SOL    HW117696   3.516   1.931   6.900 -0.3601  0.4997  0.5706
 2020SOL    HW217697   3.403   1.891   6.828 -0.0168 -1.3467 -0.3576
 2021SOL     OW17698   2.582   3.325   8.515 -0.2248 -0.7333  0.1219
 2021SOL    HW117699   2.617   3.255   8.570  0.7060 -0.5599 -0.2407
 2021SOL    HW217700   2.596   3.285   8.429  2.3525 -0.8861  0.6066
 2022SOL     OW17701   3.100   1.690  11.412  0.0301  0.0709 -0.7400
 2022SOL    HW117702   3.138   1.699  11.500  0.4379  0.4824 -0.9583
 2022SOL    HW217703   3.007   1.700  11.430  0.2092 -0.3205  0.4481
 2023SOL     OW17704   1.692   1.707   3.479 -0.1507 -0.0606  0.0213
 2023SOL    HW117705   1.655   1.738   3.396  1.9075  0.6074 -0.6613
 2023SOL    HW217706   1.626   1.653   3.521  0.6539 -1.4104 -0.4633
 2024SOL     OW17707   1.208   1.351  16.561 -0.1584  0.0213  0.6218
 2024SOL    HW117708   1.152   1.292  16.511  1.5929 -1.3959  0.3552
 2024SOL    HW217709   1.277   1.369  16.498 -0.0019 -1.7129  0.3070
 2025SOL     OW17710   0.879   1.818   4.983 -0.4305 -0.1535  0.0026
 2025SOL    HW117711   0.890   1.723   4.986  1.4492  0.1370  2.3954
 2025SOL    HW217712   0.969   1.841   4.960 -0.7136 -0.6955 -1.7326
 2026SOL     OW17713   0.838   4.419   7.407 -0.2650  0.1864  0.3000
 2026SOL    HW117714   0.816   4.457   7.322  1.6120  1.1304  0.2576
 2026SOL    HW217715   0.825   4.324   7.395  0.6714 -0.0229  0.9155
 2027SOL     OW17716   1.934   2.421   1.582 -0.1483  0.7541 -0.8833
 2027SOL    HW117717   1.894   2.419   1.670  0.8543 -1.2089 -0.4748
 2027SOL    HW217718   2.014   2.468   1.603 -0.2962  1.0574 -1.0026
 2028SOL     OW17719   0.935   2.930  15.201 -0.6914 -0.0394  0.6295
 2028SOL    HW117720   0.981   2.999  15.154 -1.5623  1.2752  1.7167
 2028SOL    HW217721   0.865   2.976  15.247 -0.4653 -0.4721  1.4244
 2029SOL     OW17722   2.042   0.235   7.501  0.5540 -0.4587  0.6427
 2029SOL    HW117723   2.089   0.236   7.584  1.1964 -0.4150  0.2794
 2029SOL    HW217724   1.958   0.202   7.531 -0.7206  0.9256 -1.3907
 2030SOL     OW17725   0.686   2.407  16.058  0.5516 -0.2946  0.1243
 2030SOL    HW117726   0.760   2.464  16.077 -0.8134  1.4922  0.0020
 2030SOL    HW217727   0.613   2.469  16.059  1.7642  1.1712 -3.2801
 2031SOL     OW17728   4.580   0.576   5.318  0.3362 -0.2304 -0.1075
 2031SOL    HW117729   4.663   0.535   5.294  0.4742 -1.1395  1.8928
 2031SOL    HW217730   4.539   0.507   5.372 -0.8239 -0.0025 -0.6875
 2032SOL     OW17731   3.461   2.595   6.840 -0.8667  0.2885  0.0505
 2032SOL    HW117732   3.418   2.580   6.925 -0.9936 -1.0159 -0.2306
 2032SOL    HW217733   3.528   2.659   6.863 -0.9057  0.8544 -1.4245
 2033SOL     OW17734   0.796   3.695   0.597 -0.1683  0.2890  0.2557
 2033SOL    HW117735   0.835   3.709   0.511 -0.3474 -1.3562 -0.0951
 2033SOL    HW217736   0.704   3.698   0.572  0.1441  2.8937 -0.5471
 2034SOL     OW17737   1.271   2.887   7.836  0.0980  0.1640 -0.4914
 2034SOL    HW117738   1.355   2.910   7.797  1.0268 -1.2204  0.7335
 2034SOL    HW217739   1.298   2.838   7.913  0.4656 -0.4000 -0.9777
 2035SOL     OW17740   3.710   0.085   8.935 -0.3338  0.3553  0.3506
 2035SOL    HW117741   3.633   0.066   8.989 -1.1382  0.5790 -0.7010
 2035SOL    HW217742   3.768   0.107   9.008 -0.1782 -1.0700  0.6409
 2036SOL     OW17743   3.464   2.509   3.265  0.1034  0.2188 -0.3144
 2036SOL    HW117744   3.442   2.416   3.263  1.3331 -0.0023 -4.7245
 2036SOL    HW217745   3.493   2.524   3.175  1.4847 -0.9272 -0.0703
 2037SOL     OW17746   3.191   0.221   4.050  0.1228 -0.3254 -0.1600
 2037SOL    HW117747   3.174   0.227   3.956 -1.8081  0.9563  0.2777
 2037SOL    HW217748   3.180   0.130   4.077  0.4843 -0.8432 -1.7403
 2038SOL     OW17749   1.719   0.414  13.709 -0.2641  0.0106 -0.7013
 2038SOL    HW117750   1.697   0.393  13.800  2.3661 -1.4588 -0.4103
 2038SOL    HW217751   1.747   0.327  13.679  0.2808  0.2786 -0.9800
 2039SOL     OW17752   3.261   4.729   0.161 -0.2684  0.1264 -0.6046
 2039SOL    HW117753   3.303   4.660   0.212 -0.1670  0.0804 -0.7505
 2039SOL    HW217754   3.330   0.060   0.161 -0.4924  0.3550 -3.5037
 2040SOL     OW17755   3.224   0.302   6.793  0.3157 -0.0590 -0.1983
 2040SOL    HW117756   3.287   0.242   6.752  0.8825 -0.4768  1.3042
 2040SOL    HW217757   3.200   0.348   6.712 -0.3812 -0.8480 -0.4387
 2041SOL     OW17758   0.040   4.504  12.020 -0.3063 -0.0391  0.0233
 2041SOL    HW117759   0.048   4.442  11.947 -1.7509  0.1918 -0.3342
 2041SOL    HW217760   4.683   4.495  12.044  0.1456 -1.8641  1.0843
 2042SOL     OW17761   2.152   1.405   5.606 -0.0696  0.8985 -0.1124
 2042SOL    HW117762   2.240   1.421   5.639 -0.6666  0.3517  1.7768
 2042SOL    HW217763   2.119   1.326   5.649 -0.1913  0.2700 -1.3641
 2043SOL     OW17764   0.242   4.029   8.323 -0.2163  0.9248  0.4531
 2043SOL    HW117765   0.270   4.118   8.303  0.5877  0.7916  1.0084
 2043SOL    HW217766   0.231   4.026   8.419 -0.5067 -0.2028  0.3922
 2044SOL     OW17767   3.197   3.422   3.466  0.0459 -0.2923  0.1294
 2044SOL    HW117768   3.129   3.359   3.441  2.5191 -2.1292 -1.9598
 2044SOL    HW217769   3.270   3.368   3.495  0.6488  1.0843  1.1828
 2045SOL     OW17770   0.897   1.857   6.815 -0.0770  0.4993 -0.0913
 2045SOL    HW117771   0.930   1.927   6.759  3.1035 -1.6221 -0.8896
 2045SOL    HW217772   0.972   1.854   6.874 -0.6032  2.7297  0.6667
 2046SOL     OW17773   0.171   1.816  11.571  0.4840  0.4534 -0.5642
 2046SOL    HW117774   0.142   1.779  11.487 -2.1587 -0.4066  0.7088
 2046SOL    HW217775   0.218   1.735  11.593 -0.0739  0.4232  0.5006
 2047SOL     OW17776   4.406   4.152   1.150  0.6053  0.1891 -0.3298
 2047SOL    HW117777   4.502   4.158   1.149  0.5272  1.2913 -2.0046
 2047SOL    HW217778   4.388   4.154   1.056  3.2809 -0.9909 -0.8670
 2048SOL     OW17779   1.060   0.571   6.549  0.0961  0.5557  0.5641
 2048SOL    HW117780   1.036   0.494   6.601 -0.7414  0.5517  0.1815
 2048SOL    HW217781   0.973   0.597   6.520  1.2659  1.9388 -1.6359
 2049SOL     OW17782   0.095   4.046  13.841  0.5339 -0.1440 -0.1430
 2049SOL    HW117783   0.062   3.959  13.821  1.1694 -0.0603 -1.5601
 2049SOL    HW217784   0.057   4.058  13.928  0.1895  0.5868 -0.3930
 2050SOL     OW17785   3.719   1.636   8.925 -0.0494 -0.0776  0.3651
 2050SOL    HW117786   3.757   1.600   8.845  2.3497  1.5439  0.8098
 2050SOL    HW217787   3.796   1.647   8.981 -1.9035 -0.0686  2.9229
 2051SOL     OW17788   0.343   0.606  16.877  0.0927 -0.0865  0.6915
 2051SOL    HW117789   0.370   0.680  16.931  0.9938  0.5763 -0.6797
 2051SOL    HW217790   0.303   0.646  16.800 -0.7125  2.8925  2.6521
 2052SOL     OW17791   3.282   0.887  17.144 -1.0721 -0.1338  0.8001
 2052SOL    HW117792   3.211   0.823  17.140  0.6144 -1.9953  0.8800
 2052SOL    HW217793   3.306   0.892  17.236 -0.3209  2.7289  0.4637
 2053SOL     OW17794   2.990   1.052   7.205 -0.1978 -0.3900  0.5391
 2053SOL    HW117795   3.019   1.142   7.187 -0.9366 -0.3514 -0.4751
 2053SOL    HW217796   3.023   1.007   7.128 -1.8006 -1.2085  0.3310
 2054SOL     OW17797   2.574   1.836   5.491  0.1356 -0.1220 -0.2721
 2054SOL    HW117798   2.497   1.806   5.539  1.9030 -2.2986  1.1981
 2054SOL    HW217799   2.606   1.753   5.456 -0.3528 -0.8361  1.0013
 2055SOL     OW17800   0.407   4.730   7.673  0.4960 -0.1801 -0.3573
 2055SOL    HW117801   0.436   0.012   7.763  1.8455  2.7914 -1.3551
 2055SOL    HW217802   0.343   0.064   7.658 -0.2734 -1.2749 -2.0298
 2056SOL     OW17803   1.322   3.061  16.988 -0.4192 -0.3069 -0.0619
 2056SOL    HW117804   1.403   3.058  16.938 -2.0288  3.1343 -2.8320
 2056SOL    HW217805   1.289   2.972  16.983 -0.1135 -0.2772 -2.4600
 2057SOL     OW17806   0.146   2.284   9.038 -0.4815  0.0922  0.1513
 2057SOL    HW117807   0.084   2.237   9.094  0.0064 -1.6789 -0.8289
 2057SOL    HW217808   0.150   2.222   8.966  2.1410  3.4639 -2.5997
 2058SOL     OW17809   1.545   2.332  10.560  0.2000  0.0737 -0.1808
 2058SOL    HW117810   1.576   2.407  10.611  0.5859 -1.4872  1.9071
 2058SOL    HW217811   1.555   2.376  10.476  1.3717  0.2300  0.0415
 2059SOL     OW17812   4.192   1.257   8.995 -0.3267  0.2469 -0.1892
 2059SOL    HW117813   4.152   1.207   8.923 -1.3295 -1.0136  1.2541
 2059SOL    HW217814   4.165   1.347   8.975 -1.9165 -0.4676 -1.3136
 2060SOL     OW17815   3.231   3.667   3.853 -0.2497  0.2214  0.3064
 2060SOL    HW117816   3.148   3.711   3.872 -1.0229 -1.0543 -0.1233
 2060SOL    HW217817   3.258   3.719   3.777 -1.2645 -0.2145 -0.3458
 2061SOL     OW17818   1.742   3.052   3.988  0.1058 -0.2150  0.8359
 2061SOL    HW117819   1.708   2.963   3.978  0.8030 -0.4140  0.1894
 2061SOL    HW217820   1.701   3.104   3.919 -0.3035  0.0662  1.2943
 2062SOL     OW17821   0.221   3.476  16.734 -0.5644  0.2281  0.4548
 2062SOL    HW117822   0.308   3.441  16.753 -0.0011  0.4796 -1.6649
 2062SOL    HW217823   0.229   3.560  16.779  2.9388  0.0489  0.1979
 2063SOL     OW17824   1.552   3.803  17.363  0.2031 -0.3886 -0.0329
 2063SOL    HW117825   1.473   3.816  17.312  0.2114  1.1761  0.3476
 2063SOL    HW217826   1.513   3.796  17.450 -1.3351  0.4845 -0.6634
 2064SOL     OW17827   4.006   3.728   4.992  0.3391  0.1324  0.3302
 2064SOL    HW117828   4.099   3.718   5.011  0.9875 -1.6885 -3.8598
 2064SOL    HW217829   3.975   3.638   4.990  2.2744 -0.5179 -0.7032
 2065SOL     OW17830   3.544   4.136   7.090  0.4689 -0.1445  0.6118
 2065SOL    HW117831   3.467   4.145   7.146  2.5680 -1.2685  3.6803
 2065SOL    HW217832   3.582   4.052   7.118 -0.9948 -0.3308  2.0605
 2066SOL     OW17833   1.096   3.783   0.244  0.2929 -0.4100 -0.5245
 2066SOL    HW117834   1.022   3.726   0.266 -0.2807  0.0130 -1.3757
 2066SOL    HW217835   1.053   3.830   0.173 -0.5919 -0.4191  0.0098
 2067SOL     OW17836   1.075   3.435   4.732  0.0962 -0.3836 -0.4764
 2067SOL    HW117837   1.059   3.527   4.707 -0.5146 -1.1118 -2.7885
 2067SOL    HW217838   1.002   3.411   4.789 -0.1960  0.0236 -0.6789
 2068SOL     OW17839   2.160   3.075   9.566 -0.2608 -0.5914  0.2636
 2068SOL    HW117840   2.121   3.147   9.516  1.9526  0.0777 -0.4949
 2068SOL    HW217841   2.191   3.009   9.504  2.2645  1.1952 -0.3748
 2069SOL     OW17842   2.050   1.449  17.082  0.6658 -0.1169  0.2091
 2069SOL    HW117843   2.114   1.395  17.129  0.0144 -0.8051  0.2857
 2069SOL    HW217844   1.991   1.456  17.156 -0.7650  1.3237 -1.0583
 2070SOL     OW17845   0.077   2.649   3.358  0.4435  0.5179 -0.1847
 2070SOL    HW117846   4.730   2.611   3.387  0.0581  0.5002 -1.3374
 2070SOL    HW217847   0.042   2.737   3.342 -1.1964  0.2363  1.8835
 2071SOL     OW17848   2.924   0.689   3.536 -0.0719  0.3240  0.1694
 2071SOL    HW117849   2.957   0.695   3.625  0.7026 -1.0543 -0.0113
 2071SOL    HW217850   2.853   0.753   3.542 -0.1891  0.4676 -2.5838
 2072SOL     OW17851   0.239   2.088   8.674  0.2956  0.3403  0.4890
 2072SOL    HW117852   0.223   2.073   8.581  2.1022  2.1097 -0.1092
 2072SOL    HW217853   0.233   2.184   8.668 -0.4192  0.2342 -0.5599
 2073SOL     OW17854   0.925   4.088   7.515 -0.4783 -0.1532  0.2845
 2073SOL    HW117855   0.966   4.032   7.582 -0.0613  1.3711  1.3093
 2073SOL    HW217856   0.941   4.038   7.435 -1.0722 -2.5952  1.7147
 2074SOL     OW17857   3.936   2.261   1.149  0.3578 -0.2169  0.0100
 2074SOL    HW117858   3.889   2.303   1.221 -0.5747 -0.1383 -0.6256
 2074SOL    HW217859   3.872   2.290   1.083 -0.0370  0.8545  0.8733
 2075SOL     OW17860   3.241   4.091   2.078  0.1946  0.0813 -0.5819
 2075SOL    HW117861   3.306   4.032   2.117  0.1964  0.6691  0.3008
 2075SOL    HW217862   3.289   4.170   2.052 -0.5948  0.6224 -0.3953
 2076SOL     OW17863   2.976   4.154  15.450  0.3142 -0.0958  0.7574
 2076SOL    HW117864   2.946   4.167  15.360  1.7730 -0.0808  0.2682
 2076SOL    HW217865   2.955   4.235  15.496 -1.0410 -1.1729  2.0146
 2077SOL     OW17866   3.821   4.510   7.299  0.2733 -0.4406 -0.5524
 2077SOL    HW117867   3.904   4.502   7.252  1.1701  3.2387  0.3717
 2077SOL    HW217868   3.761   4.479   7.231  0.6687 -1.9836 -0.1938
 2078SOL     OW17869   1.603   4.666   2.361 -0.1485 -0.1441 -0.0099
 2078SOL    HW117870   1.537   0.000   2.365 -0.2562 -0.1152 -2.4548
 2078SOL    HW217871   1.678   4.717   2.394 -0.7742  0.8510 -0.1169
 2079SOL     OW17872   3.888   1.140   7.700 -0.4055 -0.4012 -0.0371
 2079SOL    HW117873   3.977   1.159   7.672 -0.8285  0.9073 -0.4943
 2079SOL    HW217874   3.826   1.205   7.666 -0.9660 -1.4064 -0.9402
 2080SOL     OW17875   1.357   0.870  10.176 -0.1662  0.0900 -0.6212
 2080SOL    HW117876   1.320   0.934  10.237  0.0545  0.7804 -1.2209
 2080SOL    HW217877   1.441   0.842  10.212 -0.1916 -0.4160 -0.9490
 2081SOL     OW17878   1.822   0.943   3.042  0.1607  0.4023 -0.2450
 2081SOL    HW117879   1.764   0.960   2.968  0.0826  0.3776 -0.1892
 2081SOL    HW217880   1.767   0.968   3.116  0.9999 -0.7931  0.7768
 2082SOL     OW17881   3.434   1.421   8.829 -0.6732  0.0538 -0.2599
 2082SOL    HW117882   3.386   1.502   8.814 -2.0662 -1.0172 -1.6062
 2082SOL    HW217883   3.432   1.411   8.925  0.4999 -1.6956 -0.4117
 2083SOL     OW17884   4.311   0.014   8.431  0.1424 -0.1711 -0.2191
 2083SOL    HW117885   4.404   0.007   8.407  0.1500 -0.8236 -0.0101
 2083SOL    HW217886   4.293   0.107   8.419 -1.1711 -0.2827  0.9131
 2084SOL     OW17887   1.135   0.981   9.282  0.4342 -0.2877  0.1243
 2084SOL    HW117888   1.195   1.054   9.296 -0.8378  0.9300 -0.7494
 2084SOL    HW217889   1.071   1.030   9.334 -0.6187  0.3514 -1.7554
 2085SOL     OW17890   2.127   1.999   4.562  0.0271 -0.6218  1.0635
 2085SOL    HW117891   2.070   1.931   4.596  0.7695 -1.2457  1.0622
 2085SOL    HW217892   2.214   1.968   4.585  0.7337  0.1071 -0.6255
 2086SOL     OW17893   1.043   3.078   6.506 -0.2601  0.0552 -0.0876
 2086SOL    HW117894   0.958   3.102   6.469  0.4814 -0.1363 -1.9266
 2086SOL    HW217895   1.029   3.026   6.585  0.5898 -0.3157 -0.1798
 2087SOL     OW17896   1.142   0.884   5.976 -0.1130 -0.0315 -0.6168
 2087SOL    HW117897   1.226   0.928   5.961  1.7609 -3.6776 -0.8670
 2087SOL    HW217898   1.170   0.824   6.045 -2.4944 -0.0911  0.2700
 2088SOL     OW17899   1.465   3.459   3.951  0.0651  0.4381  0.4851
 2088SOL    HW117900   1.526   3.495   3.887  1.7651 -1.4187  1.0655
 2088SOL    HW217901   1.453   3.526   4.018  0.5566 -0.7779  1.7945
 2089SOL     OW17902   0.093   2.124  15.886  0.1717 -0.2375 -0.4303
 2089SOL    HW117903   0.053   2.137  15.972  0.0811 -1.7275 -0.2490
 2089SOL    HW217904   0.176   2.168  15.904  0.5630 -1.0176 -0.3518
 2090SOL     OW17905   2.163   1.972   7.741  0.2593 -0.1773  1.1803
 2090SOL    HW117906   2.127   1.997   7.826 -1.8747  1.5078 -0.2319
 2090SOL    HW217907   2.141   1.879   7.738  0.3908 -0.1955  0.7799
 2091SOL     OW17908   3.429   4.323   6.820 -0.3008  0.6954 -0.2160
 2091SOL    HW117909   3.479   4.404   6.829 -1.0920  1.3952 -2.0996
 2091SOL    HW217910   3.430   4.322   6.725 -2.0809  0.1495 -0.2287
 2092SOL     OW17911   1.816   2.090   6.470  0.1794  0.3447  0.0145
 2092SOL    HW117912   1.744   2.125   6.523  1.2241  1.3189  0.7876
 2092SOL    HW217913   1.780   2.105   6.383  0.7927  0.8991 -0.1339
 2093SOL     OW17914   2.967   0.989   8.410  0.0065  0.3533 -0.2702
 2093SOL    HW117915   2.945   0.959   8.322  1.1689 -0.7004 -0.1968
 2093SOL    HW217916   3.059   1.012   8.401  0.0574 -0.0852 -0.8976
 2094SOL     OW17917   0.344   3.296   6.618  0.1245 -1.0715 -0.0938
 2094SOL    HW117918   0.411   3.230   6.639 -0.2932 -2.6312 -3.6854
 2094SOL    HW217919   0.364   3.304   6.525  2.0407 -0.4627  0.3654
 2095SOL     OW17920   2.365   1.753   6.331  0.4304 -0.1869 -0.0485
 2095SOL    HW117921   2.430   1.717   6.391  0.9177  3.3511  1.5329
 2095SOL    HW217922   2.420   1.769   6.255 -0.5766 -2.2293 -1.2303
 2096SOL     OW17923   1.623   1.809   4.192  0.9923 -0.1707  0.1333
 2096SOL    HW117924   1.584   1.798   4.106 -0.9913  0.2385  0.9678
 2096SOL    HW217925   1.697   1.860   4.159 -0.6910 -0.1743 -3.5652
 2097SOL     OW17926   3.567   3.061   4.124  0.5585 -0.4287 -0.2424
 2097SOL    HW117927   3.623   2.999   4.078 -0.6492 -0.5909 -1.4975
 2097SOL    HW217928   3.602   3.059   4.213 -3.9974  2.7671  1.6550
 2098SOL     OW17929   0.398   1.580   3.165 -0.2748  0.1198 -0.2586
 2098SOL    HW117930   0.438   1.616   3.244  1.6938 -0.2993 -1.0769
 2098SOL    HW217931   0.351   1.503   3.195  0.6511 -0.0487  0.7540
 2099SOL     OW17932   3.143   4.412   2.685  0.2330  0.3278 -0.1777
 2099SOL    HW117933   3.194   4.364   2.620  1.1910  0.7000  0.2991
 2099SOL    HW217934   3.178   4.499   2.667  0.1847  0.9079  2.4773
 2100SOL     OW17935   1.230   1.520   4.693 -0.0539 -0.2290 -0.2842
 2100SOL    HW117936   1.210   1.492   4.603 -0.4024  0.9343 -0.5723
 2100SOL    HW217937   1.200   1.442   4.740 -1.3131  0.1407 -0.4657
 2101SOL     OW17938   1.327   0.565   7.749 -0.3705 -0.2269  0.2285
 2101SOL    HW117939   1.262   0.581   7.680  0.5045 -0.2386 -0.6099
 2101SOL    HW217940   1.348   0.646   7.795 -0.2575  0.1129 -0.4073
 2102SOL     OW17941   3.654   3.846   5.723 -0.3100  0.0381 -0.0182
 2102SOL    HW117942   3.713   3.919   5.743  1.1869 -1.0689 -0.3694
 2102SOL    HW217943   3.598   3.888   5.658 -2.5228 -0.5425  1.5337
 2103SOL     OW17944   3.660   2.516  10.465 -0.1964 -0.5366 -0.1476
 2103SOL    HW117945   3.656   2.443  10.526 -0.0359 -0.8654 -0.5275
 2103SOL    HW217946   3.687   2.589  10.521  0.7629  0.4192 -1.8483
 2104SOL     OW17947   2.021   1.689  12.349 -0.8407 -0.4326  0.5456
 2104SOL    HW117948   1.953   1.691  12.416 -1.7861 -2.7222 -0.3622
 2104SOL    HW217949   2.105   1.671  12.392  0.1634 -0.7939 -1.6038
 2105SOL     OW17950   0.595   0.558   9.315 -0.4607  1.0003  0.6408
 2105SOL    HW117951   0.647   0.482   9.344 -0.0644  1.3428  0.8382
 2105SOL    HW217952   0.505   0.530   9.331  1.0621 -2.2553  3.4795
 2106SOL     OW17953   1.001   1.303   3.794 -0.1021  0.0514  0.0781
 2106SOL    HW117954   1.034   1.220   3.760 -0.3971  0.1408 -0.4154
 2106SOL    HW217955   1.065   1.339   3.856  1.5719 -2.5253 -0.1436
 2107SOL     OW17956   3.970   2.898  17.651  0.1975 -0.0772  0.4423
 2107SOL    HW117957   3.945   2.806  17.647 -0.5036  0.1708 -0.6951
 2107SOL    HW217958   4.039   2.910  17.586  0.4610 -1.4285  0.4628
 2108SOL     OW17959   4.656   0.203   1.775  0.6285 -0.1196 -0.7575
 2108SOL    HW117960   4.656   0.132   1.710  0.6519 -0.9097  0.1158
 2108SOL    HW217961   4.718   0.266   1.738 -0.8277  1.8865  0.2271
 2109SOL     OW17962   4.004   3.566  17.411 -0.0617  0.3924  0.5374
 2109SOL    HW117963   4.014   3.476  17.444  0.7867 -0.0165 -0.8511
 2109SOL    HW217964   4.035   3.620  17.484 -0.3923  0.4663  0.6235
 2110SOL     OW17965   0.536   0.382   5.916 -0.8653  0.3850 -0.0397
 2110SOL    HW117966   0.448   0.368   5.953 -0.9153 -1.4341 -0.8246
 2110SOL    HW217967   0.520   0.456   5.858  1.6205  0.9985  0.0856
 2111SOL     OW17968   4.215   0.645   1.922  0.0370  0.4910 -0.2383
 2111SOL    HW117969   4.160   0.574   1.954  0.7854  1.1194  2.4608
 2111SOL    HW217970   4.178   0.717   1.974 -0.7234  0.1918 -0.3640
 2112SOL     OW17971   4.637   3.828   2.148  0.2012 -0.1868 -0.5464
 2112SOL    HW117972   4.651   3.915   2.109 -0.7763  0.9706  1.7252
 2112SOL    HW217973   4.556   3.812   2.101 -1.8658 -0.0185  3.0260
 2113SOL     OW17974   0.439   3.362  16.154 -0.3107  0.3641  0.2304
 2113SOL    HW117975   0.456   3.445  16.199 -2.2306  1.3507 -0.8502
 2113SOL    HW217976   0.385   3.319  16.219 -2.5840  0.4405 -1.5909
 2114SOL     OW17977   4.330   0.821  11.696 -0.3704 -0.1256 -0.0014
 2114SOL    HW117978   4.336   0.794  11.604  1.1483 -0.3664  0.1764
 2114SOL    HW217979   4.294   0.742  11.736  1.4406 -0.4267  1.0528
 2115SOL     OW17980   1.720   2.217   1.598  0.2177  0.0473 -0.2249
 2115SOL    HW117981   1.697   2.309   1.607  1.7526  0.4211 -0.2772
 2115SOL    HW217982   1.781   2.228   1.525  1.4542 -3.0507  0.3275
 2116SOL     OW17983   2.647   0.745  16.486 -0.0587 -0.2007  0.1413
 2116SOL    HW117984   2.697   0.769  16.563 -0.5197 -0.5719  0.5563
 2116SOL    HW217985   2.557   0.764  16.515 -0.1777 -1.5237  0.6281
 2117SOL     OW17986   3.449   2.375   6.021 -0.4113 -0.1464  0.7465
 2117SOL    HW117987   3.392   2.430   5.967  0.1174  0.0354  0.3740
 2117SOL    HW217988   3.487   2.432   6.088 -1.7457  2.2630 -0.5397
 2118SOL     OW17989   0.742   1.851   6.484 -0.1163 -0.4380 -0.6404
 2118SOL    HW117990   0.720   1.855   6.390 -0.1989 -0.0494 -0.6059
 2118SOL    HW217991   0.830   1.816   6.477  0.4403  0.6864  0.7929
 2119SOL     OW17992   3.142   4.408   9.206 -0.6485 -0.3064 -0.1702
 2119SOL    HW117993   3.068   4.413   9.266  0.6347  1.2384  1.2761
 2119SOL    HW217994   3.099   4.364   9.133 -0.5412 -1.9930  0.7912
 2120SOL     OW17995   2.326   1.222   6.491  0.0093  0.9061 -0.6562
 2120SOL    HW117996   2.355   1.313   6.495 -1.8169  1.4062  1.5766
 2120SOL    HW217997   2.232   1.221   6.509 -0.7104 -0.4399 -4.5447
 2121SOL     OW17998   2.566   3.069   7.831  0.0377 -0.1193  0.0570
 2121SOL    HW117999   2.576   3.000   7.765  1.0762  0.1291 -0.0362
 2121SOL    HW218000   2.549   3.137   7.766 -1.9990 -0.5305  0.1610
 2122SOL     OW18001   2.689   2.334   6.154  0.2533  0.0124 -0.2877
 2122SOL    HW118002   2.687   2.428   6.172  0.1570 -0.3218  1.4981
 2122SOL    HW218003   2.711   2.296   6.239 -1.1089 -0.0747  0.0241
 2123SOL     OW18004   0.157   3.105   6.303  0.7112  0.0940 -0.3332
 2123SOL    HW118005   0.138   3.163   6.230  3.0387  1.4431  0.1294
 2123SOL    HW218006   0.207   3.037   6.258 -1.4695 -0.5194 -1.7974
 2124SOL     OW18007   3.188   2.332   9.502  0.3760  0.1809  0.5194
 2124SOL    HW118008   3.217   2.242   9.489 -2.6247 -1.0206  2.0992
 2124SOL    HW218009   3.100   2.318   9.536 -0.3020  0.3293 -1.1860
 2125SOL     OW18010   1.313   4.575   3.421 -0.3001  0.7517 -0.1875
 2125SOL    HW118011   1.351   4.551   3.505  0.7002 -1.1372 -1.1563
 2125SOL    HW218012   1.335   4.506   3.358  1.0993  0.7301  0.3436
 2126SOL     OW18013   4.271   2.498  12.096 -0.2359  0.6696  0.1214
 2126SOL    HW118014   4.198   2.445  12.130 -0.7180 -0.1860 -2.2559
 2126SOL    HW218015   4.268   2.574  12.154 -0.5901 -0.7158  1.9176
 2127SOL     OW18016   1.673   0.134   8.472 -0.4708  0.5302 -0.0008
 2127SOL    HW118017   1.713   0.217   8.446  1.8650 -0.8775 -0.9120
 2127SOL    HW218018   1.750   0.095   8.514 -1.4916 -0.3246  1.0852
 2128SOL     OW18019   1.420   4.528   6.208 -0.0687  0.3884  0.1286
 2128SOL    HW118020   1.506   4.501   6.176 -0.5161  1.4003 -1.9341
 2128SOL    HW218021   1.357   4.503   6.142 -0.5197  1.7063  0.0521
 2129SOL     OW18022   1.160   2.720   4.853  0.2588  0.3284 -0.0645
 2129SOL    HW118023   1.213   2.796   4.829  0.6375 -0.1164 -0.6465
 2129SOL    HW218024   1.097   2.768   4.906  0.3429  0.2210  0.1339
 2130SOL     OW18025   3.482   2.802   0.593  0.8980 -0.1388 -0.2918
 2130SOL    HW118026   3.390   2.808   0.566  0.4021  1.3913  1.7166
 2130SOL    HW218027   3.469   2.760   0.678 -0.5312 -1.2032 -1.0255
 2131SOL     OW18028   2.667   0.143   9.677 -0.3474 -0.0799  0.1977
 2131SOL    HW118029   2.742   0.106   9.630 -0.6003 -0.3896  0.0349
 2131SOL    HW218030   2.700   0.128   9.766  0.2014 -2.1095 -0.3327
 2132SOL     OW18031   1.006   1.254  17.214  0.0502 -0.0463 -0.4585
 2132SOL    HW118032   1.101   1.258  17.213 -0.0253  1.8034  0.2569
 2132SOL    HW218033   0.983   1.211  17.296 -0.7911  2.2483  0.5106
 2133SOL     OW18034   4.712   4.033   8.954  0.3233 -0.4022  0.5260
 2133SOL    HW118035   4.625   3.992   8.956  0.4511 -0.8195 -1.8917
 2133SOL    HW218036   4.717   4.051   8.860  0.4971 -1.5129  0.3248
 2134SOL     OW18037   3.003   1.743   9.279 -0.8502 -0.0378  0.2809
 2134SOL    HW118038   2.974   1.707   9.362 -2.3505  1.1522  0.2807
 2134SOL    HW218039   2.928   1.797   9.254 -0.0176  0.7987 -0.4228
 2135SOL     OW18040   1.601   1.221   3.715 -0.5961  0.3612 -0.3960
 2135SOL    HW118041   1.639   1.300   3.676  0.3494  0.4524  0.6883
 2135SOL    HW218042   1.673   1.191   3.770  0.4102  1.0539 -1.3151
 2136SOL     OW18043   0.511   3.237   6.998 -0.4006  0.1346  0.0239
 2136SOL    HW118044   0.512   3.280   7.083  0.1547  0.1076  0.0278
 2136SOL    HW218045   0.591   3.273   6.960 -0.3806  0.9677  0.8540
 2137SOL     OW18046   2.964   0.884   5.106 -0.3502  0.1000  0.0333
 2137SOL    HW118047   2.976   0.877   5.201 -1.8173  1.9411  0.3776
 2137SOL    HW218048   3.008   0.803   5.080  2.0686  1.1479  0.8945
 2138SOL     OW18049   2.700   0.526   7.288  0.3127  0.6780  0.0839
 2138SOL    HW118050   2.708   0.461   7.358 -1.1553 -0.6836 -1.0020
 2138SOL    HW218051   2.676   0.602   7.340  0.7948  2.4423 -2.3102
 2139SOL     OW18052   3.930   0.013   1.638  0.3372  0.0325  0.1760
 2139SOL    HW118053   3.933   4.688   1.564 -1.9553  0.8882 -0.5972
 2139SOL    HW218054   3.917   0.093   1.587 -1.8624  0.1971  0.9973
 2140SOL     OW18055   1.144   4.324   4.484 -0.0944 -0.2092 -0.1015
 2140SOL    HW118056   1.091   4.387   4.436  1.4008  0.8653 -0.3265
 2140SOL    HW218057   1.135   4.363   4.571  0.2006  0.9200 -0.5787
 2141SOL     OW18058   4.411   3.526  13.467 -0.5984 -0.5951  0.3834
 2141SOL    HW118059   4.403   3.605  13.413 -1.4496 -0.7262  0.3130
 2141SOL    HW218060   4.484   3.543  13.527 -1.9518  1.7077  1.3787
 2142SOL     OW18061   2.860   1.625   8.572  0.3496 -0.8705 -0.4068
 2142SOL    HW118062   2.797   1.555   8.585 -1.0415  0.3043 -0.7645
 2142SOL    HW218063   2.843   1.680   8.648  1.7525 -1.0343  0.0265
 2143SOL     OW18064   1.240   1.510   6.480  0.0241 -0.2560  0.4053
 2143SOL    HW118065   1.186   1.534   6.555 -1.4080  0.8820 -0.9813
 2143SOL    HW218066   1.194   1.432   6.448  2.0098 -1.3458  0.2007
 2144SOL     OW18067   0.652   3.914  10.269  0.6379  0.0576 -0.3079
 2144SOL    HW118068   0.738   3.878  10.244  0.5452 -0.0407 -0.4798
 2144SOL    HW218069   0.633   3.987  10.211  1.1473  2.1847  2.1786
 2145SOL     OW18070   1.112   2.654   6.944 -0.0636 -0.7972  0.1201
 2145SOL    HW118071   1.056   2.707   7.000  0.2640 -0.0465 -0.2651
 2145SOL    HW218072   1.183   2.638   7.007  0.9877 -0.5734 -1.0169
 2146SOL     OW18073   3.105   1.447   3.611  0.0735 -0.3803 -0.0946
 2146SOL    HW118074   3.028   1.422   3.560 -0.7049  1.6412  0.0940
 2146SOL    HW218075   3.169   1.383   3.580  0.8533  1.4804 -2.3310
 2147SOL     OW18076   2.027   2.354   3.938 -0.1572 -0.2187 -0.3528
 2147SOL    HW118077   1.998   2.393   4.020  0.7589 -1.8309  0.7502
 2147SOL    HW218078   2.027   2.263   3.969  2.8213 -0.5009 -1.2118
 2148SOL     OW18079   1.901   3.394  14.741  0.3755 -0.5199  0.2177
 2148SOL    HW118080   1.904   3.300  14.724 -1.0043 -0.0217 -2.7842
 2148SOL    HW218081   1.978   3.395  14.797 -0.6468 -3.3814  1.6605
 2149SOL     OW18082   3.936   4.330   7.619 -0.0386  0.4612  0.6282
 2149SOL    HW118083   3.900   4.329   7.707  2.1026 -3.1676  1.4710
 2149SOL    HW218084   3.921   4.239   7.592  1.1503  0.7804 -1.1462
 2150SOL     OW18085   0.059   4.071   8.683  0.0445 -0.2130  0.1627
 2150SOL    HW118086   0.155   4.071   8.682  0.0502  0.6115  2.6727
 2150SOL    HW218087   0.041   4.135   8.614  2.7953  1.2291  0.7655
 2151SOL     OW18088   3.982   2.864   7.486  0.0443  0.0883 -0.2839
 2151SOL    HW118089   3.925   2.806   7.535  0.1077  0.1376 -0.1493
 2151SOL    HW218090   4.010   2.929   7.551  1.6485  1.8268 -2.7197
 2152SOL     OW18091   2.469   1.847  16.933 -0.0929  0.1675 -0.3027
 2152SOL    HW118092   2.425   1.924  16.968 -1.4578 -1.3926  1.4316
 2152SOL    HW218093   2.406   1.822  16.865 -0.0698  2.4083 -1.1518
 2153SOL     OW18094   3.882   4.198  17.315 -0.0733  0.2089 -0.4037
 2153SOL    HW118095   3.925   4.119  17.348 -0.7697  0.4296  1.0301
 2153SOL    HW218096   3.923   4.257  17.378  2.0506  0.1766 -1.7376
 2154SOL     OW18097   4.726   0.134   0.235 -0.5955  0.5087  0.7185
 2154SOL    HW118098   0.004   0.171   0.323  1.4471 -0.4600  0.8051
 2154SOL    HW218099   0.084   0.137   0.214 -1.0204  0.7472 -1.0825
 2155SOL     OW18100   0.927   0.141   3.308  0.1794 -0.0974 -0.0171
 2155SOL    HW118101   0.880   0.088   3.372 -2.9194 -0.1533 -2.3062
 2155SOL    HW218102   0.863   0.141   3.237  1.0873 -0.7406 -0.8283
 2156SOL     OW18103   0.418   3.729   5.110  0.5440 -0.2075  0.0458
 2156SOL    HW118104   0.461   3.774   5.182  0.2000 -0.6684  0.5337
 2156SOL    HW218105   0.344   3.787   5.090 -0.0499 -1.1871 -0.5819
 2157SOL     OW18106   4.650   2.758  16.519 -0.5743  0.4106 -0.2350
 2157SOL    HW118107   4.585   2.724  16.580  2.2351 -0.2800  2.3570
 2157SOL    HW218108   4.587   2.782  16.450 -0.7239  0.8953  0.0663
 2158SOL     OW18109   0.097   0.036   3.830 -0.1948 -0.2002 -0.3390
 2158SOL    HW118110   0.006   0.053   3.853 -0.2695 -0.8238 -0.1585
 2158SOL    HW218111   0.089   4.697   3.771 -1.8234  1.6764 -2.4677
 2159SOL     OW18112   4.212   4.125   6.441  0.1553 -0.2807  0.4058
 2159SOL    HW118113   4.141   4.062   6.428  0.5598 -0.4719 -0.8598
 2159SOL    HW218114   4.242   4.116   6.351 -0.7771 -0.5319  0.1209
 2160SOL     OW18115   3.668   3.020   7.973 -0.5052 -0.3494  0.1774
 2160SOL    HW118116   3.748   2.994   7.928  1.6416  2.5495  2.3436
 2160SOL    HW218117   3.615   3.019   7.893 -0.6364 -0.3953  0.2648
 2161SOL     OW18118   4.442   0.732   6.461  0.1074  0.1390 -0.3163
 2161SOL    HW118119   4.530   0.724   6.499  0.2374 -0.3544 -0.7184
 2161SOL    HW218120   4.460   0.807   6.405  3.6693 -2.5501 -2.7891
 2162SOL     OW18121   0.971   3.961   7.267  0.1675 -0.8110 -0.2691
 2162SOL    HW118122   1.029   4.007   7.206 -1.3773  1.1730 -0.2517
 2162SOL    HW218123   0.894   3.949   7.211 -0.7661  0.2048  0.7927
 2163SOL     OW18124   1.592   0.594   2.977 -0.1160  0.1490 -0.3610
 2163SOL    HW118125   1.684   0.581   3.000 -0.6248 -1.1732  0.9685
 2163SOL    HW218126   1.593   0.639   2.892 -1.0836 -0.7808 -0.8598
 2164SOL     OW18127   3.530   0.107   5.375  0.1336  0.0187  0.2904
 2164SOL    HW118128   3.548   0.033   5.433 -0.7988 -2.8353 -3.0304
 2164SOL    HW218129   3.593   0.172   5.404  1.5431 -0.7531 -1.0186
 2165SOL     OW18130   1.349   3.383   4.805  0.8373 -0.1888 -0.2560
 2165SOL    HW118131   1.284   3.359   4.739  0.2004  1.1259 -0.1096
 2165SOL    HW218132   1.341   3.478   4.807  0.4346 -0.2140 -0.7113
 2166SOL     OW18133   3.848   4.094   9.618  0.2810  0.2225  0.2523
 2166SOL    HW118134   3.772   4.037   9.606 -0.2077  0.7451  0.8735
 2166SOL    HW218135   3.812   4.164   9.671  3.4117 -0.3720  3.2191
 2167SOL     OW18136   2.192   4.589   0.299  0.0919 -0.8933  0.1171
 2167SOL    HW118137   2.261   4.582   0.366 -0.0838 -2.1705  0.1584
 2167SOL    HW218138   2.180   4.684   0.291  0.4764 -0.7541  1.1594
 2168SOL     OW18139   3.778   3.624   0.553 -0.2798  0.5999 -0.0961
 2168SOL    HW118140   3.784   3.556   0.620 -0.8319 -1.7562 -2.4499
 2168SOL    HW218141   3.863   3.610   0.511 -2.0067 -1.4708 -2.8825
 2169SOL     OW18142   0.723   2.431  12.452  0.3346  0.3191  0.1678
 2169SOL    HW118143   0.735   2.520  12.420 -0.1097  0.7464  1.1945
 2169SOL    HW218144   0.692   2.447  12.541  1.5936  0.2964  0.6108
 2170SOL     OW18145   3.353   2.512   2.021  0.2176 -0.0688  0.0622
 2170SOL    HW118146   3.379   2.465   1.942  0.1833  2.2006 -1.3114
 2170SOL    HW218147   3.358   2.603   1.993 -1.4132  0.8041  2.5544
 2171SOL     OW18148   3.057   2.075   9.225 -0.2741 -0.1468 -0.7084
 2171SOL    HW118149   3.144   2.095   9.261 -0.3401  0.6682 -1.0090
 2171SOL    HW218150   3.019   2.050   9.309  2.7267 -2.1093  0.0777
 2172SOL     OW18151   1.254   1.323  10.054 -0.8863  0.0847  0.7383
 2172SOL    HW118152   1.246   1.282  10.140  1.5097 -1.0860  0.3892
 2172SOL    HW218153   1.246   1.414  10.084  2.1312 -0.0934  2.0603
 2173SOL     OW18154   1.458   0.825   4.901 -0.3408  0.7238  0.7824
 2173SOL    HW118155   1.407   0.893   4.856 -0.1882  1.2002  1.3350
 2173SOL    HW218156   1.528   0.885   4.925 -2.1135  3.3107 -0.4382
 2174SOL     OW18157   3.078   4.681   3.772  0.0580  0.0577  0.6325
 2174SOL    HW118158   3.058   4.658   3.863 -0.0358 -0.0635  0.5815
 2174SOL    HW218159   3.022   4.613   3.734 -0.2475  0.7901 -0.2210
 2175SOL     OW18160   2.570   0.407   7.939 -0.7755  0.6114 -0.1936
 2175SOL    HW118161   2.557   0.490   7.985  1.2575  0.8165 -0.0173
 2175SOL    HW218162   2.501   0.352   7.978  0.8786 -2.5172 -1.6725
 2176SOL     OW18163   0.224   3.220   0.740 -0.1937 -0.1677 -0.0640
 2176SOL    HW118164   0.261   3.203   0.826 -0.9588  0.5698  0.4132
 2176SOL    HW218165   0.237   3.313   0.726 -1.0638 -0.2820 -1.7104
 2177SOL     OW18166   2.591   0.937   4.678  0.0069 -0.5912  0.1303
 2177SOL    HW118167   2.611   1.029   4.663  1.7177 -0.9831 -0.0348
 2177SOL    HW218168   2.652   0.883   4.628 -1.0494 -0.6109 -1.1516
 2178SOL     OW18169   0.179   3.079   7.378  0.4556  0.2026  0.3537
 2178SOL    HW118170   0.201   3.000   7.329  0.3755  1.0880 -1.1089
 2178SOL    HW218171   0.189   3.042   7.466  0.8154 -3.3620 -1.1701
 2179SOL     OW18172   0.829   2.879   8.917 -0.0950 -0.4381 -1.1014
 2179SOL    HW118173   0.764   2.875   8.987 -0.1747 -1.4262 -1.2396
 2179SOL    HW218174   0.773   2.893   8.841 -1.2907  0.8754  0.0127
 2180SOL     OW18175   2.273   3.627   7.984  0.4566 -0.4188  0.4016
 2180SOL    HW118176   2.227   3.554   7.943  0.0139 -1.3675  2.5862
 2180SOL    HW218177   2.342   3.582   8.033  2.9268  0.9783 -1.8062
 2181SOL     OW18178   4.151   3.057   0.612 -0.0474  0.5601  0.0403
 2181SOL    HW118179   4.059   3.076   0.592  0.4534  2.6201 -0.2997
 2181SOL    HW218180   4.154   3.046   0.707  0.2284 -1.4433 -0.2042
 2182SOL     OW18181   1.486   3.315   9.829 -0.0982  0.3746  0.1643
 2182SOL    HW118182   1.419   3.378   9.804 -0.1125 -0.1554 -1.1395
 2182SOL    HW218183   1.556   3.346   9.772  0.1726  2.0432  1.4182
 2183SOL     OW18184   1.797   0.907  17.032 -0.3601  0.7592  0.1757
 2183SOL    HW118185   1.722   0.963  17.014  0.7831  2.3647  0.3797
 2183SOL    HW218186   1.855   0.981  17.049 -0.7170  1.2843 -0.9065
 2184SOL     OW18187   2.286   3.501   6.975 -0.4533  0.0981 -0.0555
 2184SOL    HW118188   2.356   3.445   7.010 -0.0977  0.0350 -0.8618
 2184SOL    HW218189   2.262   3.459   6.892 -1.5163 -2.9487  1.8209
 2185SOL     OW18190   3.576   4.676   4.889 -0.2343 -0.1060  0.3137
 2185SOL    HW118191   3.585   4.604   4.952  0.9947 -0.0242  0.2375
 2185SOL    HW218192   3.519   0.001   4.936  2.7735  1.2390  2.2338
 2186SOL     OW18193   0.631   2.316   8.220  0.1265  0.1431  0.8971
 2186SOL    HW118194   0.711   2.268   8.200  1.8000  1.7200  3.7691
 2186SOL    HW218195   0.605   2.341   8.131  3.0570  3.3826  0.8970
 2187SOL     OW18196   1.727   3.951   3.454 -0.5117  0.4224  0.5225
 2187SOL    HW118197   1.720   3.914   3.366 -0.1227 -0.1273  0.7211
 2187SOL    HW218198   1.795   3.892   3.486  1.0113  1.1175 -1.5072
 2188SOL     OW18199   0.996   1.675   4.669 -0.2616 -0.3084 -0.3122
 2188SOL    HW118200   1.083   1.663   4.707 -0.2473  2.2364  0.4880
 2188SOL    HW218201   0.959   1.590   4.691  0.3659 -0.6182 -0.4459
 2189SOL     OW18202   0.071   2.735  12.402  0.5921 -0.1284 -0.1063
 2189SOL    HW118203   0.047   2.666  12.341 -1.5531  0.4715  0.0355
 2189SOL    HW218204   0.006   2.800  12.375  0.0685  0.4102  2.4551
 2190SOL     OW18205   3.874   4.466   2.209 -0.0790  0.7381  0.2545
 2190SOL    HW118206   3.780   4.484   2.217 -0.0400  0.8594  0.4515
 2190SOL    HW218207   3.899   4.456   2.117  1.1932 -0.1280  0.7013
 2191SOL     OW18208   2.991   2.964  10.468 -0.0448 -0.3301  0.3453
 2191SOL    HW118209   2.920   2.908  10.436 -1.0447  0.5847  0.9811
 2191SOL    HW218210   2.955   3.046  10.437  1.2904  0.5698  1.1514
 2192SOL     OW18211   3.260   4.506   4.829  0.2727  0.4668  0.0848
 2192SOL    HW118212   3.348   4.471   4.812 -0.3349 -0.1745 -1.6625
 2192SOL    HW218213   3.234   4.544   4.746 -1.0294  2.2565  1.3139
 2193SOL     OW18214   0.238   0.166   5.092  0.0803  0.3935 -0.0244
 2193SOL    HW118215   0.248   0.071   5.091 -1.3634  0.2638 -1.4685
 2193SOL    HW218216   0.176   0.176   5.020 -1.0371 -1.0556  0.7552
 2194SOL     OW18217   3.777   3.693   3.127 -0.3528 -0.0722  0.4055
 2194SOL    HW118218   3.765   3.614   3.181 -1.0886 -0.6576 -0.6145
 2194SOL    HW218219   3.751   3.671   3.038 -0.2179  1.0572  0.0844
 2195SOL     OW18220   0.785   3.355   6.944  0.5230  0.0845  0.1444
 2195SOL    HW118221   0.867   3.306   6.935 -1.4473 -2.9068 -1.4240
 2195SOL    HW218222   0.769   3.379   6.853  2.7702  0.6616 -0.0961
 2196SOL     OW18223   1.829   4.507   6.529  0.4623  0.1745 -0.6230
 2196SOL    HW118224   1.859   4.451   6.600  1.1859 -0.5006 -1.4683
 2196SOL    HW218225   1.738   4.508   6.558  0.3035  1.4028 -1.1682
 2197SOL     OW18226   3.975   2.681   1.608  0.5567 -0.0652  0.6856
 2197SOL    HW118227   3.977   2.765   1.653 -1.6901  1.1888 -1.5000
 2197SOL    HW218228   3.909   2.693   1.539  0.0264 -0.4729  1.1313
 2198SOL     OW18229   1.977   2.787   2.721  0.0478  0.0550  0.1904
 2198SOL    HW118230   1.921   2.844   2.773  1.6417  1.4084  0.4158
 2198SOL    HW218231   1.911   2.738   2.671 -0.7474  0.5834  0.7391
 2199SOL     OW18232   1.594   0.259  15.511 -0.0358 -0.6057  0.1803
 2199SOL    HW118233   1.583   0.278  15.604  0.4778 -1.3537  0.3974
 2199SOL    HW218234   1.630   0.171  15.517  0.0155 -0.5810  0.2380
 2200SOL     OW18235   1.905   1.500  10.018 -0.4605  0.2113 -0.0602
 2200SOL    HW118236   1.909   1.422   9.962  2.3435  2.1057 -2.4707
 2200SOL    HW218237   1.997   1.517  10.039  0.0475 -2.5627 -0.0728
 2201SOL     OW18238   0.567   4.230   8.603 -0.4248  0.2641  0.2318
 2201SOL    HW118239   0.592   4.141   8.628  0.4016  1.3397  3.2225
 2201SOL    HW218240   0.658   4.260   8.597 -0.1032 -0.4467  1.7025
 2202SOL     OW18241   1.763   3.427   4.349 -0.8465  0.4736  0.0583
 2202SOL    HW118242   1.745   3.394   4.436  2.9459 -0.1992  0.6116
 2202SOL    HW218243   1.721   3.361   4.293 -0.7007  1.1487 -0.8603
 2203SOL     OW18244   1.513   1.884  14.957 -0.4931  0.6125 -0.1415
 2203SOL    HW118245   1.490   1.801  14.916  0.2708 -0.1081  0.8719
 2203SOL    HW218246   1.493   1.942  14.885 -2.7841 -0.2019 -0.1552
 2204SOL     OW18247   4.482   1.696  13.663  0.1389  0.4600  0.2667
 2204SOL    HW118248   4.394   1.662  13.647 -0.4659  0.6442  3.0570
 2204SOL    HW218249   4.506   1.679  13.572 -0.3767  0.8898  0.0476
 2205SOL     OW18250   3.304   1.633   3.596 -0.4420  0.1462 -0.2469
 2205SOL    HW118251   3.223   1.586   3.618  0.6078 -1.8521 -0.6341
 2205SOL    HW218252   3.275   1.720   3.623  2.3182  0.6159  1.2045
 2206SOL     OW18253   0.653   2.311   5.729  0.0348 -0.6075  0.5528
 2206SOL    HW118254   0.645   2.233   5.784 -0.9383 -0.7054  0.2791
 2206SOL    HW218255   0.618   2.388   5.773  0.0868  0.0638 -0.6104
 2207SOL     OW18256   4.587   3.494   5.879  0.0390 -0.8646 -0.0895
 2207SOL    HW118257   4.598   3.403   5.851 -1.1959 -0.9244 -0.3845
 2207SOL    HW218258   4.567   3.544   5.800  0.2267 -0.0661  0.3632
 2208SOL     OW18259   3.766   1.033   7.382  0.2060  0.0528  0.0425
 2208SOL    HW118260   3.701   0.974   7.343 -0.7890 -0.1172  1.9512
 2208SOL    HW218261   3.712   1.105   7.414 -0.5616 -0.3667 -0.3052
 2209SOL     OW18262   3.625   1.606   7.257  0.6813 -0.1393 -0.1960
 2209SOL    HW118263   3.596   1.596   7.167 -0.6179  0.2153  0.1895
 2209SOL    HW218264   3.711   1.562   7.253  0.4448 -0.3977 -2.2585
 2210SOL     OW18265   0.438   1.508   7.808  0.8527  0.1620  0.1942
 2210SOL    HW118266   0.375   1.450   7.766  0.8669 -0.4917  1.0863
 2210SOL    HW218267   0.385   1.544   7.879 -1.0217  1.2582 -1.7358
 2211SOL     OW18268   2.247   0.938   9.994  0.5018 -0.0290 -0.6637
 2211SOL    HW118269   2.241   1.029  10.020  0.4201 -0.1948 -0.0951
 2211SOL    HW218270   2.253   0.889  10.076 -1.0071  2.0157  0.6577
 2212SOL     OW18271   0.283   4.242   7.061 -0.0260 -0.0806 -0.1651
 2212SOL    HW118272   0.320   4.261   7.147  0.3512 -0.0880 -0.3258
 2212SOL    HW218273   0.260   4.333   7.041  1.1399  0.2729  0.1330
 2213SOL     OW18274   1.505   1.392  14.055 -0.0256  0.1444  0.6362
 2213SOL    HW118275   1.554   1.333  14.111 -0.2068 -0.3956  0.2341
 2213SOL    HW218276   1.424   1.395  14.107  1.0572  2.3617  2.2081
 2214SOL     OW18277   4.441   2.177   5.678 -0.2049  0.1115 -0.7464
 2214SOL    HW118278   4.356   2.136   5.665  0.0993 -0.1926 -1.7531
 2214SOL    HW218279   4.475   2.139   5.760  1.6245  0.1302 -1.4834
 2215SOL     OW18280   0.668   1.467   3.345  0.3900 -0.2270 -0.4973
 2215SOL    HW118281   0.634   1.468   3.435 -0.1822  0.1397 -0.7218
 2215SOL    HW218282   0.710   1.380   3.341  0.0900 -0.5293  2.7474
 2216SOL     OW18283   2.716   3.560   1.985 -0.3855 -0.7366 -0.1692
 2216SOL    HW118284   2.761   3.480   2.013  2.2697 -0.4148 -3.5890
 2216SOL    HW218285   2.676   3.526   1.905 -0.8621  0.4735 -0.4466
 2217SOL     OW18286   2.865   2.107   3.459  0.0138 -0.7170 -0.5583
 2217SOL    HW118287   2.800   2.063   3.405  1.1750  1.2219 -3.5018
 2217SOL    HW218288   2.826   2.186   3.496  0.9562  1.1450 -3.5488
 2218SOL     OW18289   3.522   0.530   9.214 -0.3495 -0.0715 -0.1502
 2218SOL    HW118290   3.430   0.525   9.240 -0.1153 -0.3661  0.6252
 2218SOL    HW218291   3.571   0.528   9.296 -0.0048  1.8867 -0.3045
 2219SOL     OW18292   4.682   4.140   7.534  0.1702  0.9437  0.0327
 2219SOL    HW118293   4.656   4.200   7.603  1.7224  0.4743  1.0360
 2219SOL    HW218294   4.679   4.054   7.574  1.1308  1.2933  0.8477
 2220SOL     OW18295   3.273   0.358   7.984  0.2891 -0.2262  0.3343
 2220SOL    HW118296   3.193   0.398   8.017  0.8783  1.2864 -0.0296
 2220SOL    HW218297   3.266   0.263   7.994  0.6437 -0.1010  1.8164
 2221SOL     OW18298   4.684   1.103   9.434 -0.3976 -0.4571 -0.0147
 2221SOL    HW118299   4.626   1.038   9.474 -0.8822  0.0088  0.0363
 2221SOL    HW218300   0.033   1.079   9.473 -0.5175 -0.1956  0.4061
 2222SOL     OW18301   0.714   1.594   5.823  0.4109 -0.1605 -0.5238
 2222SOL    HW118302   0.771   1.576   5.748 -0.8744 -2.4947 -0.9461
 2222SOL    HW218303   0.630   1.562   5.790  1.7237 -1.7779 -2.2805
 2223SOL     OW18304   1.321   2.643   3.251  0.0058 -0.0705  0.2158
 2223SOL    HW118305   1.240   2.674   3.292 -0.7540 -1.7247 -0.0329
 2223SOL    HW218306   1.341   2.724   3.206  0.7188  0.6289  1.8037
 2224SOL     OW18307   1.998   3.122  16.016  0.5028  0.2523  0.1487
 2224SOL    HW118308   2.058   3.159  16.082  1.7527 -0.9668 -0.3291
 2224SOL    HW218309   1.997   3.029  16.037  2.1721  0.5003  1.3483
 2225SOL     OW18310   2.165   0.205   4.625  0.4631 -0.1023 -0.3573
 2225SOL    HW118311   2.178   0.158   4.543 -1.5620 -1.6664  0.2090
 2225SOL    HW218312   2.184   0.294   4.597 -0.3188 -0.3374 -1.6091
 2226SOL     OW18313   2.677   3.883   8.663  0.0428  0.1712  0.5454
 2226SOL    HW118314   2.739   3.917   8.727 -0.0943  0.6523  0.4234
 2226SOL    HW218315   2.594   3.925   8.686 -1.2936 -1.7896 -0.6377
 2227SOL     OW18316   0.012   4.600   6.448  0.0478  0.8058 -0.2007
 2227SOL    HW118317   4.692   4.529   6.480  0.6900 -0.0804 -1.0533
 2227SOL    HW218318   0.098   4.559   6.451  0.0903  0.8298 -1.0756
 2228SOL     OW18319   4.419   4.555   2.429 -0.4216  0.4274  0.1547
 2228SOL    HW118320   4.486   4.487   2.438 -0.0637  1.1576  2.8628
 2228SOL    HW218321   4.481   4.626   2.410  0.4857 -0.4866 -0.3019
 2229SOL     OW18322   0.312   3.946   9.763 -0.5408 -0.1787 -0.4298
 2229SOL    HW118323   0.278   3.861   9.734  1.7815 -0.6134 -1.8574
 2229SOL    HW218324   0.402   3.925   9.790 -0.8818 -1.7201 -0.4413
 2230SOL     OW18325   2.888   2.718  12.923 -0.1390  0.2419  0.1523
 2230SOL    HW118326   2.955   2.658  12.891  1.6540  2.1359  0.2734
 2230SOL    HW218327   2.924   2.799  12.886  0.6919 -1.1990 -2.2017
 2231SOL     OW18328   4.625   3.871   1.373  0.1737 -0.1783 -0.2079
 2231SOL    HW118329   4.531   3.854   1.371  0.5482 -2.2539  0.3762
 2231SOL    HW218330   4.658   3.785   1.399  0.1056  0.8974  3.4354
 2232SOL     OW18331   3.677   3.016   5.847 -0.7686 -0.2369  0.3309
 2232SOL    HW118332   3.630   2.939   5.877  0.1426 -1.5715 -1.6503
 2232SOL    HW218333   3.641   3.096   5.885 -0.0375 -1.0354  2.6553
 2233SOL     OW18334   1.440   0.582   8.093 -0.0488 -0.5603  0.0449
 2233SOL    HW118335   1.365   0.635   8.067  0.5871  0.7583  0.9472
 2233SOL    HW218336   1.468   0.533   8.016  1.7240 -0.6564  0.7539
 2234SOL     OW18337   0.306   1.663   8.042  0.2730  0.0257 -0.4182
 2234SOL    HW118338   0.262   1.749   8.045 -1.8090 -1.0404 -0.1805
 2234SOL    HW218339   0.232   1.609   8.069  1.1460 -0.6985  0.5067
 2235SOL     OW18340   4.713   0.300   3.617 -0.5498  0.0350  0.2461
 2235SOL    HW118341   4.704   0.382   3.664 -1.0206  0.7123 -1.0089
 2235SOL    HW218342   4.663   0.237   3.668 -1.3464  0.4468 -0.0211
 2236SOL     OW18343   3.100   4.654  15.286  0.1739  0.0861  0.0407
 2236SOL    HW118344   3.127   4.727  15.231 -0.1827  1.4972  1.7405
 2236SOL    HW218345   3.184   4.607  15.292  0.4491  0.5798  0.0680
 2237SOL     OW18346   0.121   1.843  16.002 -0.7637  0.2399 -0.2792
 2237SOL    HW118347   0.148   1.929  15.970  0.0598 -0.2588 -0.9192
 2237SOL    HW218348   0.131   1.796  15.920  1.2785  0.8831 -0.4194
 2238SOL     OW18349   0.345   4.336   2.455 -0.4295 -0.0971  0.6250
 2238SOL    HW118350   0.400   4.311   2.381 -0.8419 -0.1933  0.3476
 2238SOL    HW218351   0.350   4.432   2.451  2.9864 -0.3401 -1.7333
 2239SOL     OW18352   0.431   4.247  17.620 -0.4012  0.3794 -0.0196
 2239SOL    HW118353   0.432   4.341  17.635  3.9142  0.4569 -0.5731
 2239SOL    HW218354   0.497   4.213  17.682  0.3456  1.3754 -0.2703
 2240SOL     OW18355   2.276   2.572   2.604  0.3507  0.1298 -0.5518
 2240SOL    HW118356   2.316   2.486   2.611  2.9633  1.4452  0.4063
 2240SOL    HW218357   2.325   2.614   2.533 -0.4871  0.2130 -1.0807
 2241SOL     OW18358   4.493   2.374   5.160  0.5610  0.5200 -0.0731
 2241SOL    HW118359   4.429   2.415   5.217 -0.4454 -2.8490  1.2471
 2241SOL    HW218360   4.472   2.398   5.070 -0.7545 -1.7230 -0.3608
 2242SOL     OW18361   0.148   4.183  15.469  0.3096 -0.4968 -0.1087
 2242SOL    HW118362   0.078   4.118  15.463 -0.0913 -0.3067  2.5042
 2242SOL    HW218363   0.217   4.145  15.523  0.0661 -3.9148 -2.2288
 2243SOL     OW18364   3.881   2.925  11.629  0.6957 -0.2641  0.1273
 2243SOL    HW118365   3.957   2.920  11.570 -1.0171  1.3926 -2.2298
 2243SOL    HW218366   3.889   3.007  11.677 -4.7282  0.7014 -0.6241
 2244SOL     OW18367   2.182   3.873  13.590 -0.0002  0.2141  0.2331
 2244SOL    HW118368   2.178   3.961  13.553  0.6029 -0.3024 -1.0646
 2244SOL    HW218369   2.258   3.840  13.541 -0.3927 -0.1022 -0.1678
 2245SOL     OW18370   1.969   2.749   2.382 -0.4465 -0.0815 -0.7407
 2245SOL    HW118371   1.915   2.700   2.444 -0.9377  0.5022 -0.7058
 2245SOL    HW218372   1.963   2.700   2.300 -1.1723 -0.6490 -0.3566
 2246SOL     OW18373   1.453   0.189  14.841 -0.2984  0.2205  0.2349
 2246SOL    HW118374   1.505   0.120  14.799 -1.0672 -0.5612  0.5867
 2246SOL    HW218375   1.400   0.135  14.899 -0.8477  0.5543  0.0469
 2247SOL     OW18376   4.507   4.007   6.871 -0.0618  0.2735 -0.2622
 2247SOL    HW118377   4.583   3.979   6.922 -2.4302 -0.3884  2.8959
 2247SOL    HW218378   4.433   3.987   6.929 -0.6081  0.5081 -0.8800
 2248SOL     OW18379   1.383   4.010  10.532 -0.1019  0.1445  0.1763
 2248SOL    HW118380   1.372   4.028  10.625 -1.0806 -1.8210  0.4463
 2248SOL    HW218381   1.417   4.093  10.500 -0.4006  0.7591  1.4756
 2249SOL     OW18382   0.240   0.774   3.146 -0.4584 -0.2322 -0.5734
 2249SOL    HW118383   0.328   0.782   3.110 -1.3523  2.8668 -2.0683
 2249SOL    HW218384   0.213   0.684   3.129 -1.0504 -0.3418  0.9441
 2250SOL     OW18385   3.361   2.184  15.950 -0.1036 -0.1817 -0.0910
 2250SOL    HW118386   3.436   2.229  15.987 -1.3115  1.3774  0.4358
 2250SOL    HW218387   3.370   2.092  15.975  0.4957 -0.4805 -1.4186
 2251SOL     OW18388   1.301   0.409   7.195 -0.0721 -0.1187  0.4205
 2251SOL    HW118389   1.313   0.476   7.129 -1.2834 -0.6979 -0.3865
 2251SOL    HW218390   1.206   0.404   7.197 -0.1208 -0.2526 -2.0733
 2252SOL     OW18391   1.479   0.232   6.510  0.1544 -0.1574 -0.2360
 2252SOL    HW118392   1.395   0.267   6.483  0.3841  2.0677  1.9215
 2252SOL    HW218393   1.524   0.316   6.509  1.7117 -0.9881 -0.0438
 2253SOL     OW18394   2.719   3.855  11.088  0.8360  0.2696  0.0376
 2253SOL    HW118395   2.789   3.799  11.053  0.5323 -0.1413  0.0935
 2253SOL    HW218396   2.689   3.789  11.151 -1.6466  0.3255 -1.0965
 2254SOL     OW18397   1.190   3.179   6.718 -0.3223  0.4623  0.1259
 2254SOL    HW118398   1.273   3.131   6.712 -0.7910 -0.2932 -0.3680
 2254SOL    HW218399   1.193   3.219   6.631  0.0869 -1.8360 -0.9438
 2255SOL     OW18400   0.477   2.512   7.011 -0.1454  0.1967  0.0783
 2255SOL    HW118401   0.490   2.494   7.104  1.0319  2.1946  0.3023
 2255SOL    HW218402   0.507   2.427   6.978  0.1737 -0.7531  2.8132
 2256SOL     OW18403   1.508   0.053   5.894  0.1264 -0.1689  0.1097
 2256SOL    HW118404   1.577   0.118   5.884  0.0867  0.2198  2.4384
 2256SOL    HW218405   1.431   0.093   5.936 -0.0408 -0.4265  0.0480
 2257SOL     OW18406   0.056   3.313   3.727  0.3657 -0.7167 -0.4940
 2257SOL    HW118407   0.033   3.368   3.801 -0.7096 -1.0507 -0.5903
 2257SOL    HW218408   4.715   3.291   3.674  0.0850  0.8547 -0.7325
 2258SOL     OW18409   4.028   3.056   7.295  1.0959  0.0103 -0.2157
 2258SOL    HW118410   4.001   2.993   7.361  1.6574 -3.2132 -3.0808
 2258SOL    HW218411   4.025   2.990   7.226 -1.6362  1.9882 -1.9630
 2259SOL     OW18412   3.817   2.928   3.211  0.0928 -0.2099 -0.0541
 2259SOL    HW118413   3.758   2.956   3.141 -1.0576 -0.6361  0.7441
 2259SOL    HW218414   3.793   2.987   3.282  1.3668 -0.3677  0.5080
 2260SOL     OW18415   1.998   3.130   2.141 -0.1972  0.1528 -0.4605
 2260SOL    HW118416   2.049   3.138   2.059  1.9067  1.1786  0.9321
 2260SOL    HW218417   2.066   3.083   2.190  1.4548  2.8897 -0.1010
 2261SOL     OW18418   0.078   1.863  11.010  0.3381 -0.0835  0.4639
 2261SOL    HW118419   0.004   1.875  10.952 -0.0874  0.2183  1.0656
 2261SOL    HW218420   0.131   1.934  10.973  1.0246 -1.0765 -0.4470
 2262SOL     OW18421   4.343   0.615   8.097  0.2913 -0.1680 -0.1643
 2262SOL    HW118422   4.368   0.638   8.008 -0.3838 -0.8760 -0.5349
 2262SOL    HW218423   4.427   0.610   8.142  0.0357  1.2798  0.5111
 2263SOL     OW18424   0.566   0.562   6.540 -0.1025  0.6094  0.0624
 2263SOL    HW118425   0.552   0.473   6.571 -1.0783  0.7990  0.1724
 2263SOL    HW218426   0.475   0.590   6.550 -0.9233 -1.9480 -0.1855
 2264SOL     OW18427   2.381   0.836   1.230  0.4397  0.3082 -0.2151
 2264SOL    HW118428   2.299   0.836   1.280 -0.3555  0.2497 -1.5138
 2264SOL    HW218429   2.446   0.858   1.297 -1.5822  0.5352  1.7022
 2265SOL     OW18430   0.376   1.920   4.205  0.1797 -0.1015  0.8788
 2265SOL    HW118431   0.440   1.978   4.244  2.1707 -1.8907  0.2638
 2265SOL    HW218432   0.374   1.857   4.277 -0.7631 -2.5638 -1.3134
 2266SOL     OW18433   2.266   0.737   3.230  0.0479 -0.8231  0.2671
 2266SOL    HW118434   2.291   0.673   3.297  1.9202  1.4257  1.7254
 2266SOL    HW218435   2.171   0.734   3.218 -0.3085  1.9662  2.3804
 2267SOL     OW18436   0.655   2.178   3.215 -0.6190  0.3477  0.1965
 2267SOL    HW118437   0.576   2.169   3.162 -1.0540 -0.9358  1.0556
 2267SOL    HW218438   0.722   2.199   3.150 -0.3196 -1.0397  0.0665
 2268SOL     OW18439   2.779   3.640   3.763 -0.3231 -0.3856 -0.1437
 2268SOL    HW118440   2.762   3.576   3.694  0.9611  0.1030 -0.9252
 2268SOL    HW218441   2.748   3.601   3.845  1.2285 -0.9424  0.1868
 2269SOL     OW18442   4.376   3.796   5.830 -0.0211  0.4988 -0.2784
 2269SOL    HW118443   4.372   3.767   5.921  1.4058 -2.0115 -1.0252
 2269SOL    HW218444   4.372   3.711   5.787  0.5686  0.0813  0.4747
 2270SOL     OW18445   1.992   1.267   5.414 -0.4235 -0.1129 -0.1091
 2270SOL    HW118446   2.044   1.223   5.481 -1.6102 -1.5733 -0.1454
 2270SOL    HW218447   2.023   1.352   5.447  1.8435 -0.6321 -0.9355
 2271SOL     OW18448   2.459   2.124   6.999 -0.4331  0.1081  0.0163
 2271SOL    HW118449   2.491   2.100   7.086 -0.4351 -0.0921 -0.0393
 2271SOL    HW218450   2.368   2.093   6.995  0.0426 -1.8327  4.0594
 2272SOL     OW18451   1.141   3.278   3.723  0.3610  0.1266 -0.3379
 2272SOL    HW118452   1.089   3.206   3.758  0.4875 -1.4128 -3.2569
 2272SOL    HW218453   1.126   3.284   3.629 -0.5961  1.1197 -0.1149
 2273SOL     OW18454   1.662   2.935   6.692 -0.0697 -0.3765 -0.1758
 2273SOL    HW118455   1.614   2.954   6.611  1.1690 -1.6182 -1.1878
 2273SOL    HW218456   1.593   2.907   6.752  0.9824 -0.6261  0.8962
 2274SOL     OW18457   3.656   1.467   2.595 -0.3073  0.3803 -0.3516
 2274SOL    HW118458   3.680   1.546   2.643  0.0569 -0.0447  0.1617
 2274SOL    HW218459   3.663   1.397   2.660  1.4178  0.6373 -0.2716
 2275SOL     OW18460   2.329   0.762  15.405  0.5128 -0.4297 -0.1065
 2275SOL    HW118461   2.315   0.747  15.499  0.9938  1.0346  0.1942
 2275SOL    HW218462   2.318   0.674  15.368 -0.0632 -0.5944  0.4525
 2276SOL     OW18463   2.242   0.352   6.564  0.0614 -0.2674 -0.0939
 2276SOL    HW118464   2.209   0.346   6.474 -0.0464  0.7723 -0.1175
 2276SOL    HW218465   2.337   0.353   6.552  0.3628 -1.4652  2.3085
 2277SOL     OW18466   2.452   0.260   5.609  0.7281 -0.4696  0.0270
 2277SOL    HW118467   2.474   0.215   5.527 -0.7371  2.0892 -1.7855
 2277SOL    HW218468   2.522   0.324   5.623 -1.5560  2.6100 -2.5283
 2278SOL     OW18469   1.085   4.494   6.285  0.6320 -0.2846  0.1070
 2278SOL    HW118470   1.006   4.516   6.236  1.5836  1.9814 -0.3960
 2278SOL    HW218471   1.058   4.417   6.336  2.5632 -0.7768  0.3891
 2279SOL     OW18472   1.654   2.103   6.229  0.0307  0.1161 -0.4028
 2279SOL    HW118473   1.670   2.066   6.142 -1.9177 -0.7347 -0.3945
 2279SOL    HW218474   1.570   2.148   6.222  1.4189  2.6671 -0.8092
 2280SOL     OW18475   0.144   0.705   6.275 -0.0827 -0.6163  0.3582
 2280SOL    HW118476   0.077   0.648   6.312  1.6097 -0.9872  2.7826
 2280SOL    HW218477   0.149   0.767   6.347  0.6358  0.5733 -0.7112
 2281SOL     OW18478   0.359   0.013   6.401  0.2204 -0.0090  0.2548
 2281SOL    HW118479   0.382   4.732   6.493  0.7343  0.2250  0.1713
 2281SOL    HW218480   0.398   0.099   6.384  1.7648 -0.6217  0.6643
 2282SOL     OW18481   0.083   3.144   4.278  0.1381  0.1271 -0.3205
 2282SOL    HW118482   0.095   3.238   4.265 -1.7231  0.3261 -0.5521
 2282SOL    HW218483   0.065   3.114   4.189  2.0161 -1.5424 -0.1327
 2283SOL     OW18484   1.362   2.532   8.619 -0.5959 -0.1291 -0.3542
 2283SOL    HW118485   1.309   2.477   8.560  0.0641  0.4947 -1.5229
 2283SOL    HW218486   1.377   2.462   8.683 -0.0393  0.0169 -0.3269
 2284SOL     OW18487   3.561   0.574  16.199  0.0323  0.4967  0.8213
 2284SOL    HW118488   3.548   0.665  16.170 -1.6847 -0.0163 -0.0094
 2284SOL    HW218489   3.555   0.597  16.292 -2.3304 -1.9673  1.2616
 2285SOL     OW18490   4.182   2.276   0.062  0.1387  0.1874  0.0029
 2285SOL    HW118491   4.110   2.339   0.071  0.7574  1.2191 -2.3934
 2285SOL    HW218492   4.188   2.258  17.709  0.1304  1.8549 -0.3024
 2286SOL     OW18493   3.435   3.273   1.689  0.6678  0.1068 -0.2203
 2286SOL    HW118494   3.496   3.201   1.708  0.6351  0.5191  1.3809
 2286SOL    HW218495   3.383   3.277   1.768  0.1930 -1.8964 -0.4364
 2287SOL     OW18496   0.362   1.084   5.273 -0.2800 -0.6320  0.3463
 2287SOL    HW118497   0.436   1.108   5.219  0.8192 -0.6238  1.8525
 2287SOL    HW218498   0.345   0.997   5.238  1.0206 -1.2259  1.2250
 2288SOL     OW18499   0.102   4.557  10.547  0.0340  0.3306  0.1114
 2288SOL    HW118500   0.067   4.472  10.575  0.3876 -0.0288 -0.5391
 2288SOL    HW218501   0.121   4.582  10.637 -2.7452 -1.1044  1.0943
 2289SOL     OW18502   0.813   3.168   2.207 -0.4521 -0.6617 -0.1244
 2289SOL    HW118503   0.814   3.164   2.303  0.6617  0.2113 -0.1046
 2289SOL    HW218504   0.721   3.147   2.191 -0.6828 -0.5030  0.9426
 2290SOL     OW18505   3.938   3.433   0.125 -0.4379  0.4679 -0.1595
 2290SOL    HW118506   3.886   3.395   0.054 -0.8641  0.0989  0.3465
 2290SOL    HW218507   3.979   3.353   0.157 -0.7633  0.6027  0.6016
 2291SOL     OW18508   3.396   1.942   6.077 -0.1222  0.2342 -0.1807
 2291SOL    HW118509   3.430   1.890   6.004 -2.9547  1.8331 -2.6402
 2291SOL    HW218510   3.342   1.996   6.019  2.3385  1.7572 -1.0334
 2292SOL     OW18511   2.938   3.434  11.514  0.0263  0.0142  0.5339
 2292SOL    HW118512   2.972   3.510  11.561  0.7299 -0.0084  0.0702
 2292SOL    HW218513   2.900   3.394  11.592  0.4601  1.2904  1.3941
 2293SOL     OW18514   0.534   3.448   4.687 -0.1529  0.1749 -0.6588
 2293SOL    HW118515   0.449   3.432   4.728 -0.0289  0.2117 -0.3879
 2293SOL    HW218516   0.573   3.361   4.692  2.0302  1.1906  0.0450
 2294SOL     OW18517   1.299   2.703  12.709  0.2145 -0.4032  0.0962
 2294SOL    HW118518   1.324   2.722  12.800 -2.8087  0.7873  0.6566
 2294SOL    HW218519   1.213   2.664  12.720 -0.5773  0.7823 -2.0087
 2295SOL     OW18520   2.250   4.319   5.067  0.1788  0.1781 -0.7061
 2295SOL    HW118521   2.230   4.348   5.156  0.6124  1.7290 -1.0982
 2295SOL    HW218522   2.321   4.258   5.083  0.1164  0.4283  0.4651
 2296SOL     OW18523   4.086   2.292   5.474  0.1865 -0.1847  0.1789
 2296SOL    HW118524   4.126   2.217   5.431 -2.3188 -1.2832 -0.2376
 2296SOL    HW218525   3.994   2.279   5.452  0.1303 -0.3635  0.5139
 2297SOL     OW18526   3.156   1.383   5.810  0.2000  0.3403  0.6524
 2297SOL    HW118527   3.105   1.302   5.805 -1.9554  1.7412 -0.2975
 2297SOL    HW218528   3.245   1.352   5.826  0.1160  0.4309  1.2671
 2298SOL     OW18529   4.258   1.965   9.471 -0.2931 -0.2618 -0.3675
 2298SOL    HW118530   4.313   1.915   9.530 -1.1844 -0.1114  0.5903
 2298SOL    HW218531   4.317   1.990   9.399 -0.1035 -0.0526 -0.1366
 2299SOL     OW18532   0.103   3.814   7.304  0.0179 -0.3387 -0.2401
 2299SOL    HW118533   0.116   3.899   7.262 -1.9610 -0.6244 -1.4645
 2299SOL    HW218534   0.117   3.760   7.226  0.5126 -0.5168 -0.0274
 2300SOL     OW18535   0.696   1.557   8.337 -0.0868 -0.1707  0.2717
 2300SOL    HW118536   0.663   1.487   8.281  3.6138 -0.7352 -1.1778
 2300SOL    HW218537   0.776   1.583   8.292  0.2114 -1.2466  0.1892
 2301SOL     OW18538   2.844   3.015   7.667 -0.1458 -0.2364 -0.4093
 2301SOL    HW118539   2.810   2.997   7.755 -4.0588  0.5555 -1.7326
 2301SOL    HW218540   2.926   2.968   7.678 -0.7530 -1.7895 -2.5576
 2302SOL     OW18541   3.588   3.673   4.971  0.4175  0.0117  0.6627
 2302SOL    HW118542   3.555   3.701   5.056 -1.4166  0.1690 -0.1002
 2302SOL    HW218543   3.544   3.737   4.914  2.4304  1.9689  1.3018
 2303SOL     OW18544   1.382   3.490   2.521 -0.2673  0.9174 -0.3346
 2303SOL    HW118545   1.440   3.552   2.476 -0.3244  0.4774 -1.0055
 2303SOL    HW218546   1.350   3.545   2.593  0.0165 -1.0632  1.3033
 2304SOL     OW18547   2.898   2.482   9.027 -0.0804  0.3158  0.2127
 2304SOL    HW118548   2.982   2.444   9.053 -0.0779 -0.3853 -0.8034
 2304SOL    HW218549   2.833   2.424   9.067  0.5832  0.0781  0.9422
 2305SOL     OW18550   1.969   0.070   2.236  0.1904 -0.1462 -0.0450
 2305SOL    HW118551   1.887   0.053   2.189  0.9325  0.0141 -1.4222
 2305SOL    HW218552   1.952   0.048   2.327  0.3938 -1.0623 -0.2284
 2306SOL     OW18553   2.893   1.023  10.932 -0.2221  0.5846 -0.4615
 2306SOL    HW118554   2.798   1.014  10.929 -0.1868 -0.0319  0.3249
 2306SOL    HW218555   2.926   0.935  10.950 -0.7768  0.6649  0.9146
 2307SOL     OW18556   0.062   4.076   9.647 -0.2173 -0.2036 -0.6101
 2307SOL    HW118557   0.120   4.027   9.705 -1.1546 -0.2223  0.3034
 2307SOL    HW218558   4.715   4.074   9.695  0.4066  1.4315  0.5296
 2308SOL     OW18559   1.589   1.927   6.965 -0.1391  0.1908 -0.4724
 2308SOL    HW118560   1.630   1.844   6.939 -0.7561 -0.8107  1.8229
 2308SOL    HW218561   1.526   1.932   6.893 -2.3284  1.7883  1.5904
 2309SOL     OW18562   2.658   1.819   7.070  0.1306  0.0391 -0.5152
 2309SOL    HW118563   2.620   1.872   7.141  1.6495  0.0645  0.2895
 2309SOL    HW218564   2.747   1.855   7.066  0.2506 -0.1398  0.5015
 2310SOL     OW18565   0.232   2.194  15.181  0.2556  0.3056 -0.3419
 2310SOL    HW118566   0.225   2.105  15.148 -0.2799 -0.7847  2.6986
 2310SOL    HW218567   0.151   2.237  15.151  0.7531 -0.8523 -3.3795
 2311SOL     OW18568   3.131   1.369   8.453 -0.1897 -0.1372  0.2328
 2311SOL    HW118569   3.147   1.459   8.426 -0.5356 -0.5489 -1.3029
 2311SOL    HW218570   3.118   1.383   8.547  1.9872  0.5162  0.4306
 2312SOL     OW18571   0.661   1.937   3.354 -0.0912  0.1068 -0.3192
 2312SOL    HW118572   0.737   1.915   3.299 -0.1861  0.3852 -0.5585
 2312SOL    HW218573   0.648   2.024   3.316 -0.4313  0.1757 -0.0428
 2313SOL     OW18574   0.278   4.706   4.630  1.1247  0.0285 -0.4264
 2313SOL    HW118575   0.254   4.716   4.538 -0.7605  0.5494  0.1190
 2313SOL    HW218576   0.213   0.025   4.674 -1.0181 -3.0972  0.2774
 2314SOL     OW18577   0.707   1.850   6.193 -0.0509 -0.2722  0.0909
 2314SOL    HW118578   0.638   1.861   6.127  0.4571 -0.9614 -0.5426
 2314SOL    HW218579   0.749   1.770   6.164  1.3985 -0.3335  2.3882
 2315SOL     OW18580   1.054   3.323  11.145 -0.4653  0.4262  0.2220
 2315SOL    HW118581   1.117   3.373  11.196 -1.1987  0.0347  1.5234
 2315SOL    HW218582   1.085   3.237  11.174 -2.3459 -0.9416 -1.8783
 2316SOL     OW18583   3.566   1.154   2.486 -0.3026 -0.2989  0.0241
 2316SOL    HW118584   3.579   1.188   2.574 -0.5415 -1.5116  0.5170
 2316SOL    HW218585   3.473   1.172   2.474  0.3277  2.3856 -0.9318
 2317SOL     OW18586   2.171   4.373   2.645 -0.1550  0.8764 -0.4315
 2317SOL    HW118587   2.151   4.454   2.693 -1.0076 -0.2694  1.1278
 2317SOL    HW218588   2.234   4.348   2.713  0.3492  0.4262 -1.0668
 2318SOL     OW18589   3.334   4.145   7.265  0.2346  0.0975  0.2359
 2318SOL    HW118590   3.377   4.183   7.341  2.0876 -2.0460  0.2430
 2318SOL    HW218591   3.263   4.102   7.312 -1.0938  1.4668 -0.5200
 2319SOL     OW18592   3.051   4.655   4.943 -0.2732 -0.0233 -0.4130
 2319SOL    HW118593   3.090   0.006   4.928  1.9579 -0.6898  1.4241
 2319SOL    HW218594   3.116   4.601   4.898  0.9154  1.1097 -0.0538
 2320SOL     OW18595   4.535   2.849   6.769 -0.0376  0.1759 -0.2134
 2320SOL    HW118596   4.492   2.849   6.683  2.5223 -0.3586 -1.4895
 2320SOL    HW218597   4.622   2.826   6.736 -0.6704 -1.6063 -0.6379
 2321SOL     OW18598   1.857   0.903   2.687  0.5295  0.5471 -0.2639
 2321SOL    HW118599   1.889   0.850   2.614 -0.1424  0.7169 -0.6717
 2321SOL    HW218600   1.942   0.906   2.732  1.1431  0.4376 -1.4137
 2322SOL     OW18601   3.591   4.528   2.227  0.4425  0.0639 -0.3873
 2322SOL    HW118602   3.508   4.523   2.273  1.5350  3.0101  1.9186
 2322SOL    HW218603   3.566   4.532   2.134 -2.4881  1.1090  0.4463
 2323SOL     OW18604   4.429   4.696   7.387  0.4438  0.1621 -0.5650
 2323SOL    HW118605   4.334   4.699   7.375  0.4388 -2.9867 -1.4126
 2323SOL    HW218606   4.469   0.027   7.331  1.0417  1.9020  1.9201
 2324SOL     OW18607   4.229   1.345   3.271 -0.1937 -0.6158 -0.0079
 2324SOL    HW118608   4.276   1.396   3.206 -0.9302  2.9658  2.3006
 2324SOL    HW218609   4.300   1.307   3.322  1.3816 -1.1189 -2.5793
 2325SOL     OW18610   2.555   1.308   4.707 -0.6685 -0.1843 -1.0468
 2325SOL    HW118611   2.605   1.295   4.627 -0.8336  2.5568 -1.5777
 2325SOL    HW218612   2.609   1.369   4.756  1.1378 -2.1620 -0.5583
 2326SOL     OW18613   0.898   1.344   1.357  0.3131  0.5790  0.5617
 2326SOL    HW118614   0.835   1.275   1.334  2.5072 -0.7128 -1.5267
 2326SOL    HW218615   0.975   1.294   1.331  1.4002  1.5701  1.8646
 2327SOL     OW18616   0.359   2.314   4.363  0.2539 -0.7269  0.2514
 2327SOL    HW118617   0.346   2.398   4.406 -3.0526 -0.7733 -0.6704
 2327SOL    HW218618   0.371   2.335   4.271  0.2168  3.4446  1.2016
 2328SOL     OW18619   4.072   3.649   5.592  0.6148 -0.0323  0.0901
 2328SOL    HW118620   4.042   3.610   5.510  1.1938  0.6050 -0.4371
 2328SOL    HW218621   3.999   3.618   5.645 -0.5036  0.6423 -1.0403
 2329SOL     OW18622   1.240   4.269   0.983  1.0336  0.2638 -0.1213
 2329SOL    HW118623   1.206   4.181   0.970 -0.3094  0.9706 -1.2845
 2329SOL    HW218624   1.289   4.264   0.901 -1.2446  0.5509 -1.4785
 2330SOL     OW18625   0.111   3.965  14.131  0.6959  0.5715 -0.2675
 2330SOL    HW118626   0.019   3.985  14.117  0.5740  0.7546  0.7669
 2330SOL    HW218627   0.102   3.873  14.158  1.0897  0.7366  0.4324
 2331SOL     OW18628   0.917   2.248   4.154 -0.9526 -0.6788 -0.0022
 2331SOL    HW118629   0.957   2.195   4.085 -0.2446 -3.9405  2.8687
 2331SOL    HW218630   0.985   2.312   4.175  0.1944 -1.2954 -1.8675
 2332SOL     OW18631   4.673   2.388   3.949 -1.4734  0.0889 -0.1217
 2332SOL    HW118632   0.003   2.320   3.964 -0.8546  0.4845 -1.0230
 2332SOL    HW218633   4.675   2.405   3.855 -1.8045  1.8944  0.1922
 2333SOL     OW18634   2.974   0.842   1.734 -0.2002 -0.4141 -0.0048
 2333SOL    HW118635   2.994   0.764   1.786 -1.9280 -0.7468  0.1680
 2333SOL    HW218636   3.025   0.821   1.656 -1.8051  0.7010 -1.3317
 2334SOL     OW18637   1.924   4.515  17.738 -0.3712 -0.3901  0.2283
 2334SOL    HW118638   1.981   4.443  17.713  0.2987  0.6918 -1.3872
 2334SOL    HW218639   1.843   4.499  17.689  1.2569  0.0501 -2.6246
 2335SOL     OW18640   3.664   4.226   2.422  0.2732  0.2678 -0.4464
 2335SOL    HW118641   3.619   4.208   2.340 -0.8057 -1.4407  0.5176
 2335SOL    HW218642   3.651   4.320   2.422  0.1006  0.2418  1.4713
 2336SOL     OW18643   1.564   4.366   5.645  0.0332 -0.1049  0.0385
 2336SOL    HW118644   1.556   4.422   5.723  0.3784 -1.4229  1.0039
 2336SOL    HW218645   1.486   4.312   5.653 -0.1474 -0.1461 -1.8736
 2337SOL     OW18646   0.267   2.808   6.062 -0.2856  0.1023  0.0151
 2337SOL    HW118647   0.271   2.739   6.128 -2.7259  0.4285  0.5235
 2337SOL    HW218648   0.212   2.770   5.993  1.5991  0.2283 -1.5510
 2338SOL     OW18649   4.330   3.974  13.814  0.0988  0.2964 -0.1870
 2338SOL    HW118650   4.275   3.921  13.872 -0.9548  3.2244  1.4840
 2338SOL    HW218651   4.308   3.949  13.725  1.0728  0.7281 -0.5524
 2339SOL     OW18652   0.229   2.285   6.837 -0.3106 -0.3481 -0.5907
 2339SOL    HW118653   0.311   2.313   6.878 -0.1073 -0.5417 -0.8596
 2339SOL    HW218654   0.158   2.343   6.864  0.5796  1.6360 -2.5459
 2340SOL     OW18655   4.240   1.879   8.333  0.9206  0.0728  0.4088
 2340SOL    HW118656   4.253   1.967   8.368  0.6728 -0.6204  2.2616
 2340SOL    HW218657   4.322   1.881   8.284 -0.5497  0.2072 -2.0595
 2341SOL     OW18658   4.535   2.307   2.276 -0.3382 -0.5557  0.1658
 2341SOL    HW118659   4.569   2.236   2.222  2.8699 -0.0174  1.4607
 2341SOL    HW218660   4.588   2.305   2.356 -0.3816 -0.1868  0.2073
 2342SOL     OW18661   3.217   1.082   7.677 -0.1257 -0.0479 -0.0483
 2342SOL    HW118662   3.250   1.077   7.767 -3.1503  1.0352  1.1228
 2342SOL    HW218663   3.176   1.168   7.673 -0.6567 -0.2271  1.3164
 2343SOL     OW18664   1.049   3.303   2.554 -0.4386 -0.1608 -0.4255
 2343SOL    HW118665   0.996   3.319   2.633 -1.0917  1.5546 -1.2103
 2343SOL    HW218666   1.126   3.270   2.601 -0.8186 -0.1365  0.2280
 2344SOL     OW18667   0.168   1.402   7.923 -0.6026  0.3692 -0.0834
 2344SOL    HW118668   0.134   1.312   7.916 -1.0391  0.5176  0.1001
 2344SOL    HW218669   0.227   1.387   7.997 -0.8823  1.9248  0.4562
 2345SOL     OW18670   3.032   3.134   6.172 -0.0335 -0.4391  0.3030
 2345SOL    HW118671   3.076   3.049   6.170 -0.6284 -0.7723  1.1677
 2345SOL    HW218672   2.983   3.131   6.254  0.7222  2.1023  0.8491
 2346SOL     OW18673   0.351   4.256   8.230  0.4156  0.2015  0.1013
 2346SOL    HW118674   0.340   4.344   8.264  2.4760 -0.5717  2.7695
 2346SOL    HW218675   0.441   4.237   8.257  0.4186  0.2634  0.1337
 2347SOL     OW18676   3.423   2.050   8.848 -0.7887  0.2790 -0.3725
 2347SOL    HW118677   3.414   2.006   8.763 -1.5778  0.0142 -0.1562
 2347SOL    HW218678   3.471   1.978   8.888 -1.5909  0.3071  0.6399
 2348SOL     OW18679   1.431   2.715  16.148  0.0743 -0.0912  0.5980
 2348SOL    HW118680   1.487   2.792  16.137 -1.4812  1.0513  0.7706
 2348SOL    HW218681   1.354   2.735  16.095  0.7373  2.1846  0.5013
 2349SOL     OW18682   4.676   2.020   1.633  0.4268 -0.4129 -0.0164
 2349SOL    HW118683   4.632   2.062   1.707 -0.1155 -0.1612 -0.4838
 2349SOL    HW218684   4.685   1.929   1.659 -2.1116 -0.4087  0.8974
 2350SOL     OW18685   2.438   1.568  10.463 -0.1205  0.3430 -0.2008
 2350SOL    HW118686   2.469   1.606  10.545  0.1841 -0.9625  0.2872
 2350SOL    HW218687   2.482   1.483  10.463  0.0338  0.4214  1.8864
 2351SOL     OW18688   0.936   3.586   8.048  0.0731  0.0724  0.4619
 2351SOL    HW118689   0.844   3.566   8.064  0.0134 -0.4967 -0.6133
 2351SOL    HW218690   0.969   3.497   8.040  1.1771  0.8271 -3.6809
 2352SOL     OW18691   1.911   2.962   2.942  0.3393  0.8295  0.1397
 2352SOL    HW118692   1.914   2.887   3.001 -0.9370  2.1841  1.8933
 2352SOL    HW218693   2.001   2.997   2.947 -0.0583  1.8504  0.1616
 2353SOL     OW18694   2.647   0.330   2.972  0.2814  0.3851  0.2481
 2353SOL    HW118695   2.669   0.412   3.016  2.6118 -0.4062  0.5589
 2353SOL    HW218696   2.728   0.303   2.929  0.5518 -0.5272  1.3393
 2354SOL     OW18697   3.694   1.780   5.684 -1.0046 -0.1511 -0.2769
 2354SOL    HW118698   3.762   1.844   5.705 -1.7256  0.0513  1.4717
 2354SOL    HW218699   3.702   1.793   5.589 -4.1800 -0.4291 -0.5793
 2355SOL     OW18700   3.161   2.425   5.093  0.0611  0.0096  0.0898
 2355SOL    HW118701   3.116   2.353   5.138  2.6055 -0.6192  1.6606
 2355SOL    HW218702   3.107   2.497   5.125  0.4163  0.2008  0.2657
 2356SOL     OW18703   4.733   3.883   2.391 -0.1805 -0.2341  0.5908
 2356SOL    HW118704   4.692   3.873   2.305 -2.5045  2.3132  1.3994
 2356SOL    HW218705   0.070   3.941   2.367  0.6007 -1.6850 -0.5772
 2357SOL     OW18706   2.011   1.742   4.619  0.2578  0.4106 -0.0721
 2357SOL    HW118707   2.013   1.698   4.704  0.4095  0.0044 -0.2895
 2357SOL    HW218708   1.934   1.798   4.635 -1.3647 -1.4534 -1.3441
 2358SOL     OW18709   3.806   3.198   8.432 -0.1427 -0.7038 -0.7545
 2358SOL    HW118710   3.731   3.151   8.395 -0.8439  0.0798 -0.3604
 2358SOL    HW218711   3.877   3.135   8.424  0.8742  0.5029 -1.2507
 2359SOL     OW18712   0.161   1.451  16.017  0.0535 -0.4521  0.1830
 2359SOL    HW118713   0.186   1.360  16.035  0.9117 -0.3254 -0.3535
 2359SOL    HW218714   0.210   1.498  16.085 -0.1564  0.1351 -0.0715
 2360SOL     OW18715   1.071   0.868   3.156 -0.2083  0.1291 -0.3377
 2360SOL    HW118716   0.989   0.909   3.182 -0.6899 -0.2339 -1.2984
 2360SOL    HW218717   1.062   0.787   3.206 -3.4886  1.2998  0.9461
 2361SOL     OW18718   4.024   2.926   9.325  0.3779 -0.1375 -0.3644
 2361SOL    HW118719   4.018   3.014   9.360 -0.5136  0.3514 -1.7602
 2361SOL    HW218720   3.930   2.918   9.312  0.1443  0.2796  1.1292
 2362SOL     OW18721   3.722   2.229   5.246 -0.7922 -0.4585 -0.4591
 2362SOL    HW118722   3.764   2.310   5.275  1.0178 -0.8333 -2.0375
 2362SOL    HW218723   3.674   2.260   5.170  0.3053 -0.2641 -1.0742
 2363SOL     OW18724   2.991   4.716   5.415 -0.0565 -0.2713  0.0601
 2363SOL    HW118725   3.000   4.685   5.505 -0.5139 -0.8074 -0.0754
 2363SOL    HW218726   3.072   4.689   5.371  0.6887  0.0565  1.2380
 2364SOL     OW18727   3.744   4.541   6.673  0.4203  0.0909  0.3948
 2364SOL    HW118728   3.800   4.541   6.595 -2.3449 -1.4898 -1.5754
 2364SOL    HW218729   3.796   4.587   6.739  0.0796 -0.1411  0.8231
 2365SOL     OW18730   0.288   4.548   6.046 -0.2515  0.1819  0.6158
 2365SOL    HW118731   0.236   4.507   5.976  0.1711  0.2060  0.2880
 2365SOL    HW218732   0.224   4.619   6.054 -0.9451 -0.3602 -0.0605
 2366SOL     OW18733   0.958   2.860  12.425 -0.7739  0.1404  0.4069
 2366SOL    HW118734   0.935   2.933  12.369 -1.1172  0.3032  0.7651
 2366SOL    HW218735   1.020   2.901  12.486  0.3606  0.7679 -1.1591
 2367SOL     OW18736   2.121   4.201   5.761 -0.0084 -0.3346 -0.3525
 2367SOL    HW118737   2.125   4.294   5.783 -1.8803 -0.5389  0.8488
 2367SOL    HW218738   2.210   4.169   5.774  0.0999 -0.0379 -0.3640
 2368SOL     OW18739   2.555   0.181   3.821 -0.1661  0.3848 -0.4708
 2368SOL    HW118740   2.634   0.215   3.779 -0.2264 -0.8465 -1.5883
 2368SOL    HW218741   2.514   0.264   3.847  0.4996 -0.0049  1.8345
 2369SOL     OW18742   0.558   1.809   7.918 -0.0859  0.1604 -0.7722
 2369SOL    HW118743   0.492   1.753   7.959  0.8925 -2.5476 -2.8733
 2369SOL    HW218744   0.523   1.893   7.946 -0.2128 -0.2905  0.4424
 2370SOL     OW18745   3.946   1.443   2.326  0.2213  0.3184  0.0494
 2370SOL    HW118746   3.940   1.535   2.352 -0.0531  0.5841 -0.9334
 2370SOL    HW218747   3.856   1.410   2.320  0.6471 -1.2861  2.4870
 2371SOL     OW18748   3.557   2.731   7.615 -0.4143 -0.0133  0.2851
 2371SOL    HW118749   3.580   2.639   7.623 -4.1184 -1.0256 -0.8305
 2371SOL    HW218750   3.597   2.761   7.533  1.4872 -0.0230  1.1881
 2372SOL     OW18751   2.010   3.632  13.259 -0.0064  0.0710 -0.2995
 2372SOL    HW118752   2.046   3.634  13.348 -0.5369 -0.7149 -0.0623
 2372SOL    HW218753   2.040   3.714  13.221  0.1062 -0.5723 -1.5878
 2373SOL     OW18754   2.019   3.459  17.239  0.3475 -0.6108  0.2931
 2373SOL    HW118755   1.983   3.548  17.242  1.9217  0.0918 -1.5047
 2373SOL    HW218756   2.098   3.483  17.286  1.4954 -1.0089 -1.4484
 2374SOL     OW18757   3.465   3.451   5.764 -0.5079  0.7514  0.0698
 2374SOL    HW118758   3.489   3.465   5.672 -1.2610 -1.1815 -0.4098
 2374SOL    HW218759   3.513   3.524   5.802 -0.2749 -0.2438  1.6625
 2375SOL     OW18760   3.320   1.855   2.901 -0.0615  0.3784 -0.3565
 2375SOL    HW118761   3.352   1.917   2.834  0.6889  1.0113  0.5862
 2375SOL    HW218762   3.230   1.887   2.906 -0.7451 -1.3727 -1.2492
 2376SOL     OW18763   4.584   1.200   6.509  0.1242  0.7267  0.2305
 2376SOL    HW118764   4.665   1.156   6.483 -1.4426 -0.2327 -3.0824
 2376SOL    HW218765   4.524   1.189   6.435  0.5692  1.9532 -0.3041
 2377SOL     OW18766   1.370   3.753   2.697 -0.4348 -0.3717 -0.2590
 2377SOL    HW118767   1.338   3.789   2.780  2.6459 -0.1246  0.8004
 2377SOL    HW218768   1.450   3.712   2.729 -0.2476  0.6401  0.5757
 2378SOL     OW18769   4.260   0.316  11.926 -0.1570  0.0567 -0.6472
 2378SOL    HW118770   4.329   0.250  11.937 -1.4079 -1.0840  0.4095
 2378SOL    HW218771   4.216   0.318  12.011 -0.5308 -0.6877 -0.8228
 2379SOL     OW18772   1.189   2.846  10.619 -0.3372  0.0735 -0.3074
 2379SOL    HW118773   1.106   2.889  10.596 -0.3284  0.1666 -0.1680
 2379SOL    HW218774   1.193   2.881  10.708 -0.1286 -0.1878 -0.2137
 2380SOL     OW18775   0.480   3.209   9.011  0.2908  0.6353  0.6519
 2380SOL    HW118776   0.555   3.204   8.952  0.8042  1.0856  1.2672
 2380SOL    HW218777   0.520   3.237   9.093 -0.0694  1.7391  0.4589
 2381SOL     OW18778   3.691   1.346   2.282 -0.1965  0.3916  0.1407
 2381SOL    HW118779   3.652   1.406   2.345 -0.5337  0.6667 -0.3221
 2381SOL    HW218780   3.674   1.394   2.200 -0.0365 -1.4288 -0.9507
 2382SOL     OW18781   3.688   4.600   5.810 -0.1024  0.5098 -0.6772
 2382SOL    HW118782   3.619   4.550   5.853 -0.0821  0.5467 -0.6024
 2382SOL    HW218783   3.758   4.589   5.874  0.0798  1.0109 -0.7923
 2383SOL     OW18784   2.417   0.495   7.648 -0.4843  0.0459 -0.3197
 2383SOL    HW118785   2.435   0.526   7.559 -2.2263  0.1083 -0.6407
 2383SOL    HW218786   2.506   0.482   7.680 -1.2615 -0.1428  1.7618
 2384SOL     OW18787   3.816   3.220  15.551  0.0566  0.3672  0.3937
 2384SOL    HW118788   3.726   3.227  15.583 -0.6631 -0.1050 -1.5490
 2384SOL    HW218789   3.861   3.300  15.581  0.2149  1.4026 -2.6141
 2385SOL     OW18790   0.258   3.541  15.488  0.0088 -0.1225  0.4109
 2385SOL    HW118791   0.174   3.513  15.524 -0.8511 -0.1629 -1.6060
 2385SOL    HW218792   0.313   3.464  15.501 -3.0074 -2.3659 -0.0479
 2386SOL     OW18793   2.675   1.479   2.983 -0.0429 -0.2839  0.6145
 2386SOL    HW118794   2.769   1.473   2.964 -0.2101 -1.9460  0.2785
 2386SOL    HW218795   2.677   1.561   3.033 -0.5958  0.0624  0.0586
 2387SOL     OW18796   2.138   3.224  10.582  0.0304 -0.3867 -0.0427
 2387SOL    HW118797   2.080   3.297  10.559  0.1031 -0.7243 -1.3093
 2387SOL    HW218798   2.079   3.152  10.557  2.1906 -1.3123 -2.4015
 2388SOL     OW18799   0.262   1.050   9.507 -0.3737  0.3143  0.7071
 2388SOL    HW118800   0.316   1.113   9.555 -0.0529 -0.9485  1.9893
 2388SOL    HW218801   0.230   0.987   9.572 -0.3522 -0.7299 -0.2932
 2389SOL     OW18802   2.411   2.942   0.395  0.3658 -0.2086 -0.1342
 2389SOL    HW118803   2.475   2.932   0.326  1.2474 -0.5065  0.7292
 2389SOL    HW218804   2.357   3.016   0.365  0.7470 -0.1594 -0.6753
 2390SOL     OW18805   4.672   0.984   8.615  0.0637 -0.2104  0.1153
 2390SOL    HW118806   4.590   0.962   8.659 -0.9268  1.6644 -0.7775
 2390SOL    HW218807   4.700   0.910   8.563 -1.8000 -0.2044 -0.8794
 2391SOL     OW18808   3.964   0.557   2.207 -0.7665  0.5780  0.8675
 2391SOL    HW118809   4.017   0.483   2.238 -1.0022  0.6595  1.4756
 2391SOL    HW218810   3.901   0.545   2.279 -1.0677 -1.3149  0.2904
 2392SOL     OW18811   1.179   1.934   8.899  0.3938  0.1183  0.1667
 2392SOL    HW118812   1.239   1.998   8.938  0.6312 -1.5995  2.6024
 2392SOL    HW218813   1.154   1.877   8.972 -1.3651  0.0087 -0.5117
 2393SOL     OW18814   3.852   4.402   1.662  0.4622  0.1632  0.3079
 2393SOL    HW118815   3.864   4.483   1.612 -2.7301 -0.3866 -1.3142
 2393SOL    HW218816   3.938   4.365   1.643  0.1450 -0.2008 -0.4003
 2394SOL     OW18817   1.390   1.080   6.521 -0.6899 -0.1001  0.8605
 2394SOL    HW118818   1.437   1.009   6.478  1.1448  1.3014  0.5648
 2394SOL    HW218819   1.430   1.159   6.486  0.9403 -1.8848 -1.3144
 2395SOL     OW18820   1.625   2.393   4.592 -0.2497  0.1561 -0.3226
 2395SOL    HW118821   1.719   2.377   4.585 -0.0299  1.6651 -0.7731
 2395SOL    HW218822   1.601   2.372   4.683  1.1154 -0.2101 -0.0403
 2396SOL     OW18823   0.663   4.347   4.692 -0.3298  0.2458 -0.0450
 2396SOL    HW118824   0.575   4.384   4.686 -0.4843  0.0700  1.0456
 2396SOL    HW218825   0.714   4.425   4.714 -1.1521  1.3177 -1.9750
 2397SOL     OW18826   4.682   0.638   2.767  0.2455 -0.0963 -0.2165
 2397SOL    HW118827   4.625   0.697   2.718 -1.0174 -0.0519  1.3421
 2397SOL    HW218828   4.696   0.567   2.704 -1.6255 -0.1880 -0.5229
 2398SOL     OW18829   0.552   2.287   0.417  0.0732 -0.1523 -0.1428
 2398SOL    HW118830   0.475   2.344   0.413 -1.3786 -2.1628 -0.8183
 2398SOL    HW218831   0.600   2.309   0.338  0.3858 -0.3564 -0.0079
 2399SOL     OW18832   3.816   1.233   1.467  0.4215 -0.4180 -0.3383
 2399SOL    HW118833   3.883   1.166   1.451  2.3698  0.6999  3.1052
 2399SOL    HW218834   3.761   1.197   1.537  0.8335 -0.9341 -0.2765
 2400SOL     OW18835   2.626   2.163   3.715  0.3097  0.1785 -0.4743
 2400SOL    HW118836   2.662   2.226   3.653  1.2225 -0.8891 -1.0357
 2400SOL    HW218837   2.533   2.180   3.701  0.4438  0.9414 -0.4413
 2401SOL     OW18838   4.683   1.400  17.607  0.1062 -0.5439  0.2280
 2401SOL    HW118839   4.621   1.333  17.578 -0.3444 -0.0465  0.0278
 2401SOL    HW218840   0.026   1.355  17.578  0.2256  0.7377 -1.4714
 2402SOL     OW18841   0.042   1.607   2.944 -0.5496  0.1808 -0.2829
 2402SOL    HW118842   0.106   1.543   2.912 -0.6857  0.9014 -2.0349
 2402SOL    HW218843   0.046   1.670   2.872  0.0916 -0.9546 -1.2454
 2403SOL     OW18844   3.042   2.978   5.281 -0.0159 -0.4508 -0.2675
 2403SOL    HW118845   3.066   3.066   5.254 -1.1581  0.1863  0.8051
 2403SOL    HW218846   3.010   2.947   5.197 -1.6685 -1.5123  0.7578
 2404SOL     OW18847   4.598   2.280   8.016 -0.4460 -0.0313 -0.3343
 2404SOL    HW118848   4.686   2.295   8.053 -0.7810 -1.7293  1.1100
 2404SOL    HW218849   4.542   2.272   8.093  2.0832 -1.0752  1.3863
 2405SOL     OW18850   2.316   1.943   5.108 -0.8149 -0.2391 -0.3046
 2405SOL    HW118851   2.225   1.947   5.138 -0.6181 -4.2140  0.8695
 2405SOL    HW218852   2.334   1.850   5.124  4.6147  0.4947 -2.2819
 2406SOL     OW18853   2.666   0.809   4.167  1.0518 -0.3891  0.6668
 2406SOL    HW118854   2.740   0.869   4.151  0.3181  0.0763 -0.9011
 2406SOL    HW218855   2.684   0.753   4.092  1.0044  0.6535 -0.1279
 2407SOL     OW18856   0.106   3.342  14.017 -0.3556 -0.1511  0.2751
 2407SOL    HW118857   0.197   3.358  14.042 -0.5408 -0.7955  1.3461
 2407SOL    HW218858   0.120   3.249  13.995 -0.7631 -0.8251  2.9592
 2408SOL     OW18859   3.226   2.057   8.015  0.3207 -0.2073 -0.7310
 2408SOL    HW118860   3.180   2.024   8.092  0.3970  0.1865 -0.5136
 2408SOL    HW218861   3.197   1.985   7.961 -1.1067 -0.9919  1.0792
 2409SOL     OW18862   1.356   4.176   7.218  0.3034  0.3479 -0.0414
 2409SOL    HW118863   1.407   4.156   7.296 -0.9947 -1.0853  0.4401
 2409SOL    HW218864   1.422   4.169   7.148  0.8286 -0.1464  0.5100
 2410SOL     OW18865   1.192   1.310   5.854  0.1781 -0.1574  0.0998
 2410SOL    HW118866   1.167   1.397   5.884 -0.2850 -0.6173  1.0493
 2410SOL    HW218867   1.116   1.264   5.889  0.1609  0.8238  1.3383
 2411SOL     OW18868   2.927   2.631   8.204  0.7119 -0.3360 -0.2483
 2411SOL    HW118869   2.973   2.556   8.241  1.1003 -0.1594 -0.3722
 2411SOL    HW218870   2.914   2.676   8.287  0.0773  1.1381 -1.1403
 2412SOL     OW18871   4.015   1.200  16.076 -0.2964  0.4586  0.8679
 2412SOL    HW118872   3.943   1.254  16.110 -0.3325 -0.0518  1.6088
 2412SOL    HW218873   4.003   1.215  15.982 -1.9373 -1.2732  0.7940
 2413SOL     OW18874   3.565   4.602   8.735 -0.0266 -0.3840 -0.2156
 2413SOL    HW118875   3.511   4.529   8.702  1.2932 -1.9258  1.0419
 2413SOL    HW218876   3.648   4.555   8.742 -0.6427 -1.4940 -0.2823
 2414SOL     OW18877   4.478   3.539   0.576  0.3396  0.2211  0.5109
 2414SOL    HW118878   4.538   3.517   0.504 -0.7479  0.4421 -0.4530
 2414SOL    HW218879   4.529   3.599   0.630  3.6070 -2.1459  0.0559
 2415SOL     OW18880   3.805   2.896   1.528 -0.0875  0.1239  0.7911
 2415SOL    HW118881   3.826   2.980   1.569 -0.7654  0.8777 -0.4299
 2415SOL    HW218882   3.711   2.894   1.544 -0.0430 -2.5701  0.7499
 2416SOL     OW18883   2.581   2.564   2.111 -0.2666  0.9572 -0.4482
 2416SOL    HW118884   2.600   2.479   2.152  0.5578 -0.0229 -2.8774
 2416SOL    HW218885   2.661   2.611   2.136 -0.3246  1.7668 -1.7962
 2417SOL     OW18886   3.731   0.751   4.947 -0.1855 -0.3891  0.0313
 2417SOL    HW118887   3.769   0.676   4.993 -0.9738 -0.4462  0.5697
 2417SOL    HW218888   3.740   0.722   4.856 -0.8811  2.6923 -1.0183
 2418SOL     OW18889   3.635   4.143   8.733 -0.3955  0.4908 -0.1502
 2418SOL    HW118890   3.631   4.159   8.639  0.8281  0.8807 -0.1382
 2418SOL    HW218891   3.570   4.200   8.774 -0.7986  0.8154 -1.2413
 2419SOL     OW18892   0.000   0.619   9.122 -0.1957 -0.0164 -0.0302
 2419SOL    HW118893   4.681   0.697   9.134 -0.1681 -0.0563  0.3722
 2419SOL    HW218894   4.690   0.570   9.054  1.6051 -1.7009 -0.0200
 2420SOL     OW18895   2.942   0.455   5.631  0.1198 -0.1464  0.3383
 2420SOL    HW118896   3.036   0.438   5.642 -0.0998 -2.4310 -1.2019
 2420SOL    HW218897   2.923   0.508   5.708 -0.3934  0.1309  0.0185
 2421SOL     OW18898   3.289   0.566  13.498 -0.1563  0.1866  0.0576
 2421SOL    HW118899   3.319   0.581  13.587  0.8702 -1.6718  0.0292
 2421SOL    HW218900   3.195   0.555  13.511 -0.4827 -0.5909 -2.8903
 2422SOL     OW18901   1.144   3.410   5.039  0.0021  0.4905 -0.5542
 2422SOL    HW118902   1.164   3.320   5.066  0.1925  0.1853 -1.6825
 2422SOL    HW218903   1.179   3.419   4.950 -1.5512  1.7644 -1.0282
 2423SOL     OW18904   2.575   0.854  15.530  0.1130 -0.1276  0.1118
 2423SOL    HW118905   2.523   0.786  15.488 -0.2760 -0.3795  0.9881
 2423SOL    HW218906   2.655   0.807  15.550  0.1133 -0.0308  0.3460
 2424SOL     OW18907   2.002   1.991   7.021 -0.6008 -0.0356 -0.1574
 2424SOL    HW118908   1.954   1.926   6.970 -1.8767  1.5330 -0.9626
 2424SOL    HW218909   2.048   1.937   7.086  0.3132  0.5092 -0.3535
 2425SOL     OW18910   1.861   1.696   3.708 -0.3909 -0.4667 -0.0299
 2425SOL    HW118911   1.945   1.686   3.664 -1.8589 -4.8758 -1.8184
 2425SOL    HW218912   1.804   1.707   3.631 -0.1423  2.3015  0.1574
 2426SOL     OW18913   0.056   0.159   6.661  0.1105 -0.5330  0.3935
 2426SOL    HW118914   0.125   0.106   6.702 -2.2301 -2.3004  1.9961
 2426SOL    HW218915   0.117   0.210   6.608  0.2687 -2.5183 -1.2838
 2427SOL     OW18916   1.067   3.236   6.100  0.3005  0.0387  0.1143
 2427SOL    HW118917   1.096   3.297   6.168 -1.5329  1.7552 -0.6346
 2427SOL    HW218918   1.131   3.165   6.103  1.2483  0.8794 -0.1444
 2428SOL     OW18919   2.580   2.074  13.501  0.2814  0.1071 -0.3727
 2428SOL    HW118920   2.508   2.020  13.535  0.6655  1.5311  2.6612
 2428SOL    HW218921   2.572   2.154  13.553  2.6591  0.3628 -0.3977
 2429SOL     OW18922   3.834   2.744   4.976  0.2309  0.1747 -0.0472
 2429SOL    HW118923   3.880   2.822   5.006  0.0181  0.0961  0.4756
 2429SOL    HW218924   3.759   2.750   5.034  1.8357 -1.0258  2.1280
 2430SOL     OW18925   2.097   0.435   8.060  0.0897 -0.1240  0.2168
 2430SOL    HW118926   2.151   0.476   7.993 -0.5809 -0.9739 -0.8392
 2430SOL    HW218927   2.140   0.468   8.139  0.3515  0.8123 -0.3253
 2431SOL     OW18928   0.175   0.470   7.453 -0.1046 -0.7967  0.0791
 2431SOL    HW118929   0.249   0.430   7.408 -0.3187 -0.2338 -0.7799
 2431SOL    HW218930   0.113   0.398   7.456 -0.1815 -0.7660 -0.6854
 2432SOL     OW18931   4.481   4.584  12.491  0.2792  0.5523  0.3379
 2432SOL    HW118932   4.512   4.510  12.543  0.4066  0.8533  0.6933
 2432SOL    HW218933   4.453   4.533  12.416 -0.3298 -0.2274  1.0947
 2433SOL     OW18934   4.637   4.652   1.960  0.1318 -0.7922  0.3139
 2433SOL    HW118935   4.645   0.010   1.982 -1.0413 -0.2891 -1.3699
 2433SOL    HW218936   4.664   4.606   2.039 -0.2255  0.6254  1.2696
 2434SOL     OW18937   4.243   1.473   6.742  0.7946 -0.4190  0.3442
 2434SOL    HW118938   4.237   1.421   6.822 -0.8428 -0.4101  0.2360
 2434SOL    HW218939   4.206   1.410   6.679 -0.7004  0.4662  0.3336
 2435SOL     OW18940   2.619   1.340   7.788  0.5955  0.3992  0.5141
 2435SOL    HW118941   2.696   1.361   7.841  1.0256 -2.2756  0.9825
 2435SOL    HW218942   2.539   1.355   7.839 -0.6878 -2.6689 -0.5967
 2436SOL     OW18943   1.358   4.317   4.103  0.8742  0.4540  0.4268
 2436SOL    HW118944   1.410   4.302   4.025  2.1681 -1.9913  1.7645
 2436SOL    HW218945   1.267   4.303   4.077  1.0373 -3.4978  1.9817
 2437SOL     OW18946   0.515   3.436   7.186 -0.6571  0.0089 -0.6302
 2437SOL    HW118947   0.506   3.517   7.135 -1.3900 -1.1419 -2.3106
 2437SOL    HW218948   0.491   3.459   7.275  1.4493  1.7367 -0.5114
 2438SOL     OW18949   1.089   4.303   7.955  0.0469  0.2214 -0.0487
 2438SOL    HW118950   1.039   4.276   7.878 -0.1411 -0.3509  0.2690
 2438SOL    HW218951   1.035   4.271   8.028  0.3672  0.5884  0.3440
 2439SOL     OW18952   0.705   2.637   7.807  0.5296 -0.5610  0.0228
 2439SOL    HW118953   0.772   2.635   7.738  0.6074  1.4277  0.0394
 2439SOL    HW218954   0.632   2.679   7.762  0.8035  0.9387  0.9925
 2440SOL     OW18955   3.849   3.056  17.337  0.0940 -0.2817 -0.6820
 2440SOL    HW118956   3.843   3.066  17.432 -0.4086  2.4726 -0.9996
 2440SOL    HW218957   3.756   3.059  17.314  0.6279 -0.3157 -2.8625
 2441SOL     OW18958   1.441   1.422   3.073  0.1290 -0.4104 -0.1662
 2441SOL    HW118959   1.489   1.370   3.009  1.1878  0.3997 -0.0321
 2441SOL    HW218960   1.350   1.431   3.046  0.1262  0.1636  0.0271
 2442SOL     OW18961   1.455   0.736   7.080  0.4117  0.4842 -0.4489
 2442SOL    HW118962   1.446   0.720   7.174 -2.3182  2.6255 -0.3595
 2442SOL    HW218963   1.386   0.684   7.040 -1.2602  1.3750  1.3017
 2443SOL     OW18964   3.432   0.955   3.254 -0.2587  0.0726 -0.3915
 2443SOL    HW118965   3.368   0.898   3.297 -0.4640  0.7844  0.2354
 2443SOL    HW218966   3.408   1.045   3.274 -1.2152 -0.6097  1.5083
 2444SOL     OW18967   0.308   1.628   6.615  0.4985  0.1960 -0.0851
 2444SOL    HW118968   0.374   1.648   6.549 -2.2844  1.0761 -2.5678
 2444SOL    HW218969   0.235   1.614   6.554 -0.5839  2.5725  0.6761
 2445SOL     OW18970   0.291   0.436   6.308  0.1485 -0.2513  0.2929
 2445SOL    HW118971   0.254   0.385   6.381  1.1790 -0.1922  0.8603
 2445SOL    HW218972   0.215   0.486   6.278 -2.6342 -4.5497  0.2741
 2446SOL     OW18973   0.400   3.615   9.485 -0.0092  0.0068  0.1546
 2446SOL    HW118974   0.456   3.688   9.458  0.5278  0.1803  1.7802
 2446SOL    HW218975   0.452   3.538   9.463 -0.2435 -0.1073  0.0012
 2447SOL     OW18976   0.013   1.861  16.722 -0.0961  0.1208  0.2292
 2447SOL    HW118977   4.732   1.808  16.800  1.4135 -0.5463  0.0881
 2447SOL    HW218978   4.689   1.820  16.659 -0.9801  3.7778 -1.3194
 2448SOL     OW18979   4.388   2.389  10.064  0.5833 -0.0442 -0.1410
 2448SOL    HW118980   4.413   2.440   9.987 -0.2119  0.1343 -0.2775
 2448SOL    HW218981   4.312   2.347  10.023  0.2826  0.2649  0.1027
 2449SOL     OW18982   1.593   1.870   8.017  0.2970  0.1510  0.4507
 2449SOL    HW118983   1.614   1.831   8.102  1.3412 -2.5508 -1.0322
 2449SOL    HW218984   1.653   1.944   8.028  0.5885 -0.1421  0.8501
 2450SOL     OW18985   3.061   1.967   6.023 -0.3601 -0.2968  0.4128
 2450SOL    HW118986   3.015   2.049   6.040 -0.5892 -0.2266 -0.5659
 2450SOL    HW218987   3.134   1.997   5.969 -0.4846  0.1754  0.5097
 2451SOL     OW18988   2.039   2.006   6.745 -0.2311 -0.3531 -0.4661
 2451SOL    HW118989   2.060   1.965   6.828  0.7146 -0.3133 -0.6892
 2451SOL    HW218990   1.967   1.948   6.722 -1.1701  0.7978 -0.4802
 2452SOL     OW18991   4.584   2.312   9.358  0.2367  0.1663 -0.1379
 2452SOL    HW118992   4.665   2.286   9.402  0.2356 -2.8969 -1.9266
 2452SOL    HW218993   4.630   2.379   9.306  0.5158 -1.0762 -1.5047
 2453SOL     OW18994   4.110   1.866  15.289 -0.3004 -0.1247 -0.2280
 2453SOL    HW118995   4.154   1.914  15.218 -0.0291  1.6208  1.1293
 2453SOL    HW218996   4.092   1.944  15.341 -0.2870 -2.2156  2.8730
 2454SOL     OW18997   2.331   0.510   6.889  0.3918 -0.0729  0.2897
 2454SOL    HW118998   2.363   0.529   6.977 -0.3243 -1.2959  0.8121
 2454SOL    HW218999   2.249   0.463   6.905 -0.7117  1.0625 -2.0564
 2455SOL     OW19000   0.352   0.499   2.838  0.7159 -0.2720  0.5101
 2455SOL    HW119001   0.358   0.431   2.772 -0.4065  0.1900 -0.0706
 2455SOL    HW219002   0.445   0.512   2.855  0.8869  0.3113 -0.9408
 2456SOL     OW19003   1.369   3.137  13.050 -0.0932  0.4199 -0.3453
 2456SOL    HW119004   1.383   3.232  13.041  0.2044  0.3770 -0.3333
 2456SOL    HW219005   1.275   3.129  13.037 -0.1061  0.5076 -0.3103
 2457SOL     OW19006   3.651   1.628   3.040  0.0865 -0.2980  0.1804
 2457SOL    HW119007   3.617   1.717   3.050 -2.1312 -1.1838  0.5995
 2457SOL    HW219008   3.706   1.625   3.118 -0.7908 -2.5820  0.7009
 2458SOL     OW19009   0.367   4.450   9.813 -0.6873  0.6567 -0.2778
 2458SOL    HW119010   0.439   4.404   9.769 -0.2799 -0.6202  1.7408
 2458SOL    HW219011   0.418   4.486   9.886 -3.8406  1.5166  1.4919
 2459SOL     OW19012   3.562   3.983   1.184  0.0606  0.4414 -0.6100
 2459SOL    HW119013   3.635   3.930   1.216 -0.7395  0.0489  0.5880
 2459SOL    HW219014   3.588   3.983   1.092  1.8878  1.9467 -0.1054
 2460SOL     OW19015   1.398   3.325   6.529  0.0563  0.0755  0.3973
 2460SOL    HW119016   1.405   3.417   6.556 -1.0369  0.2977 -0.0328
 2460SOL    HW219017   1.490   3.325   6.503 -0.2995 -1.4441 -0.8498
 2461SOL     OW19018   1.583   1.101  17.586  0.3994 -0.1624 -0.1290
 2461SOL    HW119019   1.487   1.092  17.579  0.2370  1.1169  0.5375
 2461SOL    HW219020   1.591   1.191  17.616  0.0615  0.0683 -0.7251
 2462SOL     OW19021   1.840   0.616  16.996 -0.8061  0.1911  0.1660
 2462SOL    HW119022   1.881   0.696  16.963  1.6805 -1.8026 -1.5451
 2462SOL    HW219023   1.751   0.651  17.000 -1.5069 -1.7767  1.7251
 2463SOL     OW19024   1.931   4.217   5.584  0.9998  0.0759  0.0439
 2463SOL    HW119025   1.933   4.305   5.547 -0.6283  0.3588  0.6387
 2463SOL    HW219026   2.007   4.223   5.642  0.2061  2.0877  0.8643
 2464SOL     OW19027   0.302   0.651   6.072 -0.2121 -0.5703 -0.5167
 2464SOL    HW119028   0.347   0.735   6.066 -3.0747  1.0899  1.0182
 2464SOL    HW219029   0.260   0.663   6.157 -2.3705 -3.8683 -1.0885
 2465SOL     OW19030   3.724   1.926   9.176  0.1555 -0.3869 -0.2497
 2465SOL    HW119031   3.812   1.899   9.148  0.0248 -3.3093  2.2463
 2465SOL    HW219032   3.738   2.017   9.203 -0.7850 -0.0605 -0.8700
 2466SOL     OW19033   1.882   4.399   7.341  0.8153  0.1373 -0.6694
 2466SOL    HW119034   1.859   4.477   7.290 -1.2904  2.0265  3.1903
 2466SOL    HW219035   1.975   4.398   7.316  1.5263  0.1525  1.9269
 2467SOL     OW19036   1.859   4.027  10.509  0.1037  0.1651 -0.5640
 2467SOL    HW119037   1.810   3.960  10.556  1.0201  1.1889  1.8612
 2467SOL    HW219038   1.937   4.047  10.561 -0.6814  1.4079  0.1334
 2468SOL     OW19039   1.990   4.397   2.461  0.1105  0.3463 -0.0336
 2468SOL    HW119040   2.057   4.368   2.523 -1.5947 -0.8002  1.2852
 2468SOL    HW219041   2.017   4.488   2.457 -0.1033  0.4106  0.0177
 2469SOL     OW19042   0.098   1.083   6.366  0.7819 -0.3724  0.5067
 2469SOL    HW119043   0.164   1.016   6.385 -0.6442 -1.9224 -0.0735
 2469SOL    HW219044   0.044   1.042   6.298  0.6352 -1.7224  1.4310
 2470SOL     OW19045   4.440   1.579   3.888 -0.1065 -0.5629 -0.7832
 2470SOL    HW119046   4.361   1.613   3.845  1.3900  1.6537 -1.7874
 2470SOL    HW219047   4.514   1.621   3.843 -0.9566  1.1473 -0.5690
 2471SOL     OW19048   0.468   0.291   2.728  0.5257  0.0351 -0.3616
 2471SOL    HW119049   0.452   0.229   2.799 -0.0795  1.0724  0.4126
 2471SOL    HW219050   0.558   0.271   2.703  0.2179 -1.0471 -0.5963
 2472SOL     OW19051   3.840   3.209   6.525 -0.2897 -0.1843 -0.1439
 2472SOL    HW119052   3.837   3.295   6.483  0.6981 -0.5280 -0.9335
 2472SOL    HW219053   3.904   3.223   6.595 -0.8064  1.2601  0.0270
 2473SOL     OW19054   2.625   2.535   1.731 -0.7261 -0.5033  0.1094
 2473SOL    HW119055   2.664   2.598   1.670 -2.1974  0.1250 -0.1716
 2473SOL    HW219056   2.633   2.450   1.686  0.3811  0.1137 -0.8587
 2474SOL     OW19057   2.267   0.251  11.239  0.0456  0.1593  0.1774
 2474SOL    HW119058   2.327   0.180  11.264  0.4946  0.5150  0.1141
 2474SOL    HW219059   2.185   0.232  11.284 -1.2199  2.1492 -1.3172
 2475SOL     OW19060   4.605   4.558   9.246  0.2479 -0.1867  0.1133
 2475SOL    HW119061   4.564   4.630   9.294 -0.6656 -0.3249 -0.4701
 2475SOL    HW219062   4.654   4.509   9.312 -0.7992 -2.7039 -0.9994
 2476SOL     OW19063   0.906   4.123   9.133  0.5568 -0.0763 -0.3376
 2476SOL    HW119064   0.964   4.112   9.208  0.2304 -0.3592 -0.1268
 2476SOL    HW219065   0.901   4.216   9.112  0.0021  0.2965  1.4760
 2477SOL     OW19066   3.153   2.812   7.369  0.2802 -0.0555  0.3668
 2477SOL    HW119067   3.110   2.728   7.357  1.0959 -0.5572  0.9655
 2477SOL    HW219068   3.163   2.806   7.464 -0.7276 -2.2482  0.3307
 2478SOL     OW19069   1.954   4.367  12.298  0.1730 -0.1651 -0.4878
 2478SOL    HW119070   1.919   4.416  12.373  1.4123  0.6079 -0.4231
 2478SOL    HW219071   1.871   4.368  12.250 -0.7149 -0.3609  1.0458
 2479SOL     OW19072   4.449   1.077  16.091  0.2982  0.6281 -0.0461
 2479SOL    HW119073   4.502   1.045  16.164  0.0093  0.4617  0.0906
 2479SOL    HW219074   4.367   1.032  16.112 -0.7703  1.9258 -1.3931
 2480SOL     OW19075   2.224   2.080   9.612  0.5234 -0.1931 -0.4634
 2480SOL    HW119076   2.211   2.068   9.707  1.6417 -0.9776 -0.3976
 2480SOL    HW219077   2.170   2.017   9.565 -1.4832  1.6161 -0.5526
 2481SOL     OW19078   1.751   3.089   0.788 -0.2557 -0.1903 -0.3355
 2481SOL    HW119079   1.840   3.102   0.819  0.8593  0.1871 -3.7488
 2481SOL    HW219080   1.746   2.994   0.793  2.2782 -0.1794  2.3375
 2482SOL     OW19081   4.557   3.757  14.084 -0.4656  0.2702 -0.1290
 2482SOL    HW119082   4.525   3.667  14.074  0.1915  0.0782 -0.5741
 2482SOL    HW219083   4.638   3.737  14.132 -1.2367  0.1045  1.0785
 2483SOL     OW19084   1.791   0.296   6.658  0.2360 -0.0705  0.7689
 2483SOL    HW119085   1.775   0.254   6.743  1.1816  0.2008  1.0869
 2483SOL    HW219086   1.727   0.366   6.671  2.2205  2.1663 -1.6116
 2484SOL     OW19087   4.345   2.187   0.288  0.2088  0.2889 -0.0029
 2484SOL    HW119088   4.295   2.105   0.282 -0.7854  1.0577 -2.1006
 2484SOL    HW219089   4.305   2.231   0.213  2.4881  1.2134 -0.6675
 2485SOL     OW19090   2.323   2.296   2.515 -0.1704  0.2212  0.2693
 2485SOL    HW119091   2.325   2.216   2.462 -0.5129  0.5076 -0.1757
 2485SOL    HW219092   2.413   2.305   2.546 -0.9364  1.8708  2.0063
 2486SOL     OW19093   0.818   0.493   7.704  0.2816 -0.5487  0.2736
 2486SOL    HW119094   0.840   0.444   7.784  2.0877  1.1779  0.8257
 2486SOL    HW219095   0.792   0.577   7.741  0.9905  0.1479 -0.8432
 2487SOL     OW19096   0.618   3.217   1.999 -0.0721 -0.6870  0.0120
 2487SOL    HW119097   0.584   3.249   1.915 -1.1866 -0.2564  0.6274
 2487SOL    HW219098   0.678   3.289   2.018  0.1606 -0.5071 -1.3541
 2488SOL     OW19099   3.651   2.334   9.659 -0.5052  0.4858 -0.2428
 2488SOL    HW119100   3.556   2.334   9.666 -0.3855 -0.9507  1.4998
 2488SOL    HW219101   3.670   2.270   9.727 -0.5694  0.7440  0.0174
 2489SOL     OW19102   1.377   1.458   1.929  0.2377  0.7048  0.6360
 2489SOL    HW119103   1.368   1.388   1.864 -1.9356  0.6812  0.9557
 2489SOL    HW219104   1.439   1.413   1.986  1.9367  0.8884 -1.0550
 2490SOL     OW19105   2.142   4.662   9.098 -0.2644 -0.1885  0.4179
 2490SOL    HW119106   2.110   4.730   9.158  1.2980 -0.9336  2.0827
 2490SOL    HW219107   2.106   4.587   9.145 -0.3926 -2.0619 -2.7074
 2491SOL     OW19108   0.922   0.902   2.621  0.1004 -0.0486 -0.4318
 2491SOL    HW119109   0.937   0.826   2.678  0.6261 -0.9721 -1.7869
 2491SOL    HW219110   1.005   0.949   2.630  0.3211 -0.8160  1.7316
 2492SOL     OW19111   3.153   3.988  13.246 -0.2218 -0.4422 -0.1192
 2492SOL    HW119112   3.163   3.896  13.269 -1.4212 -0.4024  0.5526
 2492SOL    HW219113   3.245   4.015  13.240 -0.7116  1.7277  2.1802
 2493SOL     OW19114   2.864   2.674   8.464  0.3038 -0.1765 -0.1363
 2493SOL    HW119115   2.812   2.747   8.495 -1.1496 -0.4938 -1.8078
 2493SOL    HW219116   2.901   2.631   8.541 -1.9263  0.3829  1.2315
 2494SOL     OW19117   2.823   2.632   2.235  0.2307  0.3390  0.4466
 2494SOL    HW119118   2.835   2.654   2.328 -0.8839 -0.0427  0.6835
 2494SOL    HW219119   2.914   2.627   2.207 -0.0526  1.0544 -0.5746
 2495SOL     OW19120   2.488   3.537   3.936 -0.0032 -0.1933 -0.7833
 2495SOL    HW119121   2.497   3.593   4.013  1.4442 -0.4981 -0.7361
 2495SOL    HW219122   2.538   3.457   3.951  1.9933  0.7567 -2.3399
 2496SOL     OW19123   3.877   1.460   3.592 -0.6533  0.3632 -0.3030
 2496SOL    HW119124   3.881   1.510   3.511  0.6474  2.7015  1.2071
 2496SOL    HW219125   3.900   1.372   3.563  1.6607  1.1203 -0.8089
 2497SOL     OW19126   3.355   1.666   3.337  0.0067  0.5047 -0.3638
 2497SOL    HW119127   3.324   1.668   3.428 -0.1718  0.7029 -0.4278
 2497SOL    HW219128   3.443   1.633   3.350 -0.6659 -0.7967  0.8362
 2498SOL     OW19129   2.543   4.590   5.128 -0.2644  0.0637 -0.0509
 2498SOL    HW119130   2.456   4.603   5.089 -0.7593  1.0138  1.3595
 2498SOL    HW219131   2.592   4.663   5.090  0.4614  0.2869  1.2983
 2499SOL     OW19132   4.217   4.281   0.894 -0.1431 -0.3514  0.1932
 2499SOL    HW119133   4.279   4.354   0.899 -0.1086 -0.2260 -1.9871
 2499SOL    HW219134   4.152   4.318   0.953 -1.2892 -2.9878  0.5776
 2500SOL     OW19135   0.015   3.952  17.165  0.2548  0.1716  0.6228
 2500SOL    HW119136   0.007   3.972  17.258 -0.3433  0.4517  0.5103
 2500SOL    HW219137   4.692   3.883  17.132  1.1017 -0.1873 -0.1250
 2501SOL     OW19138   0.451   0.825  17.029  0.1036 -0.0657  0.2965
 2501SOL    HW119139   0.534   0.859  17.063  0.8758 -1.8456  0.1949
 2501SOL    HW219140   0.448   0.874  16.947 -0.0574 -0.5402  0.0182
 2502SOL     OW19141   3.925   1.731   1.563 -0.9204  0.7308 -0.1634
 2502SOL    HW119142   3.873   1.695   1.634 -0.5544 -0.1341 -0.3372
 2502SOL    HW219143   3.987   1.783   1.614 -0.1281  1.8352 -2.2432
 2503SOL     OW19144   3.054   1.992   4.333 -0.0887 -0.4185 -0.3280
 2503SOL    HW119145   3.134   2.027   4.373  1.1713 -2.6394 -0.8974
 2503SOL    HW219146   3.085   1.925   4.272 -0.3022  1.8825 -2.9686
 2504SOL     OW19147   4.011   1.604   9.106  0.0688 -0.2912 -0.0507
 2504SOL    HW119148   4.068   1.589   9.030 -0.6853 -0.8846 -0.4957
 2504SOL    HW219149   4.023   1.698   9.118 -1.0309 -0.1463 -0.1142
 2505SOL     OW19150   3.394   0.395   4.087 -0.4284  0.2858  0.0764
 2505SOL    HW119151   3.363   0.451   4.016 -2.6218  0.4282  1.1382
 2505SOL    HW219152   3.321   0.337   4.109 -0.7004  0.9668  1.0025
 2506SOL     OW19153   1.357   3.722  16.969 -0.1940  0.4858  0.1456
 2506SOL    HW119154   1.350   3.631  16.940  0.1703 -0.6020  3.5418
 2506SOL    HW219155   1.445   3.749  16.941  0.3319 -0.3111  1.0554
 2507SOL     OW19156   0.306   2.541  11.575 -0.3133  0.2067  0.0719
 2507SOL    HW119157   0.272   2.452  11.586 -1.2789  0.7235  1.2984
 2507SOL    HW219158   0.381   2.535  11.634  0.0146 -1.4824 -0.5240
 2508SOL     OW19159   0.756   3.450   2.079  0.4324 -0.0906 -0.5561
 2508SOL    HW119160   0.811   3.443   2.157 -1.9658  1.1687  1.2731
 2508SOL    HW219161   0.816   3.470   2.007  0.1802  1.5711 -0.2877
 2509SOL     OW19162   1.888   3.906   8.445 -0.5211 -0.2541  0.3891
 2509SOL    HW119163   1.868   3.966   8.517 -1.4314 -0.6729  0.4938
 2509SOL    HW219164   1.827   3.938   8.378  1.5916 -0.4682 -1.6135
 2510SOL     OW19165   1.800   3.479   2.520  0.3544  0.4836 -0.0104
 2510SOL    HW119166   1.861   3.521   2.581 -0.8911  2.1613  0.0795
 2510SOL    HW219167   1.729   3.455   2.579 -1.2117  0.5331 -1.8507
 2511SOL     OW19168   2.437   2.275   7.400  0.4504 -0.4787  0.4445
 2511SOL    HW119169   2.384   2.243   7.473  0.3098 -0.4835  0.3413
 2511SOL    HW219170   2.365   2.300   7.341 -2.4904 -2.2621  3.2950
 2512SOL     OW19171   0.935   4.255   2.866  0.1806 -0.4339  0.0678
 2512SOL    HW119172   0.977   4.273   2.782 -1.4646 -2.3909 -1.1864
 2512SOL    HW219173   1.013   4.253   2.922  1.9288 -1.1700 -2.4060
 2513SOL     OW19174   1.003   0.824   6.794  0.2020 -0.2617 -0.0430
 2513SOL    HW119175   1.042   0.856   6.875  1.3490 -0.9263 -0.3303
 2513SOL    HW219176   1.085   0.804   6.749 -0.3443 -0.6480 -0.8610
 2514SOL     OW19177   2.662   3.245   6.618 -0.1683 -0.5071  0.3888
 2514SOL    HW119178   2.592   3.266   6.557  0.2062  1.6782  0.7266
 2514SOL    HW219179   2.736   3.206   6.572  0.5447 -0.8412  1.7895
 2515SOL     OW19180   0.645   1.238  13.044 -0.2181  0.0798  0.0971
 2515SOL    HW119181   0.715   1.178  13.022  1.1606  1.5473  0.4871
 2515SOL    HW219182   0.665   1.324  13.006 -1.0220 -0.8216 -2.3222
 2516SOL     OW19183   3.573   2.519   6.536 -0.3055 -0.0933 -0.0664
 2516SOL    HW119184   3.542   2.440   6.491  2.2941 -0.0128 -2.0150
 2516SOL    HW219185   3.666   2.497   6.533 -0.3927 -0.4373 -0.3094
 2517SOL     OW19186   3.358   0.613   5.338 -0.6750  0.7905 -0.1971
 2517SOL    HW119187   3.419   0.561   5.286 -1.8638 -2.0816  1.3053
 2517SOL    HW219188   3.403   0.607   5.422 -0.5352  1.2714 -0.2357
 2518SOL     OW19189   1.090   3.136   0.465  0.4537 -0.3084  0.2348
 2518SOL    HW119190   1.184   3.135   0.448 -0.0110 -0.7467 -2.2538
 2518SOL    HW219191   1.058   3.047   0.457  1.1544 -0.6010  0.7079
 2519SOL     OW19192   1.045   3.572  11.656  0.1877 -0.3281  0.2506
 2519SOL    HW119193   1.005   3.513  11.592  2.5184 -0.9979 -0.5601
 2519SOL    HW219194   0.976   3.638  11.670  0.9199  0.6690 -0.7537
 2520SOL     OW19195   1.742   0.465  15.408  0.0004 -0.5649 -0.0716
 2520SOL    HW119196   1.697   0.542  15.442  0.1179 -0.8899  0.8219
 2520SOL    HW219197   1.680   0.399  15.437 -1.2522  0.9204  0.6273
 2521SOL     OW19198   2.628   3.008   4.090 -0.5946  0.4640  0.1031
 2521SOL    HW119199   2.620   2.965   4.005  2.0582  0.8621 -0.3452
 2521SOL    HW219200   2.620   2.934   4.150  2.1008 -1.0078 -1.3814
 2522SOL     OW19201   1.398   3.075   8.586 -0.0608 -0.2430 -0.5037
 2522SOL    HW119202   1.377   3.118   8.504  3.4705  0.3396 -1.1052
 2522SOL    HW219203   1.314   3.065   8.631  0.4420  0.2084  0.5235
 2523SOL     OW19204   1.969   0.717  10.182 -0.2700  0.7626  0.5754
 2523SOL    HW119205   2.058   0.691  10.160 -0.5914  0.7259 -0.6993
 2523SOL    HW219206   1.936   0.764  10.105  0.9973  0.4996 -0.1239
 2524SOL     OW19207   2.957   0.089   4.344 -0.8570  0.1716  0.1578
 2524SOL    HW119208   2.988   0.036   4.418  1.0287 -0.4061 -1.0414
 2524SOL    HW219209   2.950   0.172   4.391 -0.5206  1.1720 -1.5743
 2525SOL     OW19210   4.709   0.324   9.560  1.1449 -0.0855  0.0154
 2525SOL    HW119211   4.647   0.377   9.509  0.0576  1.1311  2.6027
 2525SOL    HW219212   0.054   0.325   9.508  0.6169  1.6957 -0.7843
 2526SOL     OW19213   2.821   1.585   5.833  0.0860  0.3861  0.2351
 2526SOL    HW119214   2.884   1.514   5.823 -1.0549 -0.4108 -1.2584
 2526SOL    HW219215   2.869   1.663   5.804  0.7937 -1.1087 -2.5706
 2527SOL     OW19216   2.261   1.380  14.191 -0.2749  0.5357 -0.0879
 2527SOL    HW119217   2.354   1.405  14.184  0.1638 -1.3841 -1.0694
 2527SOL    HW219218   2.211   1.462  14.190 -2.4881 -0.8262  0.1137
 2528SOL     OW19219   4.589   4.301   2.226  0.1448 -0.1799 -0.0994
 2528SOL    HW119220   4.597   4.208   2.204 -0.2229 -0.6173  1.6439
 2528SOL    HW219221   4.519   4.326   2.166  1.1034  0.3694 -0.9985
 2529SOL     OW19222   3.299   3.291   0.618 -0.3307 -0.2591 -0.3077
 2529SOL    HW119223   3.348   3.262   0.541 -0.8684 -1.1810 -0.2969
 2529SOL    HW219224   3.251   3.360   0.574  2.0864  0.7536 -1.3820
 2530SOL     OW19225   3.974   3.323   7.002  0.5146  0.5594 -0.2513
 2530SOL    HW119226   3.987   3.411   7.038  1.7821  0.2705  0.0052
 2530SOL    HW219227   4.047   3.277   7.044 -1.2585 -2.3610 -0.3637
 2531SOL     OW19228   2.890   3.335   1.350 -0.1877  0.2761  0.2958
 2531SOL    HW119229   2.934   3.363   1.269  0.7848 -0.5265  0.5536
 2531SOL    HW219230   2.903   3.241   1.338 -1.7530  0.2298 -1.0446
 2532SOL     OW19231   3.235   2.552   0.329 -0.3062  0.1757  0.1617
 2532SOL    HW119232   3.246   2.645   0.308  2.1966  0.2828  1.8287
 2532SOL    HW219233   3.186   2.560   0.411 -1.2453 -2.4703 -0.1400
 2533SOL     OW19234   0.691   1.565   0.737  0.3641 -0.1218 -0.6569
 2533SOL    HW119235   0.631   1.639   0.725  2.0813  1.6669  1.7901
 2533SOL    HW219236   0.657   1.543   0.824  1.0040 -0.7696 -0.5688
 2534SOL     OW19237   1.124   3.880  17.032  0.3570 -0.3805 -0.2346
 2534SOL    HW119238   1.103   3.908  16.943  2.6309  2.3464  0.0886
 2534SOL    HW219239   1.210   3.840  17.025  0.1484 -0.9680  0.4731
 2535SOL     OW19240   4.084   2.214   8.220 -0.2023 -1.2086  0.2994
 2535SOL    HW119241   4.017   2.153   8.188 -2.8115  1.6976  0.2127
 2535SOL    HW219242   4.153   2.186   8.160 -1.9202 -1.3893 -1.6166
 2536SOL     OW19243   0.399   1.008   3.414  0.1468  0.2291  0.4568
 2536SOL    HW119244   0.368   0.923   3.444 -0.2315  0.3285  0.3491
 2536SOL    HW219245   0.328   1.060   3.451 -1.3103 -1.1400 -0.4150
 2537SOL     OW19246   0.890   1.343   9.877 -0.0249  0.1354 -0.2879
 2537SOL    HW119247   0.826   1.411   9.892 -0.5197  0.1501 -2.4635
 2537SOL    HW219248   0.917   1.328   9.968  0.5647  0.3019 -0.4311
 2538SOL     OW19249   0.555   2.376   8.903  0.0356 -0.4514  1.0222
 2538SOL    HW119250   0.498   2.365   8.979 -1.2047  0.3794  0.2111
 2538SOL    HW219251   0.506   2.445   8.858  3.1458  1.5675  0.7537
 2539SOL     OW19252   2.624   3.094   8.649  0.2875  0.3704  0.2317
 2539SOL    HW119253   2.676   3.104   8.729  0.7802 -1.8351  0.1760
 2539SOL    HW219254   2.628   2.999   8.637  0.3303  0.4583 -0.4288
 2540SOL     OW19255   4.156   1.456   7.265  0.0398  0.0466  0.0244
 2540SOL    HW119256   4.220   1.526   7.275 -0.3799  0.2238  1.3808
 2540SOL    HW219257   4.092   1.493   7.325 -2.1181  1.7357 -3.2937
 2541SOL     OW19258   2.740   2.037   5.819 -0.3588 -0.4109  0.1274
 2541SOL    HW119259   2.783   2.084   5.890 -1.0058  1.0282 -0.4315
 2541SOL    HW219260   2.807   1.972   5.798 -0.0831  0.5027 -1.8285
 2542SOL     OW19261   1.696   3.775   9.166 -0.7861 -0.2911  0.0057
 2542SOL    HW119262   1.707   3.687   9.202  2.3130 -0.1453 -0.5938
 2542SOL    HW219263   1.718   3.762   9.073 -0.8063 -1.1814  0.1234
 2543SOL     OW19264   1.157   2.010   2.337 -0.5792  0.1268 -0.1092
 2543SOL    HW119265   1.166   1.923   2.298 -0.3503 -0.0303  0.2949
 2543SOL    HW219266   1.198   1.995   2.422  0.4222 -0.3035 -0.6779
 2544SOL     OW19267   1.897   3.255   3.360  0.3585  0.2612  0.5393
 2544SOL    HW119268   1.938   3.208   3.433  0.5474  1.4395  1.1935
 2544SOL    HW219269   1.815   3.272   3.405 -0.0084 -0.6643  0.2177
 2545SOL     OW19270   0.264   0.044   7.095 -0.1728 -0.1177 -0.1678
 2545SOL    HW119271   0.331   0.105   7.063 -1.7261  1.7237  0.0919
 2545SOL    HW219272   0.189   0.103   7.106 -1.3692 -1.8210  0.7135
 2546SOL     OW19273   4.128   3.391   4.602  0.6770  0.2608 -0.1236
 2546SOL    HW119274   4.208   3.443   4.610 -0.1285  1.7937 -1.8746
 2546SOL    HW219275   4.070   3.465   4.620 -3.6644 -3.6016  1.5530
 2547SOL     OW19276   4.398   4.408   2.046  1.1240 -0.2818  0.5323
 2547SOL    HW119277   4.372   4.478   1.987 -0.3440 -0.6271  0.7484
 2547SOL    HW219278   4.352   4.328   2.018  0.3365 -0.1277  1.3815
 2548SOL     OW19279   3.537   2.597   3.022 -0.1323 -0.1337  0.5547
 2548SOL    HW119280   3.619   2.578   3.068  0.9489  0.6997 -1.0307
 2548SOL    HW219281   3.552   2.690   3.004  0.7609 -0.3167  0.3508
 2549SOL     OW19282   0.486   0.532  13.200  0.3270 -0.4318  0.4804
 2549SOL    HW119283   0.505   0.439  13.213  1.2799 -0.2538  0.3316
 2549SOL    HW219284   0.394   0.535  13.171  0.1390 -1.0941  1.0177
 2550SOL     OW19285   4.674   2.838   3.539 -0.4798 -0.7240 -0.2520
 2550SOL    HW119286   4.636   2.918   3.576  0.8065 -0.7696  1.1205
 2550SOL    HW219287   0.014   2.817   3.593  0.9499  0.3017 -1.8694
 2551SOL     OW19288   3.295   4.673  17.285 -0.4126 -0.7599 -0.0121
 2551SOL    HW119289   3.288   4.694  17.192  0.3976 -1.4180 -0.2203
 2551SOL    HW219290   3.374   4.718  17.316 -1.8199  1.1778  0.7452
 2552SOL     OW19291   2.775   3.125  16.393 -0.2529 -0.3671 -0.3393
 2552SOL    HW119292   2.865   3.094  16.385  0.4639  1.2451  1.4292
 2552SOL    HW219293   2.744   3.086  16.311 -1.4318  0.9892 -0.5246
 2553SOL     OW19294   0.167   3.884   6.209  0.3345 -0.2818  0.6329
 2553SOL    HW119295   0.172   3.978   6.222  0.6530 -0.0807 -0.9544
 2553SOL    HW219296   0.071   3.881   6.204  0.4825  0.1384 -2.7610
 2554SOL     OW19297   0.505   0.987   4.240  0.0225 -0.4440  0.6204
 2554SOL    HW119298   0.456   1.003   4.159  1.6161 -1.1991 -0.5031
 2554SOL    HW219299   0.443   0.931   4.287  0.3270 -0.0740  1.4549
 2555SOL     OW19300   1.092   1.911  11.852 -0.2495 -0.2228 -0.0069
 2555SOL    HW119301   1.062   1.926  11.942 -1.2878  0.0185 -0.3843
 2555SOL    HW219302   1.012   1.864  11.828 -0.4076  0.4197 -0.7237
 2556SOL     OW19303   0.603   3.688   5.854 -0.3334  0.3546  0.4525
 2556SOL    HW119304   0.674   3.727   5.905  0.0984  0.4975 -0.2520
 2556SOL    HW219305   0.647   3.669   5.771 -0.2942  2.4878 -0.0150
 2557SOL     OW19306   3.320   2.760   4.072 -0.1521  0.0953  0.1510
 2557SOL    HW119307   3.314   2.689   4.136 -1.3505 -0.6833 -0.8067
 2557SOL    HW219308   3.293   2.831   4.130 -0.8159 -0.0542  0.0247
 2558SOL     OW19309   1.838   2.319   6.298 -0.2889  0.4100  0.0391
 2558SOL    HW119310   1.792   2.283   6.222  0.6668  0.9590 -0.8056
 2558SOL    HW219311   1.925   2.328   6.258  0.3186 -2.6751  0.7140
 2559SOL     OW19312   4.281   3.442   7.314  0.2937  0.1542  0.1387
 2559SOL    HW119313   4.233   3.375   7.264  0.2805 -0.4666  0.9978
 2559SOL    HW219314   4.293   3.499   7.238  0.0904  1.3393  0.9971
 2560SOL     OW19315   2.577   2.149   2.599 -0.0270 -0.2813 -0.2301
 2560SOL    HW119316   2.599   2.061   2.571  2.4874  1.0014 -2.2841
 2560SOL    HW219317   2.662   2.187   2.623  0.9244 -1.7852 -1.2726
 2561SOL     OW19318   3.537   1.556   7.006  0.7975  0.0750  0.5241
 2561SOL    HW119319   3.606   1.620   6.990 -0.6086  1.8456  1.5291
 2561SOL    HW219320   3.497   1.548   6.920  0.1087  1.3528  0.7306
 2562SOL     OW19321   4.584   0.158   5.258 -0.7718  0.2326  0.1606
 2562SOL    HW119322   4.591   0.103   5.336 -0.6103 -0.6692 -0.4885
 2562SOL    HW219323   4.581   0.245   5.297  1.9242  0.4553 -0.1510
 2563SOL     OW19324   3.549   2.070   5.632  0.1678  0.0704 -0.5889
 2563SOL    HW119325   3.504   2.131   5.574  0.8218 -0.9988 -2.2274
 2563SOL    HW219326   3.551   1.988   5.582 -2.8197 -0.2946 -0.0945
 2564SOL     OW19327   3.927   4.108   1.871  0.0431 -0.3536  0.1254
 2564SOL    HW119328   3.864   4.038   1.888 -2.1115  1.1947 -1.5914
 2564SOL    HW219329   3.903   4.140   1.785 -0.1876  0.6505  0.5645
 2565SOL     OW19330   1.204   3.146  11.669 -0.4334 -0.0740  0.3550
 2565SOL    HW119331   1.215   3.073  11.607 -2.4503  0.6882 -0.9123
 2565SOL    HW219332   1.131   3.194  11.630  0.1989  1.4169  1.0277
 2566SOL     OW19333   2.217   4.563   2.221 -0.0139 -0.5333  0.1641
 2566SOL    HW119334   2.138   4.613   2.202  0.8650  0.5554 -0.6221
 2566SOL    HW219335   2.224   4.523   2.134  0.6202 -1.7782  0.8033
 2567SOL     OW19336   1.496   3.205  11.545  0.3687 -0.5597  0.1409
 2567SOL    HW119337   1.534   3.161  11.622 -1.1653  1.2665  1.9469
 2567SOL    HW219338   1.569   3.206  11.484 -1.2118 -2.3827 -1.7714
 2568SOL     OW19339   0.693   2.664   5.139 -0.4976 -0.0309  0.0179
 2568SOL    HW119340   0.765   2.713   5.178 -0.3533 -1.0176  1.0059
 2568SOL    HW219341   0.738   2.620   5.067 -2.6174  0.6299 -1.7182
 2569SOL     OW19342   1.128   1.556   2.006 -0.1194 -0.3390 -0.1142
 2569SOL    HW119343   1.217   1.526   1.987  0.4164  1.2352 -0.0531
 2569SOL    HW219344   1.077   1.475   1.995 -1.3564  0.1126  2.3354
 2570SOL     OW19345   0.260   2.439  12.553  0.2021  0.8063 -0.6098
 2570SOL    HW119346   0.243   2.374  12.484 -1.7562  0.2440  0.4154
 2570SOL    HW219347   0.177   2.485  12.544 -0.5531 -0.7725 -1.9224
 2571SOL     OW19348   2.388   2.231   3.398 -0.5839 -0.2428 -0.3385
 2571SOL    HW119349   2.476   2.264   3.381  0.1453 -1.4495  1.0978
 2571SOL    HW219350   2.408   2.157   3.455 -0.2416  0.0145 -0.1266
 2572SOL     OW19351   3.722   1.609   7.912  0.5751 -0.4284 -0.4398
 2572SOL    HW119352   3.697   1.517   7.919 -2.5519  0.3820 -0.9634
 2572SOL    HW219353   3.709   1.629   8.004  0.2606 -0.5567 -0.4570
 2573SOL     OW19354   2.403   2.857   7.409  0.3076  0.2967 -0.3184
 2573SOL    HW119355   2.366   2.837   7.323  1.1798  0.6317 -0.7749
 2573SOL    HW219356   2.361   2.795   7.468  1.5828 -0.5818 -0.3406
 2574SOL     OW19357   0.248   4.397   2.091 -0.5912 -0.4222  0.4743
 2574SOL    HW119358   0.315   4.342   2.049  0.9804  1.1208  0.9686
 2574SOL    HW219359   0.199   4.419   2.012 -0.5114 -0.7820  0.3234
 2575SOL     OW19360   1.557   0.905  12.756 -0.4280 -0.2096  0.0190
 2575SOL    HW119361   1.581   0.912  12.849 -1.2671  2.1189  0.0751
 2575SOL    HW219362   1.567   0.814  12.727 -0.0135 -0.2222  0.1971
 2576SOL     OW19363   0.764   2.023   2.451  0.1634 -0.6573  0.4061
 2576SOL    HW119364   0.826   2.030   2.523  0.2755  2.5496 -0.0329
 2576SOL    HW219365   0.714   1.947   2.481  1.7618 -2.1120 -0.5895
 2577SOL     OW19366   0.253   1.086   7.396 -0.3335  0.6515 -0.3730
 2577SOL    HW119367   0.287   1.086   7.306  0.5665 -0.5157 -0.0235
 2577SOL    HW219368   0.164   1.070   7.364 -0.2052 -0.7323 -0.0236
 2578SOL     OW19369   0.024   4.514   2.162 -0.8143 -0.2335 -0.0919
 2578SOL    HW119370   4.700   4.441   2.178  1.0630 -2.4015 -3.0514
 2578SOL    HW219371   0.110   4.476   2.182 -1.2654 -2.0180 -1.5447
 2579SOL     OW19372   2.571   0.653   9.107  0.2827  0.0447  0.1693
 2579SOL    HW119373   2.475   0.652   9.110  0.2131  0.1326 -1.9130
 2579SOL    HW219374   2.595   0.614   9.190 -1.4529 -0.1033  0.5873
 2580SOL     OW19375   2.685   4.141   2.685 -0.0989 -0.0212  0.0716
 2580SOL    HW119376   2.705   4.105   2.772  0.1138  0.1411  0.0906
 2580SOL    HW219377   2.772   4.178   2.668  0.3764 -1.4269 -0.4891
 2581SOL     OW19378   4.456   1.338   9.187 -0.2856  0.0232  0.2024
 2581SOL    HW119379   4.548   1.312   9.176 -0.2609  0.2810 -0.2167
 2581SOL    HW219380   4.436   1.339   9.280 -1.3067  3.4568 -0.0401
 2582SOL     OW19381   4.114   2.959   4.936 -0.0881  0.2258 -0.1619
 2582SOL    HW119382   4.142   3.012   4.862  0.9100 -0.8595 -0.5652
 2582SOL    HW219383   4.044   3.010   4.977  0.2903  1.6003 -1.2298
 2583SOL     OW19384   2.979   0.967   7.612  0.1827  0.7309 -0.7986
 2583SOL    HW119385   2.924   1.032   7.569 -0.9897  1.5775  1.9331
 2583SOL    HW219386   3.064   1.002   7.640  2.0938 -2.7148 -2.3299
 2584SOL     OW19387   2.002   2.815   4.227  0.3818 -0.4772  0.1135
 2584SOL    HW119388   2.034   2.744   4.282 -0.0370  1.0173  2.2908
 2584SOL    HW219389   1.928   2.840   4.282  0.6259 -0.9667  0.6680
 2585SOL     OW19390   2.232   0.151   2.821 -0.3856  0.2927  0.0367
 2585SOL    HW119391   2.206   0.238   2.852 -0.8517 -1.6632  5.1256
 2585SOL    HW219392   2.326   0.155   2.834 -0.2743  0.9604 -1.0070
 2586SOL     OW19393   3.320   1.159  17.068  0.1354 -0.8991 -0.1447
 2586SOL    HW119394   3.330   1.070  17.103  0.6280 -1.0856 -0.7741
 2586SOL    HW219395   3.315   1.207  17.151  0.1903 -2.7503  0.9403
 2587SOL     OW19396   0.198   3.262   5.751  0.4145 -0.0252  0.1617
 2587SOL    HW119397   0.253   3.208   5.694 -1.0653 -1.1411 -0.2185
 2587SOL    HW219398   0.223   3.346   5.712 -0.0252 -0.5481 -1.2722
 2588SOL     OW19399   4.428   3.654   4.414  0.2935  0.3459  0.2745
 2588SOL    HW119400   4.465   3.738   4.386 -0.4720  1.1121  1.5488
 2588SOL    HW219401   4.339   3.688   4.412 -0.3529 -1.4519 -1.3939
 2589SOL     OW19402   3.528   4.150   5.668 -0.0791  0.1276  0.5717
 2589SOL    HW119403   3.524   4.195   5.583  1.7100 -1.7995 -0.5548
 2589SOL    HW219404   3.604   4.198   5.702 -0.9927  0.6716  1.8446
 2590SOL     OW19405   3.452   4.271   6.546  0.1002 -0.2338  0.3111
 2590SOL    HW119406   3.510   4.197   6.534  2.5174  1.7507 -0.2306
 2590SOL    HW219407   3.430   4.287   6.455  2.0091  1.9698  0.2269
 2591SOL     OW19408   3.694   0.636  10.086 -0.1174  0.3756 -0.6486
 2591SOL    HW119409   3.706   0.543  10.069  0.8285  0.2703  0.6279
 2591SOL    HW219410   3.622   0.638  10.150  1.1398  1.3136  0.7276
 2592SOL     OW19411   2.366   4.402   3.589  0.4728  0.3787 -0.1271
 2592SOL    HW119412   2.354   4.465   3.661 -1.5286  2.2577 -2.0881
 2592SOL    HW219413   2.346   4.459   3.514  0.2100  0.5441  0.0677
 2593SOL     OW19414   1.780   1.007   9.077  0.1139 -0.1596 -0.0688
 2593SOL    HW119415   1.788   0.966   9.163 -0.5608 -1.5281 -0.6621
 2593SOL    HW219416   1.728   0.938   9.036  1.3472 -2.1567  1.7339
 2594SOL     OW19417   2.167   3.071   2.911  0.8325  0.0465  0.4578
 2594SOL    HW119418   2.252   3.076   2.868  1.0974  1.0222  1.1268
 2594SOL    HW219419   2.188   3.042   3.000  2.9867  0.8243  0.1882
 2595SOL     OW19420   3.743   2.081  12.522  0.1605  0.1610  0.2916
 2595SOL    HW119421   3.649   2.080  12.503 -0.0071 -0.3314  1.1620
 2595SOL    HW219422   3.782   2.020  12.460  1.4248  0.0018  1.2527
 2596SOL     OW19423   4.105   3.938  16.250 -0.4090  0.2215  0.1977
 2596SOL    HW119424   4.064   4.010  16.299 -2.6736 -1.0728  0.2186
 2596SOL    HW219425   4.128   3.987  16.171 -2.9818  2.1879  0.6475
 2597SOL     OW19426   1.343   0.657   8.761  0.4647  0.0917 -0.3957
 2597SOL    HW119427   1.427   0.618   8.736  0.7005 -0.5650  1.3520
 2597SOL    HW219428   1.328   0.702   8.678  1.0942  0.7638 -0.1439
 2598SOL     OW19429   0.472   1.724   6.800 -0.5253  0.8489 -0.1443
 2598SOL    HW119430   0.424   1.693   6.724 -1.7075 -3.4615  2.4090
 2598SOL    HW219431   0.562   1.711   6.770  0.3558  0.9798  2.4837
 2599SOL     OW19432   2.081   2.971   7.840 -0.0211  0.1683 -0.0950
 2599SOL    HW119433   2.170   2.991   7.871 -0.5361  0.3068  1.2731
 2599SOL    HW219434   2.063   3.034   7.769 -2.4772  1.7935  2.0076
 2600SOL     OW19435   1.100   2.522   6.229  0.6988  0.0690  0.0181
 2600SOL    HW119436   1.180   2.470   6.235 -1.6789 -3.2893  2.1599
 2600SOL    HW219437   1.053   2.497   6.308 -1.2244 -2.9341 -2.1006
 2601SOL     OW19438   1.867   4.599   2.822  0.0386  0.3076  0.1701
 2601SOL    HW119439   1.836   4.633   2.906 -3.4696  1.2719 -1.5268
 2601SOL    HW219440   1.798   4.610   2.757 -0.2302  0.0222  0.4144
 2602SOL     OW19441   4.650   0.357   9.825  0.1058  0.2304 -0.0896
 2602SOL    HW119442   4.688   0.345   9.738 -0.8846 -1.1740 -0.3088
 2602SOL    HW219443   4.734   0.357   9.872 -0.4777 -3.1848  0.9135
 2603SOL     OW19444   2.360   3.883   8.482  0.5863 -0.1331 -0.5372
 2603SOL    HW119445   2.330   3.972   8.460 -0.0957  0.3232  2.2202
 2603SOL    HW219446   2.420   3.891   8.556 -0.3615 -2.4878  0.4743
 2604SOL     OW19447   4.028   3.001   8.271  0.7985 -0.1802  0.0026
 2604SOL    HW119448   4.013   2.941   8.198  0.1830 -0.3384  0.2553
 2604SOL    HW219449   3.997   3.085   8.239 -1.3645 -1.5163 -1.4576
 2605SOL     OW19450   1.285   0.016   9.192 -0.3571 -0.3970  0.4558
 2605SOL    HW119451   1.316   4.662   9.203  0.7677  0.0346  0.7978
 2605SOL    HW219452   1.313   0.057   9.274 -0.4045  0.3969  0.0827
 2606SOL     OW19453   3.835   1.336  12.000 -0.5060  0.6806  0.1500
 2606SOL    HW119454   3.836   1.408  11.936  1.4186  0.2484 -0.3139
 2606SOL    HW219455   3.908   1.283  11.970 -0.0934  1.2126  0.1977
 2607SOL     OW19456   3.312   4.601   9.121 -0.3915  0.5110  0.2830
 2607SOL    HW119457   3.253   4.546   9.172 -1.6293  1.2795 -0.3215
 2607SOL    HW219458   3.250   4.619   9.050 -1.9829  0.0006  1.5397
 2608SOL     OW19459   2.144   2.481   0.145 -0.1064  0.2006 -0.6645
 2608SOL    HW119460   2.081   2.423   0.103  0.8742 -2.0594  0.9779
 2608SOL    HW219461   2.124   2.483   0.238  3.0141 -2.3028  0.0611
 2609SOL     OW19462   1.570   0.361  11.674  0.1342  0.0473 -0.0584
 2609SOL    HW119463   1.541   0.448  11.649 -0.4647  1.0993  4.2244
 2609SOL    HW219464   1.656   0.374  11.715  0.3601 -2.2682  0.2211
 2610SOL     OW19465   3.505   3.757   6.305 -0.4445 -0.4251  0.3100
 2610SOL    HW119466   3.442   3.816   6.346  1.4400  0.9586  1.1999
 2610SOL    HW219467   3.493   3.675   6.353 -0.2747  1.1522  3.0924
 2611SOL     OW19468   0.584   1.301   6.305 -0.2032 -0.4629  0.5088
 2611SOL    HW119469   0.582   1.287   6.399 -0.7421  1.7832  0.8364
 2611SOL    HW219470   0.490   1.308   6.287 -0.5874 -2.6078  1.8384
 2612SOL     OW19471   0.175   3.760   7.567 -0.1889 -0.2203  0.3951
 2612SOL    HW119472   0.145   3.669   7.574  1.3372 -0.5953  1.8205
 2612SOL    HW219473   0.149   3.777   7.476  1.5956  2.4994  0.3828
 2613SOL     OW19474   0.551   2.923  10.944 -0.4632 -0.3939 -0.0574
 2613SOL    HW119475   0.541   2.847  11.001  2.8959  0.1111  1.2393
 2613SOL    HW219476   0.640   2.900  10.918 -0.1688  1.0068 -0.2991
 2614SOL     OW19477   0.322   3.308   7.361  0.5410  0.2610 -0.0755
 2614SOL    HW119478   0.279   3.223   7.366  0.2465  0.4734  0.9424
 2614SOL    HW219479   0.281   3.341   7.281  0.7957  0.1712 -0.2432
 2615SOL     OW19480   3.427   2.378   1.803 -0.4676 -0.3195  0.0891
 2615SOL    HW119481   3.502   2.325   1.778 -0.2542  0.5396 -1.1146
 2615SOL    HW219482   3.374   2.356   1.726 -0.0742 -0.2364 -0.2068
 2616SOL     OW19483   0.683   2.296   8.684  0.0306 -0.3224  0.4093
 2616SOL    HW119484   0.630   2.340   8.751  0.2823  0.5078  0.0684
 2616SOL    HW219485   0.620   2.295   8.613 -1.1623 -0.8734  1.4825
 2617SOL     OW19486   2.732   4.469   7.918  0.1245 -0.1783  0.4407
 2617SOL    HW119487   2.717   4.473   7.824 -0.1791  0.3743  0.5115
 2617SOL    HW219488   2.826   4.456   7.930  0.6591  2.0722 -1.2610
 2618SOL     OW19489   4.579   3.558   1.169  0.7292  0.6448  0.1095
 2618SOL    HW119490   4.611   3.526   1.253  3.0403 -1.0345 -1.4219
 2618SOL    HW219491   4.506   3.499   1.151 -0.7543  2.4986  0.0171
 2619SOL     OW19492   3.759   4.299   9.308 -0.4909 -0.4060  0.2404
 2619SOL    HW119493   3.725   4.386   9.288 -0.0552 -0.0492  1.0401
 2619SOL    HW219494   3.793   4.329   9.393  1.8040  0.4811 -1.0032
 2620SOL     OW19495   2.940   1.099   1.780  0.3019  0.3490 -0.2220
 2620SOL    HW119496   2.942   1.007   1.751 -1.1993 -0.4605  2.2672
 2620SOL    HW219497   2.846   1.114   1.789  0.3529 -0.4452  1.7675
 2621SOL     OW19498   2.105   2.592   4.337 -0.2400  0.1559 -0.0040
 2621SOL    HW119499   2.182   2.549   4.299  1.1552  2.2802  0.4281
 2621SOL    HW219500   2.120   2.556   4.424  2.3323 -1.8887 -1.2643
 2622SOL     OW19501   2.417   3.593   2.998 -0.0880  0.2532  0.6296
 2622SOL    HW119502   2.390   3.615   2.909  0.4184 -2.5082 -0.1794
 2622SOL    HW219503   2.432   3.499   2.997 -0.4383  0.1917  1.0295
 2623SOL     OW19504   1.790   4.288   9.644 -0.3994  0.2308  0.3946
 2623SOL    HW119505   1.776   4.251   9.557 -1.6609  3.3799 -0.7385
 2623SOL    HW219506   1.720   4.253   9.699 -1.7717  0.7824 -1.0058
 2624SOL     OW19507   3.110   1.219  13.733 -0.1109 -0.1618 -0.3050
 2624SOL    HW119508   3.084   1.243  13.644  0.2911  1.6889  0.0651
 2624SOL    HW219509   3.178   1.155  13.710  0.3477 -0.0069  0.6041
 2625SOL     OW19510   2.233   0.143   7.276  0.3806 -0.0718 -0.0617
 2625SOL    HW119511   2.318   0.186   7.284  0.1078  0.4643 -0.0896
 2625SOL    HW219512   2.184   0.211   7.322 -0.8890 -1.5379  0.7783
 2626SOL     OW19513   4.224   2.108   7.019 -0.1077 -0.4004  0.1827
 2626SOL    HW119514   4.142   2.063   7.002 -0.0415  0.3580 -2.0794
 2626SOL    HW219515   4.213   2.191   6.973  1.7977 -0.9267 -1.2738
 2627SOL     OW19516   4.206   1.725   3.813  0.2999 -0.3287 -0.1597
 2627SOL    HW119517   4.136   1.789   3.803 -1.0738 -1.6071  1.3736
 2627SOL    HW219518   4.153   1.647   3.827  1.1866 -0.7695  0.7806
 2628SOL     OW19519   3.500   3.377   2.140  0.0019 -0.4475 -0.0958
 2628SOL    HW119520   3.438   3.426   2.194  0.6121 -1.8312  1.8568
 2628SOL    HW219521   3.500   3.423   2.056  2.3911 -0.7009 -0.2281
 2629SOL     OW19522   4.105   3.397   8.133  0.3887 -0.5334  0.1707
 2629SOL    HW119523   4.050   3.318   8.131 -0.8357  0.3557 -1.7879
 2629SOL    HW219524   4.109   3.407   8.038 -0.5308  1.3046  0.3157
 2630SOL     OW19525   1.091   2.161   6.108  0.3343 -0.2013  0.2957
 2630SOL    HW119526   1.025   2.106   6.149 -0.3531  0.0505 -0.4831
 2630SOL    HW219527   1.037   2.219   6.055  0.6181 -1.1386 -1.0209
 2631SOL     OW19528   0.966   2.051   6.653 -0.0340  0.4035 -0.9842
 2631SOL    HW119529   0.951   2.110   6.727  0.9479  0.0603 -0.5087
 2631SOL    HW219530   0.996   2.114   6.588  0.9504  0.8663 -0.0878
 2632SOL     OW19531   2.472   1.511   8.305  0.5078 -0.1371 -0.2335
 2632SOL    HW119532   2.519   1.591   8.331 -1.9853  0.6133  1.9195
 2632SOL    HW219533   2.454   1.533   8.213 -0.6740 -0.1215  0.0053
 2633SOL     OW19534   3.984   3.210   4.807 -0.6138  0.2224  0.3252
 2633SOL    HW119535   4.063   3.240   4.762  0.3724 -2.3244  0.3360
 2633SOL    HW219536   3.944   3.145   4.749 -1.5628  2.0581 -1.0750
 2634SOL     OW19537   0.167   2.865  11.792  0.0175  0.2266 -0.0573
 2634SOL    HW119538   0.124   2.817  11.863 -1.2028  0.3378 -0.7127
 2634SOL    HW219539   0.157   2.958  11.812 -0.4183  0.2114 -0.2049
 2635SOL     OW19540   4.632   4.386   2.487 -0.3241 -0.0939 -0.3337
 2635SOL    HW119541   4.697   4.337   2.536  0.3516  2.5068  1.3986
 2635SOL    HW219542   4.630   4.348   2.400 -0.9459 -2.5943  0.7798
 2636SOL     OW19543   1.667   0.320   6.178  0.2173 -0.5150 -0.2289
 2636SOL    HW119544   1.644   0.264   6.251 -2.6054 -2.2484 -2.4377
 2636SOL    HW219545   1.759   0.294   6.170  0.3275 -0.3732  0.6177
 2637SOL     OW19546   3.813   2.586   7.355  0.0331  0.0974 -0.2294
 2637SOL    HW119547   3.829   2.582   7.450 -0.6504  0.4736 -0.1045
 2637SOL    HW219548   3.889   2.632   7.320 -0.9751  0.7163 -1.5634
 2638SOL     OW19549   1.287   4.257   6.212  0.4547 -0.0305  0.3148
 2638SOL    HW119550   1.254   4.317   6.145  1.4624 -0.5288 -0.6281
 2638SOL    HW219551   1.228   4.291   6.280 -1.5118  0.6429 -1.7040
 2639SOL     OW19552   1.350   1.613   5.032  0.0817 -0.3527  0.6355
 2639SOL    HW119553   1.282   1.561   5.075 -0.9055  0.2131 -0.2443
 2639SOL    HW219554   1.327   1.695   5.075  0.8634  1.5679 -2.6045
 2640SOL     OW19555   3.310   1.468   7.712  0.1120  0.2328  0.4599
 2640SOL    HW119556   3.290   1.443   7.802 -0.6098 -2.1797 -0.3524
 2640SOL    HW219557   3.220   1.477   7.680  0.4649  1.7822 -0.0977
 2641SOL     OW19558   4.219   0.606  14.366 -0.0438 -0.9260  0.4630
 2641SOL    HW119559   4.221   0.535  14.302 -2.3870 -0.8084  0.2590
 2641SOL    HW219560   4.306   0.589  14.401 -0.4510 -1.6987  1.0994
 2642SOL     OW19561   0.037   1.198   3.883  0.3739  0.0520  0.5945
 2642SOL    HW119562   0.111   1.137   3.880 -0.9454 -1.4642 -0.5991
 2642SOL    HW219563   0.078   1.269   3.933 -0.1352  0.9474 -0.2591
 2643SOL     OW19564   0.733   1.977   6.993  0.1952  0.2519  0.3864
 2643SOL    HW119565   0.793   2.051   7.007  0.3051  0.6021 -1.9642
 2643SOL    HW219566   0.777   1.922   6.928 -3.6381 -0.3330 -1.6655
 2644SOL     OW19567   1.674   2.898   5.094 -0.2468 -0.1732  0.8590
 2644SOL    HW119568   1.676   2.994   5.085 -0.0916 -0.2216  0.3663
 2644SOL    HW219569   1.622   2.882   5.173 -0.8614  0.9826  0.6890
 2645SOL     OW19570   0.423   2.908   2.397 -0.2552  0.3550  0.2205
 2645SOL    HW119571   0.471   2.859   2.331 -0.7926  0.0130  0.0862
 2645SOL    HW219572   0.475   2.989   2.391 -0.1300  0.1671 -1.1649
 2646SOL     OW19573   1.591   3.270  10.310 -0.4021 -0.3788  0.0745
 2646SOL    HW119574   1.518   3.208  10.307 -1.1476  0.5221 -0.2244
 2646SOL    HW219575   1.659   3.230  10.256  2.3191  2.6215  1.2648
 2647SOL     OW19576   3.252   3.669   3.409 -0.2574  0.4797  0.1526
 2647SOL    HW119577   3.325   3.640   3.355 -0.2149 -1.2034  1.1136
 2647SOL    HW219578   3.221   3.580   3.425 -0.4894  0.7236  1.1066
 2648SOL     OW19579   4.258   2.383   2.881 -0.3413 -0.7150 -0.3066
 2648SOL    HW119580   4.334   2.399   2.937 -1.4832  2.4996  0.3410
 2648SOL    HW219581   4.213   2.308   2.920  1.9856 -0.1754  3.4377
 2649SOL     OW19582   1.776   0.238  15.108 -0.0688  0.3695 -0.6225
 2649SOL    HW119583   1.710   0.172  15.130 -0.5605  0.7746 -0.8822
 2649SOL    HW219584   1.733   0.323  15.111  0.7059  0.7348 -0.1119
 2650SOL     OW19585   4.126   3.771  11.058 -0.4713 -0.3496 -0.4430
 2650SOL    HW119586   4.131   3.847  10.999  2.2832 -1.7211 -1.9628
 2650SOL    HW219587   4.115   3.700  10.995 -3.7757 -1.2336  1.1520
 2651SOL     OW19588   4.648   0.523   6.950 -0.3706  0.0676  0.4601
 2651SOL    HW119589   4.714   0.585   6.981  0.4544 -0.2666 -0.6342
 2651SOL    HW219590   4.566   0.569   6.964 -1.6988 -2.0914 -0.3104
 2652SOL     OW19591   2.709   0.159   4.824  0.2257 -0.0174  0.2981
 2652SOL    HW119592   2.717   0.071   4.787  1.2110 -0.7844  2.3487
 2652SOL    HW219593   2.802   0.180   4.824  0.4976 -1.2232  0.2279
 2653SOL     OW19594   4.692   1.942  15.016  0.7118  0.2871 -0.7073
 2653SOL    HW119595   0.038   1.919  15.061 -1.2022 -0.3901  2.3613
 2653SOL    HW219596   4.626   1.924  15.082  1.7563  0.2635  0.3431
 2654SOL     OW19597   0.731   2.284   0.212 -0.1154  0.1609 -0.2438
 2654SOL    HW119598   0.812   2.326   0.184  1.3731 -2.0811  0.7216
 2654SOL    HW219599   0.731   2.213   0.147 -1.6921  0.4347 -0.5404
 2655SOL     OW19600   3.169   3.239  17.459 -0.6559  0.0793 -0.4820
 2655SOL    HW119601   3.264   3.228  17.447 -0.6065 -0.0009 -0.0329
 2655SOL    HW219602   3.156   3.334  17.448  1.9870  0.5096  0.0488
 2656SOL     OW19603   1.898   2.609   2.129 -0.6889 -0.3993 -0.0096
 2656SOL    HW119604   1.830   2.667   2.162  1.0227  1.0130  1.0237
 2656SOL    HW219605   1.851   2.526   2.145 -2.1976  0.2383 -1.1647
 2657SOL     OW19606   1.771   4.590   9.300 -0.1365  0.5011  0.5085
 2657SOL    HW119607   1.720   4.590   9.380  2.4973 -1.4333  2.1858
 2657SOL    HW219608   1.718   4.530   9.247  1.2596  0.1296 -0.4760
 2658SOL     OW19609   3.879   0.859  11.562 -0.1357 -0.4080 -0.2703
 2658SOL    HW119610   3.799   0.877  11.512 -0.8733 -0.9650  0.6954
 2658SOL    HW219611   3.927   0.939  11.542  0.2229 -0.6098 -0.1978
 2659SOL     OW19612   0.082   1.382   4.088  0.0761  0.9949  0.0491
 2659SOL    HW119613   4.727   1.384   4.119  0.8095 -0.5434  2.3285
 2659SOL    HW219614   0.111   1.432   4.164 -1.3348  1.7677  0.0723
 2660SOL     OW19615   1.009   0.775   7.918 -0.3365 -0.0537 -0.0289
 2660SOL    HW119616   0.983   0.788   7.827 -0.7337  0.6745  0.1903
 2660SOL    HW219617   0.958   0.849   7.952  1.8518  2.0642 -1.3820
 2661SOL     OW19618   3.474   0.696  17.090 -0.5903  0.1881  0.2995
 2661SOL    HW119619   3.530   0.765  17.124  1.1673 -1.7907  1.4733
 2661SOL    HW219620   3.394   0.748  17.090 -0.0631  0.9791  3.5740
 2662SOL     OW19621   3.029   4.262  10.242  0.1200 -0.3670  0.0635
 2662SOL    HW119622   2.983   4.183  10.214  1.8918 -1.1010 -0.7639
 2662SOL    HW219623   3.119   4.231  10.252 -0.5004 -2.8087 -1.9868
 2663SOL     OW19624   2.765   0.292   4.474 -0.0969 -0.7023 -0.2885
 2663SOL    HW119625   2.736   0.280   4.384 -0.5233  0.1637 -0.2597
 2663SOL    HW219626   2.683   0.299   4.523 -1.6820  2.0783 -3.3783
 2664SOL     OW19627   0.391   0.830   7.234 -0.6066 -0.7062  0.4433
 2664SOL    HW119628   0.403   0.920   7.202  0.2678 -1.4224 -1.2959
 2664SOL    HW219629   0.409   0.831   7.328  1.0262  0.8271  0.1034
 2665SOL     OW19630   4.272   1.769   2.359  0.4858 -0.0756 -0.2024
 2665SOL    HW119631   4.235   1.733   2.279 -1.4222 -1.4306  1.3068
 2665SOL    HW219632   4.313   1.849   2.325 -2.4219  1.5652  0.1384
 2666SOL     OW19633   1.629   1.850  13.917  0.1807 -1.1478  0.4716
 2666SOL    HW119634   1.666   1.782  13.973 -0.1253 -1.8889 -0.2363
 2666SOL    HW219635   1.558   1.795  13.884 -1.0436  0.7926 -0.1233
 2667SOL     OW19636   4.337   2.664  15.316  0.3154  0.2227 -0.6881
 2667SOL    HW119637   4.267   2.690  15.376  1.3044  1.6604 -0.1531
 2667SOL    HW219638   4.367   2.747  15.279 -2.7615  1.3210 -0.6518
 2668SOL     OW19639   2.315   1.998   2.140 -0.0137  0.4616  0.5183
 2668SOL    HW119640   2.299   1.941   2.064 -0.1281 -2.4566  2.7234
 2668SOL    HW219641   2.404   1.979   2.170  0.1093 -0.1503 -0.2338
 2669SOL     OW19642   1.991   4.717   8.851  0.0494 -0.1388 -0.6516
 2669SOL    HW119643   2.030   4.729   8.938 -2.4598  1.1089  0.3032
 2669SOL    HW219644   1.925   0.051   8.841 -0.1903 -0.1616  0.7769
 2670SOL     OW19645   4.504   4.319  12.313 -0.3778  0.1614 -0.5624
 2670SOL    HW119646   4.475   4.288  12.228  0.9451  0.4396 -1.1261
 2670SOL    HW219647   4.530   4.237  12.355 -2.6283 -0.1385  0.2098
 2671SOL     OW19648   4.689   2.390   1.398 -0.4940 -0.4384  0.5747
 2671SOL    HW119649   4.615   2.373   1.341 -0.7277 -1.6399  1.2469
 2671SOL    HW219650   0.011   2.439   1.340  0.9847 -2.7900  0.0568
 2672SOL     OW19651   3.306   2.657  11.811  0.1020 -0.3282  0.6646
 2672SOL    HW119652   3.398   2.632  11.813 -0.1979 -1.3022  2.0230
 2672SOL    HW219653   3.304   2.725  11.743 -1.3333 -0.3162  0.7102
 2673SOL     OW19654   2.139   1.484   6.659 -0.1668  0.3138 -0.4793
 2673SOL    HW119655   2.220   1.444   6.626  1.0146  0.6262  2.0278
 2673SOL    HW219656   2.149   1.578   6.641 -1.8138  0.3918 -0.9217
 2674SOL     OW19657   2.150   0.522   2.442 -0.1926  0.2194  0.4833
 2674SOL    HW119658   2.080   0.461   2.421  0.3497 -0.2937  0.1851
 2674SOL    HW219659   2.226   0.464   2.441 -0.4655 -0.1449  1.5445
 2675SOL     OW19660   0.126   0.592  17.268 -0.2058  0.0377 -0.1957
 2675SOL    HW119661   0.046   0.644  17.275  1.4053  2.5722 -0.7331
 2675SOL    HW219662   0.096   0.514  17.315  2.9844  0.7281  3.0133
 2676SOL     OW19663   4.096   1.477   3.835  0.5830  0.0708  0.5484
 2676SOL    HW119664   4.144   1.406   3.793 -0.9669  0.0664 -1.2349
 2676SOL    HW219665   4.029   1.494   3.768  1.4393  1.9720  0.1746
 2677SOL     OW19666   4.632   3.733  15.511  0.4528  0.6280  0.0495
 2677SOL    HW119667   4.650   3.651  15.465  1.4459 -0.0680  1.6676
 2677SOL    HW219668   4.608   3.695  15.596  0.1317  0.6114 -0.0492
 2678SOL     OW19669   0.331   0.472   0.990  0.4533  0.1883  0.1479
 2678SOL    HW119670   0.410   0.427   0.961  0.7214  0.0271  1.1447
 2678SOL    HW219671   0.272   0.424   0.930  0.4607 -0.5291  0.7111
 2679SOL     OW19672   0.268   4.376  15.206  0.3471  0.5463 -0.2452
 2679SOL    HW119673   0.293   4.348  15.118 -0.3568  1.5512 -0.7651
 2679SOL    HW219674   0.173   4.372  15.212  0.3428 -3.1672 -2.9450
 2680SOL     OW19675   1.601   1.864   1.556  0.2187 -0.6137  0.0522
 2680SOL    HW119676   1.615   1.832   1.466 -1.4348 -0.2087 -0.3423
 2680SOL    HW219677   1.683   1.911   1.570 -0.6839  1.1956 -0.7222
 2681SOL     OW19678   2.017   0.214   2.626 -0.2417  0.3462 -0.0034
 2681SOL    HW119679   1.984   0.270   2.696 -1.6956 -0.7549  0.1648
 2681SOL    HW219680   2.107   0.225   2.659 -0.5219 -0.0814  0.8890
 2682SOL     OW19681   1.935   0.193   3.000  0.2753  0.6366  0.1158
 2682SOL    HW119682   1.908   0.105   3.026  1.4613 -0.3381 -1.9626
 2682SOL    HW219683   1.852   0.205   2.953  0.2940 -1.0588 -0.3645
 2683SOL     OW19684   2.129   2.384   5.279 -0.7605  0.4817 -0.8207
 2683SOL    HW119685   2.219   2.406   5.302 -0.0328 -0.0869 -3.0938
 2683SOL    HW219686   2.142   2.342   5.194 -0.2806 -1.1477  0.0641
 2684SOL     OW19687   3.965   1.985  16.658 -0.9333 -0.1373 -0.3351
 2684SOL    HW119688   3.989   1.896  16.681 -0.0476  0.2795  0.3598
 2684SOL    HW219689   3.869   1.986  16.652 -0.8549  0.8673 -1.4732
 2685SOL     OW19690   2.482   0.830   0.017  0.7576 -0.1281  0.0799
 2685SOL    HW119691   2.495   0.888   0.092 -0.1607 -1.3907  1.2247
 2685SOL    HW219692   2.428   0.759   0.053 -0.1365  0.1299 -0.7396
 2686SOL     OW19693   0.396   1.628   2.638 -0.6053 -0.3340  0.3486
 2686SOL    HW119694   0.357   1.541   2.625 -2.5563  0.6853 -0.5886
 2686SOL    HW219695   0.400   1.654   2.546  1.8979 -0.9337  0.2866
 2687SOL     OW19696   3.222   2.565  14.078  0.8633 -0.5341 -0.5107
 2687SOL    HW119697   3.131   2.586  14.055  0.1028 -1.5293  1.6308
 2687SOL    HW219698   3.233   2.492  14.017 -1.8942 -1.7275  0.3852
 2688SOL     OW19699   3.414   2.858  13.798 -0.6556 -0.2551  0.2383
 2688SOL    HW119700   3.391   2.936  13.849  1.6623  0.7834 -0.2769
 2688SOL    HW219701   3.496   2.834  13.841  0.6265 -0.2400 -2.1715
 2689SOL     OW19702   3.834   0.566   1.714  0.5098 -0.5304  0.0734
 2689SOL    HW119703   3.754   0.608   1.683  0.8313 -0.1621 -0.2523
 2689SOL    HW219704   3.821   0.584   1.807 -0.1700  0.1851 -0.1588
 2690SOL     OW19705   1.364   1.963   5.785  0.2141  0.2741  0.3797
 2690SOL    HW119706   1.383   1.965   5.878  0.5768  1.6720  0.2747
 2690SOL    HW219707   1.359   2.054   5.757  1.5937  0.8787  2.1338
 2691SOL     OW19708   2.128   4.348   4.262  0.1179 -0.1881  0.6410
 2691SOL    HW119709   2.184   4.290   4.209 -0.6923 -1.0673  0.7535
 2691SOL    HW219710   2.158   4.345   4.353 -2.8577 -1.5503  1.5687
 2692SOL     OW19711   0.455   1.664   5.363 -0.6372 -1.0209 -0.1296
 2692SOL    HW119712   0.492   1.579   5.340 -0.8264 -0.9975 -0.5239
 2692SOL    HW219713   0.387   1.639   5.425  0.3505 -1.3765  0.7989
 2693SOL     OW19714   3.897   2.212  17.644 -0.0248 -0.1561 -0.4441
 2693SOL    HW119715   3.980   2.197  17.598  0.0697  0.4677 -0.4836
 2693SOL    HW219716   3.831   2.145  17.626 -0.4243 -0.4551  2.1575
 2694SOL     OW19717   3.471   0.087  10.932  0.2307 -0.2625 -0.0859
 2694SOL    HW119718   3.405   0.019  10.945 -1.0107  1.2553  1.4867
 2694SOL    HW219719   3.440   0.143  11.003  1.4733  0.3497 -0.0265
 2695SOL     OW19720   1.993   1.092  17.071 -0.2532  0.8752  0.3344
 2695SOL    HW119721   2.068   1.033  17.074  0.7458  2.2644  3.3428
 2695SOL    HW219722   2.024   1.170  17.119 -1.3812  0.1571  2.2362
 2696SOL     OW19723   2.512   1.544  12.099  0.0531 -0.3437  0.3962
 2696SOL    HW119724   2.570   1.480  12.057 -2.3396 -1.6509 -0.9379
 2696SOL    HW219725   2.565   1.608  12.146 -1.2089  0.7519  0.3177
 2697SOL     OW19726   1.359   2.287   2.374  0.1878 -0.0948  0.2443
 2697SOL    HW119727   1.377   2.194   2.391 -0.8922 -0.3481  0.0440
 2697SOL    HW219728   1.388   2.288   2.283  0.2038  0.2937  0.2546
 2698SOL     OW19729   3.952   0.851  11.839  0.2410  0.0966 -0.7590
 2698SOL    HW119730   3.994   0.766  11.836  1.0831  0.3895  2.9201
 2698SOL    HW219731   3.940   0.858  11.744 -0.6444 -0.3995 -0.6848
 2699SOL     OW19732   4.359   3.986   3.977  0.4641 -0.2742 -0.3416
 2699SOL    HW119733   4.346   4.074   4.013  0.1155  0.4426 -2.2280
 2699SOL    HW219734   4.433   3.955   4.028  0.6555  1.1629  0.2562
 2700SOL     OW19735   2.977   3.878   8.890 -0.1367 -0.7969 -0.4815
 2700SOL    HW119736   3.024   3.805   8.849  1.3176 -0.0614 -0.1285
 2700SOL    HW219737   3.034   3.952   8.870  0.3013 -1.3406 -1.2538
 2701SOL     OW19738   2.062   1.689   7.002  0.2794 -0.8735 -1.0750
 2701SOL    HW119739   2.147   1.664   6.966  0.8661  0.0554 -0.3152
 2701SOL    HW219740   2.034   1.601   7.028  1.0549 -1.2272 -1.4426
 2702SOL     OW19741   0.812   3.385   1.689 -0.5718  0.3550  0.0825
 2702SOL    HW119742   0.727   3.427   1.674 -0.1096  0.5325 -1.9232
 2702SOL    HW219743   0.819   3.313   1.627 -1.7130 -0.6462  1.0978
 2703SOL     OW19744   0.320   3.420  14.542 -0.0084 -0.1000 -0.6897
 2703SOL    HW119745   0.409   3.387  14.554 -0.8376 -2.0681  0.1678
 2703SOL    HW219746   0.333   3.514  14.545  1.2372 -0.3203  1.3118
 2704SOL     OW19747   1.743   2.795   4.373  0.1837 -0.0726  0.0065
 2704SOL    HW119748   1.727   2.734   4.446 -0.4022 -0.0204 -0.0845
 2704SOL    HW219749   1.680   2.867   4.370  0.5778  0.2277 -0.9593
 2705SOL     OW19750   2.988   0.302   8.273 -0.8159 -0.7781  0.1498
 2705SOL    HW119751   2.921   0.275   8.335  0.3168  0.6547  1.9789
 2705SOL    HW219752   3.059   0.242   8.294 -0.8635 -0.2337  1.7929
 2706SOL     OW19753   1.380   2.483   6.951  0.0514 -0.6484 -0.0487
 2706SOL    HW119754   1.469   2.505   6.980 -0.3231  1.4751 -0.5513
 2706SOL    HW219755   1.401   2.413   6.889  0.1577 -0.8051  0.1605
 2707SOL     OW19756   2.952   1.152   8.833  0.3735  0.4548  0.0273
 2707SOL    HW119757   3.008   1.115   8.765 -3.5200 -0.8132 -2.4859
 2707SOL    HW219758   2.869   1.112   8.806 -0.8625  1.1518  2.7952
 2708SOL     OW19759   4.209   2.737   5.079 -0.0988  0.3353 -0.5020
 2708SOL    HW119760   4.196   2.798   5.007 -0.7527 -1.0848 -1.5727
 2708SOL    HW219761   4.134   2.680   5.062 -1.2738  1.3925  1.1370
 2709SOL     OW19762   2.243   3.277   3.292  0.0614  0.0266  0.6089
 2709SOL    HW119763   2.230   3.372   3.296 -0.4698  0.0357 -0.8594
 2709SOL    HW219764   2.216   3.252   3.380 -0.0677 -1.2188  0.2132
 2710SOL     OW19765   0.158   0.822   1.909  0.1401 -0.2258 -0.4776
 2710SOL    HW119766   0.251   0.821   1.933  0.2824 -1.5168 -1.0746
 2710SOL    HW219767   0.134   0.733   1.934 -0.2438  0.7973  2.7980
 2711SOL     OW19768   2.800   1.925   2.232  0.2826 -0.3191  0.0834
 2711SOL    HW119769   2.809   1.830   2.236 -2.0400 -0.5122  0.7977
 2711SOL    HW219770   2.714   1.933   2.191  0.5951 -0.6654 -0.6420
 2712SOL     OW19771   1.370   4.695   0.335  0.2009 -0.2077  0.6546
 2712SOL    HW119772   1.367   4.628   0.404  0.0320  0.2975  1.1432
 2712SOL    HW219773   1.450   0.005   0.359  0.1982  1.5831 -2.8235
 2713SOL     OW19774   1.825   0.260   1.906 -0.6154 -0.2090 -0.0140
 2713SOL    HW119775   1.812   0.326   1.974 -2.3953  1.2820 -1.7891
 2713SOL    HW219776   1.739   0.218   1.910 -0.8770  0.2152 -1.0773
 2714SOL     OW19777   3.556   2.260  12.362  0.8759  0.4034  0.1940
 2714SOL    HW119778   3.465   2.232  12.347  1.6372  0.5800 -4.8454
 2714SOL    HW219779   3.532   2.343  12.403  1.9023 -0.4479  2.5090
 2715SOL     OW19780   1.373   2.063  17.722 -0.9757 -0.1762 -0.5700
 2715SOL    HW119781   1.400   2.027  17.638 -0.3786 -0.9637 -0.0399
 2715SOL    HW219782   1.456   2.078   0.027 -0.4055  0.2715 -1.7618
 2716SOL     OW19783   1.386   1.441   6.131 -0.6581 -0.1142 -0.1576
 2716SOL    HW119784   1.401   1.448   6.037  1.4886 -1.8914  0.0427
 2716SOL    HW219785   1.360   1.528   6.159  1.2545 -0.5856  3.1458
 2717SOL     OW19786   4.262   0.100   3.266  0.0166 -0.8283 -0.3385
 2717SOL    HW119787   4.312   0.027   3.305  0.7047 -0.2853 -0.2086
 2717SOL    HW219788   4.310   0.168   3.313 -0.3456  0.2722 -1.5917
 2718SOL     OW19789   0.003   0.512   4.258  0.2818 -0.6726 -0.0405
 2718SOL    HW119790   0.007   0.580   4.191  0.5035  0.3715  1.0328
 2718SOL    HW219791   4.646   0.493   4.242 -0.0109  0.3202  0.5160
 2719SOL     OW19792   2.491   3.636   7.126 -0.1462 -0.1838  0.0148
 2719SOL    HW119793   2.433   3.642   7.050 -1.7725 -0.5960  1.2250
 2719SOL    HW219794   2.536   3.720   7.137 -2.5661  1.0336  0.7127
 2720SOL     OW19795   2.422   1.077   6.857  0.0844 -0.3722  0.1610
 2720SOL    HW119796   2.335   1.043   6.877 -0.3647  0.4130 -0.4575
 2720SOL    HW219797   2.419   1.166   6.893  1.1296 -0.6530  0.9650
 2721SOL     OW19798   0.722   1.346   2.913 -0.3073  0.0720  0.0783
 2721SOL    HW119799   0.763   1.325   2.829  0.0676 -0.1069  0.3093
 2721SOL    HW219800   0.645   1.398   2.887  1.3349  0.8448 -3.2916
 2722SOL     OW19801   0.369   1.955   3.939  0.7444 -0.0430  0.1602
 2722SOL    HW119802   0.345   1.915   4.023  2.9057 -2.3012 -0.3052
 2722SOL    HW219803   0.290   1.938   3.888 -0.5537  3.3797  1.0059
 2723SOL     OW19804   3.679   1.434   4.536 -0.2236  0.1775  0.2662
 2723SOL    HW119805   3.682   1.359   4.476 -0.3355 -0.0582  0.5553
 2723SOL    HW219806   3.750   1.422   4.599  0.3596  0.1411 -0.4018
 2724SOL     OW19807   0.282   1.012   2.815  0.1107  0.6360 -0.4095
 2724SOL    HW119808   0.267   0.921   2.790 -1.6132  0.3137  1.7903
 2724SOL    HW219809   0.367   1.031   2.776 -0.9252  3.7069 -1.2255
 2725SOL     OW19810   2.058   3.520   1.873 -0.0357  0.0996 -0.2776
 2725SOL    HW119811   2.007   3.592   1.910 -0.3722 -0.5676  0.5466
 2725SOL    HW219812   1.998   3.499   1.801  0.4116 -0.9978 -0.3135
 2726SOL     OW19813   2.870   2.694  15.673 -0.2118 -0.0461  0.1371
 2726SOL    HW119814   2.912   2.770  15.633 -0.1506  0.6660  1.5308
 2726SOL    HW219815   2.781   2.708  15.640  0.4558 -0.7614 -1.9763
 2727SOL     OW19816   1.038   0.680  16.760  0.9209 -0.9434 -0.5838
 2727SOL    HW119817   0.998   0.707  16.843  0.7378  0.6032 -1.1788
 2727SOL    HW219818   1.010   0.588  16.760 -0.7560 -0.4438  1.3325
 2728SOL     OW19819   4.362   2.213   9.650  0.7749  0.4523 -0.2035
 2728SOL    HW119820   4.314   2.187   9.729  0.4813 -0.8523 -0.8033
 2728SOL    HW219821   4.451   2.201   9.682  0.5972 -0.4018 -0.0350
 2729SOL     OW19822   4.137   1.071   4.978  0.2099 -0.1353 -0.4493
 2729SOL    HW119823   4.201   1.063   5.049 -1.2032  0.7379  0.9063
 2729SOL    HW219824   4.053   1.075   5.024 -1.1510  0.7791 -2.9892
 2730SOL     OW19825   1.364   3.154   7.597  0.1181 -0.0629 -0.0826
 2730SOL    HW119826   1.393   3.239   7.629 -0.2357  1.4668 -3.8753
 2730SOL    HW219827   1.437   3.093   7.609 -0.6969 -0.8669  0.8660
 2731SOL     OW19828   0.798   3.250   7.219 -0.2997  0.2864  0.9056
 2731SOL    HW119829   0.765   3.301   7.292  0.6831 -0.8331  2.1416
 2731SOL    HW219830   0.767   3.288   7.137  1.5599 -1.9925 -0.8584
 2732SOL     OW19831   4.566   0.447   8.970  0.7758  0.4503  0.5800
 2732SOL    HW119832   4.594   0.361   9.002  2.5868  1.2318  1.0931
 2732SOL    HW219833   4.553   0.429   8.877 -0.8586  1.6935  0.5639
 2733SOL     OW19834   4.580   3.434   8.879 -0.3098  0.4628 -0.4568
 2733SOL    HW119835   4.641   3.388   8.822 -1.0438  1.0372 -1.7139
 2733SOL    HW219836   4.497   3.434   8.831 -0.7014 -2.3951  0.2200
 2734SOL     OW19837   4.191   2.371   7.326 -0.0811  0.0678 -0.0487
 2734SOL    HW119838   4.181   2.398   7.235  4.9418 -0.0154 -0.6176
 2734SOL    HW219839   4.176   2.456   7.368  2.3431 -0.1155  1.1770
 2735SOL     OW19840   0.624   3.864   5.423  0.0570 -0.3756  0.3351
 2735SOL    HW119841   0.691   3.823   5.368  0.0397  1.6097 -1.1996
 2735SOL    HW219842   0.567   3.788   5.434  2.9365 -2.4033  1.2549
 2736SOL     OW19843   2.904   4.634  13.849  0.3951 -0.2714  0.1914
 2736SOL    HW119844   2.849   4.661  13.923  0.1087 -4.3275  1.4330
 2736SOL    HW219845   2.980   4.603  13.897  0.2843 -0.3591  0.3099
 2737SOL     OW19846   1.393   4.273   8.843 -0.1421  0.5320 -0.0642
 2737SOL    HW119847   1.432   4.196   8.884 -0.0210  0.5081 -0.2237
 2737SOL    HW219848   1.426   4.261   8.754 -2.8190  2.3509 -1.3060
 2738SOL     OW19849   4.557   4.375   9.846  0.2791 -0.5176 -0.0550
 2738SOL    HW119850   4.650   4.374   9.822  0.1223 -1.1356 -0.6145
 2738SOL    HW219851   4.553   4.421   9.930  0.9746 -3.0270  1.3576
 2739SOL     OW19852   3.776   3.818   9.146  0.4580  0.0286 -0.1017
 2739SOL    HW119853   3.779   3.900   9.195  2.0002  0.3435 -0.7360
 2739SOL    HW219854   3.683   3.802   9.163  0.6457 -0.5258  0.3998
 2740SOL     OW19855   4.121   1.079   8.232  0.3839  0.6319 -0.1195
 2740SOL    HW119856   4.205   1.101   8.271  0.9220 -0.7921 -0.4487
 2740SOL    HW219857   4.124   1.134   8.153  0.7188  0.0671 -0.5009
 2741SOL     OW19858   2.408   2.193   8.791 -0.4264  0.3606  0.0785
 2741SOL    HW119859   2.487   2.228   8.748 -1.2908  1.4868 -0.5907
 2741SOL    HW219860   2.345   2.243   8.739  1.3648  2.4242 -0.1385
 2742SOL     OW19861   0.535   2.600   6.067 -0.4829 -0.0589 -0.2451
 2742SOL    HW119862   0.518   2.668   6.132 -0.6133 -1.2102  0.9280
 2742SOL    HW219863   0.564   2.533   6.130  0.6336 -0.4141 -1.1382
 2743SOL     OW19864   2.277   0.689  15.091 -0.1147 -0.5031  0.3356
 2743SOL    HW119865   2.244   0.605  15.124 -0.1802 -0.3352  0.6998
 2743SOL    HW219866   2.368   0.662  15.085 -0.3338 -0.8067 -1.6434
 2744SOL     OW19867   1.353   3.257   2.376 -0.3019 -1.0986  0.1532
 2744SOL    HW119868   1.378   3.343   2.410  1.4091 -1.2416 -0.7026
 2744SOL    HW219869   1.347   3.208   2.458 -1.7462 -0.0229  0.6909
 2745SOL     OW19870   2.504   3.592   5.862 -0.1575 -0.5160 -0.1086
 2745SOL    HW119871   2.499   3.625   5.773  2.3003 -1.3557 -0.5588
 2745SOL    HW219872   2.427   3.535   5.865  0.0297 -0.7781 -0.3347
 2746SOL     OW19873   0.465   2.985   3.257 -0.3318  0.4775 -0.3918
 2746SOL    HW119874   0.385   2.979   3.203 -0.0020  2.5765 -1.1255
 2746SOL    HW219875   0.499   2.899   3.233 -2.3730 -0.5745  0.4509
 2747SOL     OW19876   0.476   2.364   7.660 -0.2950 -0.2862 -0.2311
 2747SOL    HW119877   0.384   2.360   7.683 -0.0407 -2.0239  0.5330
 2747SOL    HW219878   0.516   2.429   7.717 -0.3930 -0.9874  0.6289
 2748SOL     OW19879   1.685   0.264   5.900 -0.2314 -0.5587  0.2354
 2748SOL    HW119880   1.696   0.292   5.990  3.6840 -2.3781  0.3317
 2748SOL    HW219881   1.776   0.279   5.874 -0.2637 -2.6897 -1.1300
 2749SOL     OW19882   4.068   2.533  12.311  0.6571  0.5110 -0.3495
 2749SOL    HW119883   4.035   2.495  12.393 -0.0158 -1.7709 -1.6639
 2749SOL    HW219884   4.148   2.574  12.344  2.2661 -0.5361 -2.9437
 2750SOL     OW19885   2.680   3.823   2.090  0.8820  0.0871  0.2999
 2750SOL    HW119886   2.691   3.872   2.008 -0.7471 -1.3344 -0.7782
 2750SOL    HW219887   2.686   3.734   2.055 -1.2113  0.1319 -0.1537
 2751SOL     OW19888   4.729   0.886   2.997 -0.4766  0.0785 -0.3293
 2751SOL    HW119889   0.059   0.944   2.958  1.3654 -1.5690  0.3245
 2751SOL    HW219890   0.051   0.812   3.016  0.3303  0.8985  0.4556
 2752SOL     OW19891   1.492   3.961   5.797 -0.2285  0.3148  0.3782
 2752SOL    HW119892   1.505   4.017   5.874 -1.1991  1.8807 -0.5977
 2752SOL    HW219893   1.545   4.013   5.736 -0.6722 -1.0399 -1.1572
 2753SOL     OW19894   3.350   3.314  17.688  0.7134 -0.5394 -0.1403
 2753SOL    HW119895   3.424   3.368  17.714  1.1315 -1.9731  1.6437
 2753SOL    HW219896   3.385   3.272  17.609  2.0216  1.9018 -0.8516
 2754SOL     OW19897   0.271   2.249   6.551 -0.1918  0.0289  0.1747
 2754SOL    HW119898   0.213   2.264   6.626  0.0778 -0.9977  0.5866
 2754SOL    HW219899   0.271   2.154   6.545 -1.3377 -0.0251  1.0095
 2755SOL     OW19900   0.571   0.679   5.762 -0.0917  0.0544  0.1085
 2755SOL    HW119901   0.487   0.686   5.717  0.2924 -2.4047 -0.9713
 2755SOL    HW219902   0.625   0.656   5.686 -0.0291  0.9507 -0.1181
 2756SOL     OW19903   1.471   2.929  13.228 -0.0273  0.1676  0.0844
 2756SOL    HW119904   1.480   3.023  13.212  0.2624 -0.1322 -1.5281
 2756SOL    HW219905   1.556   2.894  13.203  1.0834  1.7326  1.6327
 2757SOL     OW19906   3.599   0.957   2.826 -0.4744  0.2327  0.3618
 2757SOL    HW119907   3.516   0.964   2.874 -1.6742  1.2941 -1.8617
 2757SOL    HW219908   3.659   0.911   2.885  0.8807 -0.3439 -1.4749
 2758SOL     OW19909   3.101   1.660   6.909  0.4454 -0.3004  0.3286
 2758SOL    HW119910   3.021   1.670   6.961  0.1656 -1.9224  0.2009
 2758SOL    HW219911   3.144   1.746   6.914  1.7381 -0.9201 -0.1047
 2759SOL     OW19912   4.531   1.822   2.864 -0.0492  0.1556  0.0619
 2759SOL    HW119913   4.551   1.803   2.955  1.6569  3.5348  0.3864
 2759SOL    HW219914   4.612   1.790   2.825 -1.1859 -0.3818 -1.8752
 2760SOL     OW19915   0.284   1.414   1.618  0.2226  0.2094  0.1671
 2760SOL    HW119916   0.248   1.492   1.660  1.5924  0.0953  1.5866
 2760SOL    HW219917   0.235   1.341   1.653 -0.6840  0.1921 -1.1558
 2761SOL     OW19918   3.957   4.551  14.641 -0.1854  0.0526  0.1553
 2761SOL    HW119919   3.906   4.605  14.581  3.2369  1.3338 -1.6369
 2761SOL    HW219920   4.020   4.509  14.582 -1.3452 -1.9522  0.3609
 2762SOL     OW19921   3.310   3.969   6.320  0.4945  0.1627  0.5098
 2762SOL    HW119922   3.267   3.939   6.240  2.5987 -1.0087 -0.1699
 2762SOL    HW219923   3.252   3.942   6.392 -1.3603  1.2710 -0.5486
 2763SOL     OW19924   3.248   1.719   9.844  0.2074  0.6169  0.2026
 2763SOL    HW119925   3.186   1.663   9.890  1.5940 -0.7094  0.4781
 2763SOL    HW219926   3.202   1.759   9.770 -0.4753 -0.4571  0.0494
 2764SOL     OW19927   3.593   1.188   1.605  0.2932  0.0836  0.5823
 2764SOL    HW119928   3.520   1.170   1.546  1.1327 -1.5446  0.0210
 2764SOL    HW219929   3.559   1.181   1.694 -1.3100  0.9274  0.0334
 2765SOL     OW19930   1.824   0.352   0.768 -0.0368  0.2686  0.5083
 2765SOL    HW119931   1.895   0.344   0.832 -1.4260 -0.7990  1.9174
 2765SOL    HW219932   1.785   0.266   0.783 -1.0432  0.4670 -0.9988
 2766SOL     OW19933   1.050   1.567  10.577  0.4093  0.3896 -0.1617
 2766SOL    HW119934   0.987   1.525  10.635 -0.1107  1.3297 -0.0529
 2766SOL    HW219935   1.124   1.582  10.636  0.7210 -2.9646  0.3446
 2767SOL     OW19936   2.904   1.222   6.497  0.2780  0.1994  0.0164
 2767SOL    HW119937   2.905   1.204   6.403  1.7376 -0.0534  0.0800
 2767SOL    HW219938   2.811   1.219   6.519  0.1497  0.2552 -0.4995
 2768SOL     OW19939   1.841   1.985   4.962  0.0094 -1.0229  0.2095
 2768SOL    HW119940   1.819   2.076   4.979  0.4364 -0.6356 -1.3032
 2768SOL    HW219941   1.755   1.947   4.980  0.3526 -1.7388  0.3357
 2769SOL     OW19942   3.232   3.488   5.473 -0.1997 -0.3101 -0.4664
 2769SOL    HW119943   3.144   3.515   5.448  0.3479  0.6505 -1.4049
 2769SOL    HW219944   3.238   3.532   5.557  1.8468  1.1595 -1.3684
 2770SOL     OW19945   4.382   3.868   2.089  0.0462  0.0074 -0.4294
 2770SOL    HW119946   4.320   3.795   2.083  1.2521 -1.0121 -0.5737
 2770SOL    HW219947   4.348   3.932   2.027  0.5129  2.6921  2.0832
 2771SOL     OW19948   0.771   3.944   8.980  0.0223  0.1573 -0.1979
 2771SOL    HW119949   0.809   4.016   9.030  1.5299  0.4784 -1.7774
 2771SOL    HW219950   0.689   3.985   8.954  0.2201 -0.1760 -1.3484
 2772SOL     OW19951   3.751   2.123  13.004 -0.2937 -0.3694  0.3168
 2772SOL    HW119952   3.748   2.087  13.093 -2.4110 -0.4503  0.2147
 2772SOL    HW219953   3.773   2.215  13.022  0.1271 -0.7739  1.8596
 2773SOL     OW19954   3.148   0.226   3.771 -0.0473 -0.0190  0.2173
 2773SOL    HW119955   3.083   0.247   3.703  0.3855 -1.4873 -0.6653
 2773SOL    HW219956   3.128   0.136   3.796  1.4332 -0.4119 -0.0020
 2774SOL     OW19957   3.853   1.408   6.575  0.3373 -0.0161  0.3349
 2774SOL    HW119958   3.768   1.369   6.554 -0.6159  2.5623 -0.6755
 2774SOL    HW219959   3.830   1.467   6.647  3.2001  1.5501 -0.0523
 2775SOL     OW19960   0.130   2.827   2.213  0.2743  0.2410 -0.2540
 2775SOL    HW119961   0.151   2.832   2.306  1.7600  0.1016 -0.5836
 2775SOL    HW219962   0.192   2.760   2.184 -0.3073 -0.3699 -0.0931
 2776SOL     OW19963   3.667   4.541   2.569  0.2533  0.0029 -0.2701
 2776SOL    HW119964   3.722   4.581   2.501 -1.4381  0.0467 -1.6077
 2776SOL    HW219965   3.730   4.536   2.641  2.5173 -1.2566 -2.3290
 2777SOL     OW19966   3.483   1.164  14.932 -0.1128  0.0760 -0.5134
 2777SOL    HW119967   3.471   1.080  14.978  1.8357 -0.4830 -1.0299
 2777SOL    HW219968   3.390   1.187  14.941  0.2635  1.7774 -1.1159
 2778SOL     OW19969   3.273   0.348   7.707 -0.1720  0.6148  0.2165
 2778SOL    HW119970   3.262   0.366   7.800 -0.3938 -0.6177  0.4278
 2778SOL    HW219971   3.351   0.293   7.703  0.7462  1.9151  0.1492
 2779SOL     OW19972   4.262   4.719   4.557  0.2548  0.0775 -0.2245
 2779SOL    HW119973   4.172   0.008   4.534 -0.0519 -1.4838 -0.6451
 2779SOL    HW219974   4.244   4.649   4.620  2.6111  0.4730  0.8801
 2780SOL     OW19975   2.450   1.350  15.001 -0.1821 -0.1472  0.4613
 2780SOL    HW119976   2.545   1.350  15.015 -0.3561  1.6801  1.5704
 2780SOL    HW219977   2.431   1.257  15.019  0.7511 -0.3658  0.3523
 2781SOL     OW19978   1.062   4.146   8.527  0.1256 -0.0787 -0.2696
 2781SOL    HW119979   1.054   4.134   8.621 -2.5517  2.0130 -0.2293
 2781SOL    HW219980   1.034   4.061   8.494 -0.7239  0.1397 -0.1177
 2782SOL     OW19981   1.632   4.111   9.789 -0.0443  0.2342  0.3867
 2782SOL    HW119982   1.603   4.158   9.867  0.0163 -0.9239  1.1040
 2782SOL    HW219983   1.622   4.021   9.820 -1.0054 -0.3717 -1.6965
 2783SOL     OW19984   2.976   0.704   8.939  0.2115 -0.1451  0.2170
 2783SOL    HW119985   2.912   0.719   8.871  1.6537 -1.6659 -1.4858
 2783SOL    HW219986   3.059   0.732   8.901  0.7053 -1.0153  0.6339
 2784SOL     OW19987   0.355   3.771  11.451  0.1336 -0.4924  0.3075
 2784SOL    HW119988   0.318   3.857  11.466  1.3651  0.5327 -2.5701
 2784SOL    HW219989   0.447   3.789  11.472 -0.2021  0.7067  0.7236
 2785SOL     OW19990   0.496   2.271   6.886 -0.2118 -0.3437  0.5206
 2785SOL    HW119991   0.543   2.311   6.813 -1.2169 -0.7693 -0.3632
 2785SOL    HW219992   0.481   2.180   6.860  1.4424 -0.5917  0.4393
 2786SOL     OW19993   3.542   0.875   9.423 -0.6549 -0.2088  0.0569
 2786SOL    HW119994   3.582   0.902   9.505  1.2508 -2.7414 -0.0483
 2786SOL    HW219995   3.472   0.940   9.415  0.9550  1.5074 -0.1265
 2787SOL     OW19996   1.443   0.227   2.916 -0.3997  0.3865 -0.3350
 2787SOL    HW119997   1.525   0.244   2.963  0.3439  2.5450 -2.3602
 2787SOL    HW219998   1.457   0.280   2.837  1.5810  0.2272 -0.0821
 2788SOL     OW19999   0.484   0.029   2.823 -0.7768 -0.6210  0.0137
 2788SOL    HW120000   0.427   4.688   2.825 -2.5690  0.6660 -2.0333
 2788SOL    HW220001   0.557   4.718   2.781 -0.7411 -0.4326 -0.1346
 2789SOL     OW20002   0.857   2.577   6.075 -0.1609  0.4392 -0.0576
 2789SOL    HW120003   0.860   2.667   6.042 -1.0752  1.4823  2.7354
 2789SOL    HW220004   0.937   2.577   6.128  0.0051 -1.0756 -0.2986
 2790SOL     OW20005   3.739   1.089  12.078  0.2558 -0.3581 -0.0313
 2790SOL    HW120006   3.734   1.165  12.020 -0.7122 -1.8059 -1.8325
 2790SOL    HW220007   3.668   1.033  12.045  0.5907 -0.6578 -0.2360
 2791SOL     OW20008   4.512   4.277   7.707  0.1186 -0.4123  0.1615
 2791SOL    HW120009   4.581   4.250   7.767 -0.8497 -1.4389  0.8213
 2791SOL    HW220010   4.433   4.282   7.761 -0.2466 -4.5901 -0.0274
 2792SOL     OW20011   2.183   1.022   8.640 -0.2573  0.0615  0.2059
 2792SOL    HW120012   2.134   1.057   8.565  2.8136  1.2890 -1.2292
 2792SOL    HW220013   2.118   1.015   8.710  1.0810  3.1778  1.7307
 2793SOL     OW20014   3.164   0.958  14.711  0.2041 -0.0559  0.0342
 2793SOL    HW120015   3.146   0.983  14.621  1.4029  0.3126 -0.1045
 2793SOL    HW220016   3.257   0.938  14.723  0.8469  1.2807 -2.8447
 2794SOL     OW20017   1.138   1.588   5.917 -0.0018 -0.0293  0.0222
 2794SOL    HW120018   1.089   1.559   5.994 -0.1038 -0.4678 -0.2071
 2794SOL    HW220019   1.113   1.679   5.906 -1.4953 -0.4926 -0.4487
 2795SOL     OW20020   2.759   3.755  14.700 -0.4333 -0.1622  0.0980
 2795SOL    HW120021   2.813   3.793  14.631 -0.7521 -2.5051 -1.4349
 2795SOL    HW220022   2.816   3.767  14.776 -0.6478  2.8908 -0.2072
 2796SOL     OW20023   1.152   3.272   8.174  0.0961 -0.2053  0.3981
 2796SOL    HW120024   1.065   3.309   8.160 -1.3483 -2.7704  2.4895
 2796SOL    HW220025   1.170   3.241   8.086 -0.6462 -0.3401  0.2887
 2797SOL     OW20026   1.761   0.271   3.967 -0.2190 -0.3691 -0.2840
 2797SOL    HW120027   1.692   0.241   3.908 -2.2451 -0.1765  1.9791
 2797SOL    HW220028   1.758   0.206   4.038 -2.6600 -0.9858 -0.9540
 2798SOL     OW20029   2.796   3.984  17.298 -0.1034 -0.5106  0.1439
 2798SOL    HW120030   2.709   3.946  17.287  0.3362 -1.3709 -0.4345
 2798SOL    HW220031   2.840   3.977  17.213 -0.4737 -2.1451  0.0861
 2799SOL     OW20032   2.254   4.004   8.926  0.0685  0.4376  0.4435
 2799SOL    HW120033   2.243   3.981   9.018  0.4636 -1.2987  0.0680
 2799SOL    HW220034   2.251   3.918   8.883 -0.2545  0.2677  0.8075
 2800SOL     OW20035   1.290   1.542  11.330  0.1890  0.4284  0.5153
 2800SOL    HW120036   1.289   1.460  11.380  0.6238  0.3246  0.3547
 2800SOL    HW220037   1.201   1.527  11.298 -0.3030  1.2410  1.5301
 2801SOL     OW20038   3.528   0.936   8.519  0.0885  0.3812 -0.6150
 2801SOL    HW120039   3.456   0.982   8.476  1.0956  0.9726 -1.6738
 2801SOL    HW220040   3.594   1.005   8.520  2.2537 -1.7417  1.9611
 2802SOL     OW20041   1.838   2.603   8.502  0.0415  0.7779 -0.3877
 2802SOL    HW120042   1.773   2.601   8.572 -2.2002 -1.8690 -2.5753
 2802SOL    HW220043   1.784   2.594   8.424  0.6117 -0.7932 -0.5876
 2803SOL     OW20044   3.800   3.259   6.097  0.5680 -0.0767 -0.1405
 2803SOL    HW120045   3.888   3.250   6.061  1.6502  1.6592  2.0891
 2803SOL    HW220046   3.785   3.168   6.122  1.9019 -1.4250 -4.1741
 2804SOL     OW20047   1.139   3.770   2.880  0.6977 -0.4247  0.3665
 2804SOL    HW120048   1.067   3.752   2.820 -0.6320  1.0528  1.5096
 2804SOL    HW220049   1.159   3.681   2.910  2.1082 -0.3479 -0.3874
 2805SOL     OW20050   4.408   1.498   3.112  0.1209  0.5066 -0.1029
 2805SOL    HW120051   4.418   1.497   3.017 -0.7579  3.8249 -0.2172
 2805SOL    HW220052   4.469   1.571   3.120 -0.1178  0.7387 -0.3677
 2806SOL     OW20053   0.005   3.800   8.641 -0.0972  0.2227  0.2069
 2806SOL    HW120054   0.017   3.789   8.547 -2.4746 -0.8438  0.0217
 2806SOL    HW220055   0.008   3.895   8.651 -1.9660  0.2787  0.4005
 2807SOL     OW20056   2.715   4.693   5.688 -0.4618  0.2035  0.9883
 2807SOL    HW120057   2.631   4.723   5.722  0.1350  1.9418  0.9466
 2807SOL    HW220058   2.776   0.029   5.710  0.1779  0.2734 -0.9965
 2808SOL     OW20059   2.363   2.238   3.935  0.5730  0.0441 -0.4381
 2808SOL    HW120060   2.282   2.268   3.976  1.0534  0.9056 -0.1092
 2808SOL    HW220061   2.382   2.307   3.871 -1.7282  1.1978  0.1222
 2809SOL     OW20062   0.061   2.551  15.159  0.6412 -0.5139  0.4053
 2809SOL    HW120063   0.038   2.471  15.111  0.0693  0.6389 -1.2114
 2809SOL    HW220064   0.003   2.545  15.234 -0.6671  1.4563 -0.4841
 2810SOL     OW20065   1.420   4.454  17.040  0.5019 -0.9357  0.5272
 2810SOL    HW120066   1.509   4.483  17.062  0.6959 -0.2696 -1.1454
 2810SOL    HW220067   1.415   4.386  17.107 -1.1492 -3.5457 -2.2425
 2811SOL     OW20068   0.761   4.567   0.991 -0.1820 -0.2191 -0.7552
 2811SOL    HW120069   0.705   4.492   1.012 -0.9994  0.3016 -1.0639
 2811SOL    HW220070   0.715   4.593   0.911 -0.6596  0.7163 -0.1704
 2812SOL     OW20071   2.542   3.886   2.310  0.2882  0.4606  0.6709
 2812SOL    HW120072   2.600   3.861   2.238  0.1104 -1.7521  1.3005
 2812SOL    HW220073   2.581   3.971   2.332  1.2922  0.5332 -1.3628
 2813SOL     OW20074   4.681   1.807  10.732  0.2365  0.2233  0.0017
 2813SOL    HW120075   4.595   1.818  10.692 -0.6447 -1.4835  1.4327
 2813SOL    HW220076   4.719   1.739  10.677 -0.7684 -1.7031  1.7273
 2814SOL     OW20077   0.072   1.825   4.218  0.0306  0.6209 -0.2329
 2814SOL    HW120078   0.146   1.885   4.209  0.4078  0.0611 -0.8827
 2814SOL    HW220079   0.021   1.874   4.282 -0.3000  1.3324 -1.0357
 2815SOL     OW20080   2.963   4.346   2.069 -0.1002  0.0375 -0.4118
 2815SOL    HW120081   2.890   4.284   2.072  0.3405 -0.4183  0.6457
 2815SOL    HW220082   3.005   4.333   2.154  1.0402  0.1091 -0.9628
 2816SOL     OW20083   2.290   0.568   9.582 -0.3632 -0.2158  0.0595
 2816SOL    HW120084   2.307   0.611   9.665 -1.1279 -0.2263  0.2216
 2816SOL    HW220085   2.358   0.620   9.539  0.6671 -1.2127  0.4843
 2817SOL     OW20086   3.802   4.640  15.589 -0.3029  0.3971  0.2940
 2817SOL    HW120087   3.772   4.728  15.609 -2.2009 -0.1990  0.1149
 2817SOL    HW220088   3.896   4.650  15.605 -0.0651 -1.3426 -0.0263
 2818SOL     OW20089   1.808   1.802   9.112  0.1636  0.0100  0.1330
 2818SOL    HW120090   1.782   1.806   9.204 -1.7205  0.5017 -0.4354
 2818SOL    HW220091   1.762   1.727   9.073 -0.9156 -1.1582  3.7027
 2819SOL     OW20092   4.007   4.617  13.334 -0.1624  0.2496 -0.4962
 2819SOL    HW120093   3.915   4.593  13.319 -1.1442  2.5016  1.8788
 2819SOL    HW220094   4.006   4.698  13.282  1.9079  1.1759  0.9045
 2820SOL     OW20095   1.868   2.245   8.363 -0.2079 -0.3534  0.5084
 2820SOL    HW120096   1.855   2.293   8.281  0.5378 -0.7653  0.1440
 2820SOL    HW220097   1.776   2.232   8.387 -0.3137  2.4196  1.5473
 2821SOL     OW20098   4.299   1.557  12.932  0.2039  0.1766 -0.4666
 2821SOL    HW120099   4.351   1.584  13.008  0.5076 -1.7792  0.0246
 2821SOL    HW220100   4.223   1.525  12.981  0.7576  0.0163  0.2867
 2822SOL     OW20101   1.441   2.388  16.334 -0.3761  0.1527  0.2698
 2822SOL    HW120102   1.457   2.432  16.417  0.3047 -1.3879  0.9506
 2822SOL    HW220103   1.493   2.447  16.279  1.1795 -0.5693  0.9847
 2823SOL     OW20104   2.310   1.723  12.777 -0.5858  0.0776  0.4840
 2823SOL    HW120105   2.377   1.780  12.815 -1.0704 -0.1504  1.6809
 2823SOL    HW220106   2.279   1.675  12.854  1.4938 -1.5181  0.3309
 2824SOL     OW20107   2.509   3.341   4.419 -0.1189 -0.1220 -0.1963
 2824SOL    HW120108   2.504   3.247   4.437  0.5996  0.1545  1.4374
 2824SOL    HW220109   2.480   3.350   4.328 -0.6989  1.3233  0.1370
 2825SOL     OW20110   2.826   1.401   1.869 -0.4077 -0.0620  0.3488
 2825SOL    HW120111   2.762   1.331   1.871 -1.9830  1.3512 -0.8602
 2825SOL    HW220112   2.886   1.387   1.943 -1.3486 -2.8732  0.5733
 2826SOL     OW20113   0.870   0.698   7.004  0.2982  0.1082  0.3953
 2826SOL    HW120114   0.887   0.758   6.931  3.5191 -0.0992  0.9394
 2826SOL    HW220115   0.796   0.730   7.055 -0.5415  0.3289 -0.9798
 2827SOL     OW20116   1.696   0.111  16.486 -0.3048  0.7284 -0.2553
 2827SOL    HW120117   1.727   0.052  16.418  1.0932  1.4077 -0.2070
 2827SOL    HW220118   1.769   0.173  16.484  1.9164 -1.9142  0.5611
 2828SOL     OW20119   3.770   0.509   2.397  1.1621 -0.0172  0.3634
 2828SOL    HW120120   3.685   0.504   2.441  0.8800  0.4232 -0.1405
 2828SOL    HW220121   3.810   0.444   2.455  1.6678 -1.9573 -2.1957
 2829SOL     OW20122   0.858   3.230   5.599 -0.3804  0.4054 -0.3414
 2829SOL    HW120123   0.933   3.212   5.655 -0.2492  1.2788 -0.2438
 2829SOL    HW220124   0.910   3.262   5.525 -0.0279  0.1884 -0.1876
 2830SOL     OW20125   0.310   1.772   2.871  0.6395 -0.1301  0.0570
 2830SOL    HW120126   0.378   1.753   2.806 -0.0705  0.6208 -0.9059
 2830SOL    HW220127   0.242   1.719   2.831 -1.3529  1.5285  1.2687
 2831SOL     OW20128   2.344   0.652  10.621 -0.3220  0.3665  0.0507
 2831SOL    HW120129   2.341   0.568  10.669 -4.0550  0.5229  0.1050
 2831SOL    HW220130   2.268   0.635  10.565 -0.2873  0.8490 -0.1362
 2832SOL     OW20131   0.501   2.239   9.441 -0.5127 -0.2793 -0.6308
 2832SOL    HW120132   0.526   2.190   9.363  1.0760 -0.3542 -0.0895
 2832SOL    HW220133   0.412   2.206   9.453 -0.3738 -0.3732  0.1836
 2833SOL     OW20134   2.788   3.459   9.150 -0.2104  0.0231 -0.0941
 2833SOL    HW120135   2.801   3.433   9.059  1.7192  1.2573 -0.1625
 2833SOL    HW220136   2.729   3.391   9.183  0.8939 -0.4932  0.8220
 2834SOL     OW20137   1.218   0.632  10.259 -0.1836  0.3056  0.6558
 2834SOL    HW120138   1.229   0.716  10.214 -0.8660 -0.2405 -0.5399
 2834SOL    HW220139   1.124   0.628  10.271 -0.1382  0.0079  0.9150
 2835SOL     OW20140   2.682   2.609   4.403  0.1662 -0.1847 -0.0173
 2835SOL    HW120141   2.725   2.526   4.381 -0.9397 -0.5571 -0.7822
 2835SOL    HW220142   2.606   2.581   4.453  0.8216 -0.7562  0.6646
 2836SOL     OW20143   4.528   2.014   6.710 -0.2835  0.1085  0.0411
 2836SOL    HW120144   4.494   1.945   6.767 -1.9055  2.0234  1.3668
 2836SOL    HW220145   4.614   1.977   6.687 -0.1347 -0.3032  1.2440
 2837SOL     OW20146   3.920   0.589   6.440  0.0855  0.0738 -0.3641
 2837SOL    HW120147   3.838   0.622   6.477  0.9853  2.0335 -0.0782
 2837SOL    HW220148   3.981   0.600   6.513 -0.8593 -1.4156  0.6543
 2838SOL     OW20149   4.294   1.117  14.306  0.4278 -0.9044  0.8278
 2838SOL    HW120150   4.304   1.187  14.242  0.3129 -1.8121 -0.1874
 2838SOL    HW220151   4.208   1.091  14.274  1.4435 -1.8062 -1.1562
 2839SOL     OW20152   3.567   4.328   8.416  0.4579 -0.2690  0.6092
 2839SOL    HW120153   3.633   4.295   8.354 -1.2691 -0.6307 -1.0449
 2839SOL    HW220154   3.512   4.253   8.441 -1.0169  0.2787 -0.9941
 2840SOL     OW20155   0.784   2.056   7.847 -0.0541  0.5927  0.5585
 2840SOL    HW120156   0.702   2.059   7.798 -2.0560  0.8580  3.8896
 2840SOL    HW220157   0.818   2.143   7.829 -3.1304  0.9158 -3.4859
 2841SOL     OW20158   1.168   3.706   8.069 -0.0617 -0.3827  0.3369
 2841SOL    HW120159   1.090   3.652   8.071 -1.2162  1.1679 -2.4365
 2841SOL    HW220160   1.202   3.700   8.158 -2.4798  1.0792  1.3491
 2842SOL     OW20161   2.682   2.835   8.615  0.0022  0.1077 -0.1573
 2842SOL    HW120162   2.682   2.771   8.686 -2.8704 -2.2887 -2.3015
 2842SOL    HW220163   2.615   2.781   8.573  0.7999  0.6430 -2.1292
 2843SOL     OW20164   2.833   2.606  15.927  0.3240  0.2209 -0.2611
 2843SOL    HW120165   2.859   2.628  15.838  2.3175  1.2277  0.5757
 2843SOL    HW220166   2.866   2.679  15.978 -0.4173 -1.7956  3.1326
 2844SOL     OW20167   1.914   0.950  11.275  0.2504  0.2778 -0.1362
 2844SOL    HW120168   1.820   0.962  11.286  0.5891  1.2845  1.6041
 2844SOL    HW220169   1.926   0.968  11.181  2.2539 -0.6702 -0.0751
 2845SOL     OW20170   3.642   3.911  16.817 -0.0682 -0.2400  0.5849
 2845SOL    HW120171   3.618   3.978  16.752  0.0085 -1.2646 -0.4865
 2845SOL    HW220172   3.647   3.828  16.770  1.7857 -0.8788  1.9283
 2846SOL     OW20173   4.541   1.207  17.490 -0.0110 -0.1846 -0.1069
 2846SOL    HW120174   4.566   1.128  17.538  1.7988 -0.4852 -1.5433
 2846SOL    HW220175   4.557   1.177  17.400 -0.0450  0.0978 -0.2051
 2847SOL     OW20176   3.834   2.458   7.067  0.1078  0.3855  0.2885
 2847SOL    HW120177   3.751   2.410   7.071  0.2631  0.1079  0.1042
 2847SOL    HW220178   3.833   2.499   7.154 -2.3356  0.6749  0.1451
 2848SOL     OW20179   2.071   1.966   5.503 -0.5736  0.3488 -0.7122
 2848SOL    HW120180   2.136   1.926   5.562 -0.2622  0.5308 -0.9308
 2848SOL    HW220181   2.137   1.987   5.437  0.9968 -2.7493 -0.1406
 2849SOL     OW20182   0.367   0.709   5.434 -0.1251 -0.4796 -0.2681
 2849SOL    HW120183   0.309   0.755   5.374 -0.0308  1.0332  0.7945
 2849SOL    HW220184   0.371   0.769   5.509  2.1919 -0.3424 -0.4951
 2850SOL     OW20185   2.425   2.345   8.411  0.5872  0.1906  0.3167
 2850SOL    HW120186   2.406   2.284   8.339  0.1893  0.5103  0.1553
 2850SOL    HW220187   2.477   2.408   8.361 -0.5639  1.5887  0.8935
 2851SOL     OW20188   0.542   0.696   3.315 -0.4128  0.5821 -0.4095
 2851SOL    HW120189   0.557   0.744   3.234 -0.1127  1.1142 -0.0435
 2851SOL    HW220190   0.618   0.721   3.368 -0.1175 -0.9018 -0.1482
 2852SOL     OW20191   2.977   3.946   7.014  0.0490  0.0493 -0.3028
 2852SOL    HW120192   2.890   3.977   6.991 -0.6662 -1.7941 -0.1010
 2852SOL    HW220193   3.005   4.017   7.071 -0.1807 -1.1368  1.3052
 2853SOL     OW20194   2.858   1.360  14.449  0.5165  0.0150  0.1079
 2853SOL    HW120195   2.912   1.398  14.518  1.2511  1.4776 -1.2764
 2853SOL    HW220196   2.857   1.266  14.468 -2.2434 -0.3370 -1.7795
 2854SOL     OW20197   3.946   1.624   4.004  0.4831 -0.0964 -0.2061
 2854SOL    HW120198   3.898   1.651   3.926 -1.9159 -3.0436  0.2686
 2854SOL    HW220199   3.996   1.550   3.968 -1.7599 -1.3002 -0.8666
 2855SOL     OW20200   3.250   3.947   5.237 -0.1180 -0.0307 -0.0889
 2855SOL    HW120201   3.201   3.869   5.212  1.8855 -1.2000 -0.3243
 2855SOL    HW220202   3.181   3.977   5.297  0.5546 -0.8644  1.1049
 2856SOL     OW20203   3.580   0.959   4.808 -0.1890  0.2003 -0.3529
 2856SOL    HW120204   3.636   0.896   4.854 -3.0106 -1.5922  0.6160
 2856SOL    HW220205   3.495   0.921   4.829 -0.1342  0.1818 -0.1623
 2857SOL     OW20206   0.574   3.270  15.412 -0.1799  0.6470  0.6770
 2857SOL    HW120207   0.576   3.175  15.422  0.6057  0.4967 -0.9047
 2857SOL    HW220208   0.485   3.295  15.437 -1.0564 -1.0456 -0.7462
 2858SOL     OW20209   1.709   2.057   7.171 -0.3882 -0.2693 -0.2933
 2858SOL    HW120210   1.765   2.124   7.132 -0.3832 -0.5990 -0.8431
 2858SOL    HW220211   1.672   2.008   7.098 -0.3392 -0.5460 -0.1317
 2859SOL     OW20212   0.603   4.013   5.700  0.3595  0.2250 -0.7329
 2859SOL    HW120213   0.604   4.013   5.796 -0.0360  0.3320 -0.7275
 2859SOL    HW220214   0.561   3.927   5.695  2.9228 -1.0704  0.1592
 2860SOL     OW20215   0.126   0.769   4.858  1.1657  0.1981  0.4487
 2860SOL    HW120216   0.169   0.727   4.783  1.2743  0.0210  0.6112
 2860SOL    HW220217   0.111   0.859   4.829 -4.5716 -1.4149 -1.5914
 2861SOL     OW20218   0.254   2.226  14.482 -0.4179 -0.0645 -0.2045
 2861SOL    HW120219   0.326   2.240  14.422 -1.9733 -2.1924 -2.5711
 2861SOL    HW220220   0.184   2.226  14.417  0.4977  1.9700 -1.1679
 2862SOL     OW20221   0.059   3.289  14.554  0.1630  0.1641 -0.2462
 2862SOL    HW120222   0.131   3.311  14.612  0.1196  0.3252 -0.2528
 2862SOL    HW220223   0.094   3.204  14.527 -0.2949  0.0707 -0.5452
 2863SOL     OW20224   4.196   4.471   7.884 -0.5037 -0.0448  0.1049
 2863SOL    HW120225   4.239   4.515   7.958  0.8616 -3.3096  1.2303
 2863SOL    HW220226   4.131   4.541   7.874 -0.5197  0.0052  0.5616
 2864SOL     OW20227   1.587   0.050   6.335 -0.1624 -0.1361 -0.4315
 2864SOL    HW120228   1.565   0.116   6.401 -1.0219 -2.2414  1.3697
 2864SOL    HW220229   1.499   0.020   6.312 -0.5666 -1.2705  2.6236
 2865SOL     OW20230   2.717   1.254   5.583 -0.2417 -0.0189  0.4314
 2865SOL    HW120231   2.648   1.219   5.527 -0.9350  1.5961  0.2995
 2865SOL    HW220232   2.679   1.242   5.670 -0.5789 -1.3592  0.0976
 2866SOL     OW20233   1.522   2.595  16.845  0.1483  0.1910  0.1836
 2866SOL    HW120234   1.463   2.604  16.920 -0.3351 -1.3480 -0.0154
 2866SOL    HW220235   1.598   2.549  16.882 -0.3679 -0.9468 -0.1783
 2867SOL     OW20236   0.384   4.289  13.680 -0.7099  0.3160  0.3019
 2867SOL    HW120237   0.417   4.200  13.668 -1.1881  0.0921  0.6830
 2867SOL    HW220238   0.401   4.296  13.774  1.6091 -3.1514  0.1250
 2868SOL     OW20239   2.595   0.953  12.928  0.4245  0.1954  0.1662
 2868SOL    HW120240   2.595   1.009  12.850  2.8681 -1.1128 -0.7807
 2868SOL    HW220241   2.639   0.870  12.907  1.2959  0.8715 -0.7204
 2869SOL     OW20242   4.440   3.731   6.532  0.4547  0.0842 -0.2794
 2869SOL    HW120243   4.363   3.729   6.474  0.1112  1.5972  0.1272
 2869SOL    HW220244   4.416   3.668   6.600  1.4176  1.0896  0.9963
 2870SOL     OW20245   2.779   3.116   8.891 -0.3054  0.2097 -0.4085
 2870SOL    HW120246   2.805   3.207   8.907 -0.1960  0.1200 -0.0751
 2870SOL    HW220247   2.864   3.073   8.901  0.2982  0.8998 -2.7073
 2871SOL     OW20248   3.239   3.535  12.470 -0.1417 -0.3821  0.0233
 2871SOL    HW120249   3.155   3.493  12.490 -0.6783 -0.5475 -2.6614
 2871SOL    HW220250   3.233   3.631  12.475  1.2230 -0.3025  0.1783
 2872SOL     OW20251   3.350   2.299   4.255 -0.0728 -0.3545  0.4151
 2872SOL    HW120252   3.309   2.287   4.169  0.0683 -2.8151  0.7005
 2872SOL    HW220253   3.428   2.244   4.252 -0.1126 -0.2318 -2.6609
 2873SOL     OW20254   1.404   2.715   6.367 -0.1317  0.5837  0.5402
 2873SOL    HW120255   1.441   2.679   6.287 -0.5343  2.4471 -0.4770
 2873SOL    HW220256   1.395   2.630   6.410 -1.1137 -0.9259 -2.6510
 2874SOL     OW20257   2.938   2.131   6.701 -0.7179  0.3423  0.5834
 2874SOL    HW120258   2.854   2.087   6.693 -0.0087 -1.1835  1.5601
 2874SOL    HW220259   2.971   2.095   6.783 -0.2185  3.4093  1.7375
 2875SOL     OW20260   1.251   2.391  15.311 -0.5706  0.0454 -0.2027
 2875SOL    HW120261   1.234   2.385  15.405  1.8565 -0.9211  0.1792
 2875SOL    HW220262   1.161   2.391  15.278 -0.6017 -0.1716 -0.1206
 2876SOL     OW20263   3.392   2.300   1.294  0.3385  0.5547 -0.1016
 2876SOL    HW120264   3.344   2.219   1.281  0.8737  0.2941 -0.4510
 2876SOL    HW220265   3.448   2.301   1.216  0.3802 -1.1254 -0.0913
 2877SOL     OW20266   4.538   4.307   6.822 -0.1265  0.2785 -0.0209
 2877SOL    HW120267   4.490   4.262   6.752  1.2459  0.4738 -1.0821
 2877SOL    HW220268   4.514   4.248   6.894 -1.1327  0.5245 -0.1535
 2878SOL     OW20269   0.698   0.133   4.102 -0.2101  0.3929 -0.5389
 2878SOL    HW120270   0.675   0.094   4.018 -0.0093  0.6720 -0.7228
 2878SOL    HW220271   0.608   0.140   4.134 -0.1251  0.5337 -0.3287
 2879SOL     OW20272   3.900   2.993   0.148  0.5053 -0.6520  0.0292
 2879SOL    HW120273   3.935   2.943   0.074 -3.3253 -1.7047 -1.0855
 2879SOL    HW220274   3.928   2.933   0.217 -0.1826 -2.2549 -1.0742
 2880SOL     OW20275   4.243   3.231   1.916 -0.2520 -0.2842 -0.2506
 2880SOL    HW120276   4.172   3.265   1.861 -0.8930  0.3529  0.9431
 2880SOL    HW220277   4.247   3.136   1.902  1.1279 -0.1116 -0.9860
 2881SOL     OW20278   4.146   3.006   7.645  0.0292 -0.3121 -0.0167
 2881SOL    HW120279   4.154   2.956   7.726 -0.5292  0.9462  0.7963
 2881SOL    HW220280   4.173   3.087   7.686  2.0719 -0.5695 -0.8465
 2882SOL     OW20281   2.558   3.627   6.241  0.1034  0.1628 -0.2634
 2882SOL    HW120282   2.496   3.681   6.192 -2.3247 -0.1464  2.4422
 2882SOL    HW220283   2.640   3.626   6.192  0.2489 -0.1438 -0.0149
 2883SOL     OW20284   3.899   0.452   5.784 -0.6626  0.5846 -0.0695
 2883SOL    HW120285   3.946   0.371   5.804 -1.1471  0.3848  0.2380
 2883SOL    HW220286   3.941   0.522   5.835  0.1095  0.4856 -0.5614
 2884SOL     OW20287   2.049   0.175  11.364  0.1828  0.4770 -0.4992
 2884SOL    HW120288   2.083   0.085  11.365  0.2724  0.5043 -1.3238
 2884SOL    HW220289   1.955   0.161  11.355  0.1860  0.4551 -0.4992
 2885SOL     OW20290   4.148   1.598   8.595  0.4763  0.8871 -0.1957
 2885SOL    HW120291   4.201   1.665   8.638  0.3218  0.9243 -0.0606
 2885SOL    HW220292   4.213   1.532   8.570 -1.6559 -1.0218 -0.7235
 2886SOL     OW20293   1.152   1.695   5.521  0.4471  0.2308 -0.1161
 2886SOL    HW120294   1.209   1.649   5.582  1.7246  0.3977 -1.1822
 2886SOL    HW220295   1.218   1.762   5.501  0.1011  0.3770 -0.7747
 2887SOL     OW20296   4.512   2.629   2.890 -0.3865  0.1853 -0.1075
 2887SOL    HW120297   4.604   2.617   2.866 -0.6220  0.7814 -1.3207
 2887SOL    HW220298   4.475   2.625   2.802  1.5542 -4.3885 -0.7218
 2888SOL     OW20299   4.305   0.209   3.893  0.3886  0.1537 -0.1473
 2888SOL    HW120300   4.320   0.294   3.850 -2.8856  0.7160 -0.1783
 2888SOL    HW220301   4.255   0.158   3.829 -1.8349  2.0153  0.1040
 2889SOL     OW20302   4.585   2.924   1.806  1.0148 -0.7398 -0.1381
 2889SOL    HW120303   4.591   2.976   1.886 -0.4155 -0.9813  0.1293
 2889SOL    HW220304   4.604   2.838   1.844 -0.2246 -0.9328  0.0501
 2890SOL     OW20305   1.506   1.520   7.004 -0.5907  0.2674  0.3158
 2890SOL    HW120306   1.514   1.499   6.911 -0.1468  2.6995 -0.1891
 2890SOL    HW220307   1.582   1.578   7.012  1.1794 -1.6849 -2.3227
 2891SOL     OW20308   3.795   0.748   2.964  0.3100  0.0758  0.0169
 2891SOL    HW120309   3.766   0.820   3.020 -1.0803 -0.0686 -0.5048
 2891SOL    HW220310   3.890   0.745   2.971  0.4298 -0.2311 -1.7539
 2892SOL     OW20311   3.005   1.424   8.880  0.0223  0.1178 -0.0169
 2892SOL    HW120312   2.910   1.415   8.892 -0.0661 -0.1901 -0.9969
 2892SOL    HW220313   3.019   1.336   8.845  1.4345  1.0709 -1.7889
 2893SOL     OW20314   2.830   3.013  12.438  0.1316 -0.5879  0.2403
 2893SOL    HW120315   2.916   3.026  12.398 -0.8114  1.8089 -1.0313
 2893SOL    HW220316   2.822   2.918  12.448  1.3868 -0.7585 -0.3594
 2894SOL     OW20317   0.973   3.478   8.957 -1.2492 -1.0587  0.2111
 2894SOL    HW120318   0.887   3.491   8.918 -0.4163  1.8817 -0.6511
 2894SOL    HW220319   0.973   3.384   8.970 -1.8285 -1.1953 -0.7529
 2895SOL     OW20320   2.253   0.409   4.894  0.5840 -0.1391  0.2906
 2895SOL    HW120321   2.281   0.318   4.892 -1.1984 -0.6981  0.5534
 2895SOL    HW220322   2.331   0.457   4.922  0.5384  0.2795 -0.2922
 2896SOL     OW20323   4.457   2.574  12.924 -0.5315 -0.3943  0.0566
 2896SOL    HW120324   4.416   2.642  12.871  1.9051  0.8321 -0.2417
 2896SOL    HW220325   4.475   2.513  12.852 -0.4447 -0.6125  0.2618
 2897SOL     OW20326   2.536   1.213   6.217  0.3615  0.3556 -0.1799
 2897SOL    HW120327   2.596   1.146   6.185 -0.4063 -1.0059  1.2629
 2897SOL    HW220328   2.597   1.264   6.270  1.1093  0.3115 -0.9836
 2898SOL     OW20329   0.504   3.567   2.596 -0.5891  0.2130 -0.4739
 2898SOL    HW120330   0.490   3.577   2.690  0.7357  0.8784 -0.3421
 2898SOL    HW220331   0.584   3.519   2.574  0.6593  2.1094 -0.0585
 2899SOL     OW20332   1.798   2.675   2.583  0.2643  0.3090 -0.4248
 2899SOL    HW120333   1.737   2.735   2.541 -0.2199  0.3222  0.2980
 2899SOL    HW220334   1.765   2.587   2.566  1.4939 -0.4989  1.4147
 2900SOL     OW20335   1.755   0.834   1.635 -0.2864 -0.6850  0.2937
 2900SOL    HW120336   1.745   0.841   1.540 -1.8406 -0.9513  0.4335
 2900SOL    HW220337   1.777   0.924   1.659  0.4050 -1.1885  1.5448
 2901SOL     OW20338   2.172   1.409   8.476  0.1224  0.4352  0.7212
 2901SOL    HW120339   2.145   1.397   8.567  0.3507  0.7032  0.8244
 2901SOL    HW220340   2.266   1.389   8.478 -0.3783 -1.5834  3.3467
 2902SOL     OW20341   2.661   1.567   1.325  0.1362 -0.0757  0.1562
 2902SOL    HW120342   2.582   1.531   1.285  0.1519 -0.4622  0.4848
 2902SOL    HW220343   2.714   1.495   1.359 -2.8471 -1.6597  1.3704
 2903SOL     OW20344   4.532   1.253   5.193 -0.2357 -0.0747 -0.1774
 2903SOL    HW120345   4.492   1.177   5.234 -2.1071 -0.1480 -2.1129
 2903SOL    HW220346   4.516   1.321   5.258  0.1341  0.3306 -0.5084
 2904SOL     OW20347   3.378   0.991  11.342 -0.6753  0.2421  0.5188
 2904SOL    HW120348   3.375   1.074  11.388 -1.7376  1.3951 -1.6294
 2904SOL    HW220349   3.328   1.002  11.261  0.0937 -0.3850 -0.0468
 2905SOL     OW20350   1.511   4.679   6.648 -0.1466 -0.2549  0.4522
 2905SOL    HW120351   1.571   4.680   6.722 -0.0734  0.4661  0.3908
 2905SOL    HW220352   1.505   0.036   6.624 -2.0816 -1.1025 -2.3202
 2906SOL     OW20353   1.878   4.497   6.250 -0.0893 -0.0561  0.2087
 2906SOL    HW120354   1.950   4.436   6.238 -0.4982 -0.7939  1.4607
 2906SOL    HW220355   1.867   4.496   6.345  0.6572  0.6703  0.2999
 2907SOL     OW20356   3.537   3.100   6.332 -0.2398 -0.4121 -0.3454
 2907SOL    HW120357   3.546   3.120   6.425  0.7720  1.7509 -0.9258
 2907SOL    HW220358   3.521   3.187   6.296 -0.9795  0.1032  1.2305
 2908SOL     OW20359   2.254   4.117   7.379 -0.6493  0.2694  0.3119
 2908SOL    HW120360   2.273   4.137   7.471 -0.2021 -0.5504  0.3927
 2908SOL    HW220361   2.336   4.072   7.359  0.1349  1.8093  0.0684
 2909SOL     OW20362   0.022   2.521   2.784 -0.2966 -0.2956 -0.2069
 2909SOL    HW120363   0.098   2.489   2.833  0.2052 -1.4451 -1.7696
 2909SOL    HW220364   4.704   2.444   2.764  0.2505 -0.3870 -1.2793
 2910SOL     OW20365   1.590   4.548   8.602 -0.0861 -0.9263 -0.0926
 2910SOL    HW120366   1.527   4.585   8.540  2.0556  1.3163 -0.9379
 2910SOL    HW220367   1.538   4.545   8.682  0.6604  2.7577  0.4993
 2911SOL     OW20368   1.331   1.730   1.866 -0.9029 -0.3186 -0.1712
 2911SOL    HW120369   1.389   1.655   1.883 -0.8392 -0.1300  0.4540
 2911SOL    HW220370   1.286   1.698   1.788 -3.0588 -1.4375  1.5032
 2912SOL     OW20371   2.208   1.436  14.943 -0.4880  0.2578  0.2736
 2912SOL    HW120372   2.303   1.425  14.945 -0.6880 -1.4267  0.2610
 2912SOL    HW220373   2.182   1.394  14.861  1.6227 -0.3885 -0.0502
 2913SOL     OW20374   0.342   2.845   7.893  0.1002  0.0543 -0.0488
 2913SOL    HW120375   0.249   2.855   7.869 -0.3473 -1.0000  1.2553
 2913SOL    HW220376   0.362   2.932   7.928  3.8679 -0.8978  0.1529
 2914SOL     OW20377   0.329   3.883  12.353 -0.7239 -0.1541  0.0860
 2914SOL    HW120378   0.280   3.939  12.413  0.2400  2.2445 -1.3791
 2914SOL    HW220379   0.390   3.844  12.417  0.7696  1.4080 -0.3726
 2915SOL     OW20380   3.941   1.660   7.128  0.3024 -0.2140  0.4027
 2915SOL    HW120381   4.029   1.640   7.161 -0.0019 -0.5564  1.0096
 2915SOL    HW220382   3.926   1.744   7.171 -0.3784 -0.1139 -0.0286
 2916SOL     OW20383   0.341   1.659   1.823  0.2557 -0.2402 -0.5183
 2916SOL    HW120384   0.254   1.624   1.805 -0.0618  0.7502 -0.8743
 2916SOL    HW220385   0.329   1.750   1.797  4.1659 -0.2316 -2.3893
 2917SOL     OW20386   4.653   2.106  12.057  0.1076  0.1652 -0.2054
 2917SOL    HW120387   4.592   2.105  12.131 -1.3508  0.7141 -1.3941
 2917SOL    HW220388   4.583   2.075  12.000 -0.2492  3.1154 -1.3598
 2918SOL     OW20389   1.938   1.231   2.932  0.5922  0.5373 -0.2941
 2918SOL    HW120390   1.945   1.289   3.008  0.6113  1.9183 -1.3724
 2918SOL    HW220391   2.010   1.172   2.955 -1.5157 -1.5631  0.9481
 2919SOL     OW20392   0.519   4.732   6.094 -0.2397  0.0167 -0.1978
 2919SOL    HW120393   0.442   4.675   6.104  0.2259 -1.1362 -3.2581
 2919SOL    HW220394   0.482   0.081   6.118 -1.2843 -0.8780  1.3789
 2920SOL     OW20395   1.811   3.551   5.393  0.0949 -0.1152  0.2730
 2920SOL    HW120396   1.892   3.600   5.379 -0.1858  0.2953  0.0836
 2920SOL    HW220397   1.743   3.612   5.363  0.0222  0.6817  2.0687
 2921SOL     OW20398   0.701   4.417   5.407 -0.0525  0.1490  0.1178
 2921SOL    HW120399   0.790   4.391   5.384 -0.3162 -0.6899  0.0510
 2921SOL    HW220400   0.658   4.331   5.405  1.7630 -0.7673  0.7049
 2922SOL     OW20401   2.941   2.679   3.494  0.1486  0.1433  0.0936
 2922SOL    HW120402   2.859   2.678   3.544  0.1815  3.0218  0.2337
 2922SOL    HW220403   3.008   2.634   3.544  0.0255 -1.1731 -0.9462
 2923SOL     OW20404   4.072   2.592   8.794  0.9166  0.2477 -0.1765
 2923SOL    HW120405   4.069   2.667   8.855  0.4973 -0.0226  0.1331
 2923SOL    HW220406   3.984   2.555   8.791  1.7098 -1.6818  0.6162
 2924SOL     OW20407   3.280   3.753   4.556  0.2070 -0.4867  0.0782
 2924SOL    HW120408   3.214   3.738   4.487 -0.4952  0.9691  0.4368
 2924SOL    HW220409   3.232   3.717   4.631 -1.8056  2.4345  0.1897
 2925SOL     OW20410   3.292   0.084   8.018 -0.3199 -0.3007 -0.5659
 2925SOL    HW120411   3.306   0.045   7.931  1.4562  0.0363 -0.4472
 2925SOL    HW220412   3.384   0.093   8.045 -0.5343  1.3059 -0.3779
 2926SOL     OW20413   3.314   3.807   2.375 -0.4248 -0.2128 -0.0441
 2926SOL    HW120414   3.311   3.778   2.466 -1.4767  2.1829  0.6841
 2926SOL    HW220415   3.331   3.727   2.326  1.6373  0.7662 -0.9395
 2927SOL     OW20416   4.594   3.920   6.274  0.2969 -0.3000 -0.2626
 2927SOL    HW120417   4.566   3.892   6.362 -1.0386  2.0185  0.0603
 2927SOL    HW220418   4.649   3.990   6.309 -1.4156  0.7610  0.3150
 2928SOL     OW20419   3.097   0.322   7.050 -0.7239 -0.4349  0.3223
 2928SOL    HW120420   3.145   0.322   6.967 -0.4383  3.7979  0.4965
 2928SOL    HW220421   3.058   0.410   7.044 -0.9942 -0.3496  3.5316
 2929SOL     OW20422   1.287   1.697   8.249 -0.7161  0.0125  0.4521
 2929SOL    HW120423   1.350   1.664   8.313 -0.5196  0.1384  0.3243
 2929SOL    HW220424   1.316   1.640   8.178  1.0925  0.5858  0.7368
 2930SOL     OW20425   3.833   4.386  15.746 -0.7491  0.3962  0.6747
 2930SOL    HW120426   3.827   4.469  15.699  2.7423 -0.3906 -1.1821
 2930SOL    HW220427   3.757   4.400  15.803 -0.6667 -2.7132  1.5596
 2931SOL     OW20428   3.030   3.769   8.076  0.1247 -0.3079 -0.2301
 2931SOL    HW120429   3.059   3.860   8.074 -1.8540  0.3489  1.3257
 2931SOL    HW220430   3.017   3.755   7.982  2.2924  1.8190 -0.8473
 2932SOL     OW20431   1.975   3.807   6.282  0.1885 -0.3223 -0.3493
 2932SOL    HW120432   1.944   3.868   6.350 -0.3765  0.9042 -1.7141
 2932SOL    HW220433   2.027   3.741   6.328  0.9390  0.1371 -0.5439
 2933SOL     OW20434   0.916   1.773   0.051  0.3883  0.0082 -0.1177
 2933SOL    HW120435   0.938   1.769  17.698  0.4433  0.2193 -0.1146
 2933SOL    HW220436   0.967   1.702   0.089  1.6886  0.2956 -1.3267
 2934SOL     OW20437   1.038   0.208   9.991  0.4494  0.4812 -0.0629
 2934SOL    HW120438   1.067   0.224  10.081  0.2830  0.9312 -0.0866
 2934SOL    HW220439   0.972   0.141  10.008 -1.2913  1.7051 -1.9621
 2935SOL     OW20440   3.369   2.513   2.567 -0.3043 -0.2899 -0.4337
 2935SOL    HW120441   3.285   2.468   2.567 -0.2701 -0.3487  0.3049
 2935SOL    HW220442   3.434   2.452   2.532  0.2532  0.5113 -0.8001
 2936SOL     OW20443   2.451   3.336   9.616 -0.1429  0.1268  0.1320
 2936SOL    HW120444   2.472   3.245   9.594 -0.1839 -0.0299  0.7371
 2936SOL    HW220445   2.502   3.379   9.547  0.0981 -3.2541 -1.7853
 2937SOL     OW20446   1.747   2.466   6.501  0.1444  0.5005 -0.8045
 2937SOL    HW120447   1.790   2.429   6.424  2.2996  0.6908  0.2994
 2937SOL    HW220448   1.658   2.430   6.495  0.1306  0.6422 -1.4905
 2938SOL     OW20449   4.157   0.286  16.804  0.1992 -0.0115  0.6691
 2938SOL    HW120450   4.248   0.300  16.778 -0.3615 -0.0265 -1.3082
 2938SOL    HW220451   4.104   0.312  16.728  1.0871  3.6438  1.2893
 2939SOL     OW20452   2.412   1.456   6.573  0.0263 -0.0781  0.4014
 2939SOL    HW120453   2.468   1.524   6.536  2.4496 -2.5331 -0.4313
 2939SOL    HW220454   2.436   1.462   6.666 -1.3629 -0.8378  0.8049
 2940SOL     OW20455   2.000   0.325   2.336 -0.5435 -0.0180  0.4325
 2940SOL    HW120456   2.005   0.252   2.274 -1.7611  1.0984 -0.9707
 2940SOL    HW220457   1.963   0.275   2.409 -1.3154  1.8128  1.2871
 2941SOL     OW20458   4.618   3.599  10.872  0.1098 -0.0861 -0.4949
 2941SOL    HW120459   4.581   3.539  10.806  1.6083 -0.9272 -0.5655
 2941SOL    HW220460   4.541   3.642  10.910 -1.7979 -2.5378 -1.5288
 2942SOL     OW20461   4.117   3.216   5.648 -0.4267  0.0433 -0.6252
 2942SOL    HW120462   4.058   3.150   5.687 -1.6765  0.6360 -1.5148
 2942SOL    HW220463   4.199   3.193   5.692 -0.3277  1.7634  0.0826
 2943SOL     OW20464   2.830   3.710   6.407 -0.4736 -0.2610  0.5278
 2943SOL    HW120465   2.858   3.626   6.370 -2.9812 -0.5489 -0.7659
 2943SOL    HW220466   2.821   3.763   6.328  1.9047 -1.1531 -0.3182
 2944SOL     OW20467   3.059   4.152   0.656 -0.1311  0.3477 -0.1455
 2944SOL    HW120468   3.014   4.214   0.713  0.3088 -0.0996  0.6919
 2944SOL    HW220469   3.139   4.138   0.707 -0.0800  1.8349  0.1955
 2945SOL     OW20470   0.940   4.302   1.981 -0.7618  0.6678  0.3624
 2945SOL    HW120471   0.958   4.310   1.887  1.6221 -1.5136  0.6512
 2945SOL    HW220472   1.025   4.298   2.024 -1.8019  2.4971  2.5970
 2946SOL     OW20473   2.454   1.050  16.505 -0.6616 -0.0971 -0.2685
 2946SOL    HW120474   2.453   1.063  16.410  1.0619  1.0773 -0.1304
 2946SOL    HW220475   2.502   1.130  16.524 -1.7551 -0.0352  2.1665
 2947SOL     OW20476   0.128   2.096   4.667  0.2530 -0.3474  0.0627
 2947SOL    HW120477   0.127   2.121   4.575  1.3338  0.2637  0.2285
 2947SOL    HW220478   0.099   2.176   4.710  0.3999 -0.1603 -0.1871
 2948SOL     OW20479   2.797   2.329  14.826 -0.0651 -0.6475  0.0315
 2948SOL    HW120480   2.834   2.406  14.871  1.3008 -1.0867 -0.3274
 2948SOL    HW220481   2.869   2.267  14.835  1.9650  1.3710 -2.2173
 2949SOL     OW20482   1.030   2.536   3.996  0.2092  0.2978  0.7298
 2949SOL    HW120483   1.054   2.602   3.931 -1.1199 -0.0460 -0.1112
 2949SOL    HW220484   1.098   2.547   4.062  1.6554 -0.1012 -0.6877
 2950SOL     OW20485   0.416   2.115   3.585 -0.1420 -0.5499 -0.6961
 2950SOL    HW120486   0.502   2.097   3.624 -0.7692  1.6555  1.7080
 2950SOL    HW220487   0.367   2.038   3.616  0.9578 -0.7697  0.5352
 2951SOL     OW20488   1.585   0.994  11.222 -0.2276 -0.4744 -0.0871
 2951SOL    HW120489   1.592   1.000  11.318 -1.0375  1.3266 -0.1289
 2951SOL    HW220490   1.507   0.942  11.205  0.7022 -1.1545 -2.3026
 2952SOL     OW20491   0.747   4.384   2.161  0.9551 -0.6228  0.6170
 2952SOL    HW120492   0.753   4.445   2.087 -0.7836  0.1243  1.0913
 2952SOL    HW220493   0.822   4.328   2.140  0.7829 -0.0478 -1.5417
 2953SOL     OW20494   3.732   1.096  16.157 -0.6360  0.5115  0.6041
 2953SOL    HW120495   3.723   1.122  16.249  1.3482 -1.0754  1.2392
 2953SOL    HW220496   3.749   1.180  16.116  0.1577 -0.8083 -1.7529
 2954SOL     OW20497   1.880   2.804   4.907 -0.0405  0.2449  0.6163
 2954SOL    HW120498   1.797   2.800   4.953  0.3573  3.2790  1.5539
 2954SOL    HW220499   1.911   2.713   4.907 -0.6806  0.0232 -0.4979
 2955SOL     OW20500   1.602   2.226   7.521  0.2449 -0.1549  0.3281
 2955SOL    HW120501   1.538   2.165   7.559  0.4594  0.1706  1.2021
 2955SOL    HW220502   1.677   2.213   7.579  2.7344  0.7666 -2.6828
 2956SOL     OW20503   2.160   2.381   3.447  0.2947 -0.4258 -0.0791
 2956SOL    HW120504   2.245   2.340   3.430 -0.0131 -0.8683 -0.5450
 2956SOL    HW220505   2.100   2.308   3.436  1.7481 -2.0542  2.8968
 2957SOL     OW20506   4.615   0.263  11.971 -0.0551  0.4881  0.3960
 2957SOL    HW120507   4.590   0.351  12.000 -1.7575 -0.5182  1.9707
 2957SOL    HW220508   4.611   0.214  12.053  0.6541  1.4698  1.0081
 2958SOL     OW20509   2.528   2.259   6.774 -0.1784 -0.7557 -0.2887
 2958SOL    HW120510   2.486   2.221   6.851  1.8645  0.6682  1.5077
 2958SOL    HW220511   2.598   2.306   6.819  1.1714 -1.2817 -1.8254
 2959SOL     OW20512   3.528   3.451  16.012 -0.1005 -0.5236 -0.0451
 2959SOL    HW120513   3.563   3.369  15.977  0.5351 -1.0690  1.8508
 2959SOL    HW220514   3.612   3.486  16.042 -1.5211  0.9960  2.1581
 2960SOL     OW20515   2.647   3.481  14.525 -0.4827  0.6011 -0.0872
 2960SOL    HW120516   2.595   3.533  14.463 -1.3709 -1.4873 -1.0956
 2960SOL    HW220517   2.731   3.523  14.505 -0.1068 -0.2488 -0.2570
 2961SOL     OW20518   4.493   1.025   5.418  0.4944  0.1067  0.4530
 2961SOL    HW120519   4.425   1.089   5.438  0.0471 -0.3861  0.4974
 2961SOL    HW220520   4.447   0.956   5.371 -0.2967  0.5522  0.5752
 2962SOL     OW20521   1.909   4.391  16.203 -0.8602 -0.6706 -0.3993
 2962SOL    HW120522   1.865   4.328  16.260  1.5781 -1.2396  0.8337
 2962SOL    HW220523   1.844   4.448  16.162  0.6439  0.5278 -1.1022
 2963SOL     OW20524   2.015   3.297   1.322 -0.2477  0.2460  0.1687
 2963SOL    HW120525   2.059   3.271   1.402 -1.1933 -0.4638  0.4544
 2963SOL    HW220526   2.059   3.373   1.283  0.6557  0.7294  2.1695
 2964SOL     OW20527   1.264   1.122  11.832 -0.7628  0.5170  0.2079
 2964SOL    HW120528   1.179   1.164  11.843 -1.3505 -0.8060  0.7225
 2964SOL    HW220529   1.255   1.085  11.744 -0.1792 -0.6905  0.6427
 2965SOL     OW20530   3.737   0.138   2.830  0.4120  0.1361 -0.3587
 2965SOL    HW120531   3.674   0.167   2.764 -1.4418 -0.7799  0.9962
 2965SOL    HW220532   3.784   0.218   2.852  0.3591 -0.0849  0.5335
 2966SOL     OW20533   0.854   1.318   2.082  0.0535  0.0810 -0.3299
 2966SOL    HW120534   0.773   1.290   2.123  0.7568 -1.3884  0.0461
 2966SOL    HW220535   0.902   1.237   2.066 -0.9936 -0.4761 -0.5775
 2967SOL     OW20536   3.371   0.186  12.202 -0.1871  0.2155  0.1189
 2967SOL    HW120537   3.331   0.139  12.129 -0.5953 -1.6288  1.5310
 2967SOL    HW220538   3.378   0.111  12.261  0.4469  0.3893  0.2728
 2968SOL     OW20539   0.321   1.397   8.549 -0.1115  0.6333 -0.1003
 2968SOL    HW120540   0.346   1.371   8.461  0.4782  1.4151 -0.1706
 2968SOL    HW220541   0.229   1.372   8.555 -0.7121  2.4587 -2.0664
 2969SOL     OW20542   4.416   4.655   3.423  0.2563  0.5497 -0.3554
 2969SOL    HW120543   4.488   4.695   3.375  3.2154 -2.5062  1.5190
 2969SOL    HW220544   4.454   4.579   3.468 -0.9016 -0.5779 -1.3001
 2970SOL     OW20545   1.472   2.974  12.322  0.3024  0.1945 -0.1308
 2970SOL    HW120546   1.552   2.987  12.373  1.0042 -4.4601 -0.0357
 2970SOL    HW220547   1.461   3.065  12.294 -1.8553  0.4263  1.4746
 2971SOL     OW20548   0.001   2.030   2.435  0.1103  0.0807  0.1912
 2971SOL    HW120549   4.654   2.024   2.483  0.0490 -1.1477 -0.0674
 2971SOL    HW220550   0.059   2.022   2.510 -0.8052  0.0218  0.8845
 2972SOL     OW20551   4.080   2.732   9.101 -0.6344  0.2346 -0.5217
 2972SOL    HW120552   4.027   2.759   9.176 -3.1314  0.3226 -2.3084
 2972SOL    HW220553   4.067   2.818   9.060 -0.1910 -0.6235 -2.4425
 2973SOL     OW20554   4.190   4.164   5.946 -0.0682  0.3569  0.0418
 2973SOL    HW120555   4.183   4.149   6.041  1.4808  0.5053  0.1851
 2973SOL    HW220556   4.213   4.257   5.941  2.0058 -0.0820  1.4404
 2974SOL     OW20557   2.996   3.107   6.976 -0.4077  0.6806 -0.0753
 2974SOL    HW120558   3.000   3.196   7.012 -2.3821  1.2920 -1.3336
 2974SOL    HW220559   3.089   3.086   6.977 -0.3386  0.9803 -0.5959
 2975SOL     OW20560   3.692   2.040   4.820 -0.3760  0.3090  0.3137
 2975SOL    HW120561   3.706   2.116   4.763  0.9025 -0.4279 -0.3586
 2975SOL    HW220562   3.709   1.973   4.754 -2.1568 -1.7442  1.9474
 2976SOL     OW20563   2.800   0.196   8.401 -0.1853  0.6899 -1.1002
 2976SOL    HW120564   2.775   0.190   8.493  2.4194 -0.4246 -0.4728
 2976SOL    HW220565   2.773   0.109   8.370 -0.8976  0.1856  0.9693
 2977SOL     OW20566   0.997   2.857   6.726 -0.0861  0.1806  0.0956
 2977SOL    HW120567   1.076   2.811   6.696  0.9752  0.8770  1.8010
 2977SOL    HW220568   1.009   2.866   6.821  0.3408  1.8427 -0.1105
 2978SOL     OW20569   0.567   2.375   5.477  0.2241  0.6061 -0.2515
 2978SOL    HW120570   0.478   2.343   5.491  0.5722 -1.8075 -3.5951
 2978SOL    HW220571   0.604   2.365   5.565 -0.1522  1.0006 -0.0455
 2979SOL     OW20572   2.702   3.360  11.395  0.0926 -0.0272 -0.3168
 2979SOL    HW120573   2.638   3.361  11.466  0.2886 -0.9504 -0.1263
 2979SOL    HW220574   2.791   3.353  11.431  0.8895  2.3590 -1.8029
 2980SOL     OW20575   4.545   1.780  16.530 -0.5457 -0.7280  0.1315
 2980SOL    HW120576   4.454   1.809  16.519 -0.2032  0.2513 -0.0896
 2980SOL    HW220577   4.553   1.730  16.449  0.7986 -0.9222  0.3935
 2981SOL     OW20578   0.457   0.629  16.565  0.0085 -0.1075 -0.1368
 2981SOL    HW120579   0.419   0.543  16.582  0.4474 -0.2996 -0.1399
 2981SOL    HW220580   0.382   0.679  16.533  1.2742  0.2835 -2.4910
 2982SOL     OW20581   4.494   1.724  15.929  0.1424 -0.5899 -0.1561
 2982SOL    HW120582   4.415   1.698  15.882  0.5966 -1.8280 -0.2216
 2982SOL    HW220583   4.559   1.710  15.862 -0.5755  1.5327 -1.3063
 2983SOL     OW20584   1.340   3.800   0.943  0.4835  0.0028  0.1099
 2983SOL    HW120585   1.395   3.840   1.010  1.1234  1.1072 -1.0768
 2983SOL    HW220586   1.263   3.856   0.950  0.9531  0.5097  1.2086
 2984SOL     OW20587   3.260   4.440   2.399 -0.0062  1.0183 -0.0185
 2984SOL    HW120588   3.248   4.347   2.378  0.2975  0.3722  2.5775
 2984SOL    HW220589   3.244   4.483   2.315  0.3654  1.4470  0.1291
 2985SOL     OW20590   0.263   1.355   2.591  0.4454  0.7950  0.2064
 2985SOL    HW120591   0.322   1.353   2.516  1.1584  0.1271  0.7764
 2985SOL    HW220592   0.177   1.362   2.551  0.2569  0.9368  0.6300
 2986SOL     OW20593   2.518   0.552  15.580  0.2517 -0.2066 -0.9739
 2986SOL    HW120594   2.538   0.546  15.486  0.3130 -0.4470 -0.9454
 2986SOL    HW220595   2.587   0.604  15.620  0.6768 -0.9140 -0.7885
 2987SOL     OW20596   2.642   1.441   2.216 -0.0558 -0.5478  0.0766
 2987SOL    HW120597   2.695   1.365   2.240  0.1378 -1.2654 -2.6593
 2987SOL    HW220598   2.570   1.404   2.165 -0.5823  0.5923  0.0004
 2988SOL     OW20599   1.965   2.309  10.718 -0.4071  0.1528  0.4881
 2988SOL    HW120600   1.877   2.345  10.706 -0.2282  0.8190  1.1929
 2988SOL    HW220601   1.960   2.216  10.698  0.3085  0.4422 -1.0703
 2989SOL     OW20602   4.010   2.544   0.315 -0.0684  0.4541  0.1519
 2989SOL    HW120603   3.969   2.521   0.232 -0.8301 -1.4598  1.0324
 2989SOL    HW220604   4.102   2.532   0.294 -0.6498 -0.0333 -2.0661
 2990SOL     OW20605   4.053   3.252  15.185 -0.0632 -0.4190  0.2192
 2990SOL    HW120606   3.995   3.190  15.230  0.1366 -1.2223 -0.6343
 2990SOL    HW220607   4.056   3.320  15.252 -1.6614 -0.7606  0.6414
 2991SOL     OW20608   2.426   1.423   2.048 -0.6482  0.6514 -0.0767
 2991SOL    HW120609   2.391   1.363   1.982  2.5114 -1.2477 -0.0047
 2991SOL    HW220610   2.358   1.418   2.116  1.4064  1.5140  2.0421
 2992SOL     OW20611   3.339   2.149   1.999  0.1955 -0.3605  0.4501
 2992SOL    HW120612   3.285   2.148   2.078 -0.0139  0.2508  0.3122
 2992SOL    HW220613   3.314   2.228   1.951  2.0841  0.4517  0.8356
 2993SOL     OW20614   3.614   2.585   1.176  0.0708 -0.1811 -0.0338
 2993SOL    HW120615   3.683   2.628   1.227  0.2498  0.1752 -0.5829
 2993SOL    HW220616   3.544   2.650   1.185 -0.4033 -0.7152  0.1776
 2994SOL     OW20617   2.620   3.808   8.965 -0.0995  0.8354 -0.0100
 2994SOL    HW120618   2.576   3.809   9.050  2.1679 -2.1951  1.1624
 2994SOL    HW220619   2.564   3.747   8.918  1.4715 -0.2656 -0.4512
 2995SOL     OW20620   3.797   2.875   2.785 -0.3532  0.1421 -0.0229
 2995SOL    HW120621   3.886   2.905   2.764 -0.3935  0.6218  0.4837
 2995SOL    HW220622   3.775   2.832   2.702 -4.0090 -0.1016  1.1011
 2996SOL     OW20623   4.171   0.131   4.966 -0.0650  0.4803 -0.0800
 2996SOL    HW120624   4.244   0.090   5.010 -1.2608 -0.1472  1.3145
 2996SOL    HW220625   4.142   0.069   4.899 -4.6593  3.6705 -1.0651
 2997SOL     OW20626   2.073   0.392   8.748 -0.2982  0.2477 -0.1192
 2997SOL    HW120627   2.080   0.378   8.842  1.9062  2.0006 -0.0228
 2997SOL    HW220628   1.992   0.349   8.721 -0.9903  1.9544 -0.7484
 2998SOL     OW20629   2.754   3.907  15.902 -0.0936  0.5888 -0.0284
 2998SOL    HW120630   2.737   3.926  15.810  0.3806  1.5970  0.0978
 2998SOL    HW220631   2.796   3.821  15.898  2.3928  1.7661  0.7863
 2999SOL     OW20632   3.164   3.749   0.257  0.5013 -0.4694 -0.1213
 2999SOL    HW120633   3.205   3.795   0.330  0.5960 -1.2970  0.3444
 2999SOL    HW220634   3.149   3.818   0.192  1.2256  0.0998  0.3251
 3000SOL     OW20635   0.018   3.000   6.001  0.5125 -0.0213  0.8027
 3000SOL    HW120636   0.107   3.034   6.004 -0.5101  2.8166 -0.4211
 3000SOL    HW220637   0.029   2.906   5.993 -0.6654 -0.1938  1.2212
 3001SOL     OW20638   1.014   2.341   8.150  0.1483  0.3478 -0.3802
 3001SOL    HW120639   0.951   2.270   8.166  0.0694 -0.0025 -2.3002
 3001SOL    HW220640   1.084   2.293   8.106 -1.0908 -2.1418  0.3423
 3002SOL     OW20641   0.938   4.327   0.677  0.9162 -0.2103 -0.2048
 3002SOL    HW120642   0.960   4.400   0.735 -0.5938 -1.8286  2.4050
 3002SOL    HW220643   1.019   4.310   0.628  1.3686 -0.3697  0.6058
 3003SOL     OW20644   0.359   0.951   3.990 -0.4171  0.1123 -0.0634
 3003SOL    HW120645   0.283   0.913   3.946 -1.7566  1.4401  1.1351
 3003SOL    HW220646   0.346   1.041   3.960  1.3020  0.4195  0.1145
 3004SOL     OW20647   4.272   4.169   2.031  0.2697 -0.4370 -0.3005
 3004SOL    HW120648   4.217   4.135   1.960 -0.3352 -0.3458  0.1271
 3004SOL    HW220649   4.228   4.151   2.114  1.8280  1.2918  0.9105
 3005SOL     OW20650   1.947   0.483  17.405 -0.0452 -0.0417 -0.1258
 3005SOL    HW120651   1.892   0.433  17.345  2.2994 -1.6896 -0.9220
 3005SOL    HW220652   1.877   0.518  17.459 -1.1334 -1.4859 -0.6119
 3006SOL     OW20653   4.385   2.247   3.125 -0.5056 -0.2393 -0.4248
 3006SOL    HW120654   4.415   2.166   3.165  0.9423 -0.2778 -1.5477
 3006SOL    HW220655   4.453   2.303   3.163  0.3426 -0.8615 -1.0277
 3007SOL     OW20656   0.667   1.044   3.465 -0.3707  0.0309 -0.4773
 3007SOL    HW120657   0.576   1.040   3.436 -0.2974 -1.2583 -0.5338
 3007SOL    HW220658   0.653   1.026   3.558  1.4309  0.0245 -0.2108
 3008SOL     OW20659   2.110   2.202   4.765 -0.3938 -0.2208 -0.3421
 3008SOL    HW120660   2.193   2.243   4.743 -0.5814  0.7667  0.7967
 3008SOL    HW220661   2.101   2.147   4.687  2.0396  0.3443 -1.0004
 3009SOL     OW20662   3.558   3.147  11.609 -0.2659  0.5170  0.0741
 3009SOL    HW120663   3.581   3.235  11.638 -1.6119  0.3395  1.6650
 3009SOL    HW220664   3.578   3.151  11.516 -1.3868  1.8447 -0.1083
 3010SOL     OW20665   2.868   3.998  10.499 -0.3585  0.3023 -0.4435
 3010SOL    HW120666   2.822   4.081  10.487  0.0477  0.0968 -3.5164
 3010SOL    HW220667   2.961   4.007  10.479  0.3139  0.8080  3.0354
 3011SOL     OW20668   4.201   3.772  13.958 -0.3489  0.6729  0.3525
 3011SOL    HW120669   4.163   3.741  13.875 -0.6643 -1.4454  1.3107
 3011SOL    HW220670   4.271   3.710  13.974 -0.9133  0.7955  3.2805
 3012SOL     OW20671   0.288   3.573   3.507  0.1022 -0.5849 -0.2271
 3012SOL    HW120672   0.218   3.508   3.501  1.4514 -1.9982 -0.4886
 3012SOL    HW220673   0.239   3.654   3.526  1.2664  0.0116  0.2468
 3013SOL     OW20674   0.199   1.145   3.519  0.2920 -0.3629  0.6894
 3013SOL    HW120675   0.131   1.081   3.497  2.0345 -1.6340 -1.0483
 3013SOL    HW220676   0.150   1.226   3.532  0.0772 -0.2624 -0.7847
 3014SOL     OW20677   2.098   3.112  13.594  0.7814 -0.3640  0.3809
 3014SOL    HW120678   2.113   3.205  13.610  3.2542 -0.7825  0.4813
 3014SOL    HW220679   2.185   3.085  13.625  1.4571  1.2224 -0.1408
 3015SOL     OW20680   4.484   2.933  10.512  0.5295  0.1180 -0.2916
 3015SOL    HW120681   4.391   2.908  10.503  0.9047 -1.4031  0.0552
 3015SOL    HW220682   4.480   3.020  10.472  2.3330 -0.4272 -1.6502
 3016SOL     OW20683   3.300   2.081   4.436  0.4053 -0.3242 -0.0031
 3016SOL    HW120684   3.304   2.154   4.375 -1.7540 -1.3904 -1.4498
 3016SOL    HW220685   3.366   2.016   4.412  0.8259  1.0660 -2.5912
 3017SOL     OW20686   0.616   2.374  11.310  0.0468 -0.0904  0.5567
 3017SOL    HW120687   0.599   2.468  11.311  2.2162  0.3026 -0.5225
 3017SOL    HW220688   0.552   2.343  11.375 -0.9082  2.0938  0.6563
 3018SOL     OW20689   2.599   4.287   3.213  0.2280 -0.1831  0.0065
 3018SOL    HW120690   2.559   4.248   3.290  1.1428  0.4415  0.8003
 3018SOL    HW220691   2.619   4.203   3.172  0.0819 -0.0158 -0.4139
 3019SOL     OW20692   4.017   3.616  15.120 -0.1421  0.5135 -0.0891
 3019SOL    HW120693   3.963   3.671  15.064  0.5658 -0.0577 -1.3365
 3019SOL    HW220694   4.082   3.566  15.070 -0.7329 -0.7269  0.3754
 3020SOL     OW20695   4.051   2.323   2.650 -0.3996  0.0216 -0.1948
 3020SOL    HW120696   4.048   2.255   2.718 -1.1012  0.2769  0.0361
 3020SOL    HW220697   3.967   2.367   2.667  0.1799  0.4768  1.4920
 3021SOL     OW20698   1.499   0.400   8.944 -0.1379  0.3361 -0.0909
 3021SOL    HW120699   1.541   0.316   8.958  1.7196  1.5927  1.8108
 3021SOL    HW220700   1.538   0.459   9.009 -1.8942 -2.4586  3.4708
 3022SOL     OW20701   0.607   3.048   4.972 -0.3430  0.0487 -0.8004
 3022SOL    HW120702   0.546   2.980   4.998  0.9685 -0.2916  1.4005
 3022SOL    HW220703   0.551   3.120   5.002  0.6070  0.5449 -0.1843
 3023SOL     OW20704   4.444   1.020   8.442 -0.4180  0.4029 -0.2403
 3023SOL    HW120705   4.442   0.975   8.527 -0.2964  0.7416 -0.0562
 3023SOL    HW220706   4.451   1.108   8.478  0.4560  0.1910  0.1344
 3024SOL     OW20707   1.958   0.460  15.034 -0.5038 -0.5418 -0.4216
 3024SOL    HW120708   2.006   0.468  15.117  0.3581 -1.1415 -0.8592
 3024SOL    HW220709   1.905   0.382  15.048 -0.3697 -0.9308 -2.0386
 3025SOL     OW20710   0.206   2.540   5.374 -0.3806 -0.6591  0.4236
 3025SOL    HW120711   0.294   2.542   5.336 -1.0061 -0.6931 -1.0050
 3025SOL    HW220712   0.147   2.522   5.301 -0.5457 -2.2375  0.9313
 3026SOL     OW20713   1.103   1.898   7.263  0.4544 -0.1644  0.3743
 3026SOL    HW120714   1.192   1.872   7.285  1.1772  0.1199 -2.2646
 3026SOL    HW220715   1.044   1.846   7.317  0.3853 -0.0113  0.4478
 3027SOL     OW20716   0.547   2.382   1.339  0.3794  0.1906  0.4813
 3027SOL    HW120717   0.495   2.446   1.290 -2.7188 -2.3625  0.4595
 3027SOL    HW220718   0.503   2.298   1.327 -0.6334  0.6362  1.0242
 3028SOL     OW20719   0.677   0.196   2.599 -0.9315 -0.1082  0.4687
 3028SOL    HW120720   0.757   0.209   2.649 -0.4119 -0.4290 -0.2689
 3028SOL    HW220721   0.677   0.100   2.597  2.5361 -0.0497 -1.8330
 3029SOL     OW20722   4.573   3.611   5.347  0.5476  0.3782 -0.6133
 3029SOL    HW120723   4.588   3.671   5.420 -0.4624  0.5517 -0.5529
 3029SOL    HW220724   4.637   3.544   5.371 -0.7874 -0.6224  0.1533
 3030SOL     OW20725   4.102   4.290   1.625 -0.2196  0.1007 -0.2784
 3030SOL    HW120726   4.172   4.231   1.653 -1.9667 -1.2878  1.1351
 3030SOL    HW220727   4.150   4.330   1.553 -1.3629 -0.3938 -1.3221
 3031SOL     OW20728   1.040   1.908   1.310 -0.2205  0.5645 -0.3209
 3031SOL    HW120729   1.112   1.845   1.303 -0.6997 -0.1459  1.0483
 3031SOL    HW220730   0.975   1.858   1.360  1.4283 -1.8107 -0.5204
 3032SOL     OW20731   4.031   1.013  12.025  0.4220  0.2371  0.0042
 3032SOL    HW120732   3.945   1.047  12.048  1.2232  1.9027  0.6231
 3032SOL    HW220733   4.012   0.952  11.954  0.7909  0.3553 -0.1988
 3033SOL     OW20734   2.868   1.036  13.991  0.1351 -0.4026  0.0500
 3033SOL    HW120735   2.849   1.034  13.897 -2.8275  1.6942  0.6205
 3033SOL    HW220736   2.792   0.994  14.031 -0.1187  1.0351  1.0763
 3034SOL     OW20737   2.720   3.971   9.244  0.0711 -0.3028  0.4060
 3034SOL    HW120738   2.751   3.882   9.261  0.5098 -0.0539  0.9192
 3034SOL    HW220739   2.628   3.946   9.237  0.4170 -1.4383 -0.0882
 3035SOL     OW20740   1.068   2.168   9.193 -0.3095 -0.2329 -0.1329
 3035SOL    HW120741   1.073   2.250   9.145  3.6317 -1.4173 -1.7435
 3035SOL    HW220742   0.978   2.146   9.216 -0.4974  1.0946  0.4270
 3036SOL     OW20743   3.993   2.542   5.000  0.2321 -0.8133  0.5832
 3036SOL    HW120744   3.929   2.472   4.987 -0.8865  0.4745 -0.8129
 3036SOL    HW220745   3.937   2.615   4.971 -0.4556 -0.9961  1.4499
 3037SOL     OW20746   0.611   3.203   4.319 -0.0267 -0.2242  0.1852
 3037SOL    HW120747   0.588   3.226   4.229  0.0665  0.2977  0.2950
 3037SOL    HW220748   0.522   3.193   4.352  0.3369  1.1964  1.6199
 3038SOL     OW20749   2.457   3.788   6.053 -0.2051 -0.4947 -0.4791
 3038SOL    HW120750   2.494   3.738   5.979 -0.8998 -0.1479 -1.0586
 3038SOL    HW220751   2.368   3.800   6.020 -0.7577 -1.4811  0.6683
 3039SOL     OW20752   1.670   0.646  13.091 -0.5659  0.5600  0.4874
 3039SOL    HW120753   1.723   0.719  13.058  0.3921  0.3897  1.6394
 3039SOL    HW220754   1.690   0.591  13.015  2.7286  1.3654  0.7816
 3040SOL     OW20755   4.400   0.065  16.510 -0.9773 -0.1863 -0.3763
 3040SOL    HW120756   4.346   4.724  16.530 -0.1443 -0.8690 -0.7647
 3040SOL    HW220757   4.479   0.050  16.562 -0.2228  3.2240 -0.5836
 3041SOL     OW20758   3.472   3.550   8.355 -0.5005 -0.1860  0.0139
 3041SOL    HW120759   3.470   3.459   8.385  0.0570  0.3179  1.5767
 3041SOL    HW220760   3.421   3.538   8.275  0.4296  1.3423 -0.8190
 3042SOL     OW20761   3.914   4.408   8.112 -0.2754  0.1553 -0.2613
 3042SOL    HW120762   3.901   4.382   8.021 -0.4479  1.0200 -0.4810
 3042SOL    HW220763   3.946   4.495   8.088  0.0948 -0.2743 -1.3103
 3043SOL     OW20764   0.778   2.811   6.591 -0.2599  0.1961 -0.2360
 3043SOL    HW120765   0.740   2.751   6.655 -1.0313 -1.1668 -1.9688
 3043SOL    HW220766   0.861   2.840   6.630  0.0127  0.2555 -0.8715
 3044SOL     OW20767   2.190   1.533  10.103  0.4411 -0.0934 -0.1182
 3044SOL    HW120768   2.194   1.585  10.023 -1.3904  1.5557  0.8529
 3044SOL    HW220769   2.152   1.594  10.167  0.0301  0.3254 -0.7600
 3045SOL     OW20770   2.944   0.546   6.626  0.3104 -0.1031 -0.1755
 3045SOL    HW120771   3.008   0.483   6.595  0.7728 -0.6397  1.9036
 3045SOL    HW220772   2.857   0.510   6.610  1.0062 -0.8406 -2.2131
 3046SOL     OW20773   0.430   2.333   8.528  0.7020 -0.6631  0.3700
 3046SOL    HW120774   0.434   2.416   8.481 -4.5843 -0.9105 -0.5808
 3046SOL    HW220775   0.348   2.348   8.575 -0.1519 -1.7832 -0.7725
 3047SOL     OW20776   3.013   2.479   8.694  0.3712 -0.0135  0.2217
 3047SOL    HW120777   3.020   2.547   8.761  1.1863 -1.1639  1.3085
 3047SOL    HW220778   3.091   2.427   8.715  1.9970  2.1237 -0.5233
 3048SOL     OW20779   3.094   2.224   3.785  0.5823 -0.0308  0.5171
 3048SOL    HW120780   3.069   2.145   3.736  0.3827 -1.1918  2.4795
 3048SOL    HW220781   3.102   2.289   3.715 -1.3852 -0.1633  0.1613
 3049SOL     OW20782   2.721   4.289   3.598 -0.1570  0.2541 -0.3125
 3049SOL    HW120783   2.735   4.379   3.571  1.5775  0.1959  0.3817
 3049SOL    HW220784   2.730   4.296   3.693 -0.4993  1.1524 -0.3513
 3050SOL     OW20785   1.023   0.815   1.328 -0.0169  0.2076  0.3573
 3050SOL    HW120786   1.117   0.794   1.327 -0.2908 -0.8002 -1.9987
 3050SOL    HW220787   1.001   0.847   1.241 -0.2281  1.7987  0.9851
 3051SOL     OW20788   0.235   3.947   4.201  0.1758  0.0660 -0.7575
 3051SOL    HW120789   0.155   3.930   4.251  0.4818  0.5218 -0.1247
 3051SOL    HW220790   0.236   4.042   4.203  2.3041  0.0125  0.3838
 3052SOL     OW20791   3.146   2.066  15.155 -0.1153 -0.1710 -0.0402
 3052SOL    HW120792   3.124   2.035  15.243 -5.2219  0.4572 -1.1215
 3052SOL    HW220793   3.241   2.056  15.157 -0.2678 -1.8287 -1.3731
 3053SOL     OW20794   3.012   1.647  17.706 -0.0680  0.2443 -0.4763
 3053SOL    HW120795   2.957   1.575  17.674  1.8302 -0.9038 -1.1248
 3053SOL    HW220796   2.981   1.701  17.633  4.6075 -0.4909 -2.9810
 3054SOL     OW20797   1.933   3.668   4.233  0.0878 -0.6022 -1.1718
 3054SOL    HW120798   1.991   3.618   4.176  0.3321 -1.1959 -0.4026
 3054SOL    HW220799   1.884   3.602   4.282  2.0107  0.0737  1.6496
 3055SOL     OW20800   0.525   1.144   2.756  0.4184 -0.0131 -0.4883
 3055SOL    HW120801   0.539   1.237   2.741 -0.9804  0.5979  1.9403
 3055SOL    HW220802   0.532   1.098   2.673  1.3779  1.2157 -1.0839
 3056SOL     OW20803   2.847   2.247   0.342  0.3595 -0.2568 -0.7552
 3056SOL    HW120804   2.755   2.253   0.316  0.0622  0.1045  0.3819
 3056SOL    HW220805   2.887   2.201   0.268 -0.6628 -1.1957 -0.7110
 3057SOL     OW20806   3.008   3.907   4.837 -0.2245 -0.5922 -0.1898
 3057SOL    HW120807   3.049   3.972   4.779 -1.3444  2.1841  2.1371
 3057SOL    HW220808   2.916   3.910   4.810 -0.6880  0.0992  1.5117
 3058SOL     OW20809   3.406   0.282  15.731 -0.3311  0.1807  0.2419
 3058SOL    HW120810   3.444   0.303  15.646  0.0410 -2.0328 -0.1321
 3058SOL    HW220811   3.461   0.319  15.800  1.0060 -2.3727  0.5391
 3059SOL     OW20812   1.823   0.606   2.592 -0.3178 -0.1709  0.4972
 3059SOL    HW120813   1.879   0.572   2.661  0.5306  1.4942  0.6262
 3059SOL    HW220814   1.755   0.649   2.644 -0.5481 -0.2187  0.2347
 3060SOL     OW20815   2.398   2.571   1.887  0.1428 -0.3476  0.2199
 3060SOL    HW120816   2.403   2.584   1.981 -0.3630  2.0797 -0.0882
 3060SOL    HW220817   2.487   2.592   1.861  0.2135 -0.7718  0.1327
 3061SOL     OW20818   0.385   1.952   6.251  0.4763 -0.3285 -0.0445
 3061SOL    HW120819   0.413   2.041   6.231 -1.6960 -0.0262 -1.7536
 3061SOL    HW220820   0.412   1.910   6.169  0.4645  1.7415 -1.1335
 3062SOL     OW20821   2.195   1.246  17.191  0.1204  0.0864  0.3190
 3062SOL    HW120822   2.267   1.264  17.130 -0.3937 -0.8144 -0.5611
 3062SOL    HW220823   2.244   1.175  17.233  0.4696  1.4826  2.2337
 3063SOL     OW20824   4.473   2.947  11.503  0.6259  0.1032  0.0186
 3063SOL    HW120825   4.469   2.878  11.437  0.3157 -1.6575  1.8937
 3063SOL    HW220826   4.567   2.964  11.501  0.7014 -0.3459 -0.0962
 3064SOL     OW20827   1.103   2.450   9.102  0.5438 -0.2337 -0.6672
 3064SOL    HW120828   1.087   2.424   9.011  0.7373  0.6602 -0.9676
 3064SOL    HW220829   1.024   2.498   9.128  0.8134  0.6237 -1.3962
 3065SOL     OW20830   2.944   2.297  16.323  0.3336 -0.1556 -0.0560
 3065SOL    HW120831   3.001   2.325  16.394 -0.1142  0.5381  0.0311
 3065SOL    HW220832   2.855   2.303  16.357 -0.2826 -0.7872 -1.5430
 3066SOL     OW20833   2.629   4.026  12.136 -0.7879  0.3248 -0.0718
 3066SOL    HW120834   2.690   4.065  12.199 -0.9101  1.6628 -0.7780
 3066SOL    HW220835   2.559   4.090  12.153 -1.2128 -0.4137  0.9669
 3067SOL     OW20836   1.152   3.164  16.713  0.3356  0.0305 -0.0190
 3067SOL    HW120837   1.222   3.196  16.656  1.4931 -3.6857 -0.6221
 3067SOL    HW220838   1.191   3.162  16.800 -0.3562 -0.3677  0.2814
 3068SOL     OW20839   0.803   0.286  16.129 -1.0000 -0.2636  0.0579
 3068SOL    HW120840   0.823   0.197  16.099  2.0089  1.3130 -2.6460
 3068SOL    HW220841   0.717   0.301  16.090  0.0072  2.1841 -1.2475
 3069SOL     OW20842   2.827   1.131  10.012  0.7502  0.3219 -0.5102
 3069SOL    HW120843   2.883   1.206   9.991  0.8107 -0.0561 -1.7158
 3069SOL    HW220844   2.886   1.077  10.064 -2.2306 -1.3463  1.1368
 3070SOL     OW20845   1.861   3.243   3.092 -0.3372  1.1008  0.1289
 3070SOL    HW120846   1.848   3.286   3.176  1.3883  0.4335  0.7465
 3070SOL    HW220847   1.948   3.204   3.106 -1.1006 -0.1884  1.2778
 3071SOL     OW20848   4.674   1.481   7.525 -0.6828 -0.1513 -0.8711
 3071SOL    HW120849   0.011   1.465   7.465 -1.4803  1.2214 -2.2049
 3071SOL    HW220850   4.629   1.546   7.470 -1.6799 -0.6251 -0.6185
 3072SOL     OW20851   2.062   3.820  10.922 -0.3908 -0.2756  0.8637
 3072SOL    HW120852   2.118   3.858  10.855  0.4870 -2.3977  0.4050
 3072SOL    HW220853   2.089   3.728  10.918 -0.5580 -0.2762 -0.1838
 3073SOL     OW20854   1.919   2.115  13.096  0.2595 -0.8264 -0.0790
 3073SOL    HW120855   1.942   2.077  13.011  2.2702  0.4510 -0.0912
 3073SOL    HW220856   1.896   2.033  13.139  0.1445 -0.5584  0.3749
 3074SOL     OW20857   3.614   1.625   1.377  0.5074  0.0522  0.0505
 3074SOL    HW120858   3.644   1.543   1.338  1.0862  0.0718  0.4605
 3074SOL    HW220859   3.694   1.663   1.413  0.1580  0.0408  0.8383
 3075SOL     OW20860   4.569   4.551  12.169 -0.3522  0.1276  0.4483
 3075SOL    HW120861   4.504   4.606  12.214 -1.0871 -1.0509  0.8239
 3075SOL    HW220862   4.597   4.494  12.241  3.0054  0.8157 -0.3109
 3076SOL     OW20863   4.719   4.333   6.608 -0.1626  0.7980 -0.3468
 3076SOL    HW120864   0.044   4.289   6.669 -1.9807 -2.1057 -0.6206
 3076SOL    HW220865   4.639   4.324   6.660  0.5165  1.0326  0.7564
 3077SOL     OW20866   1.527   0.730   1.789  0.4411 -0.2281 -0.1195
 3077SOL    HW120867   1.455   0.682   1.748  0.2220  0.3622 -0.4306
 3077SOL    HW220868   1.570   0.762   1.709  1.4066  1.5106  1.1001
 3078SOL     OW20869   1.646   2.341   2.780 -0.1187 -0.1686 -0.0223
 3078SOL    HW120870   1.621   2.286   2.855 -0.2389 -1.5172 -1.0471
 3078SOL    HW220871   1.741   2.344   2.771  0.1190 -2.2680  1.5778
 3079SOL     OW20872   0.491   2.923   1.084 -0.4607  0.0150  0.2998
 3079SOL    HW120873   0.421   2.888   1.139  0.4287  1.6273  2.4678
 3079SOL    HW220874   0.463   2.884   1.001  0.5153 -1.2743  0.5614
 3080SOL     OW20875   0.428   0.567   4.094  0.3588  0.2134  0.2885
 3080SOL    HW120876   0.473   0.623   4.030  0.2964 -1.3550 -1.1346
 3080SOL    HW220877   0.362   0.518   4.045 -0.9072  1.7997  0.3847
 3081SOL     OW20878   3.092   2.869   8.105  0.1556  0.2495 -0.5386
 3081SOL    HW120879   3.182   2.844   8.126  0.1541 -1.3258 -2.4443
 3081SOL    HW220880   3.054   2.781   8.098  3.3442 -1.2904  1.6598
 3082SOL     OW20881   3.455   1.755   7.934  0.5450 -0.6577 -0.4684
 3082SOL    HW120882   3.504   1.673   7.943 -0.1008 -0.9152  0.7701
 3082SOL    HW220883   3.412   1.755   8.020  1.4621  1.3912  0.0002
 3083SOL     OW20884   2.113   1.715  11.087  0.3584 -0.3600 -0.3984
 3083SOL    HW120885   2.100   1.808  11.105  1.4022 -0.5903  1.5381
 3083SOL    HW220886   2.178   1.691  11.153 -0.1021  0.7476  0.4499
 3084SOL     OW20887   4.419   1.534   7.121 -0.0056  0.0547  0.9824
 3084SOL    HW120888   4.400   1.610   7.066 -2.6809 -2.2243 -1.2547
 3084SOL    HW220889   4.359   1.470   7.083 -1.8405  0.7865  2.6665
 3085SOL     OW20890   2.981   2.772  17.449 -0.6569 -0.1346 -0.2159
 3085SOL    HW120891   3.052   2.747  17.507  0.4401  4.6491  0.5233
 3085SOL    HW220892   2.978   2.866  17.468  1.5716  0.2441 -1.7060
 3086SOL     OW20893   2.097   2.689   0.577 -0.2119  0.0775 -0.4169
 3086SOL    HW120894   2.176   2.737   0.600 -0.7593  0.3264  0.8924
 3086SOL    HW220895   2.083   2.631   0.652  1.3107 -2.2419 -1.9080
 3087SOL     OW20896   2.639   3.479   6.743  0.7179 -0.3337 -0.8982
 3087SOL    HW120897   2.651   3.407   6.681 -1.0996 -0.6505 -0.8856
 3087SOL    HW220898   2.629   3.425   6.822 -0.6393  0.2689 -0.6593
 3088SOL     OW20899   0.609   1.033  11.374  0.3103  0.2101 -0.0558
 3088SOL    HW120900   0.702   1.024  11.394  0.3912 -1.0515 -0.9834
 3088SOL    HW220901   0.593   1.115  11.420 -0.8762  0.4553 -0.9220
 3089SOL     OW20902   1.600   0.926  14.461  0.2122  0.9964 -0.7756
 3089SOL    HW120903   1.584   1.009  14.506 -0.6472  0.4446 -0.0604
 3089SOL    HW220904   1.518   0.907  14.417  0.4653 -1.0185 -0.3652
 3090SOL     OW20905   1.846   0.839  11.570  0.0838  0.1988  0.0190
 3090SOL    HW120906   1.835   0.897  11.495 -1.4901 -1.2476 -0.8672
 3090SOL    HW220907   1.780   0.872  11.630  1.1772  0.8590  0.8611
 3091SOL     OW20908   0.393   1.858  13.396  0.5649 -0.0362 -0.2867
 3091SOL    HW120909   0.437   1.836  13.478  2.4716  0.3107 -1.2104
 3091SOL    HW220910   0.434   1.940  13.367 -0.3718  0.4146 -0.3240
 3092SOL     OW20911   1.568   1.628   5.305 -0.5366 -0.5866 -0.3012
 3092SOL    HW120912   1.613   1.598   5.227  1.1296  3.4680 -0.9172
 3092SOL    HW220913   1.640   1.669   5.353  0.7491 -1.1413 -1.7695
 3093SOL     OW20914   3.792   1.261   8.259 -0.0657  0.0662  0.2528
 3093SOL    HW120915   3.853   1.334   8.244  0.4067 -0.8898 -2.3286
 3093SOL    HW220916   3.821   1.207   8.186  0.1444  2.0409 -1.1333
 3094SOL     OW20917   3.687   0.658   8.375 -0.2856  0.6613 -0.1040
 3094SOL    HW120918   3.691   0.754   8.369 -2.4110  0.8003  0.5142
 3094SOL    HW220919   3.697   0.652   8.470  2.3980  0.0302 -0.4215
 3095SOL     OW20920   1.346   0.632   5.943  0.2143 -0.0324  0.3429
 3095SOL    HW120921   1.275   0.643   6.006 -0.1606 -2.4232  0.3247
 3095SOL    HW220922   1.386   0.553   5.979  2.4346  1.4893  1.2900
 3096SOL     OW20923   2.095   0.815   7.975 -0.1964  0.0301 -0.1990
 3096SOL    HW120924   2.034   0.758   8.021 -1.0229  0.1747 -1.1328
 3096SOL    HW220925   2.044   0.896   7.979 -1.5016 -0.8015 -0.2427
 3097SOL     OW20926   1.365   4.359  16.777  0.0206 -0.3835 -0.2679
 3097SOL    HW120927   1.386   4.395  16.863  1.2580  1.2581 -1.2714
 3097SOL    HW220928   1.279   4.323  16.800 -0.4592  0.9184 -0.0194
 3098SOL     OW20929   3.323   4.411   7.685  0.7712 -0.2684 -0.3557
 3098SOL    HW120930   3.231   4.417   7.658  0.1829 -2.7258  1.0978
 3098SOL    HW220931   3.355   4.488   7.637  1.1701 -1.3120 -1.7608
 3099SOL     OW20932   0.512   0.354  14.326 -0.8960  0.2096 -0.0815
 3099SOL    HW120933   0.440   0.398  14.280 -1.7030  0.4729  1.4430
 3099SOL    HW220934   0.587   0.374  14.271 -0.0538 -0.2641  0.9006
 3100SOL     OW20935   2.378   0.174   8.015 -0.0910 -0.1479  0.1214
 3100SOL    HW120936   2.458   0.123   8.033 -0.0337 -0.0549  0.1283
 3100SOL    HW220937   2.351   0.187   8.106 -2.5714  0.1616 -0.6713
 3101SOL     OW20938   2.146   2.245   5.572 -0.5929  0.0779  0.2167
 3101SOL    HW120939   2.204   2.273   5.643 -1.2284  0.1542  0.7110
 3101SOL    HW220940   2.210   2.184   5.536  0.3988 -0.1934  2.4234
 3102SOL     OW20941   1.235   1.133   6.231 -0.9174  0.1738 -0.8128
 3102SOL    HW120942   1.300   1.072   6.196 -1.0360 -0.3960 -0.0336
 3102SOL    HW220943   1.282   1.213   6.256 -2.3996  0.7467  0.2079
 3103SOL     OW20944   3.597   1.242   9.120 -0.3927 -0.3432  0.2684
 3103SOL    HW120945   3.503   1.248   9.141  0.3110  2.1780  2.7094
 3103SOL    HW220946   3.595   1.169   9.058  0.7064 -0.1259 -0.0179
 3104SOL     OW20947   3.209   3.068   2.640 -0.0845  0.7807 -0.0012
 3104SOL    HW120948   3.135   3.007   2.647  0.0147  0.4573 -1.8882
 3104SOL    HW220949   3.170   3.149   2.607 -2.5131 -0.1593  0.5105
 3105SOL     OW20950   0.681   0.835  13.077  0.6329  0.5023  0.4823
 3105SOL    HW120951   0.704   0.743  13.073 -0.9649  0.0166  2.4975
 3105SOL    HW220952   0.621   0.846  13.152  1.1206  1.1489  0.7826
 3106SOL     OW20953   0.994   2.813   9.338 -0.4257  0.4484 -0.3817
 3106SOL    HW120954   0.948   2.858   9.408 -2.1689  2.5427 -2.9085
 3106SOL    HW220955   1.070   2.777   9.385 -0.9212  0.1950  0.2132
 3107SOL     OW20956   2.425   1.355   2.449 -0.0545  0.2927  0.2739
 3107SOL    HW120957   2.392   1.353   2.539  0.7894  1.0953  0.6017
 3107SOL    HW220958   2.450   1.447   2.447 -2.4081  0.9341  0.7954
 3108SOL     OW20959   1.509   1.096  15.073  0.2509 -0.0012  0.0801
 3108SOL    HW120960   1.604   1.089  15.088 -0.4018 -2.3457  3.1770
 3108SOL    HW220961   1.481   1.005  15.063  2.2227 -0.6338  0.2998
 3109SOL     OW20962   3.809   0.266   3.842  0.1301  0.2725  0.2392
 3109SOL    HW120963   3.744   0.334   3.825 -0.0375 -0.1005 -0.6014
 3109SOL    HW220964   3.766   0.211   3.908  0.6025  1.4085  1.4936
 3110SOL     OW20965   1.988   0.542   1.868 -0.1694 -0.4967  0.2526
 3110SOL    HW120966   2.047   0.470   1.845 -0.4861 -0.3113 -1.1159
 3110SOL    HW220967   2.011   0.552   1.960  1.8573  0.7605 -0.3875
 3111SOL     OW20968   0.459   3.991   4.029 -0.4612  0.8027  0.5545
 3111SOL    HW120969   0.468   4.082   4.054 -0.4303  1.0637 -0.3894
 3111SOL    HW220970   0.402   3.954   4.097 -0.8164  0.7116  0.2076
 3112SOL     OW20971   1.755   4.617   4.959 -0.5676 -0.1087 -0.4761
 3112SOL    HW120972   1.669   4.655   4.948 -0.4490  1.6094  4.7954
 3112SOL    HW220973   1.789   4.628   4.870 -2.4736  1.5338 -0.9968
 3113SOL     OW20974   4.616   2.452  14.597  0.2754  0.4698  0.0250
 3113SOL    HW120975   4.523   2.450  14.622  0.0605 -0.0724 -0.8363
 3113SOL    HW220976   4.617   2.391  14.523  1.2587 -1.3273  1.5134
 3114SOL     OW20977   2.062   2.956   7.509  0.4096  0.4180  0.5150
 3114SOL    HW120978   2.089   3.030   7.563  0.4075 -1.4064  2.9953
 3114SOL    HW220979   2.142   2.952   7.456  0.2006 -0.7555  0.2931
 3115SOL     OW20980   1.167   4.170  14.439 -0.2155 -0.4950 -0.3855
 3115SOL    HW120981   1.080   4.130  14.437 -0.7671  0.6726  1.0910
 3115SOL    HW220982   1.149   4.258  14.405 -2.2205  0.0655  2.1441
 3116SOL     OW20983   3.639   1.293  14.765  0.3568 -0.2271 -0.1820
 3116SOL    HW120984   3.584   1.238  14.821 -0.7590 -0.9401 -1.9500
 3116SOL    HW220985   3.576   1.326  14.701 -0.1256 -1.9359 -0.5843
 3117SOL     OW20986   1.316   1.231   6.751  0.2452 -0.0331 -0.2538
 3117SOL    HW120987   1.318   1.154   6.807 -0.3646 -2.2481 -3.2413
 3117SOL    HW220988   1.330   1.184   6.669  0.0975  2.4100 -1.6867
 3118SOL     OW20989   2.680   1.784  15.306 -0.4805  0.4448 -0.6737
 3118SOL    HW120990   2.597   1.738  15.291  0.0032  0.0362 -2.1031
 3118SOL    HW220991   2.671   1.846  15.233  0.5701 -0.1479 -1.3059
 3119SOL     OW20992   3.437   2.779   3.793 -0.0978 -0.2345  0.4456
 3119SOL    HW120993   3.392   2.752   3.873  1.5192 -1.6660  0.8828
 3119SOL    HW220994   3.484   2.700   3.767  0.2188  0.1089 -0.0244
 3120SOL     OW20995   4.436   1.580   3.433 -0.0578 -0.4013  0.3283
 3120SOL    HW120996   4.450   1.488   3.457  3.4295 -0.3693 -1.6181
 3120SOL    HW220997   4.433   1.566   3.338  1.2841 -0.5596  0.3158
 3121SOL     OW20998   2.713   4.569   7.154 -0.2534  0.5079 -0.4278
 3121SOL    HW120999   2.634   4.523   7.127 -0.1922 -1.3035  2.4573
 3121SOL    HW221000   2.755   4.601   7.074  2.6311 -1.4801  0.2752
 3122SOL     OW21001   0.965   1.258   6.215 -0.4362  0.3761  0.1152
 3122SOL    HW121002   0.925   1.194   6.274  0.0478 -0.2540 -0.2333
 3122SOL    HW221003   1.052   1.220   6.200 -1.3339 -0.9621 -1.6253
 3123SOL     OW21004   1.744   1.593   2.452  0.5125  0.2073  0.6121
 3123SOL    HW121005   1.719   1.641   2.531  1.1245 -0.2779  1.0928
 3123SOL    HW221006   1.724   1.664   2.392 -1.9544 -0.0674  1.1031
 3124SOL     OW21007   4.658   0.864   1.724 -0.5516  0.0253  0.0456
 3124SOL    HW121008   4.701   0.906   1.650  0.6216 -0.2238  0.5998
 3124SOL    HW221009   4.599   0.928   1.764 -0.6620 -0.8246  1.2441
 3125SOL     OW21010   4.269   0.474   8.918  0.0176 -0.2724  0.5018
 3125SOL    HW121011   4.213   0.487   8.994  0.6829 -0.0602  0.9593
 3125SOL    HW221012   4.357   0.461   8.954  0.5838  0.0178 -0.8058
 3126SOL     OW21013   2.885   1.171   3.788  0.1351 -0.2268  0.3711
 3126SOL    HW121014   2.938   1.246   3.816 -0.4338 -0.7112  2.7295
 3126SOL    HW221015   2.805   1.210   3.752 -0.6549 -0.6829  1.6329
 3127SOL     OW21016   1.738   3.708   6.188  0.4702  0.0859 -0.2828
 3127SOL    HW121017   1.683   3.706   6.267  0.7312 -0.9384 -0.1263
 3127SOL    HW221018   1.826   3.731   6.219 -0.0269  0.1493  1.0889
 3128SOL     OW21019   0.863   3.242   5.034 -0.3693  0.1511  0.2636
 3128SOL    HW121020   0.881   3.159   4.990  2.5025  0.2784  1.1542
 3128SOL    HW221021   0.881   3.299   4.959  2.4987  2.5370  2.7145
 3129SOL     OW21022   3.091   0.872   4.590 -0.0830  0.4250  0.3670
 3129SOL    HW121023   3.149   0.934   4.635  0.3182  0.4197 -0.1411
 3129SOL    HW221024   3.042   0.934   4.536 -1.6001 -0.8763  0.2578
 3130SOL     OW21025   2.483   0.255   7.273 -0.0539  0.1042  0.4245
 3130SOL    HW121026   2.540   0.264   7.196 -2.2257  1.0623 -1.0938
 3130SOL    HW221027   2.545   0.264   7.346  0.9768  0.6000 -0.5012
 3131SOL     OW21028   1.944   4.485   1.845  0.3932 -0.3678 -0.3185
 3131SOL    HW121029   1.896   4.434   1.910 -0.0488  2.0883  1.2995
 3131SOL    HW221030   1.885   4.476   1.770  0.6646 -0.1869 -0.5528
 3132SOL     OW21031   1.778   1.878  12.830 -0.0497 -0.3087 -0.0856
 3132SOL    HW121032   1.866   1.902  12.803  0.7416 -3.2112 -0.0498
 3132SOL    HW221033   1.792   1.798  12.881  0.2062 -0.7272 -0.8227
 3133SOL     OW21034   4.028   0.732   5.571 -0.5272  0.1847 -0.0420
 3133SOL    HW121035   4.047   0.822   5.595 -0.1185 -0.3996  1.7929
 3133SOL    HW221036   3.948   0.710   5.620 -0.3179  1.5507  0.9109
 3134SOL     OW21037   2.913   3.442   6.288 -0.0068 -0.3941 -0.5923
 3134SOL    HW121038   2.892   3.362   6.336 -0.1575 -0.6399 -1.0690
 3134SOL    HW221039   3.000   3.429   6.250  0.3128 -1.6928  0.6007
 3135SOL     OW21040   0.245   4.170   5.704 -0.5005  0.6058  0.2264
 3135SOL    HW121041   0.244   4.085   5.748 -0.4994  1.3602  1.7060
 3135SOL    HW221042   0.318   4.210   5.752 -0.2633 -0.8216  1.0487
 3136SOL     OW21043   2.710   3.410   8.088 -0.4475  0.2783 -0.0732
 3136SOL    HW121044   2.723   3.467   8.012  0.9149  1.0764  0.7553
 3136SOL    HW221045   2.633   3.451   8.128 -0.8146  0.3816 -0.8857
 3137SOL     OW21046   3.411   0.178   5.868 -0.0315 -0.6032  0.0244
 3137SOL    HW121047   3.502   0.151   5.883  0.5432  0.6358 -1.2633
 3137SOL    HW221048   3.427   0.271   5.851 -2.0778  0.0820  1.8290
 3138SOL     OW21049   3.570   1.402   5.023  0.0031 -0.4851  0.1530
 3138SOL    HW121050   3.475   1.414   5.016 -0.0622 -0.8779  0.3072
 3138SOL    HW221051   3.575   1.308   5.040  3.2662 -0.1095  1.3827
 3139SOL     OW21052   1.045   4.023   6.312  0.0217  0.0252 -0.0219
 3139SOL    HW121053   1.100   4.034   6.235  1.0947 -0.7551  0.6415
 3139SOL    HW221054   0.965   3.981   6.278 -0.2093  1.5856 -1.4175
 3140SOL     OW21055   3.452   3.672   7.576  0.0209  0.4650  0.1406
 3140SOL    HW121056   3.399   3.734   7.526 -0.5814 -0.2201 -0.0632
 3140SOL    HW221057   3.386   3.644   7.639 -1.1628  2.1430 -0.3570
 3141SOL     OW21058   1.174   2.978   4.533  0.2681 -0.1642 -0.0322
 3141SOL    HW121059   1.220   2.939   4.458  1.1716 -1.0740  0.9831
 3141SOL    HW221060   1.247   3.020   4.579  1.7922 -0.8076 -1.8339
 3142SOL     OW21061   3.046   2.929  12.851  0.2911  0.4492 -0.1171
 3142SOL    HW121062   2.979   2.997  12.861  0.3787  0.5690 -0.3746
 3142SOL    HW221063   3.105   2.974  12.791 -0.3525  0.1041 -1.0082
 3143SOL     OW21064   0.340   2.875   5.524  0.5002 -0.0106  0.3438
 3143SOL    HW121065   0.423   2.865   5.477  0.1866  2.2218 -0.7109
 3143SOL    HW221066   0.335   2.971   5.519  0.9199  0.0176  0.4496
 3144SOL     OW21067   2.029   1.582   4.859  0.3878 -0.4458 -0.0604
 3144SOL    HW121068   2.063   1.575   4.948  1.5198 -0.4996 -0.4851
 3144SOL    HW221069   2.055   1.497   4.821  0.8324 -0.6656  0.7373
 3145SOL     OW21070   3.262   2.619   9.183  0.2826  0.4095  0.1502
 3145SOL    HW121071   3.295   2.666   9.107  1.1688  3.0567  2.1521
 3145SOL    HW221072   3.331   2.552   9.189 -0.1352 -0.1294 -1.0679
 3146SOL     OW21073   1.861   3.089  14.591 -0.4143 -0.3406  0.0399
 3146SOL    HW121074   1.887   3.045  14.672  0.6543 -0.9419 -0.6245
 3146SOL    HW221075   1.778   3.044  14.579 -0.0945 -0.9438  0.0791
 3147SOL     OW21076   3.541   3.623   0.167  0.2776  0.4894 -0.1439
 3147SOL    HW121077   3.559   3.560   0.097 -1.5523 -1.9915  1.6164
 3147SOL    HW221078   3.633   3.649   0.174 -0.5693  3.2974  0.7976
 3148SOL     OW21079   2.252   1.664   5.172  0.7016 -0.5155 -0.6908
 3148SOL    HW121080   2.160   1.671   5.196 -0.2051 -2.5406 -3.5331
 3148SOL    HW221081   2.275   1.576   5.203  2.5319 -0.0525 -0.6919
 3149SOL     OW21082   0.209   2.585   3.960  0.1088 -0.0018 -0.4568
 3149SOL    HW121083   0.304   2.583   3.951  0.0582 -1.6333 -0.6558
 3149SOL    HW221084   0.201   2.532   4.039  0.1873 -1.1587 -1.2297
 3150SOL     OW21085   0.628   1.106   3.007 -0.4676 -0.0722  0.5552
 3150SOL    HW121086   0.654   1.198   3.001  3.1464 -1.0617  1.5434
 3150SOL    HW221087   0.590   1.106   2.918  1.5694 -1.6732 -0.3026
 3151SOL     OW21088   2.153   2.552  15.727 -0.7422  0.1824  0.1415
 3151SOL    HW121089   2.133   2.472  15.679  0.4407 -1.3259  2.1320
 3151SOL    HW221090   2.240   2.522  15.754 -0.7520 -0.4816 -0.5751
 3152SOL     OW21091   1.351   1.018   9.496  0.5255  0.3548 -0.3024
 3152SOL    HW121092   1.314   1.094   9.449  0.6974 -0.2759 -1.4730
 3152SOL    HW221093   1.425   1.008   9.436 -0.3619  2.6818 -1.8179
 3153SOL     OW21094   1.114   2.064  10.799 -0.1565  0.6139  0.2063
 3153SOL    HW121095   1.025   2.056  10.833  0.5440  0.3731  1.9971
 3153SOL    HW221096   1.111   2.012  10.718  1.2683  0.0563  0.5034
 3154SOL     OW21097   3.560   1.430  16.818 -0.1492 -0.3921  0.1791
 3154SOL    HW121098   3.606   1.467  16.743  1.6565  0.3228  1.6578
 3154SOL    HW221099   3.489   1.493  16.834  0.0180 -0.0681 -0.3496
 3155SOL     OW21100   0.300   2.297   7.373 -0.2195 -0.0012 -0.3948
 3155SOL    HW121101   0.324   2.383   7.337  1.2764 -1.0847 -1.9957
 3155SOL    HW221102   0.387   2.259   7.383  0.8724  1.8509 -2.7643
 3156SOL     OW21103   3.402   4.587  11.704  0.0161  0.4220 -0.3155
 3156SOL    HW121104   3.393   4.608  11.611 -0.8558 -0.8256 -0.5070
 3156SOL    HW221105   3.315   4.610  11.736  0.4550 -1.0143  1.9454
 3157SOL     OW21106   3.856   0.634   1.976  0.1383  0.3178 -0.1484
 3157SOL    HW121107   3.897   0.598   2.055  1.7448  2.5634  0.0642
 3157SOL    HW221108   3.769   0.657   2.009  0.0697  1.5619 -1.1798
 3158SOL     OW21109   0.862   4.479   4.279  0.4609 -0.2031 -0.6566
 3158SOL    HW121110   0.839   4.567   4.311 -0.2678 -0.7130  0.2378
 3158SOL    HW221111   0.956   4.490   4.266  0.3078 -0.1577 -1.6977
 3159SOL     OW21112   2.792   3.589  11.230 -0.3882 -0.1948 -0.2417
 3159SOL    HW121113   2.884   3.615  11.241 -0.0713 -0.7892 -1.5275
 3159SOL    HW221114   2.786   3.511  11.284 -0.6229  1.2817  1.8771
 3160SOL     OW21115   1.633   0.751   5.282  0.4555  0.5968  0.5461
 3160SOL    HW121116   1.652   0.717   5.195  1.6058  2.2363  0.1465
 3160SOL    HW221117   1.558   0.695   5.302  1.1898 -0.0715  1.4073
 3161SOL     OW21118   1.985   0.339   9.004 -0.4939  0.2060 -0.0917
 3161SOL    HW121119   1.958   0.276   9.070  1.8031  0.4620  1.1031
 3161SOL    HW221120   2.022   0.405   9.063  1.2161  0.2250 -1.1684
 3162SOL     OW21121   3.281   1.493   6.250 -0.4331 -0.4610 -0.7174
 3162SOL    HW121122   3.356   1.516   6.194  0.6142 -0.2866  0.7256
 3162SOL    HW221123   3.227   1.572   6.243  1.7273  1.1961  1.0948
 3163SOL     OW21124   3.215   0.742   7.082 -0.0776 -0.4903 -0.7582
 3163SOL    HW121125   3.135   0.730   7.031 -0.0809  0.2686 -0.9285
 3163SOL    HW221126   3.189   0.717   7.171 -2.1475  0.6182 -1.0458
 3164SOL     OW21127   1.485   2.086  15.136  0.0963 -0.9618 -0.1406
 3164SOL    HW121128   1.492   2.024  15.064  1.2557 -1.0380  0.0253
 3164SOL    HW221129   1.418   2.143  15.098  1.1616  1.3284  1.3963
 3165SOL     OW21130   0.560   1.251   8.824  0.2606 -0.0989 -0.2937
 3165SOL    HW121131   0.615   1.292   8.757  0.1456 -0.6280 -0.7109
 3165SOL    HW221132   0.626   1.227   8.889 -0.1334  2.1447  0.9460
 3166SOL     OW21133   0.776   3.200   5.851 -0.5523  0.2531  0.3391
 3166SOL    HW121134   0.762   3.173   5.760  0.5149  1.5490 -0.2210
 3166SOL    HW221135   0.821   3.281   5.826 -0.5148  0.2026  0.2414
 3167SOL     OW21136   1.985   0.822   4.684  0.8967 -0.2411 -0.1597
 3167SOL    HW121137   1.983   0.780   4.598 -0.8794  0.1799 -0.3141
 3167SOL    HW221138   1.896   0.855   4.686  0.7211 -0.8042  1.0904
 3168SOL     OW21139   0.990   4.251   1.092  0.0887 -0.4557  0.1150
 3168SOL    HW121140   0.926   4.194   1.050 -1.1869  0.0106  1.4084
 3168SOL    HW221141   0.990   4.217   1.182  1.3365 -1.3725 -0.2283
 3169SOL     OW21142   0.640   0.189   7.307  0.0613  0.3861  0.1417
 3169SOL    HW121143   0.631   0.113   7.364 -2.4175  0.8517  0.3992
 3169SOL    HW221144   0.623   0.261   7.368 -0.7812 -1.4778  2.1281
 3170SOL     OW21145   3.726   0.395  16.489  0.4143 -0.3421 -0.5983
 3170SOL    HW121146   3.727   0.366  16.580 -0.6207 -1.9456 -1.0915
 3170SOL    HW221147   3.819   0.415  16.479  0.1973  1.1312  0.3197
 3171SOL     OW21148   0.192   2.939   8.991  0.1026  0.2031 -0.1712
 3171SOL    HW121149   0.212   2.883   8.916  2.4144  0.5051  0.2250
 3171SOL    HW221150   0.116   2.896   9.032  0.7697 -1.2961 -0.5357
 3172SOL     OW21151   2.820   4.553   4.122  0.2787  0.2294 -0.1803
 3172SOL    HW121152   2.910   4.541   4.092 -0.3329 -2.0647 -1.1251
 3172SOL    HW221153   2.803   4.647   4.125 -0.5879  0.1044 -1.0690
 3173SOL     OW21154   4.000   3.264   6.734 -0.7163  0.4784  0.1353
 3173SOL    HW121155   3.996   3.308   6.819 -1.3061 -0.4766  0.5996
 3173SOL    HW221156   4.083   3.296   6.698 -1.4787  1.4414 -0.7475
 3174SOL     OW21157   4.083   2.338  17.074 -0.1182 -0.2376 -0.1499
 3174SOL    HW121158   4.045   2.278  17.138 -0.0313 -0.6941 -0.5217
 3174SOL    HW221159   4.054   2.301  16.990  0.6679  1.0129 -0.9646
 3175SOL     OW21160   2.047   4.673   3.967  0.1559 -0.2278 -0.5973
 3175SOL    HW121161   2.027   4.618   3.891  0.9653  0.9950 -1.6959
 3175SOL    HW221162   1.958   4.704   3.985  0.1404 -0.8029  0.3454
 3176SOL     OW21163   1.190   2.619  17.562 -0.2478  0.1965  0.7956
 3176SOL    HW121164   1.108   2.656  17.596  0.2155  0.8209  1.2576
 3176SOL    HW221165   1.164   2.530  17.539  3.2324 -0.6351  0.1457
 3177SOL     OW21166   0.539   0.430  16.840 -0.1063 -0.3590  0.0332
 3177SOL    HW121167   0.505   0.368  16.776  0.6143 -1.9805  1.2200
 3177SOL    HW221168   0.463   0.488  16.842 -1.6543 -2.4114 -0.8030
 3178SOL     OW21169   2.855   2.962   6.565 -0.1284 -0.1988  0.2048
 3178SOL    HW121170   2.920   2.895   6.543 -0.7159 -1.2859  1.6868
 3178SOL    HW221171   2.787   2.914   6.612  0.4829 -1.2547  0.0255
 3179SOL     OW21172   0.491   1.538  10.592  1.1434 -0.1908  0.0851
 3179SOL    HW121173   0.540   1.606  10.638  3.4760 -0.0691 -2.5576
 3179SOL    HW221174   0.502   1.567  10.501  0.4979 -1.9770 -0.5610
 3180SOL     OW21175   4.045   0.789   4.644 -0.5380  0.2444  0.1968
 3180SOL    HW121176   4.043   0.878   4.609 -3.3287 -0.8074 -2.2882
 3180SOL    HW221177   4.119   0.794   4.705 -0.9521  1.4688  0.5934
 3181SOL     OW21178   2.778   2.610  17.436 -0.0000 -0.5368 -0.1522
 3181SOL    HW121179   2.777   2.583  17.344  0.6985 -0.7061 -0.1136
 3181SOL    HW221180   2.848   2.675  17.448 -0.0046 -0.1169 -2.4456
 3182SOL     OW21181   3.018   2.361   3.311  0.1160  0.0006 -0.0218
 3182SOL    HW121182   2.939   2.306   3.312 -0.3972  0.7846  2.9257
 3182SOL    HW221183   3.049   2.362   3.221 -2.1953 -0.6086 -0.8184
 3183SOL     OW21184   0.445   4.134   7.883 -0.1614 -0.3661 -0.1981
 3183SOL    HW121185   0.495   4.149   7.802  1.1399 -0.5574  0.5645
 3183SOL    HW221186   0.507   4.148   7.955  0.5426 -2.2087 -0.4563
 3184SOL     OW21187   4.089   3.082  11.751  0.5737  0.7670  0.0140
 3184SOL    HW121188   4.029   3.148  11.718  0.0110 -1.1783 -2.9444
 3184SOL    HW221189   4.174   3.118  11.727  0.6882 -0.7249 -1.8241
 3185SOL     OW21190   3.513   3.375   2.937 -0.2131 -0.1907  0.0723
 3185SOL    HW121191   3.450   3.308   2.912  0.8589 -1.4519  0.8002
 3185SOL    HW221192   3.596   3.338   2.909  0.3357  1.3307 -0.3394
 3186SOL     OW21193   4.283   4.221   7.865 -0.4141 -1.0046  0.2630
 3186SOL    HW121194   4.244   4.308   7.857  2.4872  0.3998  1.3845
 3186SOL    HW221195   4.248   4.200   7.952  0.3668  0.7010  0.9755
 3187SOL     OW21196   1.142   3.334  14.078  0.4230 -0.2106 -0.4166
 3187SOL    HW121197   1.167   3.271  14.146 -2.6264 -0.9931 -0.0191
 3187SOL    HW221198   1.062   3.371  14.114  1.5411 -0.5268  2.3702
 3188SOL     OW21199   2.349   1.047  17.320 -0.5205 -0.3756 -0.2839
 3188SOL    HW121200   2.329   0.997  17.400 -3.0987  0.3525 -0.4643
 3188SOL    HW221201   2.444   1.042  17.309 -0.4268  0.3998  0.2077
 3189SOL     OW21202   3.019   3.881  14.682 -0.3472 -0.3190  0.1781
 3189SOL    HW121203   3.049   3.955  14.735 -0.3857  1.1010 -1.7728
 3189SOL    HW221204   3.088   3.824  14.715  1.8383  2.0859 -0.1754
 3190SOL     OW21205   4.300   2.217  12.215 -0.2261  0.0729 -0.0091
 3190SOL    HW121206   4.211   2.225  12.249  0.1794 -0.9860  1.2679
 3190SOL    HW221207   4.287   2.133  12.172  0.7605  1.4195 -2.9450
 3191SOL     OW21208   1.651   3.270   8.558  0.6489 -0.4475 -0.1737
 3191SOL    HW121209   1.581   3.212   8.586  0.6078 -1.3956 -2.2630
 3191SOL    HW221210   1.673   3.316   8.639 -0.3742 -0.8559  0.3354
 3192SOL     OW21211   0.095   0.468  16.990  0.0021 -0.3881  0.3020
 3192SOL    HW121212   0.113   0.479  17.083  0.3911 -1.2506  0.3285
 3192SOL    HW221213   0.141   0.547  16.960  1.1907 -0.6206  1.5305
 3193SOL     OW21214   0.265   0.975  13.065 -0.1343 -0.1299 -0.0738
 3193SOL    HW121215   0.178   1.007  13.042  0.2696  2.1404  1.6166
 3193SOL    HW221216   0.313   1.030  13.004 -0.1294  0.8993  0.8645
 3194SOL     OW21217   1.435   0.388   6.053  0.3035  0.3902  0.1688
 3194SOL    HW121218   1.384   0.333   6.112  3.3923 -1.2911  1.2971
 3194SOL    HW221219   1.527   0.367   6.068  0.8549  1.7787 -1.3145
 3195SOL     OW21220   0.027   0.906   9.625  0.1614 -0.0824  0.0815
 3195SOL    HW121221   0.095   0.864   9.678 -0.4379  1.7041  2.2397
 3195SOL    HW221222   0.022   0.850   9.548  2.7797 -1.2438  0.7651
 3196SOL     OW21223   2.777   4.574  17.413 -0.3298 -0.4149 -0.3760
 3196SOL    HW121224   2.709   4.580  17.346  0.2910 -0.0301 -0.9826
 3196SOL    HW221225   2.849   4.616  17.365 -0.2410  2.0503  1.9535
 3197SOL     OW21226   0.736   0.925  15.099  0.1330 -0.1590 -0.2058
 3197SOL    HW121227   0.804   0.866  15.133 -1.1691 -1.3971  0.2678
 3197SOL    HW221228   0.666   0.861  15.088  0.5112 -0.3876 -1.2813
 3198SOL     OW21229   3.883   3.076   5.077 -0.0633  0.6092  0.5262
 3198SOL    HW121230   3.807   3.086   5.020 -1.3602 -0.7934  2.0248
 3198SOL    HW221231   3.900   3.170   5.091  1.8495  0.2541  0.6117
 3199SOL     OW21232   2.120   3.550  10.857 -0.7373 -0.3579 -0.6002
 3199SOL    HW121233   2.137   3.549  10.951  2.1143  0.7474 -1.0778
 3199SOL    HW221234   2.180   3.480  10.829  1.7241  0.8969  1.5091
 3200SOL     OW21235   2.306   2.563  16.795  0.5168 -0.5269  0.9135
 3200SOL    HW121236   2.365   2.496  16.830 -0.2085 -2.2126 -1.0617
 3200SOL    HW221237   2.365   2.637  16.789 -1.3311  0.7854 -1.2476
 3201SOL     OW21238   0.304   4.613   3.450 -0.0156 -0.1520 -0.0781
 3201SOL    HW121239   0.222   4.571   3.427 -0.0743 -0.4718  0.7096
 3201SOL    HW221240   0.355   4.600   3.370  3.2325 -0.8108  2.0714
 3202SOL     OW21241   3.988   3.274   7.533 -0.3473 -0.0050  0.0835
 3202SOL    HW121242   4.052   3.221   7.488 -0.4369 -0.4620  0.4965
 3202SOL    HW221243   3.911   3.225   7.504  0.2796 -0.4198 -0.8614
 3203SOL     OW21244   1.203   4.537   8.090 -0.3602 -0.0375 -0.4398
 3203SOL    HW121245   1.195   4.616   8.036  2.5754  1.6579  1.5708
 3203SOL    HW221246   1.172   4.474   8.025 -0.6030 -0.6815  0.2956
 3204SOL     OW21247   4.157   4.424   6.164  0.0177 -0.2960  0.5580
 3204SOL    HW121248   4.114   4.501   6.202 -2.6106 -0.6289 -1.7174
 3204SOL    HW221249   4.249   4.422   6.192  0.7331  1.7770 -1.6807
 3205SOL     OW21250   4.478   3.054   6.490 -0.3665 -0.4066  0.0086
 3205SOL    HW121251   4.392   3.093   6.506 -0.2126 -0.7156  1.5218
 3205SOL    HW221252   4.453   2.989   6.424 -0.4538 -1.1354  0.7620
 3206SOL     OW21253   1.152   2.205   0.050 -0.2116 -0.3098  0.7670
 3206SOL    HW121254   1.231   2.157   0.025  0.7112  1.8592 -0.5352
 3206SOL    HW221255   1.102   2.142   0.102 -0.4951  0.6113  1.6139
 3207SOL     OW21256   2.326   4.319   8.239 -0.2506  0.4230  0.2972
 3207SOL    HW121257   2.331   4.225   8.223 -0.9607  0.0110  2.5914
 3207SOL    HW221258   2.403   4.350   8.191  0.8762 -1.3028  0.9817
 3208SOL     OW21259   2.157   3.855   2.891 -0.3546 -0.4113  0.5011
 3208SOL    HW121260   2.165   3.761   2.879  0.2610 -0.0382 -1.8984
 3208SOL    HW221261   2.123   3.892   2.810  1.1582  0.7540  0.3869
 3209SOL     OW21262   0.015   1.348   3.232 -0.1650 -0.3545 -0.0137
 3209SOL    HW121263   0.009   1.370   3.325 -1.9909  0.2748 -0.2654
 3209SOL    HW221264   0.108   1.361   3.214  0.2054  0.5487  2.5200
 3210SOL     OW21265   1.257   3.523   9.340  0.0250 -0.6902  0.0624
 3210SOL    HW121266   1.294   3.437   9.358  1.6305  0.0888  0.4682
 3210SOL    HW221267   1.285   3.532   9.248  0.3409  0.9077  0.3221
 3211SOL     OW21268   0.352   1.257   8.065 -0.2640 -0.2310  0.7253
 3211SOL    HW121269   0.419   1.277   8.000 -1.4386  0.7266 -0.1971
 3211SOL    HW221270   0.324   1.168   8.045 -0.6582  0.1779 -0.5312
 3212SOL     OW21271   3.214   1.043   2.281  0.6137  0.3255 -0.6137
 3212SOL    HW121272   3.170   1.058   2.197  0.9485 -0.4516 -0.9259
 3212SOL    HW221273   3.276   1.116   2.281  0.8142  0.1565 -1.2961
 3213SOL     OW21274   0.842   3.790   3.950  0.3986  0.1195 -0.1845
 3213SOL    HW121275   0.762   3.789   4.003  0.2456  1.3108 -0.3970
 3213SOL    HW221276   0.884   3.722   4.002 -1.5005 -1.3967 -0.6235
 3214SOL     OW21277   1.298   1.929   3.856 -0.4968  0.4267  0.3965
 3214SOL    HW121278   1.287   1.902   3.765  0.6869  0.4105  0.2589
 3214SOL    HW221279   1.342   2.013   3.842 -0.6904  0.7594  1.7721
 3215SOL     OW21280   0.092   3.692  14.196  0.0114  0.1817 -0.0409
 3215SOL    HW121281   0.176   3.680  14.241  0.7203  1.1834 -1.1042
 3215SOL    HW221282   0.052   3.607  14.216  2.7343 -0.4212  2.8775
 3216SOL     OW21283   1.558   0.785   0.763 -0.2573 -0.2303  0.3352
 3216SOL    HW121284   1.597   0.752   0.682 -1.1540  0.8490 -0.5471
 3216SOL    HW221285   1.620   0.749   0.826  0.2864  0.8400  0.4112
 3217SOL     OW21286   1.239   1.397  15.065 -0.4383 -0.0972 -0.4810
 3217SOL    HW121287   1.320   1.347  15.055  1.0323  1.8101  1.8314
 3217SOL    HW221288   1.173   1.329  15.077 -0.7659  0.3688  0.3812
 3218SOL     OW21289   3.106   2.020   3.317  0.0720 -0.0114  0.4924
 3218SOL    HW121290   3.093   1.939   3.366  0.8194 -0.2634  0.2750
 3218SOL    HW221291   3.019   2.057   3.310 -0.6739 -1.7530  0.5482
 3219SOL     OW21292   1.890   1.859  10.440  0.0742 -0.3545  0.3636
 3219SOL    HW121293   1.980   1.833  10.420 -1.4094 -3.1474 -2.7594
 3219SOL    HW221294   1.851   1.779  10.476  0.8773 -1.7333 -1.8395
 3220SOL     OW21295   1.793   4.439  13.045  0.3631 -0.3655 -0.4384
 3220SOL    HW121296   1.877   4.402  13.017  0.3373  0.4716 -1.6406
 3220SOL    HW221297   1.810   4.448  13.138 -0.3455  0.2255 -0.3626
 3221SOL     OW21298   1.683   0.377   7.279 -1.2785 -0.0653 -0.2058
 3221SOL    HW121299   1.642   0.358   7.195 -1.3378  1.5878 -0.5442
 3221SOL    HW221300   1.746   0.305   7.274 -0.1269  0.9717 -0.4572
 3222SOL     OW21301   3.668   0.152   5.848  0.2264  0.0225 -0.5601
 3222SOL    HW121302   3.679   0.063   5.814 -0.3140 -0.3037  0.1150
 3222SOL    HW221303   3.761   0.170   5.866  0.5089 -0.1612 -1.8811
 3223SOL     OW21304   0.589   3.881   6.519 -0.1414  0.0499 -0.3185
 3223SOL    HW121305   0.583   3.786   6.530 -0.1834  0.0978  0.0684
 3223SOL    HW221306   0.501   3.918   6.523  0.4633  1.2995  1.4777
 3224SOL     OW21307   2.394   0.440   3.095  0.5140  0.6183  0.3832
 3224SOL    HW121308   2.482   0.474   3.079  0.6074  0.9682  1.5908
 3224SOL    HW221309   2.367   0.478   3.179 -1.0357  0.0841  0.1342
 3225SOL     OW21310   3.393   0.325   3.706 -0.2960  0.5722 -0.0114
 3225SOL    HW121311   3.314   0.276   3.730  0.6927 -1.0783 -0.1618
 3225SOL    HW221312   3.349   0.402   3.671  0.1053  0.4798 -0.7362
 3226SOL     OW21313   3.387   1.882   1.973 -0.1384  0.2545  0.8767
 3226SOL    HW121314   3.380   1.976   1.955  2.3851 -0.2405 -2.6382
 3226SOL    HW221315   3.331   1.845   1.905  2.6386 -1.7764 -0.3277
 3227SOL     OW21316   3.398   1.549   7.403  0.2983 -0.3134 -0.4324
 3227SOL    HW121317   3.401   1.513   7.491  0.6879  0.5207 -0.1014
 3227SOL    HW221318   3.487   1.578   7.383  0.0271  1.2234  0.6355
 3228SOL     OW21319   4.307   1.197   4.791  0.4635  0.1162 -0.0134
 3228SOL    HW121320   4.272   1.122   4.838  1.6365  0.1031  0.8447
 3228SOL    HW221321   4.310   1.165   4.701 -1.2869 -0.4224  0.1302
 3229SOL     OW21322   0.341   0.739  14.447 -0.2003  0.0171 -0.1170
 3229SOL    HW121323   0.312   0.718  14.359  3.0701 -0.3934 -1.1197
 3229SOL    HW221324   0.426   0.695  14.454 -0.3845 -0.4157 -0.5809
 3230SOL     OW21325   2.386   1.148   1.061  0.6409  0.4756  0.5841
 3230SOL    HW121326   2.323   1.220   1.054  0.4621  0.1207 -1.2484
 3230SOL    HW221327   2.332   1.071   1.045  0.5144  0.0340  3.0829
 3231SOL     OW21328   4.392   0.291   0.382  0.0757  0.5354 -0.5368
 3231SOL    HW121329   4.328   0.230   0.347 -1.6983  2.0500  0.0430
 3231SOL    HW221330   4.333   0.349   0.431 -2.3369 -0.5579 -2.1856
 3232SOL     OW21331   2.018   3.740   8.765  0.2414  0.1852 -0.3095
 3232SOL    HW121332   2.047   3.743   8.673  0.4679 -2.9122 -0.3418
 3232SOL    HW221333   2.095   3.733   8.821  0.1804 -4.2979 -0.8220
 3233SOL     OW21334   4.439   4.223   6.575  0.0476  0.1400 -0.2078
 3233SOL    HW121335   4.495   4.145   6.577 -1.5951 -1.1216 -2.9297
 3233SOL    HW221336   4.376   4.183   6.514 -0.1162  1.2890 -0.7870
 3234SOL     OW21337   0.487   3.113   2.714 -0.1556 -0.5878 -0.1009
 3234SOL    HW121338   0.460   3.201   2.740 -0.1628 -1.5210  3.0208
 3234SOL    HW221339   0.400   3.074   2.713  0.8717 -2.8207 -1.0836
 3235SOL     OW21340   3.842   2.737   1.317  0.3868 -0.3883  0.2515
 3235SOL    HW121341   3.820   2.801   1.385  3.2440  0.8001  0.0569
 3235SOL    HW221342   3.825   2.794   1.242  1.1107 -0.2004  0.2366
 3236SOL     OW21343   0.179   3.711   9.725  0.4660  0.1564  0.2811
 3236SOL    HW121344   0.209   3.624   9.701  0.4103  0.1352  0.2898
 3236SOL    HW221345   0.083   3.712   9.724  0.4783  0.2113 -0.5753
 3237SOL     OW21346   2.967   3.172   5.876 -0.1547 -0.1865 -0.2248
 3237SOL    HW121347   2.959   3.267   5.866  0.5322 -0.0498  0.6105
 3237SOL    HW221348   2.982   3.161   5.970 -0.0938  0.7876 -0.1215
 3238SOL     OW21349   1.615   0.245  17.478  0.0112 -0.5266 -0.1144
 3238SOL    HW121350   1.659   0.298  17.411  1.6236 -0.4729  0.9953
 3238SOL    HW221351   1.677   0.241  17.550  2.0125  1.4427 -1.7320
 3239SOL     OW21352   1.360   2.993   4.121 -0.2189  0.0876 -0.3144
 3239SOL    HW121353   1.387   2.971   4.031  0.1986  1.0004 -0.4073
 3239SOL    HW221354   1.267   3.007   4.101 -0.1463 -1.1704 -1.5882
 3240SOL     OW21355   3.075   0.725   6.808 -0.6895  0.1972  0.2847
 3240SOL    HW121356   3.000   0.735   6.867  0.8358 -0.5960  2.3489
 3240SOL    HW221357   3.032   0.665   6.747 -1.2760  1.6463 -0.7420
 3241SOL     OW21358   0.402   0.920   6.132 -0.1996 -0.3911  0.1865
 3241SOL    HW121359   0.423   0.958   6.047  0.7795 -0.2761  0.4860
 3241SOL    HW221360   0.333   0.983   6.154  0.0328 -0.5666  1.4111
 3242SOL     OW21361   2.089   3.461   5.640 -0.6161 -0.0095  0.1263
 3242SOL    HW121362   2.079   3.542   5.589 -0.5188  0.2191  0.4706
 3242SOL    HW221363   2.012   3.476   5.695 -1.5963 -3.1514 -0.3711
 3243SOL     OW21364   3.453   2.258   3.796  0.1143 -0.0279  0.3011
 3243SOL    HW121365   3.438   2.228   3.706  0.3523  2.6169 -0.6134
 3243SOL    HW221366   3.506   2.335   3.776 -1.2505  0.4036 -1.6442
 3244SOL     OW21367   4.348   3.061   7.018 -0.0478  0.3381 -0.1514
 3244SOL    HW121368   4.316   3.064   6.928  0.4648  1.0377 -0.3019
 3244SOL    HW221369   4.302   2.982   7.048 -1.4132  0.8316 -0.9471
 3245SOL     OW21370   2.484   3.623   8.786  0.1899 -0.7659 -0.1501
 3245SOL    HW121371   2.543   3.548   8.772  0.1373 -0.5545 -1.5090
 3245SOL    HW221372   2.507   3.671   8.707 -0.7978  0.4384  0.2921
 3246SOL     OW21373   3.941   4.566   6.451 -0.4044  0.0202  0.4077
 3246SOL    HW121374   4.026   4.560   6.496 -1.2647 -0.3231  1.9849
 3246SOL    HW221375   3.913   4.652   6.480 -0.1479  0.0880  0.4558
 3247SOL     OW21376   1.597   4.438  16.491  0.1649 -0.5409  0.0863
 3247SOL    HW121377   1.544   4.488  16.553 -0.6836  1.8055 -2.5380
 3247SOL    HW221378   1.681   4.436  16.536  0.0960 -0.7250  0.2091
 3248SOL     OW21379   0.041   1.064   1.955 -0.4172  0.3845 -0.3078
 3248SOL    HW121380   0.076   0.975   1.961 -2.3596 -0.2935  1.0859
 3248SOL    HW221381   4.714   1.053   1.884 -0.1146 -1.4188 -0.2891
 3249SOL     OW21382   3.039   1.995   1.986  0.0057  0.1556  0.1777
 3249SOL    HW121383   3.038   1.910   2.031 -3.1599  0.1438  0.0342
 3249SOL    HW221384   3.095   2.055   2.037  1.9952 -1.2762 -0.3071
 3250SOL     OW21385   2.534   4.341   4.626  0.4102  0.2473 -0.2451
 3250SOL    HW121386   2.524   4.424   4.673 -0.0858  1.0460 -1.7881
 3250SOL    HW221387   2.443   4.327   4.602  1.4819 -1.6240 -3.1514
 3251SOL     OW21388   0.800   1.323   3.581 -0.7946  0.1631 -0.3020
 3251SOL    HW121389   0.861   1.337   3.653 -0.5195 -1.4826 -0.2147
 3251SOL    HW221390   0.858   1.286   3.514 -0.3415  0.0856  0.1357
 3252SOL     OW21391   1.796   3.172   6.724  0.6536  0.4658 -0.0333
 3252SOL    HW121392   1.726   3.109   6.706  0.6659  0.2486  0.6622
 3252SOL    HW221393   1.867   3.152   6.663  0.5678  0.6917 -0.2052
 3253SOL     OW21394   0.952   1.378   8.982  0.3010  0.1062  0.2191
 3253SOL    HW121395   0.872   1.367   9.034  0.3721 -0.6244  0.1807
 3253SOL    HW221396   0.959   1.472   8.967  2.0512 -0.1754 -0.6541
 3254SOL     OW21397   2.156   3.692   2.621 -0.0051  0.3551  0.1443
 3254SOL    HW121398   2.163   3.609   2.574 -0.7188 -0.8259  2.1509
 3254SOL    HW221399   2.232   3.745   2.597  1.0113 -1.0624  0.2729
 3255SOL     OW21400   3.512   4.281   2.977  0.6944 -0.1016 -0.0908
 3255SOL    HW121401   3.500   4.355   2.917  0.9464 -0.0416 -0.0685
 3255SOL    HW221402   3.513   4.207   2.917  0.0811 -0.1188 -0.0770
 3256SOL     OW21403   0.521   1.933   1.003  0.1911  0.1651  0.2140
 3256SOL    HW121404   0.566   1.872   0.945 -0.3964  0.0014 -0.0712
 3256SOL    HW221405   0.521   1.867   1.073 -0.3060  1.9842  1.9347
 3257SOL     OW21406   0.387   3.233  13.529 -0.7078 -0.5947 -0.0815
 3257SOL    HW121407   0.397   3.324  13.500  2.2217 -0.9037 -0.1052
 3257SOL    HW221408   0.324   3.244  13.601  1.0357  2.2712  1.0082
 3258SOL     OW21409   1.477   0.970  11.916 -0.7188 -0.4031  0.3472
 3258SOL    HW121410   1.508   1.042  11.970  4.2735 -1.4633 -1.0391
 3258SOL    HW221411   1.396   1.012  11.890  1.4446  3.6036  0.1334
 3259SOL     OW21412   2.881   4.285   9.912 -0.3365 -0.4394 -0.5593
 3259SOL    HW121413   2.974   4.261   9.910  0.5800  2.9347  1.2560
 3259SOL    HW221414   2.842   4.230   9.845  0.7640 -0.8712 -0.8475
 3260SOL     OW21415   3.758   3.036   8.884  0.2395 -0.6151 -0.2928
 3260SOL    HW121416   3.784   3.024   8.793  2.3383  0.8017  0.1366
 3260SOL    HW221417   3.690   3.101   8.865  0.8601  0.6547  1.7989
 3261SOL     OW21418   3.589   0.649   1.665 -0.1653  0.0223  0.4388
 3261SOL    HW121419   3.537   0.629   1.743  2.5216 -0.8499  2.0044
 3261SOL    HW221420   3.538   0.596   1.603 -0.1629 -0.3197  0.7272
 3262SOL     OW21421   2.757   3.103   2.704 -0.2170  0.0217  0.1100
 3262SOL    HW121422   2.825   3.036   2.700  0.1279  0.3953 -0.3583
 3262SOL    HW221423   2.777   3.159   2.780  1.8651  0.2239 -0.5913
 3263SOL     OW21424   4.535   3.652   3.295  0.7227  0.4607  0.4082
 3263SOL    HW121425   4.604   3.659   3.229  0.3260  0.3372 -0.0224
 3263SOL    HW221426   4.588   3.608   3.361 -2.8457 -0.9730  2.3099
 3264SOL     OW21427   4.445   1.813   6.887 -0.2413 -0.7257  0.4090
 3264SOL    HW121428   4.476   1.852   6.969 -0.6382 -2.5605  1.4217
 3264SOL    HW221429   4.513   1.746   6.878  1.2798  0.9525 -0.5871
 3265SOL     OW21430   4.344   4.080   9.128  0.2653  0.0565  0.5309
 3265SOL    HW121431   4.320   4.134   9.052  0.2984 -2.2977 -1.1295
 3265SOL    HW221432   4.425   4.120   9.160 -1.1811  1.1930  2.7421
 3266SOL     OW21433   1.079   0.521   7.943  0.8201  0.1193  0.8684
 3266SOL    HW121434   1.148   0.543   7.880  1.5749 -2.2096  0.8844
 3266SOL    HW221435   1.047   0.608   7.965 -0.1305 -0.0919  0.3236
 3267SOL     OW21436   2.060   3.072   8.550 -0.1293 -1.0892 -0.0911
 3267SOL    HW121437   2.043   3.019   8.629 -1.7255  0.0526  0.3270
 3267SOL    HW221438   2.060   3.152   8.602  1.2823  1.4481 -4.0410
 3268SOL     OW21439   3.219   2.794   4.895 -0.1539  0.0095  0.3203
 3268SOL    HW121440   3.133   2.766   4.863  1.3694 -2.1801 -1.9445
 3268SOL    HW221441   3.202   2.888   4.893 -1.7623 -0.2926 -0.0494
 3269SOL     OW21442   4.214   4.217  17.153 -0.2850  0.3142 -0.0964
 3269SOL    HW121443   4.169   4.278  17.094 -3.3545 -2.0495 -0.1528
 3269SOL    HW221444   4.137   4.171  17.185  0.1466 -1.6644 -1.9450
 3270SOL     OW21445   4.548   0.071   3.684  0.0255 -0.5415 -0.2645
 3270SOL    HW121446   4.536   4.711   3.682  1.0147 -0.5784 -3.1359
 3270SOL    HW221447   4.468   0.102   3.642 -0.3638 -1.1997 -0.0225
 3271SOL     OW21448   0.379   3.876   7.907 -0.2305  0.5323 -0.4096
 3271SOL    HW121449   0.296   3.857   7.952  0.8913  2.4349  2.4592
 3271SOL    HW221450   0.382   3.971   7.899 -2.5979  0.4761 -2.1106
 3272SOL     OW21451   4.446   3.410   9.538  0.3035  0.3606 -0.3568
 3272SOL    HW121452   4.446   3.494   9.582  0.1988 -1.4086  3.0413
 3272SOL    HW221453   4.393   3.423   9.460  3.3757  2.7413 -2.0529
 3273SOL     OW21454   4.180   3.252   3.711 -0.1236  0.0216 -0.3218
 3273SOL    HW121455   4.244   3.284   3.775 -0.5609  0.3952 -0.0678
 3273SOL    HW221456   4.173   3.327   3.653  2.7606 -0.7450 -1.6703
 3274SOL     OW21457   1.443   1.578   4.218 -0.5270 -0.5755 -0.3519
 3274SOL    HW121458   1.508   1.646   4.234 -1.6355  0.5186 -0.4662
 3274SOL    HW221459   1.382   1.615   4.154  0.2183  0.8595 -0.2137
 3275SOL     OW21460   0.733   0.971   5.460 -0.0819 -0.1802 -0.1227
 3275SOL    HW121461   0.778   0.887   5.472 -1.2445 -0.6544  0.9386
 3275SOL    HW221462   0.753   0.977   5.367 -0.0116  0.4832 -0.0649
 3276SOL     OW21463   3.971   4.672   6.838 -0.2653  0.4730 -0.3629
 3276SOL    HW121464   4.059   4.674   6.876 -0.3437 -0.4541 -0.1516
 3276SOL    HW221465   3.921   4.698   6.915  1.0181 -0.6758  0.8366
 3277SOL     OW21466   0.704   1.805   4.072  0.2625  0.1093  0.2501
 3277SOL    HW121467   0.730   1.873   4.135  0.2422  0.6993 -0.3673
 3277SOL    HW221468   0.759   1.730   4.093 -2.1601 -0.9502  2.7024
 3278SOL     OW21469   4.022   1.864  13.128 -0.2232  0.1285 -0.2459
 3278SOL    HW121470   4.017   1.788  13.070  1.4506  0.3439 -0.6593
 3278SOL    HW221471   4.089   1.914  13.083 -0.0084  0.0391 -0.0274
 3279SOL     OW21472   1.910   2.773   3.579 -0.5017  0.0295 -0.0417
 3279SOL    HW121473   1.936   2.840   3.643  2.1187 -2.6454  1.6500
 3279SOL    HW221474   1.952   2.804   3.498  0.6469 -0.7768  0.2443
 3280SOL     OW21475   3.877   1.905  14.367 -0.5895 -0.2321 -0.0260
 3280SOL    HW121476   3.963   1.885  14.331 -0.7869 -0.4529 -0.3842
 3280SOL    HW221477   3.843   1.816  14.355  0.1203 -0.7820  2.0007
 3281SOL     OW21478   2.933   1.753   5.361  0.4942 -0.1148 -0.4349
 3281SOL    HW121479   3.022   1.720   5.368  1.0500  1.4062 -0.3712
 3281SOL    HW221480   2.893   1.693   5.424  0.4318 -0.6820 -1.0188
 3282SOL     OW21481   2.129   2.444  13.068  0.5565 -0.3017  0.0065
 3282SOL    HW121482   2.045   2.399  13.070  0.3153  0.0399 -2.4851
 3282SOL    HW221483   2.159   2.416  12.981 -1.9479 -2.1060 -0.2559
 3283SOL     OW21484   3.853   2.389   8.071  0.6017  0.5896 -0.2035
 3283SOL    HW121485   3.786   2.457   8.063  0.3287  0.4174  0.6408
 3283SOL    HW221486   3.835   2.336   7.993  1.4664 -0.5936  0.3958
 3284SOL     OW21487   2.989   4.458   3.271 -0.9889  0.0958  0.4406
 3284SOL    HW121488   2.933   4.491   3.201  1.0233  1.0544 -0.6940
 3284SOL    HW221489   2.995   4.370   3.234  2.3656 -0.4062  2.2099
 3285SOL     OW21490   1.676   0.965   2.310 -0.6831 -0.6342 -0.3455
 3285SOL    HW121491   1.735   1.032   2.276 -0.0033 -1.7341 -1.3353
 3285SOL    HW221492   1.738   0.906   2.353 -0.5271  0.0246  0.3276
 3286SOL     OW21493   2.037   1.735  13.665 -0.2331  0.2427 -0.4237
 3286SOL    HW121494   1.966   1.690  13.711  0.2313  0.5949  0.6364
 3286SOL    HW221495   2.022   1.825  13.693  2.3740  0.6668 -0.4657
 3287SOL     OW21496   4.066   4.499   2.399 -0.8205 -0.1193 -0.1912
 3287SOL    HW121497   3.983   4.484   2.354 -0.9695  0.0824  0.0191
 3287SOL    HW221498   4.073   4.411   2.434  0.4789  0.4928  1.0601
 3288SOL     OW21499   0.301   2.166   5.713 -0.0344  0.2043 -0.1104
 3288SOL    HW121500   0.321   2.205   5.628 -0.0758  0.6196  0.0664
 3288SOL    HW221501   0.368   2.098   5.711  0.1122  0.3045  1.1464
 3289SOL     OW21502   1.377   0.774   5.678  0.2885  0.3262  0.6519
 3289SOL    HW121503   1.434   0.849   5.694 -0.6216  1.3176 -0.8243
 3289SOL    HW221504   1.360   0.733   5.763 -1.6140 -0.4949 -0.1333
 3290SOL     OW21505   4.156   2.890   7.890  0.0300  0.8701  0.3192
 3290SOL    HW121506   4.186   2.937   7.968  1.7859 -1.8770  1.3112
 3290SOL    HW221507   4.080   2.841   7.922  1.7760 -2.4616 -0.6596
 3291SOL     OW21508   1.626   4.664   2.704 -0.3946  0.5483 -0.0207
 3291SOL    HW121509   1.581   4.651   2.787  0.5789 -0.1968  0.3842
 3291SOL    HW221510   1.621   4.574   2.673 -0.8608  0.3476  0.6536
 3292SOL     OW21511   0.223   1.873  11.858 -0.1774 -0.7408  0.1274
 3292SOL    HW121512   0.264   1.851  11.774 -2.4316 -2.7888 -0.4408
 3292SOL    HW221513   0.132   1.849  11.845 -0.6972  1.1741  0.2386
 3293SOL     OW21514   2.206   1.320   5.887 -0.2989 -0.2630 -0.1954
 3293SOL    HW121515   2.130   1.378   5.893  0.4140  0.6769 -0.1077
 3293SOL    HW221516   2.267   1.360   5.950 -1.0090 -1.7209  1.4167
 3294SOL     OW21517   0.672   1.230   8.319 -0.1300  0.5164 -0.0239
 3294SOL    HW121518   0.765   1.218   8.337 -0.1031  2.7977  1.3696
 3294SOL    HW221519   0.637   1.184   8.395 -2.1956  2.3984  0.1447
 3295SOL     OW21520   2.275   3.907   7.100  0.5184 -0.0155 -0.4511
 3295SOL    HW121521   2.314   3.880   7.017  0.2020  0.4783 -0.7576
 3295SOL    HW221522   2.246   3.823   7.135 -0.4869  0.1020 -0.9951
 3296SOL     OW21523   1.197   2.920   1.734  0.6167  0.2618  0.2714
 3296SOL    HW121524   1.211   2.880   1.648  0.5583 -0.6090  0.6659
 3296SOL    HW221525   1.227   2.851   1.793 -0.8890  0.3796  1.1762
 3297SOL     OW21526   2.702   1.713   3.110 -0.2242 -0.2235  0.7093
 3297SOL    HW121527   2.773   1.717   3.174 -0.3255 -0.5151  0.8390
 3297SOL    HW221528   2.630   1.682   3.164  0.1409 -1.7806  0.2982
 3298SOL     OW21529   0.830   4.613   8.606  0.0211 -0.4625 -0.6679
 3298SOL    HW121530   0.777   4.692   8.596 -0.5603 -1.0727 -2.4086
 3298SOL    HW221531   0.913   4.635   8.563  0.5410  1.4250  1.2942
 3299SOL     OW21532   3.214   1.557   1.911  0.0125 -0.5027  0.0827
 3299SOL    HW121533   3.144   1.612   1.946  0.4807  0.5164 -0.5725
 3299SOL    HW221534   3.194   1.470   1.945 -0.2342 -0.6781 -0.5327
 3300SOL     OW21535   0.534   3.756   3.772 -0.6085 -0.4611  0.6018
 3300SOL    HW121536   0.455   3.804   3.747  2.1586  4.1061  0.6514
 3300SOL    HW221537   0.594   3.826   3.797 -0.5243 -0.4302  0.3116
 3301SOL     OW21538   1.429   2.767   7.417 -0.2830 -0.5382  0.1129
 3301SOL    HW121539   1.503   2.718   7.381 -1.0484 -1.3850 -0.3184
 3301SOL    HW221540   1.476   2.850   7.413  1.3630 -1.4378  0.5546
 3302SOL     OW21541   3.058   4.245   7.385  0.8633 -0.5899 -0.3098
 3302SOL    HW121542   2.995   4.315   7.399  0.8106 -0.9475  1.2083
 3302SOL    HW221543   3.121   4.301   7.340  0.7176 -1.5341 -1.7195
 3303SOL     OW21544   4.303   1.612   8.299 -0.2499 -0.0360 -0.1592
 3303SOL    HW121545   4.254   1.695   8.301  0.7619  0.5360  0.4609
 3303SOL    HW221546   4.309   1.590   8.206  1.0083 -0.5962  0.0552
 3304SOL     OW21547   2.688   0.518   7.700 -0.0440  0.2576 -0.3235
 3304SOL    HW121548   2.773   0.507   7.657 -0.1836  1.0294 -0.7870
 3304SOL    HW221549   2.717   0.565   7.778  0.0813 -0.6311  0.1673
 3305SOL     OW21550   0.343   3.179  16.348 -0.0340 -0.3378 -0.2268
 3305SOL    HW121551   0.409   3.166  16.417  0.4358  0.1147 -0.5874
 3305SOL    HW221552   0.267   3.202  16.401 -0.1391 -1.4736  0.1100
 3306SOL     OW21553   3.104   3.791   6.408 -0.2862  0.2443 -0.4206
 3306SOL    HW121554   3.051   3.826   6.480 -0.2276 -0.5807  0.0245
 3306SOL    HW221555   3.045   3.824   6.341  1.1577 -0.5531 -2.0739
 3307SOL     OW21556   2.746   0.713   7.914 -0.5603 -0.7286  0.3174
 3307SOL    HW121557   2.825   0.767   7.924 -0.0527 -1.4836  0.4396
 3307SOL    HW221558   2.710   0.733   8.000  2.4228 -0.5220  1.5451
 3308SOL     OW21559   3.741   2.905   7.727  0.1436 -0.4998  0.7859
 3308SOL    HW121560   3.738   2.990   7.684  2.1929 -0.2097  1.2181
 3308SOL    HW221561   3.661   2.874   7.685  1.4663  0.6850 -2.5698
 3309SOL     OW21562   4.700   3.291   9.485  0.2549 -0.4517 -0.0297
 3309SOL    HW121563   4.610   3.306   9.515  0.3118  1.4993 -0.8433
 3309SOL    HW221564   4.718   3.219   9.546 -1.1977  1.1088  2.2633
 3310SOL     OW21565   4.496   0.893   4.980  0.2729 -0.0470 -0.0641
 3310SOL    HW121566   4.560   0.962   4.997  1.0186 -0.3160 -1.8411
 3310SOL    HW221567   4.479   0.867   5.070 -1.4149  1.4305  0.0606
 3311SOL     OW21568   0.610   3.184   4.738  0.1387  0.2311 -0.3936
 3311SOL    HW121569   0.648   3.110   4.689 -1.3985 -0.9870  0.2576
 3311SOL    HW221570   0.639   3.155   4.825  2.0825 -1.4652 -1.5848
 3312SOL     OW21571   1.008   4.447   8.817  0.0968  0.3070  0.2758
 3312SOL    HW121572   0.952   4.504   8.764  2.2887 -0.3059 -2.7183
 3312SOL    HW221573   0.999   4.478   8.907 -0.4173  0.0507  0.3163
 3313SOL     OW21574   4.592   1.946  14.326 -0.1601 -0.2376  0.1812
 3313SOL    HW121575   4.647   1.957  14.249  0.5697  1.7571  0.9888
 3313SOL    HW221576   4.532   2.020  14.324 -0.7146 -0.6791  0.3003
 3314SOL     OW21577   3.543   2.364   8.286 -0.1516 -0.2199 -0.0608
 3314SOL    HW121578   3.514   2.340   8.374 -2.6684  0.7769 -0.6185
 3314SOL    HW221579   3.467   2.341   8.232  1.0809  1.5816 -2.5579
 3315SOL     OW21580   3.649   0.475   9.803 -0.5880 -0.4514 -0.0066
 3315SOL    HW121581   3.737   0.438   9.815 -1.0744 -2.9905 -4.2416
 3315SOL    HW221582   3.601   0.397   9.776 -1.0169 -0.4063  0.6144
 3316SOL     OW21583   1.905   0.964  11.000  0.7816 -0.5757 -0.6922
 3316SOL    HW121584   1.885   0.876  10.970 -0.6995  0.2857 -2.2269
 3316SOL    HW221585   1.864   1.019  10.933 -0.9596 -1.3322 -0.2492
 3317SOL     OW21586   4.612   1.273   2.800  0.2100  0.1959 -0.0153
 3317SOL    HW121587   4.696   1.239   2.830 -0.1526 -1.5370 -0.9393
 3317SOL    HW221588   4.615   1.266   2.704 -0.7805  0.7812 -0.0860
 3318SOL     OW21589   1.546   2.992   4.323 -0.3246  0.8953 -0.0544
 3318SOL    HW121590   1.509   3.006   4.410 -1.0955 -1.0606 -0.0742
 3318SOL    HW221591   1.471   2.985   4.265 -0.6727  0.6140  0.4361
 3319SOL     OW21592   0.039   4.312   8.462  0.5466 -0.0930  0.1104
 3319SOL    HW121593   4.706   4.355   8.512  0.0979 -0.7831  0.0822
 3319SOL    HW221594   0.104   4.379   8.440  0.3079 -1.1652 -3.7438
 3320SOL     OW21595   0.897   3.403  10.599 -0.0900 -0.7331 -0.5872
 3320SOL    HW121596   0.929   3.406  10.690 -0.1639  3.1986 -0.6954
 3320SOL    HW221597   0.813   3.358  10.610  0.0738 -0.8074  0.3849
 3321SOL     OW21598   3.411   3.639   7.914 -0.6033  0.3940  0.0640
 3321SOL    HW121599   3.428   3.732   7.897  0.4271  0.3958  1.1068
 3321SOL    HW221600   3.316   3.641   7.907 -0.6755 -1.4504  0.5558
 3322SOL     OW21601   0.813   1.671   3.762 -0.3976 -0.1480  0.0921
 3322SOL    HW121602   0.776   1.636   3.843  0.5506  1.7233  1.3292
 3322SOL    HW221603   0.824   1.764   3.785  0.6012 -0.2409  0.0047
 3323SOL     OW21604   0.278   3.752  12.812  0.1082 -0.5688  0.0469
 3323SOL    HW121605   0.302   3.828  12.865  1.1015 -1.2671  0.6195
 3323SOL    HW221606   0.323   3.676  12.849 -0.4253 -1.4095 -1.0338
 3324SOL     OW21607   1.004   0.127   7.365  0.1595 -0.3431  0.0068
 3324SOL    HW121608   1.077   0.122   7.304 -1.8126 -0.6493 -2.3016
 3324SOL    HW221609   0.939   0.084   7.310  2.0855 -0.6640 -2.0056
 3325SOL     OW21610   2.662   0.427  12.973 -0.5620  0.3697  0.3257
 3325SOL    HW121611   2.629   0.362  12.911  0.3686  0.6076 -0.4234
 3325SOL    HW221612   2.592   0.421  13.038  0.3067  2.2622  1.4353
 3326SOL     OW21613   1.741   4.689   6.881  0.5349 -0.5113  0.1507
 3326SOL    HW121614   1.731   0.046   6.900  2.0617 -0.2591 -0.3047
 3326SOL    HW221615   1.833   4.676   6.905  0.9633  0.5991 -0.8727
 3327SOL     OW21616   3.812   0.322   1.850  0.0301  0.4815 -0.0797
 3327SOL    HW121617   3.795   0.276   1.933 -0.5887  0.3484 -0.2833
 3327SOL    HW221618   3.882   0.380   1.879  2.5196 -2.5053 -0.1028
 3328SOL     OW21619   0.174   0.516   3.052  0.2480  0.0667  0.4293
 3328SOL    HW121620   0.102   0.454   3.038 -0.6634  1.3234 -0.4448
 3328SOL    HW221621   0.220   0.501   2.969  0.0090 -1.7783  0.6313
 3329SOL     OW21622   4.484   1.689   5.111  0.4513  0.2645  0.1936
 3329SOL    HW121623   4.482   1.599   5.141 -1.0546 -1.0501 -3.8934
 3329SOL    HW221624   4.533   1.689   5.028 -1.5041 -2.7118 -0.9526
 3330SOL     OW21625   3.741   0.420  17.056 -1.2050 -0.0245 -0.1891
 3330SOL    HW121626   3.713   0.413  16.964 -0.9632 -0.8658 -0.1985
 3330SOL    HW221627   3.747   0.327  17.076  1.6328  0.1679 -0.1413
 3331SOL     OW21628   3.234   4.462   7.285  0.5037  0.0270  0.7115
 3331SOL    HW121629   3.165   4.527   7.271  0.8205 -0.0293 -1.0446
 3331SOL    HW221630   3.315   4.506   7.259  0.7337 -0.4090  0.6890
 3332SOL     OW21631   2.729   4.180  17.014 -0.0044  0.2063  0.1960
 3332SOL    HW121632   2.753   4.208  17.102  0.5037  1.1867 -0.2541
 3332SOL    HW221633   2.765   4.093  17.000  0.8867  1.1994 -3.6353
 3333SOL     OW21634   3.042   3.331   6.648 -0.2193  0.3174 -0.0558
 3333SOL    HW121635   3.067   3.406   6.703  0.0014 -0.7801  1.3232
 3333SOL    HW221636   3.051   3.379   6.565  1.3509 -0.4738 -0.3367
 3334SOL     OW21637   4.260   0.830   4.826 -0.1423 -0.0333  0.1315
 3334SOL    HW121638   4.210   0.907   4.852  0.8972 -0.0269  2.0851
 3334SOL    HW221639   4.340   0.836   4.878 -1.1399 -2.1774  1.8739
 3335SOL     OW21640   1.631   2.369   5.293 -0.0067 -0.3112  0.2066
 3335SOL    HW121641   1.712   2.419   5.291  1.5356 -2.8000  0.1871
 3335SOL    HW221642   1.611   2.386   5.385  1.1476 -2.1531  0.8042
 3336SOL     OW21643   3.871   2.863   5.288  0.0861  0.1938 -0.2126
 3336SOL    HW121644   3.793   2.807   5.288  0.1529  0.0991 -0.0313
 3336SOL    HW221645   3.829   2.943   5.258 -0.5298 -0.3292 -0.7307
 3337SOL     OW21646   1.048   4.344  12.345 -0.0455  0.0930 -0.2552
 3337SOL    HW121647   1.026   4.395  12.423  0.2763 -0.3229  0.1048
 3337SOL    HW221648   1.031   4.411  12.278  1.5579 -0.8373 -1.5866
 3338SOL     OW21649   0.446   3.565   8.785 -0.0933  0.0517  0.5081
 3338SOL    HW121650   0.454   3.654   8.751  2.1977 -0.2972  0.1534
 3338SOL    HW221651   0.352   3.548   8.783 -0.2328  0.7195  1.5157
 3339SOL     OW21652   3.841   0.029  14.820 -0.2221  0.7979 -0.1294
 3339SOL    HW121653   3.863   0.035  14.727 -0.4192  2.2894 -0.0813
 3339SOL    HW221654   3.811   4.674  14.826 -0.5959  1.1444  3.1240
 3340SOL     OW21655   2.290   1.819  16.720 -0.2363 -0.3175  0.0960
 3340SOL    HW121656   2.311   1.912  16.707  0.5448 -0.1944  2.1951
 3340SOL    HW221657   2.364   1.779  16.674 -0.2667 -0.4068  0.1255
 3341SOL     OW21658   4.322   2.861   2.525 -0.4540 -0.1334 -0.2868
 3341SOL    HW121659   4.325   2.793   2.459  1.5707  0.9118 -1.2804
 3341SOL    HW221660   4.230   2.885   2.537 -0.4256  0.6270 -1.5441
 3342SOL     OW21661   1.362   3.407  12.968  0.2379  0.0270 -0.1354
 3342SOL    HW121662   1.441   3.450  13.001  1.3941  0.0081 -2.8258
 3342SOL    HW221663   1.332   3.463  12.896 -1.5743 -1.9083 -0.8957
 3343SOL     OW21664   0.498   4.234   6.615  0.2563  0.8789 -0.3910
 3343SOL    HW121665   0.412   4.235   6.657  0.6409 -0.7705  0.4039
 3343SOL    HW221666   0.540   4.255   6.699  0.7175 -0.9889 -0.1540
 3344SOL     OW21667   1.695   1.515  13.101  0.0245 -0.1908 -0.6333
 3344SOL    HW121668   1.727   1.495  13.189 -0.5676  2.2731  0.1453
 3344SOL    HW221669   1.606   1.485  13.116 -0.5805  2.4945  1.2255
 3345SOL     OW21670   3.577   0.112  15.841  0.0275  0.3536 -0.4212
 3345SOL    HW121671   3.537   0.038  15.887 -1.9677 -0.4225 -3.4703
 3345SOL    HW221672   3.497   0.149  15.805  0.0414 -0.0183 -0.8279
 3346SOL     OW21673   4.414   1.728  15.137 -0.3458 -0.6893 -0.2851
 3346SOL    HW121674   4.436   1.821  15.130 -0.9591 -0.7535 -2.8568
 3346SOL    HW221675   4.388   1.704  15.048 -0.8538  1.1838 -0.6456
 3347SOL     OW21676   0.926   1.124   9.433 -0.3461  0.0765  0.1211
 3347SOL    HW121677   0.901   1.045   9.481 -1.8065  0.9923  0.8407
 3347SOL    HW221678   0.841   1.162   9.412 -0.7116  0.2023  1.8936
 3348SOL     OW21679   2.676   2.967   4.872 -0.1119  0.4977 -0.0046
 3348SOL    HW121680   2.610   3.016   4.921  1.8344  0.6175  2.5143
 3348SOL    HW221681   2.705   3.028   4.805  0.9688 -2.9275 -2.6146
 3349SOL     OW21682   4.688   1.714   6.571 -0.4591 -0.5618  0.5838
 3349SOL    HW121683   0.013   1.650   6.534 -1.5993 -0.3257 -1.7605
 3349SOL    HW221684   4.730   1.798   6.556  1.6050 -1.7768 -0.4980
 3350SOL     OW21685   4.428   1.135   6.297  0.1030 -0.2929 -0.1099
 3350SOL    HW121686   4.425   1.040   6.285  1.1520 -0.2859 -0.4661
 3350SOL    HW221687   4.337   1.142   6.325 -0.2092  2.0566 -1.7318
 3351SOL     OW21688   2.350   3.862  11.383 -0.2025  0.5970 -0.2891
 3351SOL    HW121689   2.410   3.817  11.323  1.9523  0.8966  1.6005
 3351SOL    HW221690   2.344   3.810  11.463 -1.2461 -1.3162 -1.6465
 3352SOL     OW21691   1.358   2.369  14.685  0.0538  0.3582  0.1679
 3352SOL    HW121692   1.450   2.397  14.681  0.0852  0.1262 -0.8348
 3352SOL    HW221693   1.319   2.378  14.598 -1.9547  1.6103  1.2000
 3353SOL     OW21694   0.402   2.168   2.983  0.1989  0.3893 -0.1681
 3353SOL    HW121695   0.344   2.099   2.952  2.5112 -1.0792 -1.2538
 3353SOL    HW221696   0.478   2.132   2.937  2.0047  1.5721  1.9098
 3354SOL     OW21697   3.179   1.775   0.876  0.5279 -0.2067  0.3800
 3354SOL    HW121698   3.205   1.695   0.923 -0.2863  1.1830  3.1996
 3354SOL    HW221699   3.254   1.814   0.832 -0.6844  0.5010 -1.0645
 3355SOL     OW21700   4.064   1.099   2.933  0.4961  0.1259  0.1388
 3355SOL    HW121701   4.076   1.060   2.847 -2.3518  0.8747 -0.5975
 3355SOL    HW221702   4.138   1.160   2.932  0.0518  0.6489 -1.4780
 3356SOL     OW21703   1.607   4.316   2.910  0.1762  0.7876  0.2053
 3356SOL    HW121704   1.678   4.323   2.845 -0.5516 -0.0892 -0.6921
 3356SOL    HW221705   1.609   4.404   2.946 -0.4178  1.2023 -0.7752
 3357SOL     OW21706   0.013   4.285  15.222 -0.4213  0.1457 -0.0015
 3357SOL    HW121707   4.655   4.282  15.243  0.0744  0.4403  2.2726
 3357SOL    HW221708   0.050   4.217  15.279  0.3265 -0.0006 -0.6586
 3358SOL     OW21709   2.341   3.316   5.063 -0.0737 -0.9367  0.2994
 3358SOL    HW121710   2.387   3.385   5.112 -1.7955  0.8460 -0.5857
 3358SOL    HW221711   2.253   3.326   5.100  0.2999 -0.9288  1.1949
 3359SOL     OW21712   1.268   1.978   1.076 -0.4621 -0.1980 -0.0377
 3359SOL    HW121713   1.241   1.904   1.021 -0.1081 -0.8966  0.7129
 3359SOL    HW221714   1.192   2.035   1.083  0.4736  1.0307  0.0244
 3360SOL     OW21715   1.062   4.668   2.973  0.4617  0.3589  0.1615
 3360SOL    HW121716   1.057   4.616   3.053 -2.5125  2.4281  1.3678
 3360SOL    HW221717   0.973   4.651   2.943  1.1440  1.0765 -2.2454
 3361SOL     OW21718   3.033   1.581   8.027 -0.5961  0.2922 -0.1630
 3361SOL    HW121719   2.990   1.667   8.035 -2.0138 -0.2861 -1.5719
 3361SOL    HW221720   2.997   1.530   8.100  2.7312  1.4705  2.2872
 3362SOL     OW21721   3.123   2.572   9.408 -0.0181 -0.1975  0.2871
 3362SOL    HW121722   3.187   2.610   9.348 -1.2775  0.0774 -0.8933
 3362SOL    HW221723   3.151   2.480   9.404  3.0428  0.7502  0.4811
 3363SOL     OW21724   0.920   0.154  13.462  0.0145  0.2052 -0.0740
 3363SOL    HW121725   0.980   0.108  13.522  0.5504 -0.7257 -1.3353
 3363SOL    HW221726   0.970   0.167  13.382  0.0011 -1.7684 -0.4140
 3364SOL     OW21727   0.806   2.890   5.568  0.0638  0.0294 -0.5344
 3364SOL    HW121728   0.872   2.881   5.637 -0.2828 -2.1240 -0.4875
 3364SOL    HW221729   0.737   2.926   5.623  1.5612  0.7254  0.9023
 3365SOL     OW21730   1.833   0.817   5.502  0.1897  0.1887  0.1897
 3365SOL    HW121731   1.748   0.840   5.463  0.6697 -2.3720 -2.4151
 3365SOL    HW221732   1.892   0.875   5.453  1.4414 -1.3622 -0.1170
 3366SOL     OW21733   3.470   0.555   4.613  0.2569 -0.1693  0.4030
 3366SOL    HW121734   3.521   0.633   4.594 -1.8718  1.2472  0.4852
 3366SOL    HW221735   3.420   0.546   4.532  0.5885  2.4688 -0.1035
 3367SOL     OW21736   0.838   4.203   2.525 -0.3109  0.1737 -0.3526
 3367SOL    HW121737   0.819   4.287   2.485 -1.6783  0.3234  0.6206
 3367SOL    HW221738   0.926   4.205   2.562 -0.0052 -0.3231 -1.0507
 3368SOL     OW21739   0.479   4.413   3.989  0.2970 -0.2696  0.2888
 3368SOL    HW121740   0.408   4.476   3.999 -0.8309 -1.3258 -0.8810
 3368SOL    HW221741   0.473   4.399   3.894  0.0383  2.7191 -0.1109
 3369SOL     OW21742   1.662   2.081  10.372 -0.5919 -0.4754  0.2892
 3369SOL    HW121743   1.635   1.993  10.396  1.3529 -1.4315 -0.9836
 3369SOL    HW221744   1.753   2.065  10.344 -0.7977  0.3466 -0.8943
 3370SOL     OW21745   1.217   4.702   7.892  0.2842 -0.5560 -0.2109
 3370SOL    HW121746   1.295   4.667   7.849  1.1722  1.2797 -0.0702
 3370SOL    HW221747   1.251   0.047   7.931 -0.2689 -0.6257  0.4123
 3371SOL     OW21748   3.582   0.764   6.817 -0.8909 -0.0439  0.3136
 3371SOL    HW121749   3.578   0.690   6.878 -1.3741 -0.5701 -0.3655
 3371SOL    HW221750   3.498   0.749   6.774 -0.7155 -1.0779  0.3282
 3372SOL     OW21751   4.722   3.243   2.906  0.2037 -1.5450  0.2491
 3372SOL    HW121752   4.697   3.152   2.922  0.4491 -1.9707 -1.8871
 3372SOL    HW221753   0.011   3.241   2.814 -0.8552 -0.6767 -0.0403
 3373SOL     OW21754   0.294   1.418  16.566  0.0695  0.2291  0.1966
 3373SOL    HW121755   0.240   1.389  16.639 -0.1883  1.5343  0.5234
 3373SOL    HW221756   0.321   1.504  16.598  0.8686 -0.2942  0.9224
 3374SOL     OW21757   3.303   0.782   5.589  0.0179 -0.2322 -0.5606
 3374SOL    HW121758   3.349   0.857   5.552  1.4049 -0.8466 -0.0809
 3374SOL    HW221759   3.374   0.719   5.604 -0.2548 -0.2429  0.6390
 3375SOL     OW21760   2.389   3.937  13.825 -0.0386  0.0699 -0.2192
 3375SOL    HW121761   2.445   3.915  13.899 -1.7174 -1.2750  0.6349
 3375SOL    HW221762   2.310   3.956  13.875  0.5475  0.1079  0.7009
 3376SOL     OW21763   0.147   0.634   8.740 -0.2040  0.3460  0.3484
 3376SOL    HW121764   0.220   0.693   8.721 -0.6628  0.5604 -0.7122
 3376SOL    HW221765   0.081   0.678   8.687 -0.8433  0.9271  1.6229
 3377SOL     OW21766   3.991   3.890   8.972  0.0450 -0.5416  0.4521
 3377SOL    HW121767   3.927   3.852   9.031  1.9870 -3.1845  0.8337
 3377SOL    HW221768   3.953   3.968   8.931  0.3941  0.7905  2.6704
 3378SOL     OW21769   3.910   4.375  14.914  0.0151 -0.5273  0.3337
 3378SOL    HW121770   3.993   4.333  14.892  0.2054  0.1528 -0.2599
 3378SOL    HW221771   3.923   4.451  14.857  1.6273 -0.3138  0.9950
 3379SOL     OW21772   2.886   0.729   7.528  0.0101 -0.7088  0.2343
 3379SOL    HW121773   2.801   0.735   7.485 -1.1386 -1.9473  2.3520
 3379SOL    HW221774   2.911   0.818   7.555 -0.9380 -1.1179  2.4572
 3380SOL     OW21775   1.353   1.967   2.052 -0.5147  0.2629  0.2164
 3380SOL    HW121776   1.312   1.926   2.128 -1.7877  1.6053  0.2535
 3380SOL    HW221777   1.337   1.894   1.992  1.9698 -0.4790  0.4277
 3381SOL     OW21778   0.461   2.996   8.625  0.0249  0.0842  0.2889
 3381SOL    HW121779   0.411   2.923   8.586  0.4542  0.6865 -1.3686
 3381SOL    HW221780   0.413   3.074   8.599 -1.0609 -0.3839  0.8767
 3382SOL     OW21781   2.977   2.962   2.862 -0.2483  0.7860 -0.1192
 3382SOL    HW121782   3.050   2.902   2.871 -0.8167 -0.0652 -1.2105
 3382SOL    HW221783   2.986   3.003   2.948  1.7662 -0.0442  0.0629
 3383SOL     OW21784   0.320   2.532   4.557 -0.6250 -0.0940  0.8340
 3383SOL    HW121785   0.357   2.620   4.547 -1.9233  0.2269 -1.0839
 3383SOL    HW221786   0.388   2.490   4.611 -2.1417 -2.2447  1.0695
 3384SOL     OW21787   2.022   0.373   3.677 -0.3372  0.1605 -0.0160
 3384SOL    HW121788   1.962   0.307   3.642  0.6682  0.5013 -2.4077
 3384SOL    HW221789   2.038   0.341   3.765 -0.2857  0.2919  0.0221
 3385SOL     OW21790   2.936   0.278   6.066 -0.6132  0.0363 -0.0419
 3385SOL    HW121791   2.937   0.374   6.063 -1.1145  0.0058 -1.0351
 3385SOL    HW221792   2.938   0.279   6.162 -0.2232 -0.1698 -0.0485
 3386SOL     OW21793   1.728   0.608  13.489  0.2440 -0.3935 -0.1602
 3386SOL    HW121794   1.799   0.558  13.450 -0.7118 -0.0121 -2.3985
 3386SOL    HW221795   1.746   0.598  13.583 -2.0874  0.8963  0.4473
 3387SOL     OW21796   4.485   0.174   1.981  0.3949  0.2205  0.0126
 3387SOL    HW121797   4.425   0.112   1.938 -0.6246 -0.3769  2.2858
 3387SOL    HW221798   4.533   0.203   1.904 -0.9619  0.5708 -0.7171
 3388SOL     OW21799   2.983   2.408   8.354  0.2123  0.1188  0.5495
 3388SOL    HW121800   2.904   2.390   8.404 -0.0671  0.2731  0.1690
 3388SOL    HW221801   3.022   2.321   8.345  0.5495  0.2524  0.7286
 3389SOL     OW21802   3.529   2.812   7.140 -0.0975  0.0283  0.9255
 3389SOL    HW121803   3.498   2.854   7.060 -1.3704  0.1130  1.4572
 3389SOL    HW221804   3.472   2.860   7.201  0.4156 -0.4669  1.8018
 3390SOL     OW21805   1.039   4.594  13.343  0.6582 -0.0865  0.3359
 3390SOL    HW121806   1.113   4.639  13.384  1.0305  0.1179 -0.5852
 3390SOL    HW221807   0.976   4.606  13.415  0.5359  1.5268 -0.0256
 3391SOL     OW21808   0.602   0.387   6.895  0.6438 -0.5262  0.4320
 3391SOL    HW121809   0.696   0.407   6.893  0.1815  1.0779 -3.7660
 3391SOL    HW221810   0.561   0.455   6.948 -0.4114  0.3942 -1.5742
 3392SOL     OW21811   0.700   1.557   2.148  0.3102  0.3823  0.2751
 3392SOL    HW121812   0.733   1.642   2.178 -2.9094  1.4083  0.9713
 3392SOL    HW221813   0.783   1.518   2.121  0.4428  1.0823 -0.3432
 3393SOL     OW21814   0.591   1.205   4.464 -0.2445 -0.1842 -0.4165
 3393SOL    HW121815   0.512   1.231   4.511 -1.1033 -2.0817 -0.7767
 3393SOL    HW221816   0.576   1.111   4.449  0.7392 -0.2944 -0.7429
 3394SOL     OW21817   3.373   2.337   5.755  0.1316  0.1332  0.1927
 3394SOL    HW121818   3.403   2.308   5.669  0.1873  0.7832 -0.0131
 3394SOL    HW221819   3.427   2.416   5.764 -0.0123 -0.0370  2.6323
 3395SOL     OW21820   1.510   2.138   9.326 -0.3461 -0.6104 -0.5216
 3395SOL    HW121821   1.553   2.067   9.373 -0.8097 -0.6488 -0.1602
 3395SOL    HW221822   1.465   2.184   9.397  1.8951 -1.3775  1.3796
 3396SOL     OW21823   4.345   0.640   4.636 -0.6989 -0.5641 -0.3051
 3396SOL    HW121824   4.361   0.709   4.571  0.1410 -2.3646 -2.0426
 3396SOL    HW221825   4.332   0.687   4.718 -2.6684  0.0423 -0.9841
 3397SOL     OW21826   4.581   2.423   3.236  0.3824  0.1479 -0.8651
 3397SOL    HW121827   4.674   2.414   3.257  0.1077  0.3998  0.4353
 3397SOL    HW221828   4.573   2.518   3.231  0.1823  0.3014  2.1757
 3398SOL     OW21829   0.172   1.276  12.934 -0.6098  0.1837 -0.0833
 3398SOL    HW121830   0.258   1.240  12.958 -0.1533  0.8524 -0.7292
 3398SOL    HW221831   0.167   1.354  12.990 -0.0590  0.2443 -0.1212
 3399SOL     OW21832   2.238   0.886   1.005  0.6588 -0.3957 -0.2194
 3399SOL    HW121833   2.293   0.860   1.079  0.2145 -0.7007  0.0012
 3399SOL    HW221834   2.283   0.858   0.926 -0.9827 -0.9389 -0.9533
 3400SOL     OW21835   4.076   3.651   3.170 -0.0478  0.6227  0.5632
 3400SOL    HW121836   4.051   3.591   3.099  2.4616 -1.7450  1.6941
 3400SOL    HW221837   4.007   3.717   3.161 -0.2810 -0.2682 -4.1786
 3401SOL     OW21838   0.309   1.246   8.932 -0.1845 -0.5007  0.1645
 3401SOL    HW121839   0.399   1.237   8.901 -1.3556 -2.8160 -2.5359
 3401SOL    HW221840   0.267   1.177   8.880 -0.5981 -0.3067  0.2419
 3402SOL     OW21841   0.031   0.139   6.386 -0.0011 -0.0968  0.5833
 3402SOL    HW121842   0.038   0.164   6.478  0.5925  1.4414  0.1212
 3402SOL    HW221843   0.068   0.052   6.391 -1.5475 -0.9142 -1.9091
 3403SOL     OW21844   3.264   2.564   4.264  0.1322 -0.2820 -0.2894
 3403SOL    HW121845   3.260   2.469   4.274  0.2482 -0.2049  0.4977
 3403SOL    HW221846   3.356   2.564   4.293  0.7824 -0.2293 -2.3507
 3404SOL     OW21847   1.638   4.439   0.462 -0.0656  0.2916 -0.7795
 3404SOL    HW121848   1.726   4.458   0.429  0.6974 -0.3576  0.8808
 3404SOL    HW221849   1.632   4.345   0.475 -0.1754  0.1335 -1.9468
 3405SOL     OW21850   0.420   0.293   9.511  0.0969  0.2653  0.4140
 3405SOL    HW121851   0.427   0.234   9.436  1.5458 -0.5954  1.2193
 3405SOL    HW221852   0.512   0.287   9.540  0.1384 -1.6904 -0.1391
 3406SOL     OW21853   4.176   2.113   5.288 -0.1951  0.3197 -0.4313
 3406SOL    HW121854   4.223   2.031   5.293 -0.6183  0.2108  2.1383
 3406SOL    HW221855   4.249   2.167   5.257  0.7835 -1.4019 -1.0880
 3407SOL     OW21856   0.750   3.326   9.582 -0.1147 -0.8013 -0.4554
 3407SOL    HW121857   0.678   3.321   9.646  0.3475 -1.6561 -0.0038
 3407SOL    HW221858   0.797   3.406   9.605  0.2012 -1.0833 -0.1167
 3408SOL     OW21859   3.303   3.860   0.600 -0.3678  0.4906  0.1592
 3408SOL    HW121860   3.348   3.783   0.565 -0.2266  1.5983 -2.0273
 3408SOL    HW221861   3.332   3.852   0.691 -2.1458 -1.8932  0.5348
 3409SOL     OW21862   1.702   0.062   3.444 -0.7605 -0.1495  0.5548
 3409SOL    HW121863   1.663   4.713   3.465 -0.0022 -0.6336 -0.0054
 3409SOL    HW221864   1.656   0.075   3.361 -2.4543 -1.9797  1.2068
 3410SOL     OW21865   1.387   4.119  14.626  0.0291 -0.0138  0.3969
 3410SOL    HW121866   1.318   4.147  14.567 -0.7236 -0.6854  0.9496
 3410SOL    HW221867   1.460   4.096  14.569  0.7349  1.4292  0.7181
 3411SOL     OW21868   2.650   0.857   1.413 -0.0911  0.2501  0.2614
 3411SOL    HW121869   2.628   0.779   1.464  1.5337  0.5824  1.4469
 3411SOL    HW221870   2.693   0.820   1.335 -0.6900  0.1691 -0.0349
 3412SOL     OW21871   2.580   3.258  13.565  0.1093  0.2241 -0.4362
 3412SOL    HW121872   2.518   3.330  13.563 -1.4275 -1.0978 -0.3876
 3412SOL    HW221873   2.604   3.284  13.654  0.7650 -2.3537  0.1404
 3413SOL     OW21874   0.024   2.847   4.751  0.2857 -0.1233 -0.1115
 3413SOL    HW121875   4.688   2.796   4.790  2.3063 -0.7182  2.8054
 3413SOL    HW221876   0.037   2.800   4.668 -2.8626  1.6560 -1.6353
 3414SOL     OW21877   2.786   0.419   6.901  0.1729 -0.4273 -0.2359
 3414SOL    HW121878   2.719   0.462   6.847  0.9638  0.9998 -0.0655
 3414SOL    HW221879   2.805   0.341   6.848 -1.6441 -1.2060  0.2301
 3415SOL     OW21880   2.216   1.010   1.713 -0.5178  0.3238  0.4679
 3415SOL    HW121881   2.191   1.101   1.731  1.2878  0.4567  2.2746
 3415SOL    HW221882   2.132   0.964   1.722 -0.9077  0.8614 -0.4826
 3416SOL     OW21883   3.283   3.556   1.695  0.0439 -0.3554 -0.5020
 3416SOL    HW121884   3.315   3.483   1.748 -0.7411 -0.5719 -0.3169
 3416SOL    HW221885   3.189   3.537   1.697 -0.3651  1.7512 -0.2796
 3417SOL     OW21886   3.767   3.760  15.055  0.3461  0.0523 -0.3327
 3417SOL    HW121887   3.728   3.765  14.968 -0.6192  1.5098  0.1699
 3417SOL    HW221888   3.759   3.852  15.081  1.0989  0.7666 -2.6669
 3418SOL     OW21889   0.148   4.237   3.114  0.3199  0.4969 -0.1779
 3418SOL    HW121890   0.114   4.164   3.166  1.1566 -0.1695 -0.5816
 3418SOL    HW221891   0.066   4.286   3.100 -0.0148  0.2858  1.0230
 3419SOL     OW21892   1.726   3.851  10.227 -0.2493 -0.1434  0.1368
 3419SOL    HW121893   1.635   3.827  10.243 -0.6635  1.3536  0.0435
 3419SOL    HW221894   1.783   3.854  10.304  0.6743  0.6923 -0.5871
 3420SOL     OW21895   1.323   4.220  16.546  0.0909 -0.5617  0.2186
 3420SOL    HW121896   1.341   4.304  16.587  2.7101 -0.0641 -1.9060
 3420SOL    HW221897   1.304   4.163  16.621  0.3894  0.6006  1.1769
 3421SOL     OW21898   3.670   0.215   0.500  0.4492  0.3289 -0.4081
 3421SOL    HW121899   3.600   0.167   0.456  1.5045 -0.4933 -1.1925
 3421SOL    HW221900   3.740   0.179   0.446 -0.2218 -1.8272  0.1719
 3422SOL     OW21901   2.988   3.541   6.810  0.0030  0.8910  0.4153
 3422SOL    HW121902   3.012   3.601   6.880  0.9374  0.2048  0.6931
 3422SOL    HW221903   2.916   3.589   6.770 -2.1078 -1.8480  0.9034
 3423SOL     OW21904   3.477   1.205   2.083  0.1660 -0.3642  0.3061
 3423SOL    HW121905   3.556   1.175   2.127 -0.1114  0.4525  1.3571
 3423SOL    HW221906   3.428   1.220   2.164  1.2585 -2.6685  1.3806
 3424SOL     OW21907   4.688   1.703   4.845 -0.2348 -1.0962 -0.2527
 3424SOL    HW121908   4.719   1.633   4.902 -1.0110 -0.3647  1.0834
 3424SOL    HW221909   0.031   1.738   4.805 -0.7936 -0.2203 -0.5781
 3425SOL     OW21910   4.375   1.403   6.055  0.1095 -0.4625 -0.0180
 3425SOL    HW121911   4.404   1.311   6.062 -1.3363 -0.8299  1.0349
 3425SOL    HW221912   4.340   1.431   6.140 -1.4248  1.5164 -1.3266
 3426SOL     OW21913   2.941   4.469   5.101 -0.3733 -0.6228  0.1097
 3426SOL    HW121914   2.854   4.442   5.072  0.0079 -0.8349 -0.8110
 3426SOL    HW221915   2.947   4.555   5.060 -0.5368  0.2195  1.8345
 3427SOL     OW21916   4.495   3.668  13.104  0.5359  0.1451 -0.5970
 3427SOL    HW121917   4.506   3.727  13.030 -1.2420  2.1926  0.7794
 3427SOL    HW221918   4.571   3.611  13.091  0.4689 -0.6180  2.2269
 3428SOL     OW21919   0.646   2.457   2.422  0.4653  0.4266 -0.4028
 3428SOL    HW121920   0.613   2.464   2.332 -0.8775 -0.3161  0.0265
 3428SOL    HW221921   0.588   2.523   2.461 -0.0946 -2.0960  3.0109
 3429SOL     OW21922   3.479   3.561   4.493  0.2300 -0.0996 -0.3004
 3429SOL    HW121923   3.497   3.590   4.403  0.2889  0.4854 -0.1030
 3429SOL    HW221924   3.430   3.639   4.520  2.1477  1.6186 -1.7132
 3430SOL     OW21925   1.091   4.275  16.775  0.1261 -0.3239  0.2963
 3430SOL    HW121926   1.040   4.318  16.707  2.6428  0.7199 -0.9396
 3430SOL    HW221927   1.076   4.329  16.853 -2.4010  1.2632 -1.3302
 3431SOL     OW21928   0.801   3.731   3.429  0.0506 -0.2618 -0.1243
 3431SOL    HW121929   0.842   3.731   3.515 -1.1671 -0.8376  0.4643
 3431SOL    HW221930   0.710   3.711   3.454 -0.1557  1.0763  0.1968
 3432SOL     OW21931   0.505   1.637   6.368 -0.2491  0.3223 -0.4527
 3432SOL    HW121932   0.479   1.610   6.280 -2.3448  1.8369 -0.2888
 3432SOL    HW221933   0.544   1.722   6.348 -0.5884  0.3398 -1.0522
 3433SOL     OW21934   1.201   4.505   4.955 -0.0261 -0.8274 -0.0761
 3433SOL    HW121935   1.130   4.506   5.018  0.5280  4.9041  0.4383
 3433SOL    HW221936   1.275   4.530   5.010 -0.0704 -0.5288 -0.1549
 3434SOL     OW21937   0.125   1.562   4.281 -0.4009 -0.5122  0.3261
 3434SOL    HW121938   0.219   1.570   4.298 -0.5181  3.9408 -1.0561
 3434SOL    HW221939   0.106   1.653   4.258 -0.8996 -0.6308  0.2574
 3435SOL     OW21940   0.205   3.607   7.119  0.0952  0.2643  0.2095
 3435SOL    HW121941   0.198   3.511   7.113 -1.9043  0.5577 -2.0306
 3435SOL    HW221942   0.173   3.636   7.034  0.7225  0.7758  0.1473
 3436SOL     OW21943   4.505   2.491  15.129  0.2851 -0.2877  0.2436
 3436SOL    HW121944   4.466   2.552  15.192  1.5988  2.5707 -1.7334
 3436SOL    HW221945   4.446   2.492  15.054  1.1248  1.7245 -0.3819
 3437SOL     OW21946   2.678   0.538   4.756  0.3692 -0.1330  0.0802
 3437SOL    HW121947   2.672   0.495   4.841 -0.6881  0.6058  0.3833
 3437SOL    HW221948   2.763   0.501   4.732  0.1725 -0.4347 -0.1633
 3438SOL     OW21949   2.857   0.302   1.115  0.6584 -0.3025  0.3391
 3438SOL    HW121950   2.798   0.361   1.067  0.0734 -0.3361  1.0263
 3438SOL    HW221951   2.913   0.368   1.156 -1.7169  0.1682  2.7759
 3439SOL     OW21952   3.924   3.194   7.823  0.1380  0.4736  0.2851
 3439SOL    HW121953   3.934   3.223   7.732  2.7224  1.4114  0.8748
 3439SOL    HW221954   4.017   3.185   7.843  0.2298 -2.8180 -1.6308
 3440SOL     OW21955   1.503   3.971   5.249 -0.6337  0.1195 -0.2550
 3440SOL    HW121956   1.443   3.937   5.315 -1.9551  1.9623 -0.5157
 3440SOL    HW221957   1.590   3.954   5.287 -1.0297 -0.0912  0.5654
 3441SOL     OW21958   4.207   3.845   8.664 -0.8083  0.6897 -0.2866
 3441SOL    HW121959   4.140   3.804   8.608 -1.7083  1.1401  0.4711
 3441SOL    HW221960   4.196   3.792   8.743 -2.7458  1.9629  0.2836
 3442SOL     OW21961   1.343   0.650   3.506  0.4664  0.6550 -0.4414
 3442SOL    HW121962   1.285   0.579   3.532  0.0931  0.4540 -1.7927
 3442SOL    HW221963   1.426   0.630   3.550  0.1756  0.2564 -0.0807
 3443SOL     OW21964   2.459   1.081  15.044 -0.2747 -0.2353  0.4572
 3443SOL    HW121965   2.504   1.042  14.968 -1.5630  1.0704 -0.9751
 3443SOL    HW221966   2.503   1.023  15.107 -2.2936  0.6286  2.6347
 3444SOL     OW21967   0.242   0.934  14.148 -0.6783 -0.5476 -0.1857
 3444SOL    HW121968   0.327   0.963  14.113 -0.3219 -1.5356 -0.1560
 3444SOL    HW221969   0.196   0.921  14.065 -0.5053  0.8895 -0.4981
 3445SOL     OW21970   3.266   2.129   5.927  0.1194 -0.0992 -0.0867
 3445SOL    HW121971   3.305   2.182   5.858 -0.5230  1.1399  0.4978
 3445SOL    HW221972   3.210   2.189   5.977 -2.3076 -0.7771 -1.9967
 3446SOL     OW21973   2.073   2.624   7.353  0.4558  0.1086 -0.0521
 3446SOL    HW121974   2.029   2.675   7.421  1.4751  1.7099 -0.6087
 3446SOL    HW221975   2.003   2.560   7.339  0.1746  0.9585 -2.4460
 3447SOL     OW21976   3.537   1.731   4.184  0.0738  0.0997  0.1945
 3447SOL    HW121977   3.606   1.667   4.201 -0.9267 -1.0034  0.0575
 3447SOL    HW221978   3.542   1.746   4.090 -1.3250  0.4861  0.1773
 3448SOL     OW21979   4.330   1.742   8.744 -0.0268  0.1527 -0.1629
 3448SOL    HW121980   4.331   1.835   8.721  0.5435 -0.0420 -0.9084
 3448SOL    HW221981   4.424   1.727   8.740  0.3193  2.2041  0.3260
 3449SOL     OW21982   2.208   4.417   1.994  0.3070 -0.4826 -0.1536
 3449SOL    HW121983   2.115   4.416   1.969  1.1181  0.2599 -3.2406
 3449SOL    HW221984   2.215   4.322   2.004 -0.3144 -0.5812 -0.5946
 3450SOL     OW21985   3.353   4.462   5.716  0.2998 -0.2399  0.3401
 3450SOL    HW121986   3.283   4.497   5.771 -0.0958  1.4762 -1.2372
 3450SOL    HW221987   3.416   4.439   5.785  1.3851  0.0328 -0.5638
 3451SOL     OW21988   3.016   3.970   1.980  0.2314  0.5346 -0.2939
 3451SOL    HW121989   3.094   4.012   2.017  0.0963 -0.0446  0.6327
 3451SOL    HW221990   3.030   3.875   1.983  1.8247  0.7141 -1.9784
 3452SOL     OW21991   3.318   0.800   6.387  0.1998 -0.0801  0.0489
 3452SOL    HW121992   3.342   0.885   6.424 -3.3467  0.7763  0.3758
 3452SOL    HW221993   3.407   0.775   6.361 -0.4532 -3.2891  0.9700
 3453SOL     OW21994   2.456   0.030   5.774 -0.8660  0.0340 -0.5969
 3453SOL    HW121995   2.450   0.090   5.700 -0.3130 -0.6383 -1.1929
 3453SOL    HW221996   2.400   0.068   5.841 -0.7943 -0.7185 -0.1182
 3454SOL     OW21997   1.692   4.164  11.685 -0.2091  0.1174 -0.5064
 3454SOL    HW121998   1.767   4.184  11.629  0.9037 -1.9843  0.2599
 3454SOL    HW221999   1.616   4.197  11.637  1.0064  1.7817 -1.2901
 3455SOL     OW22000   0.678   1.181  15.181 -0.3061  0.6707  0.0514
 3455SOL    HW122001   0.719   1.097  15.164  0.6589  0.7849  1.7113
 3455SOL    HW222002   0.642   1.192  15.093 -0.4284  1.3417  0.1816
 3456SOL     OW22003   3.555   2.816   5.624  0.3062  0.3333  0.3429
 3456SOL    HW122004   3.524   2.900   5.590 -0.3276  0.0596  0.2519
 3456SOL    HW222005   3.649   2.835   5.617  0.2947 -0.5719 -2.4156
 3457SOL     OW22006   2.440   3.105   1.212 -0.3033 -0.1132 -0.1986
 3457SOL    HW122007   2.473   3.194   1.225  1.7490 -0.8211 -0.5464
 3457SOL    HW222008   2.480   3.090   1.126 -1.2157 -0.3402 -0.5865
 3458SOL     OW22009   3.389   0.898   4.599  0.2822  0.2182 -0.1112
 3458SOL    HW122010   3.431   0.932   4.678 -2.2978  0.8756  0.9721
 3458SOL    HW222011   3.464   0.875   4.545 -1.7632 -0.7598 -2.5458
 3459SOL     OW22012   4.336   1.199   2.936  0.8709 -0.2732  0.3937
 3459SOL    HW122013   4.406   1.134   2.927 -0.5027 -1.5882 -1.0365
 3459SOL    HW222014   4.373   1.264   2.877 -0.7714 -0.2940 -0.6574
 3460SOL     OW22015   4.088   1.678  16.452 -0.1519 -0.0464 -0.0627
 3460SOL    HW122016   4.081   1.626  16.372  1.1191  0.7203 -0.6825
 3460SOL    HW222017   4.183   1.671  16.466 -0.2758 -1.0533  0.2544
 3461SOL     OW22018   3.981   3.816   3.881 -0.2240  0.3796  0.1073
 3461SOL    HW122019   3.886   3.827   3.889 -0.2908 -1.7831  2.2991
 3461SOL    HW222020   3.975   3.727   3.846  1.0802  0.1701  0.4103
 3462SOL     OW22021   0.130   3.618   5.105  0.4366 -0.0795  0.5348
 3462SOL    HW122022   0.057   3.678   5.121  1.8678  1.9082 -0.2919
 3462SOL    HW222023   0.151   3.630   5.012  1.5599 -2.0495  0.5299
 3463SOL     OW22024   3.241   2.093  17.055 -0.6340 -0.4465 -0.2739
 3463SOL    HW122025   3.319   2.086  17.001 -1.6920 -3.4650 -1.4095
 3463SOL    HW222026   3.255   2.172  17.108 -0.5842 -1.8612  1.8317
 3464SOL     OW22027   3.649   0.898   8.023  0.5218 -0.0928  0.0797
 3464SOL    HW122028   3.728   0.886   8.076  1.2700  0.4369 -0.9123
 3464SOL    HW222029   3.694   0.886   7.940  1.4049 -0.0061  0.5436
 3465SOL     OW22030   1.226   1.783   9.838 -0.2034 -0.3570  0.1912
 3465SOL    HW122031   1.243   1.838   9.762  0.4997 -0.7969  0.0321
 3465SOL    HW222032   1.197   1.846   9.904 -0.8067 -0.8781  0.4265
 3466SOL     OW22033   1.006   3.556   3.380 -0.3151  1.2772 -0.0245
 3466SOL    HW122034   0.942   3.622   3.407 -0.6901  0.6548  0.6095
 3466SOL    HW222035   0.966   3.475   3.412 -1.4700  0.5510 -3.3763
 3467SOL     OW22036   2.229   3.835  10.610  0.1991 -0.2206  0.3095
 3467SOL    HW122037   2.205   3.927  10.620  0.2884 -0.1603 -0.0134
 3467SOL    HW222038   2.308   3.831  10.664  1.1991  1.3480 -1.0171
 3468SOL     OW22039   4.267   0.313   8.476  0.2822  0.2854 -0.5763
 3468SOL    HW122040   4.223   0.302   8.560 -0.0530  1.6102 -0.5699
 3468SOL    HW222041   4.208   0.373   8.430 -0.8579  0.2124  0.8079
 3469SOL     OW22042   3.284   3.573   0.515  0.1884 -0.0852 -0.1971
 3469SOL    HW122043   3.370   3.616   0.513  0.2397 -0.1712  0.0720
 3469SOL    HW222044   3.262   3.553   0.424 -0.7125 -0.0359  0.0163
 3470SOL     OW22045   0.802   0.854   7.333 -0.5746 -0.2333 -0.5070
 3470SOL    HW122046   0.741   0.886   7.399 -0.0270 -1.2422  0.4828
 3470SOL    HW222047   0.747   0.784   7.298  0.1201 -0.2019 -1.6757
 3471SOL     OW22048   0.796   3.921   7.063 -0.7753  0.4447 -0.4842
 3471SOL    HW122049   0.797   3.829   7.038 -0.1732  0.0894  0.8888
 3471SOL    HW222050   0.703   3.944   7.057 -1.0074 -1.3352 -3.5763
 3472SOL     OW22051   3.929   1.021   1.628 -0.2753  0.4348 -0.6378
 3472SOL    HW122052   3.837   0.994   1.627  0.2279 -1.3616  0.6093
 3472SOL    HW222053   3.951   1.002   1.719 -0.6955 -0.4295 -0.7188
 3473SOL     OW22054   1.722   3.269   8.839  0.0932  0.3470 -0.6437
 3473SOL    HW122055   1.715   3.323   8.918 -2.9670 -2.0502  0.7287
 3473SOL    HW222056   1.637   3.227   8.850  0.7740 -0.9410 -0.2687
 3474SOL     OW22057   1.521   0.417  13.370  0.4028  0.2188  0.2276
 3474SOL    HW122058   1.580   0.453  13.436  2.8078  0.7790 -2.2670
 3474SOL    HW222059   1.574   0.357  13.317  0.2944 -1.8620  2.4686
 3475SOL     OW22060   2.849   3.769   5.702  0.2954 -0.3250  0.1575
 3475SOL    HW122061   2.912   3.808   5.763  1.9812 -1.2914 -0.9812
 3475SOL    HW222062   2.877   3.801   5.616  1.6299 -1.2223  0.2776
 3476SOL     OW22063   1.893   2.677  11.360 -0.2344  0.4316  0.1261
 3476SOL    HW122064   1.976   2.653  11.319 -0.8372  0.4064 -1.0454
 3476SOL    HW222065   1.881   2.770  11.339 -3.3503 -0.6438 -2.7334
 3477SOL     OW22066   2.505   0.817   5.058 -0.0151 -0.0056 -0.1179
 3477SOL    HW122067   2.471   0.840   5.144 -1.0473 -0.1574 -0.4918
 3477SOL    HW222068   2.580   0.875   5.045 -0.3152  0.2424 -0.7430
 3478SOL     OW22069   2.027   3.121  12.575 -0.3263 -0.3987 -0.1596
 3478SOL    HW122070   2.080   3.191  12.612 -1.1647 -0.7894  1.7969
 3478SOL    HW222071   1.975   3.083  12.647 -0.0017  0.5292  0.5591
 3479SOL     OW22072   4.018   0.914   7.467 -0.2250  0.2133 -0.2850
 3479SOL    HW122073   3.931   0.937   7.433  0.1497  0.2598 -1.2211
 3479SOL    HW222074   4.054   0.993   7.508  0.8006 -0.4922  0.1465
 3480SOL     OW22075   0.113   4.220   2.503  0.0248  0.1530 -0.5146
 3480SOL    HW122076   0.106   4.126   2.483 -0.5865  0.3104 -1.0499
 3480SOL    HW222077   0.199   4.241   2.468  0.6576 -1.1372  0.2399
 3481SOL     OW22078   3.595   2.777  17.637 -0.0310 -0.3684 -0.2127
 3481SOL    HW122079   3.530   2.755  17.704 -0.2446  0.6943 -0.0695
 3481SOL    HW222080   3.618   2.692  17.601 -0.4384 -0.1119 -1.0777
 3482SOL     OW22081   0.341   3.649   6.242  0.0070 -0.1012 -0.5206
 3482SOL    HW122082   0.409   3.615   6.184 -1.1226  1.7734 -2.9340
 3482SOL    HW222083   0.286   3.707   6.189  0.0723 -0.2255 -0.7232
 3483SOL     OW22084   4.027   3.188   8.818 -0.5243 -0.5264  0.3967
 3483SOL    HW122085   3.984   3.262   8.775  0.7977  0.0982  0.1478
 3483SOL    HW222086   4.049   3.145   8.736  0.3029 -2.2714  1.5342
 3484SOL     OW22087   1.970   2.939   3.796  0.6318  0.4697  0.1453
 3484SOL    HW122088   1.931   2.971   3.877 -0.5646  0.3195 -0.3817
 3484SOL    HW222089   2.060   2.950   3.827  0.2694  2.4119  0.4627
 3485SOL     OW22090   2.766   3.971   3.463  0.3748  0.1312  0.5462
 3485SOL    HW122091   2.760   4.063   3.489 -1.9052 -0.1059  0.9349
 3485SOL    HW222092   2.858   3.952   3.448 -0.0738 -2.7878  1.5174
 3486SOL     OW22093   1.124   3.476   5.700 -0.3721  0.3417 -0.2062
 3486SOL    HW122094   1.217   3.487   5.716 -0.4818 -0.1182  0.7197
 3486SOL    HW222095   1.112   3.500   5.608  1.1741  0.2000 -0.4376
 3487SOL     OW22096   2.186   2.311   7.539 -0.7505 -0.0035  0.2890
 3487SOL    HW122097   2.162   2.349   7.624  0.4841 -1.5850  1.3514
 3487SOL    HW222098   2.208   2.224   7.574  0.5195  0.4215  0.5253
 3488SOL     OW22099   3.904   2.889   0.764 -0.4751  0.0579 -0.2742
 3488SOL    HW122100   3.857   2.807   0.751 -0.1693 -0.1871  0.1386
 3488SOL    HW222101   3.973   2.871   0.829 -1.2220 -0.1609  0.4518
 3489SOL     OW22102   3.501   0.604  16.449 -0.2104  0.3717 -0.4105
 3489SOL    HW122103   3.514   0.638  16.538 -0.7341  0.7100 -0.4622
 3489SOL    HW222104   3.538   0.517  16.459  0.4860  0.8276  1.0020
 3490SOL     OW22105   0.810   1.979  17.442 -0.5506  0.2511  0.3301
 3490SOL    HW122106   0.791   1.960  17.534 -0.6058 -0.3010  0.2044
 3490SOL    HW222107   0.722   1.953  17.413 -0.5170 -0.6892  1.0665
 3491SOL     OW22108   3.618   3.787  17.072  0.3127  0.1637  0.1719
 3491SOL    HW122109   3.628   3.831  16.987  4.0757 -0.7170  0.1716
 3491SOL    HW222110   3.704   3.746  17.075  0.3562  0.2252 -0.1449
 3492SOL     OW22111   3.405   2.387   9.202  0.2015  0.0067 -0.5318
 3492SOL    HW122112   3.394   2.299   9.239 -0.2280  0.1490 -0.3215
 3492SOL    HW222113   3.324   2.382   9.151 -0.6239  0.4768  0.7273
 3493SOL     OW22114   0.940   3.866  17.734 -0.3998 -0.0999 -0.1012
 3493SOL    HW122115   0.849   3.847  17.711 -0.9249  2.7795 -0.3528
 3493SOL    HW222116   0.980   3.802  17.675  0.0101 -1.4846  1.6941
 3494SOL     OW22117   0.448   2.301  14.275 -0.2067 -0.1049  0.5076
 3494SOL    HW122118   0.431   2.391  14.248  1.4238 -0.1377 -0.6314
 3494SOL    HW222119   0.423   2.250  14.198  1.8629  0.3788 -0.5127
 3495SOL     OW22120   4.361   1.035   1.546 -0.2568 -0.0330  0.4046
 3495SOL    HW122121   4.409   1.060   1.624 -0.7966  1.2320  0.3282
 3495SOL    HW222122   4.325   0.950   1.570 -0.1107 -0.0017  0.7234
 3496SOL     OW22123   3.786   0.468   1.082 -0.3653  0.1467 -0.2091
 3496SOL    HW122124   3.716   0.527   1.054 -0.4893  0.2044  0.2187
 3496SOL    HW222125   3.765   0.464   1.175 -0.6726 -2.7943 -0.4166
 3497SOL     OW22126   3.423   1.156   8.743  0.1036  0.3496 -0.1178
 3497SOL    HW122127   3.503   1.108   8.763 -0.2684 -1.1220 -2.1387
 3497SOL    HW222128   3.436   1.244   8.778 -1.8029  0.9502 -0.8983
 3498SOL     OW22129   0.802   0.915   3.158  0.5118 -0.0034  0.5056
 3498SOL    HW122130   0.782   0.836   3.107 -2.4621 -0.3669  2.2318
 3498SOL    HW222131   0.746   0.982   3.119 -0.4155 -0.3064  1.3206
 3499SOL     OW22132   4.452   1.949   2.247  0.7967 -0.5775  0.4675
 3499SOL    HW122133   4.489   1.948   2.335  0.5211  2.0571  0.6093
 3499SOL    HW222134   4.492   2.028   2.212  3.9016 -1.6946  1.5033
 3500SOL     OW22135   0.838   1.163  11.456  0.1377  0.2107 -0.7290
 3500SOL    HW122136   0.800   1.248  11.479  1.6121 -0.2233  3.2912
 3500SOL    HW222137   0.910   1.190  11.400  1.2514 -0.0307  0.5988
 3501SOL     OW22138   3.083   0.045   8.506 -0.4510  0.0430 -0.1128
 3501SOL    HW122139   3.006   0.087   8.467  0.7836  2.4796  0.0985
 3501SOL    HW222140   3.145   0.041   8.433 -0.1884  1.2347  0.0565
 3502SOL     OW22141   4.176   2.814   6.627 -0.0208  0.2328 -0.5535
 3502SOL    HW122142   4.103   2.849   6.575 -1.2537  0.1078  1.0764
 3502SOL    HW222143   4.190   2.880   6.695 -1.7793 -1.5350  1.5216
 3503SOL     OW22144   2.623   3.282   3.439  0.0297  0.4393  0.5264
 3503SOL    HW122145   2.537   3.241   3.442  0.3312 -0.1137  1.4175
 3503SOL    HW222146   2.649   3.308   3.527  0.5774 -2.1925  1.1436
 3504SOL     OW22147   2.354   4.252   4.108  0.2429  0.4066  0.3807
 3504SOL    HW122148   2.357   4.173   4.055 -1.1981 -0.8451  2.1695
 3504SOL    HW222149   2.440   4.289   4.086  0.8591 -1.1464  0.2007
 3505SOL     OW22150   0.486   1.467   5.722 -0.2706  0.0285  0.0899
 3505SOL    HW122151   0.466   1.378   5.749  0.1097 -0.4141 -1.1258
 3505SOL    HW222152   0.441   1.473   5.638 -1.2292  3.1560  0.8049
 3506SOL     OW22153   0.615   2.623   4.332  0.3316  0.0126 -0.4571
 3506SOL    HW122154   0.702   2.609   4.368  0.5358  3.1107  0.2522
 3506SOL    HW222155   0.627   2.622   4.237 -1.0098 -0.2321 -0.6337
 3507SOL     OW22156   2.068   4.480   9.521  0.0644  0.7371  0.0406
 3507SOL    HW122157   2.116   4.431   9.587 -1.1329 -1.7757 -0.9500
 3507SOL    HW222158   2.036   4.551   9.577 -0.9746  0.6637 -0.4470
 3508SOL     OW22159   2.700   4.485   9.788  0.2199  0.7070  0.1429
 3508SOL    HW122160   2.731   4.543   9.856 -0.9291  1.0042  0.4237
 3508SOL    HW222161   2.771   4.421   9.778  0.4237  0.8908  0.4414
 3509SOL     OW22162   1.385   1.199   3.428  0.1550 -0.4516 -0.6770
 3509SOL    HW122163   1.391   1.294   3.429  0.2122 -0.4736  0.6819
 3509SOL    HW222164   1.319   1.194   3.359  0.5411  0.8991 -1.1498
 3510SOL     OW22165   1.766   3.847   5.362  0.2043 -0.0827 -0.4639
 3510SOL    HW122166   1.824   3.923   5.369  0.3649 -0.1408 -1.0976
 3510SOL    HW222167   1.767   3.825   5.268 -0.0878  1.0159 -0.7279
 3511SOL     OW22168   3.615   2.690   2.201 -0.3121  0.2196  0.3354
 3511SOL    HW122169   3.622   2.783   2.222  0.9386  0.0284  0.7783
 3511SOL    HW222170   3.706   2.662   2.215 -0.1801 -0.6767 -2.3070
 3512SOL     OW22171   0.827   0.356  12.101 -0.3889 -0.3651 -0.1373
 3512SOL    HW122172   0.800   0.448  12.098 -0.3932 -0.3371  0.6231
 3512SOL    HW222173   0.779   0.319  12.028 -1.6724 -0.5836  0.8143
 3513SOL     OW22174   0.667   0.295   5.040  0.2489 -0.0223 -0.2320
 3513SOL    HW122175   0.624   0.266   5.120 -3.2971  0.0876 -2.0926
 3513SOL    HW222176   0.642   0.221   4.985  0.7499 -0.7393  0.5121
 3514SOL     OW22177   1.106   3.416   6.321 -0.0439 -0.1853  0.0218
 3514SOL    HW122178   1.071   3.384   6.404 -0.2757  1.5865  0.6032
 3514SOL    HW222179   1.156   3.494   6.344 -0.1273 -0.5378  1.3932
 3515SOL     OW22180   2.501   0.120   5.373 -0.2751  0.3918  0.1830
 3515SOL    HW122181   2.555   0.042   5.383 -0.1554  0.4950  0.3418
 3515SOL    HW222182   2.521   0.146   5.283  0.0545  1.5748  0.5920
 3516SOL     OW22183   1.248   2.615   4.540  0.1177 -0.4960  0.1382
 3516SOL    HW122184   1.262   2.676   4.468 -0.8292 -0.3505  0.0774
 3516SOL    HW222185   1.258   2.657   4.626  0.0068  0.2854 -0.2341
 3517SOL     OW22186   0.338   3.168   4.677 -0.1091  0.0857 -0.0179
 3517SOL    HW122187   0.432   3.177   4.692  0.3606 -0.4524 -2.6542
 3517SOL    HW222188   0.318   3.114   4.754  1.5715  0.7865  0.9100
 3518SOL     OW22189   3.629   4.083   6.442 -0.0579 -0.2223  0.1005
 3518SOL    HW122190   3.564   4.019   6.470  0.9105 -2.0755 -1.9244
 3518SOL    HW222191   3.704   4.079   6.502  0.8672  1.0595 -0.9493
 3519SOL     OW22192   4.161   3.222   5.124  0.0789  0.0021  0.4051
 3519SOL    HW122193   4.190   3.232   5.215 -0.4690 -1.4021  0.7490
 3519SOL    HW222194   4.130   3.131   5.117  2.5985 -0.8838  0.7163
 3520SOL     OW22195   2.199   2.308   9.007  0.5578 -0.0252 -0.3645
 3520SOL    HW122196   2.203   2.403   9.016 -2.7130 -0.0477  1.4943
 3520SOL    HW222197   2.284   2.281   9.042  0.9552 -0.4717 -1.6884
 3521SOL     OW22198   2.714   3.995  15.627 -0.0079  0.0639 -0.0595
 3521SOL    HW122199   2.648   3.991  15.559 -0.2893 -3.3765  0.4122
 3521SOL    HW222200   2.787   4.032  15.578 -0.0439 -0.0450 -0.1957
 3522SOL     OW22201   2.711   4.682   5.417  0.5810  0.0187 -0.1398
 3522SOL    HW122202   2.749   4.684   5.505 -0.9047 -0.6661  0.5216
 3522SOL    HW222203   2.776   4.723   5.360  0.6877  0.8810  0.5975
 3523SOL     OW22204   2.456   2.673   5.950 -0.0510 -0.0519  0.1114
 3523SOL    HW122205   2.379   2.729   5.960  0.1465  0.0789  0.8764
 3523SOL    HW222206   2.468   2.675   5.855  0.1949 -3.2001  0.0914
 3524SOL     OW22207   2.602   3.485   5.087 -0.7554  0.3355 -0.2574
 3524SOL    HW122208   2.640   3.549   5.027 -1.7087 -0.4945 -1.7502
 3524SOL    HW222209   2.622   3.408   5.034  0.4518  1.8297 -1.9690
 3525SOL     OW22210   2.950   1.433   2.340  0.4094 -0.2115  0.1248
 3525SOL    HW122211   3.045   1.447   2.343  0.1474  1.4273  0.8815
 3525SOL    HW222212   2.935   1.368   2.409 -0.7786 -1.9367 -1.7583
 3526SOL     OW22213   0.238   4.110  17.108  0.1119 -0.0720  0.1921
 3526SOL    HW122214   0.175   4.040  17.126  1.2348 -1.0963  0.1727
 3526SOL    HW222215   0.183   4.178  17.146 -1.7744 -1.1436 -0.6308
 3527SOL     OW22216   0.014   3.965  14.448 -0.0499 -0.1445  0.2027
 3527SOL    HW122217   4.735   4.034  14.384  1.3429 -0.6728 -0.6762
 3527SOL    HW222218   0.019   4.008  14.534 -1.1861  0.6059 -0.1080
 3528SOL     OW22219   2.086   2.302  15.643  0.1708 -0.0329 -0.0828
 3528SOL    HW122220   2.027   2.338  15.709 -0.1836 -0.9204  0.0813
 3528SOL    HW222221   2.103   2.213  15.673 -1.1653  0.4690  2.1579
 3529SOL     OW22222   0.172   3.360   4.518  0.5104 -0.2768  1.0128
 3529SOL    HW122223   0.100   3.302   4.497 -0.2113  0.2823  1.9348
 3529SOL    HW222224   0.234   3.315   4.576  0.6334 -1.8119 -0.3201
 3530SOL     OW22225   3.665   1.825   8.710 -0.3367 -0.3044  0.3216
 3530SOL    HW122226   3.571   1.835   8.700 -0.4270 -0.9852  0.4815
 3530SOL    HW222227   3.682   1.744   8.758  2.9943 -0.9333 -1.8884
 3531SOL     OW22228   2.726   1.588   9.911  0.4869  0.0464  0.2009
 3531SOL    HW122229   2.791   1.551   9.971  1.4934 -0.9066 -1.4740
 3531SOL    HW222230   2.642   1.554   9.941  1.3589 -0.2093  2.2874
 3532SOL     OW22231   1.277   4.059   8.085  0.9342 -0.5651  0.2603
 3532SOL    HW122232   1.334   4.025   8.154  1.3940 -1.3273 -0.4940
 3532SOL    HW222233   1.297   4.150   8.105 -0.5044 -0.4354  1.1035
 3533SOL     OW22234   2.422   2.161   4.996  0.6135 -0.6992 -0.0967
 3533SOL    HW122235   2.390   2.117   4.917  0.9066  2.3771 -1.9535
 3533SOL    HW222236   2.359   2.123   5.057  0.9081  2.2718  2.0628
 3534SOL     OW22237   1.637   2.162   8.241  0.6938  0.2787 -0.7023
 3534SOL    HW122238   1.658   2.174   8.148 -0.6093  1.4989 -0.8380
 3534SOL    HW222239   1.676   2.077   8.258  3.4381  1.3762 -1.5282
 3535SOL     OW22240   1.219   3.828   5.768  0.0865 -0.1132 -0.3341
 3535SOL    HW122241   1.300   3.875   5.784  0.4440 -0.4026 -1.3054
 3535SOL    HW222242   1.268   3.746   5.777 -0.4814 -0.3338  0.7425
 3536SOL     OW22243   3.815   2.068   0.164  0.0441 -0.1083 -0.2238
 3536SOL    HW122244   3.735   2.121   0.171 -0.6875 -1.3579  0.7864
 3536SOL    HW222245   3.853   2.104   0.083  1.9778 -0.1393  0.6718
 3537SOL     OW22246   0.251   2.119   9.374  0.1075  0.3827  0.2178
 3537SOL    HW122247   0.209   2.151   9.454 -0.0320 -0.3471  0.4370
 3537SOL    HW222248   0.181   2.127   9.310  0.2809  2.6251  0.2855
 3538SOL     OW22249   1.944   3.066  12.327  0.2824 -0.3584  0.5612
 3538SOL    HW122250   1.978   3.108  12.406  1.7999  2.8992 -1.8317
 3538SOL    HW222251   1.970   2.974  12.335 -1.3980 -0.8849 -0.0927
 3539SOL     OW22252   2.015   3.812   2.411  0.2242 -0.0249 -0.1042
 3539SOL    HW122253   2.050   3.774   2.492  1.0446  1.9058  0.4483
 3539SOL    HW222254   1.979   3.738   2.363  1.6381 -0.9619  0.2803
 3540SOL     OW22255   4.171   1.544   2.905 -0.4492  0.1753  0.1726
 3540SOL    HW122256   4.139   1.512   2.820 -2.3901 -0.2334  1.0341
 3540SOL    HW222257   4.265   1.538   2.891 -0.3099  1.3253  0.6556
 3541SOL     OW22258   4.166   1.631   2.111  0.1437 -0.1254  0.1014
 3541SOL    HW122259   4.246   1.655   2.063  0.8418  0.5123  1.5755
 3541SOL    HW222260   4.184   1.551   2.161  2.1149 -0.3220 -0.9161
 3542SOL     OW22261   2.781   1.574   7.072 -0.0780  0.4524 -0.2235
 3542SOL    HW122262   2.847   1.641   7.086 -0.4672  0.6035  0.8749
 3542SOL    HW222263   2.705   1.632   7.077 -0.6012 -0.2492  0.0769
 3543SOL     OW22264   2.471   1.753  14.805 -0.9310 -0.1331  0.4412
 3543SOL    HW122265   2.496   1.834  14.759 -1.0560 -0.0485  0.5215
 3543SOL    HW222266   2.380   1.778  14.825 -0.0429  2.8710  0.7801
 3544SOL     OW22267   0.487   2.255  12.580  0.4641 -0.1801 -0.2557
 3544SOL    HW122268   0.434   2.319  12.628 -0.2613  1.3509 -3.1040
 3544SOL    HW222269   0.430   2.236  12.506 -0.7664  2.7403 -0.0824
 3545SOL     OW22270   3.025   0.015  17.342 -0.3858 -0.4569  0.3427
 3545SOL    HW122271   3.040   0.068  17.420  0.6699 -3.1534  1.9972
 3545SOL    HW222272   3.109   4.707  17.333 -0.1462 -0.1006  0.8415
 3546SOL     OW22273   4.623   4.290   3.747 -0.2881 -0.0995 -0.4970
 3546SOL    HW122274   4.640   4.219   3.809 -1.1244  1.2700  1.2891
 3546SOL    HW222275   4.593   4.234   3.675  0.1855 -1.8971  0.6981
 3547SOL     OW22276   2.372   4.420   6.131 -0.2226  0.4432  0.1704
 3547SOL    HW122277   2.461   4.433   6.097  0.2084  0.2511  1.2313
 3547SOL    HW222278   2.354   4.335   6.091 -1.0855  0.4243  0.5974
 3548SOL     OW22279   0.782   4.178  11.807  0.5641  1.0677  0.0694
 3548SOL    HW122280   0.782   4.273  11.799  1.0239  1.2542  2.3524
 3548SOL    HW222281   0.859   4.164  11.862 -1.5763 -0.8380  2.6096
 3549SOL     OW22282   1.401   1.656   2.551 -0.5780 -0.0251 -0.6396
 3549SOL    HW122283   1.331   1.639   2.614  0.1861 -1.1787 -0.1039
 3549SOL    HW222284   1.469   1.620   2.607 -0.4411  1.3767  0.0743
 3550SOL     OW22285   1.827   2.176  11.443  0.4502 -0.6124 -0.2020
 3550SOL    HW122286   1.818   2.123  11.364 -1.2869 -0.9491  0.2130
 3550SOL    HW222287   1.883   2.124  11.502 -1.0882 -2.3199 -0.2549
 3551SOL     OW22288   0.660   4.118   4.855 -0.0762  0.4844  0.0982
 3551SOL    HW122289   0.618   4.168   4.925 -1.8461  0.9383 -1.2979
 3551SOL    HW222290   0.671   4.195   4.799 -0.6167 -1.0026 -2.0267
 3552SOL     OW22291   4.350   0.595  14.752 -0.1011  0.2070 -0.2865
 3552SOL    HW122292   4.293   0.648  14.695 -1.8132  0.3612  1.5596
 3552SOL    HW222293   4.396   0.663  14.801  0.8520  0.5650 -1.6588
 3553SOL     OW22294   2.172   3.089   0.629  0.2450 -0.0007  0.0137
 3553SOL    HW122295   2.130   3.135   0.702  1.2994  0.9969 -0.0166
 3553SOL    HW222296   2.110   3.097   0.556 -1.6061 -0.8805  1.4794
 3554SOL     OW22297   1.969   4.297   9.876  0.0749 -0.1556 -0.1546
 3554SOL    HW122298   1.905   4.319   9.808 -1.8112 -1.0867  1.3214
 3554SOL    HW222299   2.051   4.309   9.828  0.2374 -0.4341  0.0527
 3555SOL     OW22300   3.270   2.289   8.148 -0.6591 -0.3847  0.1737
 3555SOL    HW122301   3.209   2.259   8.216 -0.5819 -1.3810 -0.2068
 3555SOL    HW222302   3.247   2.233   8.074 -1.4828 -0.8342  0.7645
 3556SOL     OW22303   3.110   0.545   2.963 -0.3931 -0.0000 -0.3709
 3556SOL    HW122304   3.063   0.500   2.893 -0.1740  2.1684 -1.9187
 3556SOL    HW222305   3.195   0.525   2.922  0.6826 -2.4704  3.0504
 3557SOL     OW22306   0.521   1.054   5.883  0.3944 -0.1206 -0.3379
 3557SOL    HW122307   0.457   1.125   5.891  2.0425  1.2752  0.4825
 3557SOL    HW222308   0.579   1.091   5.816  1.0316 -0.7826 -0.1435
 3558SOL     OW22309   3.237   0.984   4.149  0.2099  0.6617  0.2987
 3558SOL    HW122310   3.231   1.022   4.062  0.3828  0.0974  0.0368
 3558SOL    HW222311   3.194   0.902   4.123  3.5330 -1.1968  0.7116
 3559SOL     OW22312   0.314   3.384  14.200 -0.4803 -0.6644  0.5229
 3559SOL    HW122313   0.356   3.467  14.221  0.6222 -1.2896  0.7783
 3559SOL    HW222314   0.225   3.403  14.229  0.2030  0.5656  1.8388
 3560SOL     OW22315   2.058   4.675   2.482 -0.1468  0.2755 -0.1285
 3560SOL    HW122316   2.120   4.705   2.415 -0.2929  1.6564  0.3463
 3560SOL    HW222317   2.058   0.010   2.546 -1.5101 -0.5897  0.8181
 3561SOL     OW22318   0.823   3.789   4.829  0.0266  0.1030  0.0520
 3561SOL    HW122319   0.854   3.714   4.778 -0.5145  0.2518 -0.4972
 3561SOL    HW222320   0.894   3.853   4.824  0.9838 -0.7346  2.9038
 3562SOL     OW22321   4.526   3.281  14.549  0.7717  0.5581  0.3165
 3562SOL    HW122322   4.510   3.368  14.586 -0.8074  0.3896  0.0256
 3562SOL    HW222323   4.622   3.283  14.550  0.7736  0.7121 -0.1912
 3563SOL     OW22324   2.209   3.380   7.259 -0.5918 -0.0575 -0.7094
 3563SOL    HW122325   2.136   3.350   7.203 -2.3056  1.4339  0.7217
 3563SOL    HW222326   2.280   3.356   7.200 -1.0360 -0.0113 -1.2709
 3564SOL     OW22327   0.970   0.976   3.828  0.2873  0.0645  0.3237
 3564SOL    HW122328   0.994   0.969   3.920  0.2124  1.4629  0.4612
 3564SOL    HW222329   1.012   0.900   3.789 -1.0862  0.3437 -1.7156
 3565SOL     OW22330   2.800   2.067   9.879  0.1193 -0.1057  0.3037
 3565SOL    HW122331   2.862   2.020   9.935  1.3661  1.4758  0.2532
 3565SOL    HW222332   2.802   2.153   9.921  2.9265 -0.2580  0.5024
 3566SOL     OW22333   2.096   3.351   2.956  0.5819  0.3682  0.5356
 3566SOL    HW122334   2.187   3.369   2.934  0.1769  0.5753 -0.9775
 3566SOL    HW222335   2.069   3.286   2.890 -0.4746  0.8994  0.4480
 3567SOL     OW22336   1.297   0.883  13.349 -0.4097  0.2596  0.0919
 3567SOL    HW122337   1.372   0.825  13.363 -1.0123 -0.6453 -0.3985
 3567SOL    HW222338   1.304   0.915  13.438 -1.6818 -2.6013  1.2268
 3568SOL     OW22339   0.714   3.863   1.938  0.1177  0.1228 -0.1433
 3568SOL    HW122340   0.796   3.814   1.949 -0.6881 -1.3343 -0.7571
 3568SOL    HW222341   0.676   3.848   2.025  0.7750 -1.0905 -0.0620
 3569SOL     OW22342   0.781   2.863   4.886  0.0835  0.0818  0.3059
 3569SOL    HW122343   0.725   2.788   4.863  0.6309 -0.0039 -0.7330
 3569SOL    HW222344   0.720   2.933   4.913  0.3061  1.4220 -2.6876
 3570SOL     OW22345   1.481   2.910  10.917 -0.5023  0.5211  0.3371
 3570SOL    HW122346   1.389   2.884  10.914 -0.7729  1.1828  2.7533
 3570SOL    HW222347   1.483   2.986  10.975 -0.9794 -0.2268  1.3158
 3571SOL     OW22348   1.968   4.020   7.844 -0.4929 -0.0367  0.4696
 3571SOL    HW122349   2.015   4.089   7.891  1.4723 -0.9551 -0.1785
 3571SOL    HW222350   2.041   3.959   7.843  0.1094  0.6861 -0.0765
 3572SOL     OW22351   4.043   2.260   0.393 -0.1651 -0.2966  0.4810
 3572SOL    HW122352   4.051   2.192   0.327 -3.5339  0.5862 -0.8647
 3572SOL    HW222353   3.974   2.317   0.359  0.0399  0.3791  1.1993
 3573SOL     OW22354   4.526   1.003   7.025  0.1608 -0.0169 -0.3978
 3573SOL    HW122355   4.598   1.043   6.977 -0.9622  3.3504  0.7198
 3573SOL    HW222356   4.502   0.937   6.960  2.0898 -0.6845 -0.4486
 3574SOL     OW22357   4.060   0.102   8.147 -0.4211 -0.4348  0.4227
 3574SOL    HW122358   3.972   0.105   8.108 -0.4593  0.1232  0.5483
 3574SOL    HW222359   4.048   0.165   8.218 -1.4036 -0.9777  0.7433
 3575SOL     OW22360   0.128   0.793   6.761  0.1185  0.8984  0.1598
 3575SOL    HW122361   0.192   0.847   6.807  0.5441  1.9243 -1.6370
 3575SOL    HW222362   0.051   0.816   6.813 -0.0985 -0.2424  0.3402
 3576SOL     OW22363   3.520   3.801   2.038 -0.3348 -0.4493  0.0794
 3576SOL    HW122364   3.441   3.762   1.999  2.0110 -0.5798 -4.5872
 3576SOL    HW222365   3.519   3.765   2.126  0.3159 -3.7729 -1.2642
 3577SOL     OW22366   1.050   4.518   0.367 -0.0138  0.2671  0.0585
 3577SOL    HW122367   1.069   4.574   0.442  0.0008 -0.9647  0.9688
 3577SOL    HW222368   1.132   4.470   0.358 -0.2477 -0.4566  1.8635
 3578SOL     OW22369   2.998   0.957  12.837 -0.5125 -0.3974 -0.3928
 3578SOL    HW122370   3.069   1.012  12.869  1.4150 -3.0821 -0.1458
 3578SOL    HW222371   2.983   0.921  12.925  0.3293  0.2577  0.0120
 3579SOL     OW22372   1.340   1.871   5.110 -0.0151  0.1616 -0.6632
 3579SOL    HW122373   1.299   1.956   5.097  0.4008  0.4438 -0.1646
 3579SOL    HW222374   1.349   1.886   5.204 -3.2628  0.4121 -0.3926
 3580SOL     OW22375   3.615   2.244   8.815  0.1049  0.1929 -0.7487
 3580SOL    HW122376   3.544   2.180   8.814 -0.9782  1.3726  1.0545
 3580SOL    HW222377   3.625   2.270   8.907  0.4307 -0.8414 -0.4867
 3581SOL     OW22378   1.007   1.523  11.178 -0.0989  0.7925 -0.0030
 3581SOL    HW122379   0.993   1.615  11.200  2.6616  0.6902  2.1437
 3581SOL    HW222380   0.979   1.523  11.086 -0.2772  0.6770  0.0530
 3582SOL     OW22381   1.010   3.870   7.706  0.3371 -0.3649 -0.5420
 3582SOL    HW122382   0.965   3.785   7.711 -1.0395  0.5099  1.9908
 3582SOL    HW222383   1.023   3.897   7.797 -1.3073  0.7892 -0.6379
 3583SOL     OW22384   3.491   1.076   6.758 -0.1598 -0.0601 -0.0336
 3583SOL    HW122385   3.405   1.038   6.777 -2.1307  4.7468  0.7354
 3583SOL    HW222386   3.543   1.016   6.811 -0.1140  0.1535  0.1648
 3584SOL     OW22387   4.174   1.407   4.543 -0.1744  0.5236  0.7645
 3584SOL    HW122388   4.132   1.327   4.511 -2.3180  2.0533 -0.2370
 3584SOL    HW222389   4.143   1.400   4.633 -1.4353  4.4062  0.6290
 3585SOL     OW22390   2.707   1.392  11.976 -1.0604  0.6125  0.3392
 3585SOL    HW122391   2.792   1.436  11.966 -0.7752 -0.2337 -0.9755
 3585SOL    HW222392   2.713   1.339  11.897 -1.5487 -0.6443  1.1479
 3586SOL     OW22393   0.960   1.317  10.141  0.3011  0.0561 -0.3742
 3586SOL    HW122394   1.005   1.353  10.218  0.8630 -1.9531  0.2568
 3586SOL    HW222395   0.906   1.248  10.181 -0.1198  0.5805 -0.0365
 3587SOL     OW22396   1.953   3.578   7.794  0.2839  0.6165 -0.3827
 3587SOL    HW122397   1.934   3.651   7.853  0.8436  0.2452  0.2616
 3587SOL    HW222398   1.889   3.517   7.829  0.5842  0.3396 -0.3168
 3588SOL     OW22399   0.382   3.833   8.714 -0.2556  0.2396  0.0751
 3588SOL    HW122400   0.370   3.891   8.639 -0.5994  0.5668  0.3908
 3588SOL    HW222401   0.304   3.839   8.769 -0.6594  1.8150 -0.6754
 3589SOL     OW22402   3.501   1.303   5.960  0.3454 -0.2698  0.4303
 3589SOL    HW122403   3.589   1.318   5.994  1.6088 -1.4446 -2.3425
 3589SOL    HW222404   3.454   1.383   5.983  0.2657 -1.0409  2.9507
 3590SOL     OW22405   1.947   0.745   0.775  0.1524 -0.1257 -0.0525
 3590SOL    HW122406   1.988   0.698   0.702 -2.5039  0.2352 -1.7843
 3590SOL    HW222407   1.993   0.829   0.777 -0.3413  0.1370  0.0798
 3591SOL     OW22408   3.925   2.780   9.983 -0.0466 -0.2486 -0.7352
 3591SOL    HW122409   3.988   2.800   9.914 -0.1318 -0.7239 -0.9500
 3591SOL    HW222410   3.860   2.733   9.932 -0.3577 -0.1474 -0.4329
 3592SOL     OW22411   4.492   0.492   9.345  0.5803  0.2786 -0.4641
 3592SOL    HW122412   4.443   0.570   9.319 -0.2255 -0.1079 -0.1172
 3592SOL    HW222413   4.545   0.481   9.266  1.2476  1.6463 -0.2121
 3593SOL     OW22414   4.302   3.254   6.683 -0.3587  0.2149 -0.7354
 3593SOL    HW122415   4.290   3.345   6.655 -1.8076 -0.8130 -3.4276
 3593SOL    HW222416   4.395   3.251   6.663 -0.3970 -2.6098 -0.4359
 3594SOL     OW22417   1.600   3.927  16.279 -0.2370  0.3462 -0.2289
 3594SOL    HW122418   1.516   3.950  16.239  0.0216  0.4151 -0.7303
 3594SOL    HW222419   1.575   3.955  16.367 -2.4396  0.5006 -0.9099
 3595SOL     OW22420   2.001   3.257   2.567  0.3136 -0.5620 -0.3124
 3595SOL    HW122421   1.913   3.288   2.548  0.1786 -0.2195  0.8973
 3595SOL    HW222422   2.005   3.170   2.526  0.4592 -1.3530  1.3463
 3596SOL     OW22423   0.739   3.453   2.523 -0.2118 -0.1186  0.4728
 3596SOL    HW122424   0.727   3.358   2.520 -1.8502  0.0802  0.4904
 3596SOL    HW222425   0.783   3.460   2.438 -0.0885  1.7211  0.6844
 3597SOL     OW22426   1.436   4.359   3.277 -0.2133  0.0741  0.7577
 3597SOL    HW122427   1.477   4.292   3.332  0.6497  0.3253  0.4210
 3597SOL    HW222428   1.480   4.343   3.193 -1.0013  0.7312  0.2230
 3598SOL     OW22429   1.563   2.881   1.096 -0.2352 -0.0921  0.2539
 3598SOL    HW122430   1.495   2.814   1.088 -0.5797  0.1650  1.0670
 3598SOL    HW222431   1.520   2.957   1.059 -0.6784  0.5634  2.0873
 3599SOL     OW22432   3.605   0.441   3.854 -0.3136 -0.5628 -0.0463
 3599SOL    HW122433   3.597   0.522   3.804 -0.2338  0.2341  1.2360
 3599SOL    HW222434   3.526   0.395   3.825 -2.9101  3.4080  0.8695
 3600SOL     OW22435   3.739   3.509   2.632 -0.5661 -0.4115 -0.0372
 3600SOL    HW122436   3.759   3.601   2.616  1.9561 -0.7908  1.0031
 3600SOL    HW222437   3.644   3.501   2.619 -1.3760  1.9308  4.3637
 3601SOL     OW22438   1.790   3.904   3.183  0.1239 -0.2577 -0.0882
 3601SOL    HW122439   1.812   3.994   3.158 -0.4406 -0.5362 -1.5633
 3601SOL    HW222440   1.875   3.872   3.212 -1.2880 -1.6474  2.5624
 3602SOL     OW22441   4.682   2.737  12.721  0.1687  0.1068  0.0851
 3602SOL    HW122442   4.632   2.818  12.709  2.3679  1.4926  0.4197
 3602SOL    HW222443   0.024   2.761  12.671 -0.7411  2.0592 -0.3709
 3603SOL     OW22444   0.536   1.376   2.310  0.8147  0.2358  0.2853
 3603SOL    HW122445   0.595   1.365   2.385  0.8748 -2.0613 -0.0903
 3603SOL    HW222446   0.576   1.443   2.255 -0.1401  1.1805  0.7282
 3604SOL     OW22447   0.951   3.973  10.080 -0.0772  0.4161  0.3112
 3604SOL    HW122448   1.007   3.910  10.035  0.6021  1.2426  0.0061
 3604SOL    HW222449   0.922   3.924  10.157 -0.2501  1.8526  1.1514
 3605SOL     OW22450   2.933   3.094  17.453 -0.4162  0.6998 -0.0263
 3605SOL    HW122451   2.904   3.101  17.362 -1.0638 -1.2588  0.0259
 3605SOL    HW222452   3.021   3.132  17.451 -1.2875  2.7688  0.7110
 3606SOL     OW22453   2.284   0.276   2.143  0.4353 -0.0416  0.2927
 3606SOL    HW122454   2.294   0.368   2.168  0.2752  0.3090 -0.9222
 3606SOL    HW222455   2.361   0.264   2.087  0.0677 -0.3630 -0.1417
 3607SOL     OW22456   3.350   4.238   6.312 -0.2702 -0.4448  0.1315
 3607SOL    HW122457   3.316   4.148   6.310  0.4207 -0.7145  0.7716
 3607SOL    HW222458   3.425   4.242   6.254 -0.1287 -2.1378  0.2124
 3608SOL     OW22459   1.083   0.219   3.759 -0.5618 -0.2675 -0.4030
 3608SOL    HW122460   1.101   0.145   3.816 -3.1323 -0.3973  0.2425
 3608SOL    HW222461   1.002   0.249   3.801 -0.9715 -0.6722 -0.8961
 3609SOL     OW22462   1.812   2.699   8.995 -0.0009  0.2950 -0.4000
 3609SOL    HW122463   1.849   2.616   8.965  0.6251 -0.2799  1.9370
 3609SOL    HW222464   1.778   2.679   9.082  2.4115  0.6200  0.6324
 3610SOL     OW22465   3.942   1.229   4.362 -0.7845  0.6604 -0.1338
 3610SOL    HW122466   3.977   1.229   4.273  0.8125 -4.5403  0.5021
 3610SOL    HW222467   3.850   1.238   4.339 -0.3627 -0.3524 -2.1839
 3611SOL     OW22468   4.073   2.426   4.476 -0.2652  0.5042  0.0467
 3611SOL    HW122469   4.014   2.350   4.476 -0.8024  0.9228 -2.2916
 3611SOL    HW222470   4.036   2.485   4.410  0.4327  1.2952  0.3695
 3612SOL     OW22471   1.631   4.469  17.650 -0.5421 -0.3229 -0.1911
 3612SOL    HW122472   1.642   4.449  17.557  0.2082  0.1270 -0.1961
 3612SOL    HW222473   1.594   4.557  17.646  1.2488  0.4448  0.4447
 3613SOL     OW22474   4.725   2.150   6.079 -0.7159  0.4719  0.7228
 3613SOL    HW122475   4.690   2.237   6.063  1.0863  0.7811 -1.6413
 3613SOL    HW222476   0.074   2.157   6.034 -0.3611  2.3555  1.6961
 3614SOL     OW22477   3.968   1.909   5.293  0.4806  0.3552 -0.6082
 3614SOL    HW122478   4.022   1.980   5.328  2.8316 -1.5450 -0.3791
 3614SOL    HW222479   4.023   1.889   5.218  0.1335  1.7609 -1.2225
 3615SOL     OW22480   0.176   4.666   5.001  0.4061 -0.0275  0.1423
 3615SOL    HW122481   0.136   4.621   4.926 -0.6021  0.6030  0.3013
 3615SOL    HW222482   0.190   4.597   5.066  1.2815  1.0643  1.0919
 3616SOL     OW22483   1.046   3.495   0.901  0.1570 -0.2042 -0.3979
 3616SOL    HW122484   0.983   3.452   0.843 -0.1485 -0.9989  0.5175
 3616SOL    HW222485   1.014   3.584   0.884  0.4916 -0.4842 -2.3919
 3617SOL     OW22486   2.122   3.950  11.155  0.1030  0.7653 -0.1952
 3617SOL    HW122487   2.198   3.903  11.188 -1.2804 -1.4931 -0.2516
 3617SOL    HW222488   2.095   3.898  11.080  0.1532  1.5108 -0.7309
 3618SOL     OW22489   2.182   4.330   0.231  0.5581  0.1850 -0.3752
 3618SOL    HW122490   2.177   4.425   0.246  1.0057  0.1436  0.0388
 3618SOL    HW222491   2.178   4.299   0.321  0.4240  2.6899  0.4969
 3619SOL     OW22492   4.452   3.822  17.183 -0.3071  0.5355  0.1076
 3619SOL    HW122493   4.470   3.744  17.131 -1.0675  0.2533  0.2706
 3619SOL    HW222494   4.509   3.807  17.259  0.4646 -0.2495 -0.6250
 3620SOL     OW22495   3.302   2.954  17.386  0.1214  0.1290 -0.0253
 3620SOL    HW122496   3.265   2.898  17.454 -1.6353  1.9702  0.5526
 3620SOL    HW222497   3.340   3.024  17.439  0.0222  0.1982 -0.0459
 3621SOL     OW22498   1.779   0.016   2.051 -0.3223 -0.2042  0.4921
 3621SOL    HW122499   1.709   4.694   2.021 -1.0286 -0.1464  2.0376
 3621SOL    HW222500   1.826   0.033   1.969  1.2743 -1.6603  1.1127
 3622SOL     OW22501   3.874   1.854  16.408 -0.3611  0.3795  0.2165
 3622SOL    HW122502   3.870   1.871  16.502 -0.2092 -1.6022  0.5897
 3622SOL    HW222503   3.951   1.797  16.415  0.4827  1.6219  1.0788
 3623SOL     OW22504   3.241   2.953   7.036 -0.3392  0.0735  0.3416
 3623SOL    HW122505   3.177   2.901   6.988 -0.5645  1.4092 -0.7967
 3623SOL    HW222506   3.321   2.939   6.986 -0.4685  1.8922 -0.3801
 3624SOL     OW22507   4.498   1.480   5.359 -0.4697  0.4162 -0.6519
 3624SOL    HW122508   4.536   1.563   5.387  0.1783  0.0111 -0.3382
 3624SOL    HW222509   4.419   1.472   5.412 -0.4890  2.1097 -0.4242
 3625SOL     OW22510   0.228   0.614  10.313 -0.1398 -0.0650  0.0315
 3625SOL    HW122511   0.144   0.658  10.327 -0.5318 -0.5442 -0.8218
 3625SOL    HW222512   0.236   0.622  10.218  0.0037 -1.7362 -0.1054
 3626SOL     OW22513   1.907   2.418   6.843  0.1709  0.0891  0.3682
 3626SOL    HW122514   1.978   2.448   6.786  1.0678  1.5429  2.2359
 3626SOL    HW222515   1.842   2.487   6.832 -0.1203 -0.0633  1.1752
 3627SOL     OW22516   0.919   0.514   3.618 -0.0725 -0.0125  0.0645
 3627SOL    HW122517   0.921   0.452   3.690 -0.5667  1.1544  1.0823
 3627SOL    HW222518   0.946   0.461   3.543  0.3600  0.9794 -0.4894
 3628SOL     OW22519   0.734   4.634   8.889  0.5014 -0.2240 -0.4929
 3628SOL    HW122520   0.813   4.685   8.871 -1.4672  2.0290 -2.7656
 3628SOL    HW222521   0.689   4.651   8.806 -3.0668 -0.7792  1.3585
 3629SOL     OW22522   3.592   1.822   9.407 -0.6863 -0.0226  0.7350
 3629SOL    HW122523   3.651   1.840   9.334  0.4873  1.0661  1.9583
 3629SOL    HW222524   3.651   1.816   9.482  0.4399 -1.0565 -0.2277
 3630SOL     OW22525   2.574   0.644   1.592  0.0215 -0.0985  0.3629
 3630SOL    HW122526   2.626   0.564   1.585  0.5864  0.3457 -0.4978
 3630SOL    HW222527   2.622   0.687   1.662  0.2857  0.1562  0.0254
 3631SOL     OW22528   0.197   1.752   8.351 -0.0412  0.2498  0.0127
 3631SOL    HW122529   0.209   1.675   8.296 -2.7208  2.0585 -3.1184
 3631SOL    HW222530   0.173   1.708   8.432  0.7807 -0.4820 -0.1432
 3632SOL     OW22531   0.233   2.399   9.881  0.5092 -0.0211 -0.4498
 3632SOL    HW122532   0.243   2.442   9.797  0.8992 -1.0676 -0.9385
 3632SOL    HW222533   0.212   2.476   9.934  1.6386 -0.4937  0.6866
 3633SOL     OW22534   1.228   4.126  11.256 -0.4344 -0.3361  0.2181
 3633SOL    HW122535   1.314   4.085  11.267  0.5651  1.7522  0.2043
 3633SOL    HW222536   1.214   4.157  11.345 -0.2443 -2.4287  0.9624
 3634SOL     OW22537   3.399   4.094   8.497 -0.2266  0.0528 -0.0333
 3634SOL    HW122538   3.310   4.130   8.499 -0.5509 -0.7612  0.2689
 3634SOL    HW222539   3.373   4.020   8.442 -0.4293  0.9794 -1.1801
 3635SOL     OW22540   2.576   4.305   7.548 -0.3484 -0.0112 -0.5420
 3635SOL    HW122541   2.568   4.258   7.465 -0.4978  0.8644 -1.0259
 3635SOL    HW222542   2.496   4.275   7.592 -0.4762 -1.8761 -2.0585
 3636SOL     OW22543   1.350   4.147   7.842 -0.6686 -0.1475  0.2813
 3636SOL    HW122544   1.296   4.130   7.919  0.3998  2.9183  1.7010
 3636SOL    HW222545   1.341   4.067   7.789 -0.9990  1.1889 -1.6750
 3637SOL     OW22546   1.632   3.909  17.138  0.3429 -0.2707  0.6490
 3637SOL    HW122547   1.679   3.993  17.136  2.5464 -1.5075  0.3206
 3637SOL    HW222548   1.616   3.904  17.232 -0.8830 -0.9507  0.3949
 3638SOL     OW22549   1.622   1.264   2.914 -0.2415  0.2780 -0.2953
 3638SOL    HW122550   1.718   1.257   2.907 -0.3784 -2.2941  0.3932
 3638SOL    HW222551   1.594   1.176   2.938 -0.6108  1.4211  3.3967
 3639SOL     OW22552   1.683   3.180   5.082  0.2524 -0.0652  0.0832
 3639SOL    HW122553   1.759   3.238   5.080  1.0452 -1.0205  1.9659
 3639SOL    HW222554   1.638   3.234   5.147 -1.7065 -0.2285 -1.1508
 3640SOL     OW22555   3.708   2.183   7.188  0.1006 -0.0422  0.3779
 3640SOL    HW122556   3.628   2.154   7.143  0.6213 -1.3491  0.3067
 3640SOL    HW222557   3.677   2.215   7.272  0.8222 -1.2669  1.1046
 3641SOL     OW22558   1.481   2.815   1.760 -0.1603  0.3966  0.5460
 3641SOL    HW122559   1.452   2.886   1.817  0.8235 -1.0212  2.8004
 3641SOL    HW222560   1.426   2.743   1.793 -1.9156  2.0811  1.2873
 3642SOL     OW22561   1.964   3.884   9.126  0.1163  0.4845 -0.2371
 3642SOL    HW122562   1.877   3.861   9.157  0.0783 -1.5890 -1.8752
 3642SOL    HW222563   1.939   3.946   9.057 -0.3661 -1.5929 -1.9319
 3643SOL     OW22564   3.796   4.436  15.195 -0.3577  0.4121 -0.0678
 3643SOL    HW122565   3.709   4.426  15.156  0.3323 -0.2886 -1.4100
 3643SOL    HW222566   3.848   4.435  15.114  1.5736  1.6855  1.1528
 3644SOL     OW22567   3.981   4.130  11.836  0.0089  0.0871 -0.0266
 3644SOL    HW122568   3.966   4.062  11.771  2.6513  0.0972 -0.6327
 3644SOL    HW222569   3.958   4.092  11.920 -1.3198  1.2888  0.1594
 3645SOL     OW22570   2.917   0.820   2.363 -0.2746  0.9344  0.2105
 3645SOL    HW122571   2.996   0.785   2.404 -0.6384  1.3593  1.2711
 3645SOL    HW222572   2.867   0.816   2.445  0.2387  0.1777  0.4887
 3646SOL     OW22573   3.655   1.216   6.497  0.5518  0.0834 -0.5068
 3646SOL    HW122574   3.624   1.244   6.583  0.8758 -1.5634  0.1499
 3646SOL    HW222575   3.618   1.292   6.453 -0.2781 -0.2569 -0.3968
 3647SOL     OW22576   1.095   0.019  16.246 -0.0431 -0.2913  0.3610
 3647SOL    HW122577   1.146   0.100  16.240 -0.2419 -0.3732 -2.3385
 3647SOL    HW222578   1.161   4.690  16.271  1.6037  0.3006 -2.4147
 3648SOL     OW22579   3.264   1.689   5.610 -0.0389  0.2246 -0.0443
 3648SOL    HW122580   3.246   1.678   5.516  1.0357 -0.8113 -0.1290
 3648SOL    HW222581   3.270   1.785   5.614  2.6670  0.0484  0.4606
 3649SOL     OW22582   1.450   0.268   3.539 -0.2613 -0.9556 -0.0114
 3649SOL    HW122583   1.435   0.215   3.461  0.5475 -1.6578  0.3093
 3649SOL    HW222584   1.360   0.279   3.568 -0.6355 -0.8113 -1.2586
 3650SOL     OW22585   1.464   2.587   6.133  0.2811  0.1506  0.1587
 3650SOL    HW122586   1.558   2.599   6.146  0.3602 -0.3250  0.0508
 3650SOL    HW222587   1.463   2.497   6.099  0.0587 -0.5710  2.0582
 3651SOL     OW22588   1.107   3.667   6.083  0.0902 -0.3433 -0.3865
 3651SOL    HW122589   1.149   3.688   6.166  0.5715 -2.3953 -0.1058
 3651SOL    HW222590   1.030   3.615   6.107  0.1202  0.2849  1.0476
 3652SOL     OW22591   2.738   1.562   5.503 -0.7971 -0.0637 -0.1883
 3652SOL    HW122592   2.749   1.472   5.534  2.1693  0.8210  1.2810
 3652SOL    HW222593   2.669   1.555   5.437 -0.5832 -2.6243 -0.1337
 3653SOL     OW22594   3.532   1.312   3.717  0.4970  0.0486 -0.3565
 3653SOL    HW122595   3.590   1.282   3.786 -0.9816 -2.8352 -0.3350
 3653SOL    HW222596   3.504   1.397   3.750 -0.0133 -0.0253 -0.5950
 3654SOL     OW22597   1.855   2.245   4.853 -0.9122 -0.1259  0.2985
 3654SOL    HW122598   1.800   2.274   4.781  0.4886  0.4001 -0.5530
 3654SOL    HW222599   1.930   2.210   4.806  0.3526 -0.4531  2.5506
 3655SOL     OW22600   3.915   2.772   6.248 -0.0956 -0.1350 -0.2749
 3655SOL    HW122601   3.923   2.830   6.323 -0.0835 -0.5027  0.0040
 3655SOL    HW222602   3.941   2.828   6.175 -0.1186 -1.5460 -1.3743
 3656SOL     OW22603   2.892   0.304  12.999  0.2818  0.1121  0.3459
 3656SOL    HW122604   2.875   0.246  12.925  1.3543  1.3437 -0.8531
 3656SOL    HW222605   2.804   0.339  13.005  0.6145  0.8324  1.0440
 3657SOL     OW22606   0.714   3.856   5.082  0.1311 -0.2561 -0.0040
 3657SOL    HW122607   0.766   3.789   5.126 -2.0050 -0.4017  2.3362
 3657SOL    HW222608   0.711   3.811   4.997  1.6821 -0.9919  0.3258
 3658SOL     OW22609   2.422   1.643   3.134  0.3314  0.1093 -0.3397
 3658SOL    HW122610   2.376   1.669   3.054  0.1047  0.8194  0.0275
 3658SOL    HW222611   2.363   1.574   3.165  1.7433 -1.0859 -0.3287
 3659SOL     OW22612   1.354   1.583   7.945 -0.0137  0.1142  0.5165
 3659SOL    HW122613   1.358   1.561   7.852 -1.5635  0.3797  0.3948
 3659SOL    HW222614   1.440   1.548   7.967  0.2242 -1.2114 -2.5260
 3660SOL     OW22615   1.989   4.690   5.986 -0.3735  0.1765  0.0735
 3660SOL    HW122616   2.081   4.662   5.985 -1.3025 -2.8088 -0.1895
 3660SOL    HW222617   1.960   4.673   6.075 -0.8203  0.5501 -0.0011
 3661SOL     OW22618   3.722   4.458   4.983  0.0502 -0.1187  0.2216
 3661SOL    HW122619   3.767   4.456   4.899 -1.2315  3.7670 -0.5720
 3661SOL    HW222620   3.769   4.392   5.033  0.2041  1.2159  1.8425
 3662SOL     OW22621   2.990   2.719   9.165 -0.3228 -0.1928 -0.4617
 3662SOL    HW122622   2.972   2.636   9.120 -1.2102 -0.2010 -0.0873
 3662SOL    HW222623   3.079   2.698   9.193  0.2325 -1.8466 -3.3932
 3663SOL     OW22624   0.126   1.991  12.215  0.1123  0.7424  0.4183
 3663SOL    HW122625   0.076   1.918  12.251 -0.6047  1.1947  0.3456
 3663SOL    HW222626   0.066   2.010  12.143  1.9521  0.9375 -1.0792
 3664SOL     OW22627   2.764   3.891   4.717 -0.0360  0.0722 -0.4506
 3664SOL    HW122628   2.686   3.946   4.726 -0.6317 -0.4869 -2.0707
 3664SOL    HW222629   2.742   3.826   4.650 -0.0352 -0.9453  0.5380
 3665SOL     OW22630   1.047   1.765   8.053 -0.2392 -0.2728 -0.3823
 3665SOL    HW122631   1.125   1.818   8.033 -0.4080  0.5702  1.1526
 3665SOL    HW222632   1.009   1.772   7.966 -1.2486  1.5183  0.2039
 3666SOL     OW22633   3.043   1.098  16.232  0.2261 -0.3004  0.5792
 3666SOL    HW122634   3.039   1.055  16.317  1.1061 -2.6408 -0.5697
 3666SOL    HW222635   3.129   1.141  16.224  0.0489 -0.0790 -0.2510
 3667SOL     OW22636   4.266   2.682   8.112 -0.0365  0.2007 -0.6021
 3667SOL    HW122637   4.206   2.612   8.138  0.3525 -0.2009 -0.7997
 3667SOL    HW222638   4.316   2.627   8.052  1.2040  1.5178 -0.7769
 3668SOL     OW22639   2.993   4.421   8.689 -0.3943  0.2023  0.0043
 3668SOL    HW122640   2.920   4.442   8.631 -0.4113 -2.0347 -0.8163
 3668SOL    HW222641   2.962   4.443   8.776 -1.1537 -1.1133  0.0707
 3669SOL     OW22642   3.625   0.918  11.446  0.0907  0.3643 -0.4777
 3669SOL    HW122643   3.559   0.948  11.384  0.3501 -2.1603 -1.9625
 3669SOL    HW222644   3.611   0.824  11.436  2.3803  0.1686 -1.7711
 3670SOL     OW22645   3.828   1.396   7.184  0.4381  0.3056 -0.0207
 3670SOL    HW122646   3.878   1.470   7.148  0.6150  0.0410 -0.3160
 3670SOL    HW222647   3.791   1.368   7.101 -0.5335  0.2349  0.4360
 3671SOL     OW22648   4.620   1.714   0.732  0.0632  0.5747  0.4859
 3671SOL    HW122649   4.676   1.637   0.742 -1.9240 -0.9537 -0.0742
 3671SOL    HW222650   4.558   1.707   0.805  1.1384  1.5639  1.4874
 3672SOL     OW22651   0.681   1.743  14.475  0.6264 -0.3370 -0.1827
 3672SOL    HW122652   0.627   1.803  14.526  0.6815  0.0426 -0.5724
 3672SOL    HW222653   0.726   1.803  14.416  0.3479  0.8856  0.8567
 3673SOL     OW22654   3.885   1.404  12.285  0.3345 -0.2731  0.3404
 3673SOL    HW122655   3.837   1.325  12.261 -0.4971  1.0736 -2.4775
 3673SOL    HW222656   3.850   1.473  12.228 -0.1959 -0.9627 -0.1636
 3674SOL     OW22657   1.110   1.057   0.391  0.0995 -0.5759  0.4803
 3674SOL    HW122658   1.127   0.981   0.335  0.3229  0.8871 -1.4720
 3674SOL    HW222659   1.178   1.115   0.356 -1.0031  0.1763 -0.4323
 3675SOL     OW22660   0.497   1.978   8.140  0.4691  0.3333  0.2466
 3675SOL    HW122661   0.519   1.904   8.196  0.5936  1.5833  1.8452
 3675SOL    HW222662   0.445   2.034   8.198 -1.6531  0.2034 -1.5183
 3676SOL     OW22663   1.890   2.198   9.613  0.0231 -0.4663  0.5643
 3676SOL    HW122664   1.902   2.204   9.518  0.9213 -1.6031  0.6095
 3676SOL    HW222665   1.905   2.290   9.638 -1.1151 -0.1936  0.2705
 3677SOL     OW22666   1.570   1.916   1.033  0.4164  0.0618 -0.4376
 3677SOL    HW122667   1.491   1.968   1.019 -0.1275  0.7193  4.9016
 3677SOL    HW222668   1.585   1.874   0.948  1.6328 -0.4929  0.0600
 3678SOL     OW22669   3.462   4.676  12.347 -0.7210  0.1123  0.0566
 3678SOL    HW122670   3.467   4.604  12.411 -3.0376  1.6420  1.9757
 3678SOL    HW222671   3.545   4.723  12.349 -1.2650  1.1249 -1.5404
 3679SOL     OW22672   1.050   0.244  11.865  0.3187 -0.1306 -0.0500
 3679SOL    HW122673   1.123   0.288  11.822  0.4167 -0.2295  0.0149
 3679SOL    HW222674   0.980   0.277  11.809  0.1230 -0.9555 -0.2880
 3680SOL     OW22675   4.486   2.606  13.440 -0.0660  0.3717  0.1065
 3680SOL    HW122676   4.437   2.543  13.388  1.0061 -1.0555  0.8214
 3680SOL    HW222677   4.482   2.572  13.530  0.6517 -0.2508 -0.0968
 3681SOL     OW22678   3.600   3.053   0.547  0.5144 -0.3553 -0.2054
 3681SOL    HW122679   3.556   3.095   0.473  1.9906  1.7987  0.1290
 3681SOL    HW222680   3.541   2.978   0.554 -0.3398  0.2756 -0.7380
 3682SOL     OW22681   2.575   1.128   5.379  0.1041 -0.1364  0.1899
 3682SOL    HW122682   2.545   1.040   5.401  0.2256 -0.3616 -0.5754
 3682SOL    HW222683   2.602   1.118   5.288 -1.4931 -0.9126 -0.1968
 3683SOL     OW22684   4.369   0.357   4.312 -0.0363 -0.3318  0.4336
 3683SOL    HW122685   4.377   0.263   4.294  0.9030  0.1750 -1.7537
 3683SOL    HW222686   4.275   0.365   4.295  0.2046 -0.3291 -0.9225
 3684SOL     OW22687   0.932   2.577   2.442 -0.0381  0.2020  0.2986
 3684SOL    HW122688   0.955   2.490   2.475  1.9071  0.2623 -0.9101
 3684SOL    HW222689   0.837   2.571   2.430  0.1228  0.6587 -1.1505
 3685SOL     OW22690   0.435   4.526  11.906  0.5229  0.1333 -0.1946
 3685SOL    HW122691   0.528   4.522  11.886  0.6409  2.2376 -0.0636
 3685SOL    HW222692   0.408   4.450  11.855 -0.6429  0.9076 -0.7428
 3686SOL     OW22693   2.018   4.269   6.259  0.0699  0.2782  0.0518
 3686SOL    HW122694   2.031   4.242   6.168  0.6754 -0.0179  0.2232
 3686SOL    HW222695   1.939   4.225   6.291 -0.0356  2.0075  2.2069
 3687SOL     OW22696   4.495   2.226  12.498  0.2709  0.9883  0.4459
 3687SOL    HW122697   4.449   2.163  12.442  1.8326 -0.0340  0.3296
 3687SOL    HW222698   4.571   2.263  12.454 -0.9375  2.6147 -0.2874
 3688SOL     OW22699   1.243   2.490   2.989 -0.0824  0.4242 -0.4518
 3688SOL    HW122700   1.271   2.520   3.075 -2.6577 -3.4182  1.6944
 3688SOL    HW222701   1.284   2.558   2.935  4.0648 -2.7148 -1.2834
 3689SOL     OW22702   1.883   1.363   2.090 -0.0218 -0.2802  0.7454
 3689SOL    HW122703   1.927   1.342   2.173 -0.9710 -2.2584  0.7500
 3689SOL    HW222704   1.843   1.280   2.065 -2.9086  1.2456  0.2767
 3690SOL     OW22705   2.999   1.568   6.350 -0.0268 -0.0143  0.2483
 3690SOL    HW122706   3.014   1.628   6.423 -1.3599 -0.9756  1.3247
 3690SOL    HW222707   2.997   1.628   6.275  0.6002  1.1491  1.1703
 3691SOL     OW22708   3.575   2.353   1.485  0.5991 -0.0871  0.1374
 3691SOL    HW122709   3.497   2.332   1.433  0.2492  0.5302  0.4005
 3691SOL    HW222710   3.576   2.290   1.557 -0.5950  1.1363  1.2425
 3692SOL     OW22711   3.051   1.863   4.705 -0.2354 -0.0457  0.1083
 3692SOL    HW122712   3.014   1.876   4.792  0.2055  1.5128  0.0630
 3692SOL    HW222713   3.129   1.917   4.714  0.2863 -0.7541 -0.1456
 3693SOL     OW22714   3.109   0.007   9.880 -0.4665 -0.0614 -0.1670
 3693SOL    HW122715   3.157   4.687   9.820 -0.4882 -1.0539  0.7371
 3693SOL    HW222716   3.051   4.680   9.924  0.1511 -0.8081 -0.4215
 3694SOL     OW22717   2.034   2.824  12.337  0.0331  0.2268 -0.1985
 3694SOL    HW122718   2.072   2.744  12.372  1.1705  1.7347  2.0242
 3694SOL    HW222719   2.053   2.804  12.246 -2.5249 -1.0208 -0.4592
 3695SOL     OW22720   4.396   0.045  12.241 -0.5195 -0.2468 -0.1134
 3695SOL    HW122721   4.362   0.078  12.324 -1.1351 -0.4502 -0.2849
 3695SOL    HW222722   4.469   0.106  12.227 -1.0907  0.2820 -0.7733
 3696SOL     OW22723   3.938   4.209  16.798 -0.1472  0.4453  0.7395
 3696SOL    HW122724   3.858   4.171  16.762 -0.5828  2.6864 -0.5838
 3696SOL    HW222725   3.987   4.190  16.717  0.9271  2.6667  0.8759
 3697SOL     OW22726   4.570   2.338  14.361  0.4956 -0.2407 -0.5778
 3697SOL    HW122727   4.506   2.270  14.340  0.5300 -0.1676 -0.9127
 3697SOL    HW222728   4.525   2.418  14.336 -2.1913 -2.3423 -2.4853
 3698SOL     OW22729   0.486   4.609   5.371 -0.8924  0.0820 -0.1608
 3698SOL    HW122730   0.563   4.554   5.357 -0.7400  0.0661  0.7592
 3698SOL    HW222731   0.450   4.562   5.446  0.1318  1.3178  1.0962
 3699SOL     OW22732   4.341   2.235   2.653 -0.0051  0.5516  0.5774
 3699SOL    HW122733   4.251   2.261   2.634  0.0370  0.3051  0.0484
 3699SOL    HW222734   4.341   2.281   2.737 -1.8854  1.3289  0.1424
 3700SOL     OW22735   2.039   4.274  17.711 -0.1365 -0.0336  0.1100
 3700SOL    HW122736   2.123   4.280   0.017  0.6858  0.4211 -1.4035
 3700SOL    HW222737   1.980   4.234   0.034  0.2685 -1.5708 -0.4720
 3701SOL     OW22738   4.502   0.540   4.118  0.2208  0.1112  0.0019
 3701SOL    HW122739   4.442   0.602   4.075 -2.5636 -1.4599  1.6198
 3701SOL    HW222740   4.452   0.499   4.188  1.2949  0.4648  0.9652
 3702SOL     OW22741   4.153   1.067   8.556 -0.2427  0.6345 -0.4638
 3702SOL    HW122742   4.202   1.150   8.552 -1.0020  1.2346  3.0807
 3702SOL    HW222743   4.192   1.017   8.484  0.5136  0.2762  0.1877
 3703SOL     OW22744   3.804   3.754  15.389 -0.1889  0.9345  0.4446
 3703SOL    HW122745   3.888   3.720  15.422 -0.8242 -1.4908 -0.4767
 3703SOL    HW222746   3.792   3.717  15.301  2.3654 -0.0661  0.5129
 3704SOL     OW22747   2.395   3.452  13.648 -0.0422 -0.0115  0.2160
 3704SOL    HW122748   2.394   3.534  13.698  0.9563  0.2610 -0.2192
 3704SOL    HW222749   2.302   3.438  13.626  0.0618 -2.6289  1.4733
 3705SOL     OW22750   1.561   2.603   9.162 -0.5188  0.4029 -0.2921
 3705SOL    HW122751   1.604   2.519   9.174  0.7128  1.0932  0.2122
 3705SOL    HW222752   1.469   2.582   9.177 -0.3759 -1.3966 -2.0697
 3706SOL     OW22753   4.180   3.794   4.077 -0.3681 -0.6031  0.0754
 3706SOL    HW122754   4.112   3.806   4.011  0.7558 -0.8347 -1.1261
 3706SOL    HW222755   4.247   3.851   4.038 -0.9646  0.0356 -0.0058
 3707SOL     OW22756   0.586   4.716   6.888 -0.0394  0.7501  0.1080
 3707SOL    HW122757   0.577   0.047   6.956  1.7200  0.6231  0.4637
 3707SOL    HW222758   0.664   0.019   6.847  0.0677  1.8517  1.3304
 3708SOL     OW22759   0.238   0.802   3.583  0.0949 -0.0568  0.4635
 3708SOL    HW122760   0.232   0.727   3.643  1.7406 -0.1622  0.5084
 3708SOL    HW222761   0.188   0.766   3.511  1.7040  0.5742 -0.9705
 3709SOL     OW22762   0.030   3.376   1.864  0.1968 -0.3491 -0.6031
 3709SOL    HW122763   4.679   3.335   1.869 -0.4162  1.0285  0.0191
 3709SOL    HW222764   0.011   3.468   1.842  2.4959  0.5383  1.0945
 3710SOL     OW22765   2.292   3.867   3.615 -0.1611 -0.3943  0.1006
 3710SOL    HW122766   2.272   3.854   3.522  1.4807 -2.8823  0.0989
 3710SOL    HW222767   2.387   3.872   3.615 -0.1288 -1.0281  0.3191
 3711SOL     OW22768   0.542   2.104   4.401  0.3165 -0.4201  0.9488
 3711SOL    HW122769   0.591   2.165   4.346 -0.0040 -0.8093  0.2212
 3711SOL    HW222770   0.463   2.156   4.412  0.4948 -0.4729  2.3777
 3712SOL     OW22771   4.013   2.318  12.121 -0.7924  0.1750 -0.1162
 3712SOL    HW122772   4.009   2.371  12.201 -0.6052  0.9229 -0.5966
 3712SOL    HW222773   3.929   2.352  12.087 -0.0694  2.5398  0.4589
 3713SOL     OW22774   2.194   0.192  10.349  0.8388 -0.0730  0.0173
 3713SOL    HW122775   2.200   0.130  10.422 -1.0969 -0.3790 -0.0910
 3713SOL    HW222776   2.114   0.172  10.301 -1.7710  3.9645  2.7226
 3714SOL     OW22777   1.992   2.149   1.480  0.1556  0.1704  0.5735
 3714SOL    HW122778   2.024   2.238   1.496  2.2341 -0.4802  0.0326
 3714SOL    HW222779   1.960   2.168   1.392  1.3603  0.5186  0.2016
 3715SOL     OW22780   2.162   0.416   7.331  0.1117  0.3485  0.6739
 3715SOL    HW122781   2.086   0.406   7.274  1.9312  2.0652 -2.0084
 3715SOL    HW222782   2.143   0.386   7.420  0.7735 -0.8631  0.4111
 3716SOL     OW22783   1.509   1.552   7.317 -0.2814 -0.3390  0.1427
 3716SOL    HW122784   1.598   1.531   7.287 -0.8659 -0.3998 -1.5380
 3716SOL    HW222785   1.516   1.648   7.320  0.0944 -0.3778  0.5084
 3717SOL     OW22786   3.970   3.438   4.986 -0.5854 -0.4871  0.2590
 3717SOL    HW122787   4.056   3.410   5.018 -1.0159 -1.9358  0.1217
 3717SOL    HW222788   3.960   3.371   4.918 -0.1499 -0.2879 -0.0066
 3718SOL     OW22789   1.087   3.465   6.607 -0.5831 -0.3138  0.9064
 3718SOL    HW122790   1.166   3.519   6.611  0.9766 -2.7862  3.8768
 3718SOL    HW222791   1.021   3.514   6.655 -1.8300  0.5753 -1.7375
 3719SOL     OW22792   2.504   2.637   0.657 -0.0250  0.4197 -0.0454
 3719SOL    HW122793   2.462   2.586   0.727 -0.2807 -1.6715 -1.7494
 3719SOL    HW222794   2.436   2.705   0.657  0.2049  0.6596  0.8279
 3720SOL     OW22795   1.763   0.570  11.727 -0.3402 -0.4522  0.3310
 3720SOL    HW122796   1.706   0.622  11.783 -1.3817  0.0965 -1.2243
 3720SOL    HW222797   1.768   0.624  11.647  0.3525 -0.0780  0.6299
 3721SOL     OW22798   1.822   4.380  13.901 -0.6680 -0.1397  0.0857
 3721SOL    HW122799   1.766   4.307  13.873 -0.4614 -0.0840 -0.4620
 3721SOL    HW222800   1.884   4.327  13.950  0.2731  0.0724 -0.8811
 3722SOL     OW22801   3.074   1.488   9.150  0.1628  0.8414 -0.0299
 3722SOL    HW122802   3.050   1.568   9.197 -0.3934 -0.7438  2.4225
 3722SOL    HW222803   3.034   1.493   9.064  0.2301  0.1728 -0.1045
 3723SOL     OW22804   4.139   0.696   2.408 -0.4259  0.1957  0.0112
 3723SOL    HW122805   4.144   0.622   2.467 -1.0431 -0.5123 -0.8304
 3723SOL    HW222806   4.057   0.740   2.432  0.5701  0.7126  2.4860
 3724SOL     OW22807   3.571   0.442   6.760  0.0724  0.4600 -0.4788
 3724SOL    HW122808   3.525   0.367   6.724  1.1939 -0.5968  0.2688
 3724SOL    HW222809   3.498   0.494   6.794  1.0377  1.5418 -0.0345
 3725SOL     OW22810   1.964   0.997   5.341 -0.2627 -0.2517 -0.3913
 3725SOL    HW122811   1.948   1.003   5.247  0.6219 -0.2149 -0.5306
 3725SOL    HW222812   1.959   1.090   5.362  0.2821 -0.0549 -1.1398
 3726SOL     OW22813   3.704   0.141  10.234  0.0622  0.2038 -0.0012
 3726SOL    HW122814   3.689   0.218  10.179 -2.5919 -0.4497 -0.1806
 3726SOL    HW222815   3.614   0.136  10.267 -0.5773 -0.1269 -1.7997
 3727SOL     OW22816   1.150   0.102   6.597  0.2416 -0.0736 -0.4606
 3727SOL    HW122817   1.205   0.066   6.527 -0.8525 -0.1532 -1.2725
 3727SOL    HW222818   1.063   0.083   6.561  0.3004  0.7691 -1.0495
 3728SOL     OW22819   3.191   0.769   1.537  0.1673 -0.5926 -0.2608
 3728SOL    HW122820   3.218   0.792   1.447 -0.4135 -0.0175 -0.2945
 3728SOL    HW222821   3.221   0.856   1.563  0.3400 -1.1378  1.3269
 3729SOL     OW22822   2.281   2.312  17.586  0.1394 -0.1553  0.2916
 3729SOL    HW122823   2.343   2.385  17.583  0.2983 -0.4306 -3.3945
 3729SOL    HW222824   2.315   2.259  17.658  0.7645  0.7328  0.6417
 3730SOL     OW22825   2.259   0.901   4.489  0.0341  0.1871 -0.6874
 3730SOL    HW122826   2.322   0.879   4.420  2.6982  3.5484  0.6701
 3730SOL    HW222827   2.288   0.841   4.557 -0.5861  1.1300  0.3979
 3731SOL     OW22828   3.708   3.692   8.172 -0.2401 -0.1802  0.0290
 3731SOL    HW122829   3.691   3.774   8.217 -0.7162 -0.1018 -0.2902
 3731SOL    HW222830   3.730   3.712   8.081 -0.6077 -0.7640 -0.1882
 3732SOL     OW22831   1.174   4.444   2.022 -0.4134 -0.2297  0.2043
 3732SOL    HW122832   1.257   4.482   2.050 -0.8501  0.5471  0.4389
 3732SOL    HW222833   1.207   4.380   1.958 -1.7454 -0.1732 -0.5293
 3733SOL     OW22834   3.299   3.844   4.927  0.1021  0.6358  0.1117
 3733SOL    HW122835   3.225   3.786   4.910 -0.6579  0.6826  3.3482
 3733SOL    HW222836   3.297   3.906   4.854 -0.9071 -0.1580 -0.5423
 3734SOL     OW22837   0.293   2.796   8.574  0.5364 -0.1318 -0.8075
 3734SOL    HW122838   0.210   2.811   8.529 -0.3433 -2.2184  0.1054
 3734SOL    HW222839   0.250   2.779   8.658 -0.0367  2.5608 -0.5587
 3735SOL     OW22840   2.764   4.034   5.654 -0.0548  0.3968 -0.1731
 3735SOL    HW122841   2.731   4.070   5.572  1.6622  0.3050 -0.9122
 3735SOL    HW222842   2.814   3.960   5.621  0.4043 -0.4306  2.4208
 3736SOL     OW22843   2.512   0.203   6.728 -0.2068 -0.1414 -0.0309
 3736SOL    HW122844   2.421   0.205   6.700  0.1250 -1.0170 -1.1886
 3736SOL    HW222845   2.508   0.211   6.824  0.6338  0.6873 -0.0639
 3737SOL     OW22846   0.680   0.855   5.961 -0.7957  0.2808 -0.1072
 3737SOL    HW122847   0.630   0.937   5.959  0.8423  1.2750 -0.2291
 3737SOL    HW222848   0.629   0.798   5.903  0.4996  1.2313 -2.1331
 3738SOL     OW22849   3.619   0.096   7.242 -0.0951 -0.4726 -0.0721
 3738SOL    HW122850   3.565   0.149   7.300  1.4728  0.4900  0.5082
 3738SOL    HW222851   3.705   0.107   7.283 -0.9307  1.5003  1.1367
 3739SOL     OW22852   0.199   2.297  11.591  0.0791 -0.3654  0.3616
 3739SOL    HW122853   0.164   2.220  11.545  0.5199 -1.5527  2.0060
 3739SOL    HW222854   0.148   2.285  11.672  1.2059 -1.8281  0.8511
 3740SOL     OW22855   3.240   2.274   8.900  0.1619 -0.1038 -0.0220
 3740SOL    HW122856   3.273   2.189   8.870  1.3450  0.4803 -0.3841
 3740SOL    HW222857   3.301   2.337   8.862 -0.2538  1.6705  2.2290
 3741SOL     OW22858   1.636   1.771   0.806  0.1309 -0.3317 -1.1032
 3741SOL    HW122859   1.583   1.692   0.799 -2.1952  1.1463 -0.1360
 3741SOL    HW222860   1.635   1.797   0.714  0.4993  4.0800  0.1359
 3742SOL     OW22861   3.156   3.010   3.438  0.5451  0.1712 -0.1569
 3742SOL    HW122862   3.211   3.014   3.516  0.7996 -1.6431 -0.2397
 3742SOL    HW222863   3.150   2.915   3.429  2.6579  0.0258 -0.0574
 3743SOL     OW22864   1.651   2.618   0.462 -0.5145 -0.3152 -0.2526
 3743SOL    HW122865   1.719   2.676   0.497 -0.0272 -0.7564 -0.4706
 3743SOL    HW222866   1.574   2.666   0.491  0.3974  0.6292  0.5990
 3744SOL     OW22867   3.032   4.641   7.243 -0.3398 -0.1723  0.1018
 3744SOL    HW122868   3.024   4.648   7.148 -2.1231  0.1276  0.2641
 3744SOL    HW222869   2.982   4.717   7.272 -1.6276 -0.4034 -1.5015
 3745SOL     OW22870   2.863   4.159   4.539  0.7329 -0.2155 -0.3284
 3745SOL    HW122871   2.823   4.072   4.539 -0.1952  0.2165 -0.5143
 3745SOL    HW222872   2.927   4.145   4.609  0.7217  2.2453  0.1704
 3746SOL     OW22873   3.307   0.890   7.876  0.0111  0.1707 -1.0317
 3746SOL    HW122874   3.375   0.824   7.864  2.1895  2.5271 -1.8247
 3746SOL    HW222875   3.321   0.910   7.969 -1.6807 -1.6723 -0.3830
 3747SOL     OW22876   2.489   0.036   8.271 -0.8256 -0.1465 -0.4406
 3747SOL    HW122877   2.509   4.732   8.356  1.4478 -0.0143 -0.9098
 3747SOL    HW222878   2.569   0.022   8.221 -0.9390  0.2466 -0.7362
 3748SOL     OW22879   2.670   0.325   7.482  0.0040  0.1770 -0.2285
 3748SOL    HW122880   2.637   0.252   7.534 -1.5761  0.9629 -0.1144
 3748SOL    HW222881   2.723   0.365   7.550  0.0531 -1.4225  0.6664
 3749SOL     OW22882   0.851   0.374   3.841  0.1821 -0.0397 -0.2928
 3749SOL    HW122883   0.878   0.327   3.920  0.4109 -0.4072 -0.5881
 3749SOL    HW222884   0.821   0.454   3.884  2.9810  0.8240  0.0830
 3750SOL     OW22885   2.866   3.222   7.944  0.5587 -0.5060 -0.2808
 3750SOL    HW122886   2.839   3.132   7.963  1.1686 -0.8756 -1.2006
 3750SOL    HW222887   2.799   3.272   7.992 -0.0802 -0.1832 -1.4937
 3751SOL     OW22888   2.328   1.403   4.899 -0.4526  0.0999  0.0391
 3751SOL    HW122889   2.359   1.493   4.883 -0.8960  0.4952  1.4532
 3751SOL    HW222890   2.412   1.359   4.886  0.0514  0.7540  1.0436
 3752SOL     OW22891   2.366   3.257   9.021 -0.4003 -0.2866 -0.5823
 3752SOL    HW122892   2.384   3.306   8.941  0.9205  3.0587  1.7463
 3752SOL    HW222893   2.357   3.169   8.985 -1.4305 -0.9965  1.4170
 3753SOL     OW22894   3.170   2.585   5.655 -0.2776  0.3381 -0.2237
 3753SOL    HW122895   3.123   2.506   5.630 -0.4529  0.2691  0.3112
 3753SOL    HW222896   3.133   2.651   5.596  2.3559  0.0911 -2.1464
 3754SOL     OW22897   3.066   0.035   9.321 -0.2313  0.2924 -0.2553
 3754SOL    HW122898   3.136   4.719   9.281 -0.9714 -0.6454 -0.3485
 3754SOL    HW222899   3.117   0.084   9.384 -1.4108  0.5057  0.5313
 3755SOL     OW22900   4.001   0.405  17.396 -0.4519  0.1774 -0.4245
 3755SOL    HW122901   3.937   0.476  17.389  1.3613  1.6562 -2.1166
 3755SOL    HW222902   4.076   0.461  17.373  0.0964  1.0170  3.4243
 3756SOL     OW22903   2.525   0.562  15.306  0.1928  0.3001  0.1885
 3756SOL    HW122904   2.518   0.586  15.213  0.5467  2.5080  0.7312
 3756SOL    HW222905   2.465   0.489  15.316 -0.2547  0.1124 -3.8597
 3757SOL     OW22906   1.791   3.153   8.029 -0.1047 -1.0639  0.4082
 3757SOL    HW122907   1.786   3.198   8.114 -0.3689  2.7648 -1.6102
 3757SOL    HW222908   1.886   3.158   8.023 -0.2037  0.1541 -0.1215
 3758SOL     OW22909   1.471   0.309   8.484 -0.1170 -1.0158 -0.0332
 3758SOL    HW122910   1.443   0.298   8.575  0.6767  0.0695  0.3330
 3758SOL    HW222911   1.524   0.231   8.469  1.2574 -0.3501  1.4375
 3759SOL     OW22912   2.831   3.390   5.255  0.1911  0.1063  0.4238
 3759SOL    HW122913   2.768   3.435   5.197  0.5374  1.2346  0.9250
 3759SOL    HW222914   2.794   3.302   5.252 -0.0669  0.1822  1.5412
 3760SOL     OW22915   2.507   3.098   7.301  0.1523 -0.1023  0.2970
 3760SOL    HW122916   2.461   3.018   7.328 -1.0593 -0.2656 -2.2811
 3760SOL    HW222917   2.592   3.080   7.341 -0.5489 -1.9828  0.9919
 3761SOL     OW22918   2.997   4.446   8.021  0.5310 -0.0104  0.2703
 3761SOL    HW122919   3.014   4.390   8.097 -0.9083  0.5949  1.0447
 3761SOL    HW222920   3.043   4.396   7.953 -0.3364 -0.6669  0.1599
 3762SOL     OW22921   4.668   1.085   5.054  0.2862  0.7477  0.0470
 3762SOL    HW122922   4.618   1.150   5.104  0.8035  0.4428  0.9460
 3762SOL    HW222923   0.015   1.132   5.067 -0.6408  2.0921  1.1563
 3763SOL     OW22924   1.128   4.106   7.103 -0.1646  0.4073  0.9811
 3763SOL    HW122925   1.209   4.151   7.125  1.2850 -3.2158  2.9714
 3763SOL    HW222926   1.103   4.179   7.046 -0.2827  0.0537  0.5795
 3764SOL     OW22927   1.625   0.792   8.281 -0.1532  0.2028 -0.1345
 3764SOL    HW122928   1.581   0.839   8.210  1.0083  0.8597 -0.4078
 3764SOL    HW222929   1.577   0.710   8.291 -0.5477  0.2950 -1.2776
 3765SOL     OW22930   2.262   3.040   5.356  0.5158  0.5363  0.2270
 3765SOL    HW122931   2.248   3.094   5.279 -3.1518  0.7781  1.0777
 3765SOL    HW222932   2.214   3.091   5.422 -1.9642 -0.5123 -0.7705
 3766SOL     OW22933   0.090   3.752   3.550 -0.1954  0.6353 -0.0045
 3766SOL    HW122934   0.016   3.798   3.512 -0.5338 -0.2994 -0.4630
 3766SOL    HW222935   0.054   3.664   3.556  2.0479 -0.3083 -0.5842
 3767SOL     OW22936   1.857   4.408  16.614 -0.2778 -0.0108  0.2254
 3767SOL    HW122937   1.910   4.376  16.688 -0.0454 -0.8265 -0.2889
 3767SOL    HW222938   1.918   4.449  16.553 -1.8241  0.7935 -0.7837
 3768SOL     OW22939   0.807   1.299   0.325  0.4449  0.0568  0.2165
 3768SOL    HW122940   0.785   1.389   0.349  1.0752  0.2394  0.1129
 3768SOL    HW222941   0.898   1.314   0.298  0.5154  1.5827  1.3204
 3769SOL     OW22942   0.076   0.005   5.897 -0.6614  0.1185  0.1891
 3769SOL    HW122943   0.051   0.076   5.955 -0.0128 -0.3728  1.0670
 3769SOL    HW222944   0.016   4.674   5.931 -0.4947 -0.3133 -0.3518
 3770SOL     OW22945   3.323   1.215  11.525  0.7001 -0.5728 -0.4312
 3770SOL    HW122946   3.274   1.283  11.570  0.3886  0.6296 -2.5520
 3770SOL    HW222947   3.290   1.138  11.570 -1.8178 -0.5476 -2.2768
 3771SOL     OW22948   4.064   1.025   2.629 -0.0512  0.2618  1.5559
 3771SOL    HW122949   3.986   1.068   2.594  0.3842 -1.0903 -1.0998
 3771SOL    HW222950   4.054   0.935   2.598 -2.0709  0.7362  0.8401
 3772SOL     OW22951   0.739   2.527   7.493  0.2520 -0.1033  0.4540
 3772SOL    HW122952   0.816   2.583   7.508 -0.7748  2.2533 -3.1335
 3772SOL    HW222953   0.781   2.443   7.476  1.7619  0.6195  0.6204
 3773SOL     OW22954   1.050   2.208   4.569  0.0747 -0.4313 -0.0151
 3773SOL    HW122955   1.060   2.281   4.630 -0.5152  0.4693 -0.9937
 3773SOL    HW222956   0.957   2.213   4.546 -0.2113 -0.5478  1.1179
 3774SOL     OW22957   0.010   2.910   3.239  0.3070  1.0275  0.5558
 3774SOL    HW122958   0.036   2.998   3.213 -3.6217  1.3144 -2.3296
 3774SOL    HW222959   4.731   2.926   3.332  1.6445  0.0731  0.9363
 3775SOL     OW22960   0.822   4.263  16.988  0.1359 -0.1046  0.7334
 3775SOL    HW122961   0.770   4.201  17.040 -2.1330  0.8068 -0.4519
 3775SOL    HW222962   0.906   4.225  17.014  2.0402  2.4282 -1.8630
 3776SOL     OW22963   1.079   3.419  13.826  0.1602  0.3603 -0.1790
 3776SOL    HW122964   1.164   3.453  13.799  0.1032 -0.6249 -1.5941
 3776SOL    HW222965   1.096   3.388  13.915  0.3574  0.7740 -0.0743
 3777SOL     OW22966   2.566   3.931   4.039  0.5139 -0.4732  0.1618
 3777SOL    HW122967   2.601   3.846   4.012  0.9334 -0.2232 -0.0765
 3777SOL    HW222968   2.608   3.988   3.974  0.6107 -1.0077 -0.2516
 3778SOL     OW22969   2.387   2.624   0.116 -0.3671  0.7090  0.4376
 3778SOL    HW122970   2.303   2.579   0.111  0.9287 -1.8434  1.6710
 3778SOL    HW222971   2.406   2.623   0.210  1.2227 -1.9868  0.0919
 3779SOL     OW22972   0.577   3.800   9.361  0.3497  0.9164 -0.8427
 3779SOL    HW122973   0.613   3.758   9.283 -3.5025 -2.0175 -1.0389
 3779SOL    HW222974   0.618   3.887   9.369  3.2176 -0.5925  0.6586
 3780SOL     OW22975   2.568   1.880   8.916 -0.1171 -0.3409 -0.0270
 3780SOL    HW122976   2.511   1.890   8.839  0.8916  0.9321 -0.6090
 3780SOL    HW222977   2.506   1.860   8.986  0.4534 -2.0218 -0.0072
 3781SOL     OW22978   4.339   0.516   2.848  0.1621  0.3608  0.2136
 3781SOL    HW122979   4.258   0.512   2.899 -0.1741  1.0985 -0.2680
 3781SOL    HW222980   4.384   0.565   2.917  0.4759 -0.0819  0.3232
 3782SOL     OW22981   3.652   4.505  11.717 -0.5194  0.1466 -0.5064
 3782SOL    HW122982   3.669   4.555  11.638 -0.8470  1.3924  0.2200
 3782SOL    HW222983   3.561   4.530  11.734 -0.6914 -1.0674  0.3543
 3783SOL     OW22984   1.119   1.271   1.909  0.4558 -0.1090 -0.0096
 3783SOL    HW122985   1.208   1.237   1.906  1.1801  1.6884  1.3902
 3783SOL    HW222986   1.063   1.227   1.846 -0.3137  0.4785  0.2639
 3784SOL     OW22987   3.775   4.033   7.324  0.2595  0.7100 -0.1903
 3784SOL    HW122988   3.844   3.979   7.361  0.3738  0.8873 -0.1431
 3784SOL    HW222989   3.833   4.101   7.289 -0.7511  1.0422 -1.2177
 3785SOL     OW22990   0.640   2.556   0.515  0.1915  0.5758 -0.0156
 3785SOL    HW122991   0.625   2.462   0.520  2.2210  0.1331 -2.4342
 3785SOL    HW222992   0.735   2.559   0.526  0.2023 -1.9175  0.6851
 3786SOL     OW22993   3.485   0.352  15.465  0.2756 -0.2287  0.2296
 3786SOL    HW122994   3.468   0.439  15.430  0.5091 -0.2009  0.1828
 3786SOL    HW222995   3.574   0.348  15.429 -0.4106 -0.2077 -1.4964
 3787SOL     OW22996   4.580   4.344   3.383  0.1758 -0.2160  0.8486
 3787SOL    HW122997   4.534   4.310   3.460 -1.0923 -0.9891 -0.2529
 3787SOL    HW222998   4.502   4.370   3.335  0.7461 -0.9505 -0.4692
 3788SOL     OW22999   4.565   1.021  15.851  0.0569 -0.5767  0.4469
 3788SOL    HW123000   4.657   1.012  15.876  0.6217 -0.7869 -1.7255
 3788SOL    HW223001   4.523   1.048  15.932  0.5350  1.3473  0.0545
 3789SOL     OW23002   2.860   0.524  13.878  0.0559 -0.2822 -0.0550
 3789SOL    HW123003   2.807   0.447  13.897  1.0410 -1.1807 -0.9353
 3789SOL    HW223004   2.938   0.513  13.934  0.2386 -0.4599 -0.3458
 3790SOL     OW23005   0.116   2.051   5.025 -0.0744  0.2559  0.0842
 3790SOL    HW123006   0.197   2.066   5.075 -0.1220 -0.8685  0.5086
 3790SOL    HW223007   0.084   2.141   5.030  0.4131  0.3846  0.8295
 3791SOL     OW23008   1.972   1.695   5.202 -0.2748 -0.2501 -0.8352
 3791SOL    HW123009   2.004   1.785   5.193 -0.5828 -0.1410 -0.8359
 3791SOL    HW223010   1.917   1.690   5.281  0.2597 -0.0999 -0.4552
 3792SOL     OW23011   0.584   3.349  13.972  0.2084  0.8466 -0.2420
 3792SOL    HW123012   0.537   3.424  14.010 -0.2121  0.6508 -0.3834
 3792SOL    HW223013   0.527   3.274  13.960 -0.5835  1.4790 -0.4512
 3793SOL     OW23014   1.679   2.644   4.137 -0.2784  0.3633 -0.0023
 3793SOL    HW123015   1.649   2.712   4.077 -0.1713  0.8571  0.5006
 3793SOL    HW223016   1.711   2.694   4.213  2.6966 -0.4752 -0.7139
 3794SOL     OW23017   0.899   4.600  17.070  0.2830 -0.1079  0.0338
 3794SOL    HW123018   0.894   4.582  17.164  0.4588 -2.1098 -0.3302
 3794SOL    HW223019   0.967   4.540  17.038 -0.2979  0.0007 -1.4253
 3795SOL     OW23020   3.743   0.484   5.530  0.1643 -0.1630 -0.0805
 3795SOL    HW123021   3.770   0.498   5.620  0.8904 -1.3117 -0.1205
 3795SOL    HW223022   3.781   0.396   5.525  0.5052 -0.1035  1.4515
 3796SOL     OW23023   2.319   3.014   5.705  0.0787 -0.0136  0.0051
 3796SOL    HW123024   2.235   3.045   5.673 -0.3726 -0.7227  0.5117
 3796SOL    HW223025   2.345   2.958   5.633  0.6911  0.9215 -0.5007
 3797SOL     OW23026   2.210   1.556   2.734 -0.5220  0.1055 -0.2985
 3797SOL    HW123027   2.124   1.533   2.770 -1.6830 -0.7193 -3.6361
 3797SOL    HW223028   2.241   1.468   2.711  2.5632  1.3908 -1.0016
 3798SOL     OW23029   2.844   3.569   4.174  0.1324 -0.5706  0.3457
 3798SOL    HW123030   2.897   3.518   4.113  0.6745  0.3699  0.0281
 3798SOL    HW223031   2.866   3.658   4.146 -0.4598 -0.4952  0.1043
 3799SOL     OW23032   0.993   3.644   2.631  0.3727  0.3228  0.9076
 3799SOL    HW123033   0.930   3.595   2.576  0.4381  0.9621  0.2602
 3799SOL    HW223034   1.007   3.722   2.578  1.1870  0.4532  1.3318
 3800SOL     OW23035   2.631   4.669   6.884 -0.1581 -0.3405  0.1629
 3800SOL    HW123036   2.614   4.660   6.791 -0.7444 -0.8738  0.3173
 3800SOL    HW223037   2.586   4.590   6.914  2.7462 -2.4186 -0.9694
 3801SOL     OW23038   3.151   0.956  13.333  0.2631  0.3011 -0.6664
 3801SOL    HW123039   3.148   1.051  13.339  1.3693  0.3724 -1.2153
 3801SOL    HW223040   3.092   0.923  13.401  0.8632  4.6471  1.9906
 3802SOL     OW23041   4.303   2.439   5.558 -0.4067 -0.0012 -0.4045
 3802SOL    HW123042   4.304   2.447   5.654  1.0501 -2.9215 -0.1664
 3802SOL    HW223043   4.218   2.399   5.537 -0.8573  1.8314 -2.0384
 3803SOL     OW23044   0.962   0.317   3.016 -0.1989 -0.6517  0.0724
 3803SOL    HW123045   0.895   0.256   3.046  0.5182 -1.0666  0.8499
 3803SOL    HW223046   1.026   0.316   3.087 -0.5532 -0.0921  0.3949
 3804SOL     OW23047   2.356   0.877   7.380  0.2014  0.1919  0.1276
 3804SOL    HW123048   2.324   0.881   7.470  1.3965  1.0658  0.5149
 3804SOL    HW223049   2.406   0.959   7.382  0.2443  0.1482  0.9057
 3805SOL     OW23050   1.019   3.062  13.912  0.3556 -0.8803 -0.0506
 3805SOL    HW123051   1.073   3.120  13.966 -1.1236  1.7333 -1.3248
 3805SOL    HW223052   0.954   3.126  13.882 -0.3401 -0.9850  1.2038
 3806SOL     OW23053   2.364   4.223   8.552  0.1299  0.0499 -0.2255
 3806SOL    HW123054   2.310   4.300   8.537  0.3053  0.1189 -0.4859
 3806SOL    HW223055   2.326   4.163   8.488 -1.1581  0.0293  0.5436
 3807SOL     OW23056   0.437   4.267   3.304 -0.2888 -0.0087 -0.1592
 3807SOL    HW123057   0.395   4.266   3.218 -1.7596 -0.6318  0.5541
 3807SOL    HW223058   0.514   4.320   3.284  1.3303 -1.5200  2.0655
 3808SOL     OW23059   2.564   3.707  11.313 -0.3541 -0.7721 -0.1847
 3808SOL    HW123060   2.549   3.699  11.407 -1.4021  2.5779 -0.0744
 3808SOL    HW223061   2.648   3.663  11.299 -1.0902 -2.0387 -0.6396
 3809SOL     OW23062   4.276   2.071   3.744  0.3082 -0.0288  0.4029
 3809SOL    HW123063   4.236   2.021   3.815 -1.6046  1.2709  0.2300
 3809SOL    HW223064   4.370   2.078   3.762  0.5708  0.9475 -1.3516
 3810SOL     OW23065   3.632   4.350  17.618 -0.2915 -0.0462  0.4235
 3810SOL    HW123066   3.591   4.302  17.690  1.5380 -1.0226  0.8060
 3810SOL    HW223067   3.725   4.333  17.633 -0.7328 -0.1835  3.1196
 3811SOL     OW23068   2.252   1.571   9.826  0.2117 -0.2291  0.2465
 3811SOL    HW123069   2.174   1.549   9.775 -0.6085  1.9499  0.5177
 3811SOL    HW223070   2.307   1.505   9.785 -1.7373 -2.2181  0.8832
 3812SOL     OW23071   4.523   0.904  13.417 -0.1470 -0.5965  0.0311
 3812SOL    HW123072   4.430   0.882  13.414 -0.0438 -0.9422 -0.6530
 3812SOL    HW223073   4.529   0.966  13.490 -0.5850  0.1845 -0.6068
 3813SOL     OW23074   2.395   3.691   4.916 -0.1633 -0.1429  0.3826
 3813SOL    HW123075   2.471   3.634   4.931  0.5408  0.9808  0.9993
 3813SOL    HW223076   2.319   3.646   4.953 -1.4566  0.3997 -1.6105
 3814SOL     OW23077   2.218   2.012   1.552  0.1459 -0.4102 -0.2143
 3814SOL    HW123078   2.195   1.942   1.613  0.5436  1.0469  1.6126
 3814SOL    HW223079   2.131   2.049   1.541  0.5448 -0.0588 -2.3163
 3815SOL     OW23080   0.279   2.024  14.098  0.6308  0.3488  0.4608
 3815SOL    HW123081   0.315   2.109  14.073  0.9197  0.1104  0.0583
 3815SOL    HW223082   0.228   2.058  14.172 -0.0108 -1.0731  0.6768
 3816SOL     OW23083   1.720   1.079  13.713  0.2518  0.1107 -0.5515
 3816SOL    HW123084   1.640   1.050  13.756 -0.7288  2.0616 -1.0756
 3816SOL    HW223085   1.755   1.138  13.779 -1.1550  0.5143 -0.1723
 3817SOL     OW23086   3.495   2.935   8.653  0.3592  0.4256  0.0928
 3817SOL    HW123087   3.464   3.016   8.692  0.7408 -0.6148  2.5232
 3817SOL    HW223088   3.589   2.954   8.643  0.6118 -0.3642  0.9691
 3818SOL     OW23089   1.380   2.823   3.041  0.9942  0.0684 -0.0423
 3818SOL    HW123090   1.388   2.862   2.954 -0.8206  1.4663  0.4075
 3818SOL    HW223091   1.443   2.879   3.087  1.8938  0.4910 -1.7828
 3819SOL     OW23092   1.960   2.956   9.083  0.7339 -0.3665 -0.1209
 3819SOL    HW123093   1.950   2.866   9.050 -1.2229 -0.4863  0.7816
 3819SOL    HW223094   1.917   2.943   9.168  0.3522 -2.1922 -0.5807
 3820SOL     OW23095   2.183   2.072   2.411  0.0121 -0.2837  0.2087
 3820SOL    HW123096   2.223   2.040   2.331 -0.4057 -1.7822  0.5996
 3820SOL    HW223097   2.108   2.014   2.423  0.5125 -0.9948 -0.1095
 3821SOL     OW23098   4.702   2.950  15.744 -0.3509 -0.5873  0.6799
 3821SOL    HW123099   4.624   2.970  15.691 -2.8738  0.3451  4.7533
 3821SOL    HW223100   0.019   2.891  15.689  1.7069  0.2538  1.7435
 3822SOL     OW23101   2.634   2.087   3.298  0.1814 -0.1357 -0.1432
 3822SOL    HW123102   2.658   2.124   3.213 -0.7406  0.9613  0.0818
 3822SOL    HW223103   2.558   2.032   3.282  0.2503 -0.5526  0.9778
 3823SOL     OW23104   1.623   2.532   3.741 -0.3268  0.0362 -0.2648
 3823SOL    HW123105   1.708   2.499   3.709  0.9075  1.5173  1.4586
 3823SOL    HW223106   1.633   2.627   3.730  2.8543 -0.3295 -0.5308
 3824SOL     OW23107   2.025   3.944   7.501 -0.4016 -0.3811 -0.1369
 3824SOL    HW123108   2.108   3.991   7.488 -0.6686  0.6040  1.7257
 3824SOL    HW223109   2.055   3.858   7.529 -0.9947  0.5388  3.2279
 3825SOL     OW23110   4.669   3.085   0.177  0.5200 -0.1368 -0.3089
 3825SOL    HW123111   4.654   3.127   0.262 -0.5902 -2.4892  0.6783
 3825SOL    HW223112   4.580   3.051   0.169 -0.3265  1.7864  0.8956
 3826SOL     OW23113   3.993   2.651  10.624 -0.2605  0.3525 -0.1005
 3826SOL    HW123114   3.975   2.582  10.559 -1.7792  1.1760 -0.5583
 3826SOL    HW223115   3.904   2.680  10.645 -0.9964 -1.1378 -1.1372
 3827SOL     OW23116   4.043   1.588   7.938 -0.3264  0.4844  0.0553
 3827SOL    HW123117   3.947   1.593   7.937 -0.3850 -1.4312 -2.4679
 3827SOL    HW223118   4.060   1.652   8.008  0.2556 -1.5308  1.7593
 3828SOL     OW23119   1.073   0.186  13.242 -0.4543  0.2215  0.2094
 3828SOL    HW123120   1.009   0.132  13.196  1.8326 -0.6423 -1.9978
 3828SOL    HW223121   1.148   0.164  13.187  1.0393  0.4323  2.1427
 3829SOL     OW23122   3.456   3.493   6.439 -0.3535 -0.5700  0.2861
 3829SOL    HW123123   3.479   3.462   6.526 -1.8766 -0.1640  0.8309
 3829SOL    HW223124   3.503   3.431   6.383  0.9190 -1.7284  2.6225
 3830SOL     OW23125   1.740   1.150   2.578 -0.2971 -0.0068  0.2374
 3830SOL    HW123126   1.800   1.088   2.619  0.5891  0.9172  0.3280
 3830SOL    HW223127   1.803   1.201   2.528 -0.1616 -0.1864  0.2259
 3831SOL     OW23128   3.724   2.135   8.549  0.2145 -0.8156  0.5932
 3831SOL    HW123129   3.809   2.146   8.592  0.8205 -1.1155 -0.5138
 3831SOL    HW223130   3.672   2.154   8.627 -1.2547  3.8794 -1.5157
 3832SOL     OW23131   4.175   1.405   1.844 -0.3832 -0.3727 -0.1165
 3832SOL    HW123132   4.090   1.395   1.887 -0.5286 -1.9703 -0.8011
 3832SOL    HW223133   4.150   1.384   1.754 -1.1413  1.0858 -0.2456
 3833SOL     OW23134   2.679   4.029   3.136 -0.0604 -0.3480  0.3885
 3833SOL    HW123135   2.683   4.001   3.045 -0.1517 -1.0440  0.5957
 3833SOL    HW223136   2.599   3.984   3.163 -0.0436  0.2149  1.3932
 3834SOL     OW23137   4.537   0.673  15.965  0.1871 -0.4372 -0.0716
 3834SOL    HW123138   4.490   0.753  15.989  3.6285  1.9322 -1.2737
 3834SOL    HW223139   4.525   0.664  15.871 -0.6769 -0.8131  0.0681
 3835SOL     OW23140   2.798   2.382   4.316 -0.4022 -0.3984 -0.1456
 3835SOL    HW123141   2.768   2.344   4.233  0.7647 -0.3708 -0.5798
 3835SOL    HW223142   2.821   2.300   4.360 -0.5494 -0.2927  0.1249
 3836SOL     OW23143   1.321   0.730   0.942  0.1596  0.5840 -0.0896
 3836SOL    HW123144   1.330   0.822   0.966 -0.9685  1.0138 -1.3231
 3836SOL    HW223145   1.369   0.735   0.859 -1.1733  0.4200 -0.8645
 3837SOL     OW23146   0.197   1.143   7.106  0.1391 -0.1867  0.3562
 3837SOL    HW123147   0.105   1.148   7.081  0.4031  1.4915 -0.3140
 3837SOL    HW223148   0.212   1.238   7.103  2.6382 -0.6698 -2.6034
 3838SOL     OW23149   1.457   0.741   2.482  0.6695  0.1283 -0.4230
 3838SOL    HW123150   1.371   0.721   2.520 -0.0642 -0.2987 -2.2717
 3838SOL    HW223151   1.472   0.826   2.523 -1.6872 -0.1107  0.9479
 3839SOL     OW23152   4.549   0.375   2.754  0.2583  0.9078 -0.1858
 3839SOL    HW123153   4.478   0.430   2.787 -0.2999 -0.2061  0.4642
 3839SOL    HW223154   4.578   0.418   2.674 -0.8884  2.1019  0.0479
 3840SOL     OW23155   3.928   2.214  14.809  0.5376 -0.0026  0.1931
 3840SOL    HW123156   3.949   2.149  14.877  0.9237 -0.9208 -0.8002
 3840SOL    HW223157   3.930   2.152  14.736 -2.1803  1.6724 -1.3051
 3841SOL     OW23158   2.362   2.039   2.814  0.0638  0.0457  0.2942
 3841SOL    HW123159   2.398   2.067   2.898  1.6115 -1.4070  0.1224
 3841SOL    HW223160   2.405   2.091   2.746  1.3832  0.2705  1.3074
 3842SOL     OW23161   2.862   1.711  10.421 -0.3334  0.1199 -0.1790
 3842SOL    HW123162   2.931   1.671  10.475 -0.9632 -1.4764 -0.5498
 3842SOL    HW223163   2.842   1.634  10.368 -0.3177  1.0758 -1.5660
 3843SOL     OW23164   2.160   3.056   4.726  0.2763 -0.0700  0.3234
 3843SOL    HW123165   2.160   3.035   4.820  1.5817 -0.7476  0.1738
 3843SOL    HW223166   2.091   3.122   4.729  0.4067  0.0704  0.2078
 3844SOL     OW23167   0.687   2.962   3.444  0.1959  0.5487 -0.1610
 3844SOL    HW123168   0.744   2.915   3.383  0.2364  0.9600 -0.4413
 3844SOL    HW223169   0.599   2.941   3.415 -0.2282 -0.1546  1.6651
 3845SOL     OW23170   3.158   0.361  16.514 -0.0543  0.1295  0.1045
 3845SOL    HW123171   3.170   0.370  16.420  1.9724  1.3363  0.4753
 3845SOL    HW223172   3.246   0.342  16.549  0.6747  0.8132 -1.3638
 3846SOL     OW23173   2.821   2.382   1.895 -0.3681 -0.1076 -0.1053
 3846SOL    HW123174   2.790   2.293   1.879  1.0904 -0.2062 -2.4318
 3846SOL    HW223175   2.753   2.441   1.862  0.9218 -0.0029 -2.6573
 3847SOL     OW23176   4.668   0.994   1.496 -0.8051  0.2730 -0.2868
 3847SOL    HW123177   4.592   0.946   1.464 -1.7600  1.1170  0.7369
 3847SOL    HW223178   4.640   1.085   1.490 -1.0282  0.1792 -0.6684
 3848SOL     OW23179   4.223   2.030   3.205  0.3839 -0.5872  0.0252
 3848SOL    HW123180   4.261   2.046   3.291  1.2358 -0.2480 -0.4232
 3848SOL    HW223181   4.300   1.993   3.163  1.2409 -0.9721  1.9361
 3849SOL     OW23182   0.613   0.080   5.661 -0.0914 -0.6394  0.2387
 3849SOL    HW123183   0.567   0.099   5.579 -2.0165  2.0364  1.9685
 3849SOL    HW223184   0.658   0.160   5.689  0.2366 -1.0030  0.7524
 3850SOL     OW23185   4.331   3.907  11.186 -0.6877 -0.2293  0.0650
 3850SOL    HW123186   4.297   3.826  11.147  1.7840 -1.0281 -0.4561
 3850SOL    HW223187   4.387   3.869  11.254 -1.7571  1.3319  1.8031
 3851SOL     OW23188   0.951   1.156   5.910 -0.2360 -0.1682  0.0307
 3851SOL    HW123189   0.970   1.065   5.889 -1.7026 -0.6793  0.9392
 3851SOL    HW223190   0.856   1.169   5.909 -0.1019  0.7481 -3.1549
 3852SOL     OW23191   3.542   2.197   3.311  0.2937 -0.1304 -0.0149
 3852SOL    HW123192   3.605   2.189   3.239 -1.3297 -3.4416 -1.0396
 3852SOL    HW223193   3.459   2.191   3.265 -0.4403  2.1373  0.9766
 3853SOL     OW23194   3.023   1.147   5.789  0.3941  0.2202 -0.0378
 3853SOL    HW123195   3.006   1.139   5.883  0.1026 -0.5367 -0.1612
 3853SOL    HW223196   2.984   1.068   5.752 -2.7253  2.3437 -1.2315
 3854SOL     OW23197   0.611   2.933   9.490  0.1280  0.3107 -0.2732
 3854SOL    HW123198   0.649   3.010   9.446 -0.1682  0.5332 -0.1375
 3854SOL    HW223199   0.580   2.865   9.431  0.0323 -0.2046  0.3779
 3855SOL     OW23200   0.327   3.165   0.989  0.4665  0.5735 -0.5781
 3855SOL    HW123201   0.393   3.117   1.039  1.9758  0.4550 -2.7021
 3855SOL    HW223202   0.246   3.116   1.004  0.8294 -0.5289 -2.3213
 3856SOL     OW23203   2.813   2.103   4.383  0.4073 -0.5483  0.5316
 3856SOL    HW123204   2.897   2.063   4.359  0.0323 -2.1286  1.7919
 3856SOL    HW223205   2.777   2.044   4.450  0.5419 -1.7220 -0.4171
 3857SOL     OW23206   1.428   3.328   7.935 -0.2700  0.3956 -0.2467
 3857SOL    HW123207   1.448   3.329   8.029  1.6140  0.7883 -0.6484
 3857SOL    HW223208   1.343   3.283   7.933  0.6730 -1.4407  0.2409
 3858SOL     OW23209   0.133   1.529   5.173  0.5259  0.2836  0.2968
 3858SOL    HW123210   0.214   1.548   5.125  0.5186  0.6136  0.4126
 3858SOL    HW223211   0.137   1.434   5.165 -1.3387  0.3468 -1.4030
 3859SOL     OW23212   1.380   1.019   9.074 -0.0064  0.6180 -0.0913
 3859SOL    HW123213   1.310   0.990   9.016 -1.4139 -0.9979  2.4693
 3859SOL    HW223214   1.362   1.113   9.075 -1.2342  0.3277  2.3971
 3860SOL     OW23215   4.001   1.813   0.385  0.0220 -0.3475  0.2009
 3860SOL    HW123216   3.992   1.738   0.443 -1.4140  0.4621  1.0453
 3860SOL    HW223217   4.086   1.854   0.402 -1.2708  1.6104  2.1063
 3861SOL     OW23218   4.456   1.385   4.949  0.2331 -0.0322  0.0045
 3861SOL    HW123219   4.469   1.334   5.029  2.9484 -1.1822 -1.1733
 3861SOL    HW223220   4.429   1.316   4.889 -1.5572  1.3190 -0.7347
 3862SOL     OW23221   0.728   1.099   1.379  0.0085  0.1366 -0.2485
 3862SOL    HW123222   0.811   1.056   1.398 -0.5645 -1.0734 -0.4787
 3862SOL    HW223223   0.684   1.065   1.457 -0.5855  2.1309  0.2922
 3863SOL     OW23224   1.737   0.939   6.280 -0.1222 -0.9139  0.4107
 3863SOL    HW123225   1.806   0.884   6.317  0.4802 -1.2842 -1.2683
 3863SOL    HW223226   1.769   0.958   6.192  0.4550  0.1741  0.8564
 3864SOL     OW23227   4.579   1.158   2.192  0.1280 -0.4178 -0.0540
 3864SOL    HW123228   4.563   1.249   2.217  0.1878 -0.9083  1.7479
 3864SOL    HW223229   4.664   1.133   2.227  0.2292  0.2666  0.1822
 3865SOL     OW23230   0.906   3.470   5.833 -0.2351  0.2742 -0.6334
 3865SOL    HW123231   0.869   3.531   5.770 -0.1950  0.4575 -0.4789
 3865SOL    HW223232   0.995   3.472   5.797  0.1356 -0.4779  0.2480
 3866SOL     OW23233   3.967   2.321  10.735 -0.2715 -0.1354 -0.4406
 3866SOL    HW123234   3.997   2.366  10.656  3.3366  0.7289  1.4309
 3866SOL    HW223235   3.874   2.313  10.713  0.0549 -1.2261 -1.4517
 3867SOL     OW23236   3.435   3.210  15.050 -0.2316 -0.0772  0.0676
 3867SOL    HW123237   3.352   3.162  15.048 -0.1707 -0.2166  0.9644
 3867SOL    HW223238   3.429   3.271  15.123 -2.8071  0.0192 -0.1992
 3868SOL     OW23239   0.556   0.260  13.512 -0.1645 -0.3610 -0.3192
 3868SOL    HW123240   0.517   0.347  13.524  0.4460 -0.2734  0.9888
 3868SOL    HW223241   0.625   0.264  13.578 -0.5736 -2.3291  0.2157
 3869SOL     OW23242   1.719   2.860  11.166  0.2117  1.0698  0.6137
 3869SOL    HW123243   1.632   2.896  11.148 -0.3188 -0.6501 -0.3095
 3869SOL    HW223244   1.731   2.837  11.074 -0.6580 -1.9288  1.2733
 3870SOL     OW23245   2.101   2.723   7.733  0.0799 -0.1533 -0.7309
 3870SOL    HW123246   2.025   2.666   7.738  0.4148 -0.2917  2.6246
 3870SOL    HW223247   2.074   2.799   7.784 -4.0827 -1.5598 -0.8912
 3871SOL     OW23248   1.652   2.360   3.974  0.1454 -0.1567  0.4220
 3871SOL    HW123249   1.690   2.417   3.907 -1.4815  1.3543  0.7777
 3871SOL    HW223250   1.709   2.284   3.986 -0.6724 -0.6247  1.3250
 3872SOL     OW23251   3.163   2.888   6.101  0.5236  0.2200  0.1737
 3872SOL    HW123252   3.191   2.874   6.010  0.3986  0.2148  0.1355
 3872SOL    HW223253   3.248   2.880   6.143  1.3840  0.9496 -1.4129
 3873SOL     OW23254   4.668   4.003  15.464  0.0125  0.1851 -0.4121
 3873SOL    HW123255   4.580   4.005  15.427 -0.4921 -1.5127  0.7421
 3873SOL    HW223256   4.662   3.910  15.482 -0.2037  0.3142  0.1718
 3874SOL     OW23257   0.554   0.411   9.083 -0.0625  0.1731  0.5502
 3874SOL    HW123258   0.648   0.395   9.096 -0.1061 -2.1520 -1.9117
 3874SOL    HW223259   0.550   0.478   9.151  3.4933  0.9325 -0.0048
 3875SOL     OW23260   1.548   0.105  14.275  0.4733  0.3749  0.1930
 3875SOL    HW123261   1.561   0.199  14.270 -0.3374  0.4051 -1.3403
 3875SOL    HW223262   1.628   0.095  14.326  0.3969  2.9623  0.8445
 3876SOL     OW23263   1.427   3.911   4.004 -0.3154  0.6730  0.6818
 3876SOL    HW123264   1.396   3.938   4.091 -1.4107 -0.0639  0.5197
 3876SOL    HW223265   1.487   3.842   4.033 -1.7165 -0.2114  1.4936
 3877SOL     OW23266   1.989   2.521  16.539  0.0523 -0.2975  0.1615
 3877SOL    HW123267   1.949   2.608  16.545  1.6898  0.5572 -1.4956
 3877SOL    HW223268   1.926   2.470  16.590 -1.8820  1.2580 -0.7100
 3878SOL     OW23269   3.953   1.890   3.727  0.6088 -0.5332 -0.0789
 3878SOL    HW123270   3.877   1.839   3.756  0.3503 -0.3317 -0.4141
 3878SOL    HW223271   3.913   1.971   3.696  0.9522 -1.0090 -1.7736
 3879SOL     OW23272   0.177   1.510   8.240 -0.2031  0.5442  0.9288
 3879SOL    HW123273   0.217   1.434   8.283  1.0796  0.0673 -1.0947
 3879SOL    HW223274   0.089   1.477   8.221  0.8323 -1.4388 -0.4952
 3880SOL     OW23275   0.387   3.497  12.906 -0.8623 -0.3961  0.0534
 3880SOL    HW123276   0.370   3.456  12.821 -4.0361 -1.0121  0.9771
 3880SOL    HW223277   0.476   3.469  12.929 -0.5473  0.5126 -0.0843
 3881SOL     OW23278   4.098   0.395   6.335 -0.0790 -0.4385 -0.1088
 3881SOL    HW123279   4.180   0.438   6.310 -0.0024 -1.1799 -1.1589
 3881SOL    HW223280   4.047   0.461   6.382 -2.4772 -1.5334 -1.1475
 3882SOL     OW23281   0.636   2.776   3.198 -0.0660 -0.1775  0.1304
 3882SOL    HW123282   0.726   2.751   3.220  0.0844 -1.6194 -2.0994
 3882SOL    HW223283   0.621   2.724   3.119 -1.2173 -0.8224  0.7595
 3883SOL     OW23284   0.684   0.347   0.407  0.1042 -0.0036 -0.1737
 3883SOL    HW123285   0.633   0.393   0.474  1.5503  1.2761  0.0409
 3883SOL    HW223286   0.615   0.301   0.360 -0.1388  0.1631  0.0180
 3884SOL     OW23287   3.059   3.767   5.161  0.2456 -0.4488 -0.2564
 3884SOL    HW123288   2.965   3.751   5.168  0.3845 -0.8957  0.6023
 3884SOL    HW223289   3.068   3.816   5.079 -1.3053  0.7875  0.3030
 3885SOL     OW23290   3.404   3.017   2.442  0.5424 -0.5128  0.1511
 3885SOL    HW123291   3.388   2.923   2.428 -0.7552 -0.4494  1.1610
 3885SOL    HW223292   3.365   3.028   2.529  1.5571  0.8671  0.4304
 3886SOL     OW23293   3.430   2.436   8.767  0.3680  0.0852 -0.2630
 3886SOL    HW123294   3.484   2.515   8.758 -0.8783  1.1155  1.2644
 3886SOL    HW223295   3.492   2.365   8.785  0.7242  0.6351  0.6777
 3887SOL     OW23296   3.128   1.003  14.430  0.1051 -0.3404 -0.1530
 3887SOL    HW123297   3.061   0.940  14.407 -0.2623 -0.6229  1.6746
 3887SOL    HW223298   3.192   0.982  14.361  0.8519  0.5934  0.2483
 3888SOL     OW23299   2.730   1.381   8.637 -0.0980  0.0193  0.3124
 3888SOL    HW123300   2.765   1.294   8.618 -0.8166  0.1278 -1.4861
 3888SOL    HW223301   2.722   1.387   8.732 -1.8399 -1.5514  0.2541
 3889SOL     OW23302   0.843   0.053   6.830 -0.4595 -0.4518  0.4531
 3889SOL    HW123303   0.895   4.708   6.822  1.8523  1.0047  0.7440
 3889SOL    HW223304   0.856   0.073   6.923 -1.3985  0.0145  0.4763
 3890SOL     OW23305   2.115   0.333   1.301 -0.1113  0.4164  0.0353
 3890SOL    HW123306   2.177   0.288   1.359 -0.0289  0.4251 -0.0462
 3890SOL    HW223307   2.029   0.324   1.342 -0.0224  0.5913  0.2584
 3891SOL     OW23308   4.044   2.940  10.201 -0.3071  0.7281  0.0282
 3891SOL    HW123309   4.068   3.016  10.148 -0.0493  0.9345  0.4351
 3891SOL    HW223310   4.016   2.891  10.125 -1.8078  0.8706  0.5016
 3892SOL     OW23311   1.782   3.819   7.610  0.4012 -0.1284  0.5511
 3892SOL    HW123312   1.850   3.877   7.575 -1.3087  2.4483  1.5072
 3892SOL    HW223313   1.816   3.733   7.586 -0.7801 -0.4124 -0.0666
 3893SOL     OW23314   3.656   0.724  13.395  0.1352  0.1231  0.3167
 3893SOL    HW123315   3.562   0.728  13.376  0.1633 -0.9803 -0.0384
 3893SOL    HW223316   3.687   0.664  13.327  1.2563  3.5874 -2.2293
 3894SOL     OW23317   2.624   0.717   5.764 -0.1767 -0.8826  0.0600
 3894SOL    HW123318   2.587   0.802   5.789 -1.6690 -1.5902  0.2703
 3894SOL    HW223319   2.660   0.741   5.679 -1.7177 -0.6781 -0.5318
 3895SOL     OW23320   4.547   1.853   9.024  0.2858 -0.1944 -0.4841
 3895SOL    HW123321   4.481   1.789   9.052  1.7458 -0.3383  2.6584
 3895SOL    HW223322   4.627   1.801   9.025  0.6583  0.4113  0.6740
 3896SOL     OW23323   3.405   0.323   4.383 -0.0271 -0.4557 -0.0773
 3896SOL    HW123324   3.468   0.295   4.450  1.4678  1.6459 -0.6215
 3896SOL    HW223325   3.454   0.294   4.307 -0.8044 -0.4286 -0.5884
 3897SOL     OW23326   0.272   4.221   6.755  0.2211 -0.1213 -0.1917
 3897SOL    HW123327   0.288   4.229   6.849 -3.0743  0.3688  0.3564
 3897SOL    HW223328   0.288   4.128   6.741 -0.9138 -0.4097  0.3919
 3898SOL     OW23329   2.943   0.592   9.185  0.3885 -0.1840 -0.5152
 3898SOL    HW123330   2.912   0.656   9.249 -1.2821  0.3673 -1.8629
 3898SOL    HW223331   2.942   0.644   9.105  0.8372 -0.4709 -0.7071
 3899SOL     OW23332   1.157   4.735   4.073 -0.4269  0.2228  0.2308
 3899SOL    HW123333   1.096   0.070   4.054  0.9104  1.3675  0.1630
 3899SOL    HW223334   1.239   0.047   4.063  0.3142 -1.5595 -2.0766
 3900SOL     OW23335   1.676   3.046  12.484 -0.3626 -0.0515 -0.0430
 3900SOL    HW123336   1.706   3.028  12.573  0.1933  0.1116 -0.1998
 3900SOL    HW223337   1.760   3.042  12.438  0.7926  1.1227  2.0101
 3901SOL     OW23338   3.467   0.360   2.753  0.1017 -0.5211  0.8577
 3901SOL    HW123339   3.403   0.368   2.682  1.4574 -1.9059 -0.5240
 3901SOL    HW223340   3.455   0.439   2.805  0.2165  1.2347 -1.8059
 3902SOL     OW23341   2.702   2.763   2.878  0.4459  0.1202  0.4559
 3902SOL    HW123342   2.629   2.807   2.834  0.6081 -0.3854 -0.3324
 3902SOL    HW223343   2.704   2.812   2.960 -1.2318  0.7531  0.1270
 3903SOL     OW23344   4.497   3.624   7.553  0.2977 -0.2742 -0.2337
 3903SOL    HW123345   4.552   3.667   7.488  1.4079 -0.8296  0.3283
 3903SOL    HW223346   4.523   3.680   7.626 -2.8506  0.5424  0.2408
 3904SOL     OW23347   2.864   2.392   3.960  0.3170  0.0266 -0.5092
 3904SOL    HW123348   2.924   2.330   3.918  0.1532 -0.1650 -0.4612
 3904SOL    HW223349   2.812   2.324   4.003  0.4382  0.6572  0.6313
 3905SOL     OW23350   0.712   3.535   8.839  0.0274  0.1080  0.1819
 3905SOL    HW123351   0.724   3.476   8.765 -0.2727  1.5074 -0.9832
 3905SOL    HW223352   0.617   3.536   8.853  0.0413 -0.6674  0.3402
 3906SOL     OW23353   4.695   1.100   3.183 -0.3587 -0.3143 -0.3543
 3906SOL    HW123354   4.725   1.190   3.193 -0.7268 -0.4623  2.1097
 3906SOL    HW223355   4.682   1.102   3.088  3.3193  0.2263 -0.8366
 3907SOL     OW23356   3.898   1.802   4.411  0.3704 -0.0166 -0.0481
 3907SOL    HW123357   3.975   1.782   4.465 -0.1615  2.9286  1.8030
 3907SOL    HW223358   3.925   1.815   4.320  2.4108 -0.6092  0.4757
 3908SOL     OW23359   1.586   1.475   4.534  0.5274  0.4282  0.3258
 3908SOL    HW123360   1.622   1.480   4.622  4.2002  1.8681 -1.2410
 3908SOL    HW223361   1.630   1.551   4.495  0.8048  0.0249 -0.1552
 3909SOL     OW23362   3.353   2.811   8.136 -0.0011  0.1496  0.3111
 3909SOL    HW123363   3.339   2.722   8.169  1.5538 -0.2387 -0.0700
 3909SOL    HW223364   3.407   2.853   8.202 -0.2349 -0.9389  1.2021
 3910SOL     OW23365   4.277   2.545   3.506  0.0648 -0.5506 -0.4955
 3910SOL    HW123366   4.206   2.566   3.568 -1.3804 -0.7771 -2.0772
 3910SOL    HW223367   4.252   2.599   3.431 -1.0451 -0.4420 -0.0495
 3911SOL     OW23368   2.653   2.931   0.565 -0.3158 -0.0765 -0.4933
 3911SOL    HW123369   2.586   2.902   0.503  0.0134 -0.2919 -0.7507
 3911SOL    HW223370   2.655   3.025   0.549  3.3851 -0.1806 -0.6158
 3912SOL     OW23371   3.425   3.277  15.347  0.0762 -0.4066 -0.4690
 3912SOL    HW123372   3.508   3.324  15.351  0.3335 -0.8501 -0.5722
 3912SOL    HW223373   3.456   3.190  15.373 -1.3679 -0.1379  2.1242
 3913SOL     OW23374   2.355   4.246  16.891  0.2141  0.1393 -0.0370
 3913SOL    HW123375   2.371   4.153  16.904 -1.6769 -0.2908 -0.8394
 3913SOL    HW223376   2.436   4.297  16.897  2.5201 -3.4896 -0.8234
 3914SOL     OW23377   4.488   1.711   4.307 -0.2625 -0.0823  0.1593
 3914SOL    HW123378   4.481   1.629   4.357 -1.4402 -0.5304 -0.7415
 3914SOL    HW223379   4.560   1.755   4.351 -1.8825  2.2097  0.5151
 3915SOL     OW23380   3.390   3.721   9.469  0.0984 -0.0823 -0.0725
 3915SOL    HW123381   3.465   3.664   9.487 -0.9653 -1.6904 -0.7757
 3915SOL    HW223382   3.374   3.746   9.560 -1.2944 -1.2395 -0.0053
 3916SOL     OW23383   3.813   1.023   6.599  0.2658  0.3829 -0.5475
 3916SOL    HW123384   3.763   1.100   6.572  1.3281  0.8391 -1.1916
 3916SOL    HW223385   3.890   1.025   6.543  1.5947  1.0186  1.3078
 3917SOL     OW23386   0.797   1.035   2.244  0.1252 -0.2350  0.1308
 3917SOL    HW123387   0.870   0.990   2.201  0.7380 -1.7663  2.7208
 3917SOL    HW223388   0.733   0.964   2.241  1.3005 -1.3135  0.2230
 3918SOL     OW23389   3.748   4.564  16.195  0.1301  0.1831  0.0284
 3918SOL    HW123390   3.716   4.650  16.220  1.6401  1.0073 -0.8927
 3918SOL    HW223391   3.784   4.581  16.108  0.1113 -0.8900 -0.1953
 3919SOL     OW23392   0.418   3.315  15.876 -0.3521 -0.3740  0.4184
 3919SOL    HW123393   0.458   3.228  15.874 -0.2650 -0.3106 -0.4606
 3919SOL    HW223394   0.437   3.343  15.966 -0.7305 -1.3598  0.7984
 3920SOL     OW23395   4.522   2.473   7.088  0.8259  0.6644 -0.1625
 3920SOL    HW123396   4.511   2.500   6.997 -0.5962  1.5778  0.2668
 3920SOL    HW223397   4.537   2.556   7.134 -3.7675 -0.1267  2.7987
 3921SOL     OW23398   2.026   0.534   2.142 -0.5267 -0.2403 -0.3652
 3921SOL    HW123399   2.023   0.483   2.223 -0.1570 -0.0848 -0.2531
 3921SOL    HW223400   2.070   0.613   2.175  1.4824 -1.3886 -0.3133
 3922SOL     OW23401   0.393   3.431   0.851  0.0769  0.5490  0.0509
 3922SOL    HW123402   0.332   3.499   0.878  1.6629  1.9311  0.1455
 3922SOL    HW223403   0.380   3.369   0.923 -0.9414 -0.8298 -1.3126
 3923SOL     OW23404   2.015   0.331   0.488  0.0439 -0.3056 -0.0764
 3923SOL    HW123405   2.069   0.300   0.560  1.2645  0.8161 -0.4981
 3923SOL    HW223406   1.944   0.268   0.476 -0.5571  0.4915 -0.7844
 3924SOL     OW23407   0.546   0.958   9.112  0.2617  0.0935 -0.5442
 3924SOL    HW123408   0.490   0.944   9.036  2.0767 -0.0876 -1.8264
 3924SOL    HW223409   0.478   1.009   9.157  0.7777  0.0062  0.3534
 3925SOL     OW23410   1.475   0.456  14.775  0.3308  0.8654  0.1990
 3925SOL    HW123411   1.465   0.361  14.771  1.0735  0.7335  1.5493
 3925SOL    HW223412   1.537   0.464  14.847  1.1855  0.9686 -0.5495
 3926SOL     OW23413   1.100   1.841   6.274 -0.5189 -0.2310  0.1606
 3926SOL    HW123414   1.061   1.757   6.299 -0.1504 -0.5785 -0.4050
 3926SOL    HW223415   1.030   1.876   6.219 -1.3470 -0.7982  0.8574
 3927SOL     OW23416   1.193   1.059  14.744  0.0513  0.0258  0.2077
 3927SOL    HW123417   1.193   1.080  14.837  0.0517  0.5145  0.0958
 3927SOL    HW223418   1.188   0.963  14.743  3.3308 -0.1517 -0.4690
 3928SOL     OW23419   2.907   3.663  15.880 -0.2267  0.3450 -0.0168
 3928SOL    HW123420   2.927   3.580  15.923  2.6403  2.2910  2.3743
 3928SOL    HW223421   2.942   3.651  15.792 -0.6548 -0.8986 -0.0265
 3929SOL     OW23422   2.766   0.941   6.535 -0.2227 -0.5927  0.7745
 3929SOL    HW123423   2.675   0.964   6.556 -0.0698  1.6543 -0.9975
 3929SOL    HW223424   2.820   0.964   6.610  0.2667 -3.5779  1.3164
 3930SOL     OW23425   3.329   4.417  14.681 -0.3971 -0.1235 -0.2686
 3930SOL    HW123426   3.337   4.489  14.744  0.1342 -2.7429  2.7010
 3930SOL    HW223427   3.249   4.374  14.711 -0.0778  0.3272  1.2187
 3931SOL     OW23428   2.163   1.388  10.442 -0.4460  0.5359 -0.4462
 3931SOL    HW123429   2.203   1.473  10.427 -0.4669  0.5515 -0.4146
 3931SOL    HW223430   2.221   1.335  10.387 -1.6917 -0.2533 -1.0073
 3932SOL     OW23431   1.003   1.543   7.229 -0.1690  0.2186 -0.7799
 3932SOL    HW123432   1.063   1.474   7.200  0.1140 -1.1571  3.1864
 3932SOL    HW223433   1.054   1.624   7.230 -1.5662  1.1242 -1.7038
 3933SOL     OW23434   4.633   2.069   8.391  0.7502 -0.4104  0.5851
 3933SOL    HW123435   4.596   2.075   8.478 -0.2215  0.8321  0.0776
 3933SOL    HW223436   4.727   2.074   8.412  0.7273 -2.0620  1.0826
 3934SOL     OW23437   1.049   3.448   2.849  0.4963  0.3060 -0.5654
 3934SOL    HW123438   1.027   3.467   2.940  0.0486  2.0957 -1.0605
 3934SOL    HW223439   0.991   3.511   2.808 -0.5604 -1.3389 -1.6178
 3935SOL     OW23440   1.381   2.147  11.262 -0.3338 -0.1003 -0.0298
 3935SOL    HW123441   1.295   2.116  11.234 -0.8841  1.4924 -0.0596
 3935SOL    HW223442   1.432   2.094  11.200  0.0713 -1.0716  1.1225
 3936SOL     OW23443   3.902   4.643   7.533 -0.3987 -0.3426 -0.2855
 3936SOL    HW123444   3.873   4.603   7.451 -0.0111 -0.9843 -0.1061
 3936SOL    HW223445   3.894   4.565   7.589  3.1267 -0.6717 -0.2490
 3937SOL     OW23446   3.660   1.823   1.975  0.1723 -0.5755 -0.3664
 3937SOL    HW123447   3.565   1.831   1.963  0.3356  0.9402 -0.6646
 3937SOL    HW223448   3.680   1.910   2.010  0.9454 -0.0545 -2.1205
 3938SOL     OW23449   2.606   2.765  15.539 -0.3645  0.1127 -0.0527
 3938SOL    HW123450   2.623   2.832  15.472 -1.3560  0.5899  0.1833
 3938SOL    HW223451   2.542   2.710  15.494  0.2035  0.2683 -1.0588
 3939SOL     OW23452   2.113   1.553   2.004  0.0958  0.0847 -0.2030
 3939SOL    HW123453   2.148   1.490   2.068 -0.5900  0.1963  0.2768
 3939SOL    HW223454   2.057   1.495   1.952 -0.4148 -0.6832  1.2066
 3940SOL     OW23455   0.964   2.391   0.123  0.4866  0.0637  0.0761
 3940SOL    HW123456   1.038   2.336   0.097 -1.8612 -2.7566 -0.6258
 3940SOL    HW223457   0.916   2.406   0.042 -0.0521 -0.3620  0.3182
 3941SOL     OW23458   3.011   1.262  13.986 -0.2399  0.2289  0.1152
 3941SOL    HW123459   2.944   1.195  14.002  0.3883 -0.8465 -1.8754
 3941SOL    HW223460   3.034   1.239  13.896  0.3405 -1.9787  0.8240
 3942SOL     OW23461   2.112   3.384  15.470  0.0824  0.0580 -0.1530
 3942SOL    HW123462   2.040   3.383  15.407  0.7886  1.3561 -0.9703
 3942SOL    HW223463   2.064   3.353  15.547  1.6710  0.0153  0.8184
 3943SOL     OW23464   1.052   2.203   3.293 -0.5961  0.4627  0.2924
 3943SOL    HW123465   1.051   2.158   3.377 -0.7931  0.3353  0.2249
 3943SOL    HW223466   1.137   2.246   3.294 -0.2510 -0.1452 -1.5972
 3944SOL     OW23467   0.340   2.396   6.334  0.4921 -0.4657  0.7628
 3944SOL    HW123468   0.308   2.349   6.410  0.4492  2.2345  2.4096
 3944SOL    HW223469   0.386   2.462   6.384  1.9691 -0.1052 -1.0666
 3945SOL     OW23470   1.688   2.321   3.511 -0.5401 -0.2455  0.4187
 3945SOL    HW123471   1.733   2.381   3.570 -3.1283 -0.8861  3.0530
 3945SOL    HW223472   1.603   2.364   3.503 -0.4884 -0.6351 -2.1540
 3946SOL     OW23473   0.353   3.549   4.068  0.1898 -0.0328 -0.0036
 3946SOL    HW123474   0.397   3.508   3.994  1.4855 -0.1579  0.8261
 3946SOL    HW223475   0.403   3.521   4.145  0.3016 -0.3039 -0.1773
 3947SOL     OW23476   2.649   1.931   2.926 -0.2440 -0.5956 -0.6617
 3947SOL    HW123477   2.652   1.870   2.853  0.6072 -0.6894 -0.5498
 3947SOL    HW223478   2.614   1.871   2.992 -3.4043  1.1354 -0.7435
 3948SOL     OW23479   2.088   1.054   2.487 -0.6697 -0.0421 -0.2647
 3948SOL    HW123480   2.122   1.080   2.572 -0.7667 -0.0748 -0.2167
 3948SOL    HW223481   2.120   0.964   2.483 -1.0377 -0.1360 -1.1862
 3949SOL     OW23482   3.722   1.404  14.275 -0.3915 -0.1579 -0.5453
 3949SOL    HW123483   3.655   1.365  14.219  0.6903 -2.0564 -0.5318
 3949SOL    HW223484   3.801   1.380  14.226 -0.2596 -1.1421  0.1531
 3950SOL     OW23485   3.341   0.160   4.790  0.2044 -0.2129  0.2634
 3950SOL    HW123486   3.274   0.218   4.754  2.0503 -0.4985 -3.6003
 3950SOL    HW223487   3.408   0.225   4.806 -1.6340  1.9126 -0.6334
 3951SOL     OW23488   1.377   0.201  11.612  0.2097  0.3853  0.5381
 3951SOL    HW123489   1.332   0.284  11.627  1.3928  0.8546  1.4507
 3951SOL    HW223490   1.463   0.225  11.646 -0.3795  0.8692  1.6996
 3952SOL     OW23491   0.949   0.332   9.756  0.4474  0.4151 -0.4022
 3952SOL    HW123492   0.953   0.278   9.834  0.4650  0.4448 -0.3827
 3952SOL    HW223493   0.978   0.418   9.786 -1.1645  0.4222  1.1703
 3953SOL     OW23494   3.982   3.828   1.691  0.3897  0.6933 -0.1603
 3953SOL    HW123495   3.958   3.770   1.618 -0.2204 -0.4201  0.9318
 3953SOL    HW223496   3.930   3.906   1.679 -0.4943 -0.0750 -1.3808
 3954SOL     OW23497   3.060   3.610  11.183 -0.6095 -0.9119 -0.3207
 3954SOL    HW123498   3.079   3.518  11.161 -0.9442 -0.4525 -2.6149
 3954SOL    HW223499   3.021   3.645  11.102 -0.7202  1.0530  0.5971
 3955SOL     OW23500   1.559   1.984   0.182 -0.5005 -0.1389  0.4753
 3955SOL    HW123501   1.514   1.911   0.224 -0.0748 -0.8820 -0.3419
 3955SOL    HW223502   1.574   2.044   0.255  0.3420  1.6857 -1.1891
 3956SOL     OW23503   2.725   3.822   0.698  0.0488 -1.0131 -0.4041
 3956SOL    HW123504   2.675   3.741   0.707 -0.1478 -0.8631 -0.1372
 3956SOL    HW223505   2.767   3.801   0.615 -0.5616 -0.2695 -0.8902
 3957SOL     OW23506   4.277   2.023  15.094 -0.3874  0.0328  0.0654
 3957SOL    HW123507   4.368   2.032  15.124 -0.1447 -2.4020  0.1091
 3957SOL    HW223508   4.282   2.074  15.013 -1.6904 -1.0532 -0.6983
 3958SOL     OW23509   2.270   2.445  12.802 -0.8274  0.5044  0.2484
 3958SOL    HW123510   2.312   2.462  12.717 -0.2860  0.3283  0.4817
 3958SOL    HW223511   2.320   2.504  12.858 -0.8126 -0.8182  1.6276
 3959SOL     OW23512   3.675   2.783  10.265  0.0718  0.0888 -0.1503
 3959SOL    HW123513   3.720   2.850  10.214  0.4233  0.2075  0.3120
 3959SOL    HW223514   3.742   2.723  10.298  0.5061  0.2813 -0.6947
 3960SOL     OW23515   3.657   2.600   1.795  0.8542 -0.1399  0.1443
 3960SOL    HW123516   3.749   2.582   1.814 -0.0538 -2.6007  2.2338
 3960SOL    HW223517   3.666   2.597   1.700  2.1180  0.4534  0.2400
 3961SOL     OW23518   1.321   1.009   4.704  0.4797  0.9570 -0.2352
 3961SOL    HW123519   1.375   1.085   4.725  0.5887  0.4549  1.3561
 3961SOL    HW223520   1.353   1.003   4.614  0.2122  0.2675 -0.2864
 3962SOL     OW23521   2.691   2.336   9.104  0.1512 -0.4373  0.1464
 3962SOL    HW123522   2.683   2.313   9.197  0.2745 -0.4491  0.1544
 3962SOL    HW223523   2.613   2.295   9.068 -0.6648 -1.0921  2.6772
 3963SOL     OW23524   4.283   1.767  15.744 -0.4379  0.1480  0.5689
 3963SOL    HW123525   4.349   1.836  15.747 -0.5873  0.2482  1.3729
 3963SOL    HW223526   4.253   1.765  15.653 -1.1545  0.8178  0.7968
 3964SOL     OW23527   0.261   1.401   2.857 -0.3244  0.2035 -0.2399
 3964SOL    HW123528   0.259   1.408   2.762 -0.8101  0.6543 -0.2010
 3964SOL    HW223529   0.194   1.333   2.867 -0.0015 -0.0582  0.1084
 3965SOL     OW23530   2.977   1.352   9.885 -0.2519  0.1351 -0.4888
 3965SOL    HW123531   3.004   1.364   9.794 -3.9947  0.0926 -1.6117
 3965SOL    HW223532   2.994   1.443   9.911  0.0387  0.9079 -3.3874
 3966SOL     OW23533   4.241   2.941   4.477  0.1655  0.3626  0.6069
 3966SOL    HW123534   4.246   2.984   4.562  0.4899  3.2091 -0.8266
 3966SOL    HW223535   4.262   3.017   4.422 -1.2085  0.3270  0.0519
 3967SOL     OW23536   2.949   0.019  11.450  0.4470 -0.5048 -0.0039
 3967SOL    HW123537   2.950   0.112  11.474 -1.0510 -1.0044  2.0019
 3967SOL    HW223538   2.871   0.020  11.394 -0.9011 -0.3767  1.8807
 3968SOL     OW23539   2.922   4.064  16.053  0.1180  0.1252 -0.0047
 3968SOL    HW123540   2.961   4.088  15.969  1.0278  0.3894  0.4973
 3968SOL    HW223541   2.858   3.999  16.024  1.5314 -2.2491  2.1971
 3969SOL     OW23542   0.657   4.168   6.393 -0.3604  0.8177 -0.3075
 3969SOL    HW123543   0.664   4.075   6.413  3.6540  0.7273 -2.1070
 3969SOL    HW223544   0.628   4.204   6.477  0.5573  2.4395 -0.6882
 3970SOL     OW23545   4.041   3.726   3.420  0.4241 -0.4804  0.0226
 3970SOL    HW123546   4.123   3.776   3.419  0.4276 -0.4766  0.9261
 3970SOL    HW223547   4.056   3.658   3.354  0.7720 -0.1860 -0.2019
 3971SOL     OW23548   3.990   3.221   2.970  0.6093  0.1058  0.0565
 3971SOL    HW123549   4.085   3.211   2.976  0.6167 -0.1460 -0.5022
 3971SOL    HW223550   3.975   3.256   3.058 -1.4463  1.2315 -0.7566
 3972SOL     OW23551   3.991   3.521   5.357 -0.1435 -0.3944  0.1168
 3972SOL    HW123552   3.920   3.506   5.295 -0.5815 -1.1817  0.8037
 3972SOL    HW223553   3.985   3.444   5.414 -0.3575  0.5994  1.4471
 3973SOL     OW23554   3.811   3.953   3.104 -0.5747 -0.1541  0.4833
 3973SOL    HW123555   3.796   3.858   3.106 -0.0672 -0.2238  1.2478
 3973SOL    HW223556   3.854   3.963   3.020  1.4491 -2.1843  1.2752
 3974SOL     OW23557   3.582   3.585  12.399  0.1255 -0.6796  0.2114
 3974SOL    HW123558   3.608   3.639  12.473 -0.3716 -0.8123  0.4869
 3974SOL    HW223559   3.632   3.507  12.424  1.5368  0.3317  0.5422
 3975SOL     OW23560   3.102   1.651   7.404  0.0752  0.0232  0.0554
 3975SOL    HW123561   3.039   1.591   7.365  0.3126  0.1552 -0.5313
 3975SOL    HW223562   3.190   1.613   7.393  0.8064  1.4967  0.8561
 3976SOL     OW23563   2.120   0.467  11.137 -0.3186 -0.0252 -0.5101
 3976SOL    HW123564   2.174   0.398  11.176 -1.3178 -0.6295 -0.1757
 3976SOL    HW223565   2.085   0.518  11.210 -1.0979 -0.8139 -0.3251
 3977SOL     OW23566   1.457   0.297   6.789  0.0201  0.6221 -0.0675
 3977SOL    HW123567   1.484   0.277   6.699  1.0652 -0.3316  0.4525
 3977SOL    HW223568   1.403   0.375   6.776  1.1483  1.0246 -2.2959
 3978SOL     OW23569   0.037   4.650   4.143  0.0107  0.1423 -0.8128
 3978SOL    HW123570   4.717   4.593   4.088 -0.1562 -1.7705  1.3693
 3978SOL    HW223571   4.729   4.734   4.127 -0.8478  0.1155  1.4789
 3979SOL     OW23572   1.645   2.632   8.699  0.3203  0.6843 -0.2000
 3979SOL    HW123573   1.594   2.551   8.706 -2.7373  2.6260 -0.0546
 3979SOL    HW223574   1.644   2.657   8.792 -0.8766 -0.9433  0.2408
 3980SOL     OW23575   3.728   3.188   0.073 -0.4173 -0.2444  0.1853
 3980SOL    HW123576   3.725   3.170  17.720  0.0821  0.7601 -0.0114
 3980SOL    HW223577   3.784   3.118   0.108 -0.9376 -0.0154  1.4951
 3981SOL     OW23578   0.505   2.625   3.501 -0.3794  0.1859 -0.3853
 3981SOL    HW123579   0.516   2.575   3.420  0.1436  0.2650 -0.3639
 3981SOL    HW223580   0.410   2.617   3.508 -0.4927  1.6516 -0.0723
 3982SOL     OW23581   3.700   3.412   5.006  0.9104 -0.5340 -0.4291
 3982SOL    HW123582   3.658   3.497   4.988 -0.7856 -1.0813  0.8917
 3982SOL    HW223583   3.792   3.435   4.997  0.6073  0.7069 -0.3676
 3983SOL     OW23584   2.049   3.349   4.459  0.0517  0.4698  0.7421
 3983SOL    HW123585   2.023   3.258   4.473 -1.2939  0.8927  0.9797
 3983SOL    HW223586   1.963   3.387   4.446 -0.3763  0.0618  2.3016
 3984SOL     OW23587   3.779   4.093  16.607 -0.3306 -0.8351 -0.0069
 3984SOL    HW123588   3.817   4.009  16.580 -1.4547 -1.7213  1.1556
 3984SOL    HW223589   3.721   4.117  16.534 -1.3612 -0.3754  0.9597
 3985SOL     OW23590   2.087   4.133   7.100  0.3244  0.5986  0.0613
 3985SOL    HW123591   2.100   4.049   7.055  1.4704 -0.3848  2.2485
 3985SOL    HW223592   2.127   4.121   7.185  1.0327 -2.7462 -0.7584
 3986SOL     OW23593   3.100   0.804   3.024  0.1524 -0.7747  0.3691
 3986SOL    HW123594   3.093   0.724   2.972  0.3047 -0.8267  0.4305
 3986SOL    HW223595   3.126   0.761   3.105 -3.6027 -3.4755  0.1875
 3987SOL     OW23596   3.209   0.584   6.208  0.1762 -0.3693  0.0900
 3987SOL    HW123597   3.248   0.643   6.273 -1.0368 -0.0686  0.5452
 3987SOL    HW223598   3.237   0.495   6.230  0.9035 -0.5920 -1.7539
 3988SOL     OW23599   0.530   2.380  13.435  0.2248 -0.2937 -0.2175
 3988SOL    HW123600   0.487   2.295  13.441  0.9780 -0.6425  0.3105
 3988SOL    HW223601   0.458   2.435  13.404  1.9976  1.8460 -0.5548
 3989SOL     OW23602   3.424   2.535   9.523  0.2732 -0.3084  0.6629
 3989SOL    HW123603   3.331   2.521   9.542 -0.1855  1.6528 -0.1396
 3989SOL    HW223604   3.464   2.459   9.566  2.5572  0.1600 -0.6122
 3990SOL     OW23605   0.104   3.477   5.345 -0.1788 -0.3160  0.5388
 3990SOL    HW123606   0.117   3.383   5.330 -2.3837 -0.5212 -0.0274
 3990SOL    HW223607   0.135   3.505   5.259  0.4750  0.8520  1.1575
 3991SOL     OW23608   2.375   1.716   4.499  0.0946 -0.5715  0.3333
 3991SOL    HW123609   2.343   1.748   4.583  1.0229  0.2281  0.3801
 3991SOL    HW223610   2.303   1.662   4.466 -0.5466 -0.9988  2.4410
 3992SOL     OW23611   3.568   3.300   4.284 -0.3971  0.5860 -0.2880
 3992SOL    HW123612   3.635   3.274   4.346  1.3935  0.4697 -2.2940
 3992SOL    HW223613   3.603   3.260   4.205  2.5747 -1.2379  1.9738
 3993SOL     OW23614   2.850   4.287   6.774  0.2813  0.2540 -0.2053
 3993SOL    HW123615   2.885   4.240   6.698  0.3544  0.9643 -0.6083
 3993SOL    HW223616   2.761   4.251   6.777  0.1497  0.6107  0.0553
 3994SOL     OW23617   1.479   1.217   1.452 -0.0503 -0.1480 -0.0375
 3994SOL    HW123618   1.493   1.234   1.359  0.5834  0.9529  0.2496
 3994SOL    HW223619   1.541   1.145   1.464  1.0066  0.7335 -0.1468
 3995SOL     OW23620   0.089   2.798   7.516  0.5428  0.1958  0.5099
 3995SOL    HW123621   0.163   2.738   7.514  1.5761  1.5558 -1.7938
 3995SOL    HW223622   0.128   2.870   7.565  2.7453  1.1933 -2.6667
 3996SOL     OW23623   4.545   3.271   2.226 -0.4708  0.1802  0.6987
 3996SOL    HW123624   4.532   3.212   2.300  1.5389  0.6933  1.4731
 3996SOL    HW223625   4.637   3.258   2.202 -0.5446  0.3120  0.3395
 3997SOL     OW23626   4.162   4.234  14.683  0.1107  0.0239  0.2558
 3997SOL    HW123627   4.092   4.252  14.620  0.6309  1.1481  0.0030
 3997SOL    HW223628   4.236   4.244  14.623 -0.0947 -1.3160 -0.2225
 3998SOL     OW23629   1.233   2.757   1.540 -0.1860  0.8701  0.6691
 3998SOL    HW123630   1.320   2.785   1.514 -0.6113  1.3224 -0.2864
 3998SOL    HW223631   1.246   2.662   1.537 -1.9587  0.5708  2.2563
 3999SOL     OW23632   0.523   4.002   7.042  0.0938  0.0448  0.6462
 3999SOL    HW123633   0.530   4.017   7.136 -3.7128 -1.1123  1.1099
 3999SOL    HW223634   0.548   4.087   7.005 -0.7130  0.5097  1.1800
 4000SOL     OW23635   3.431   0.478   3.129 -0.3069 -0.2682 -0.0390
 4000SOL    HW123636   3.382   0.397   3.119 -1.5573  0.2169  2.1877
 4000SOL    HW223637   3.468   0.459   3.215  1.1167 -0.5578 -0.7134
 4001SOL     OW23638   2.081   3.960   4.757 -0.0787 -0.0475 -0.2400
 4001SOL    HW123639   2.105   3.908   4.680 -0.7874  0.0623 -0.5326
 4001SOL    HW223640   2.023   4.027   4.722 -1.8451 -2.3841 -1.7521
 4002SOL     OW23641   1.725   2.917  15.697 -0.1812 -0.1424 -0.1521
 4002SOL    HW123642   1.770   2.879  15.622 -1.1640 -0.3327 -0.6554
 4002SOL    HW223643   1.751   2.856  15.766  0.9510 -0.0297 -0.4813
 4003SOL     OW23644   2.965   0.532   6.127  0.3385  0.1971 -0.0165
 4003SOL    HW123645   2.919   0.587   6.191  0.1967  0.1441 -0.0734
 4003SOL    HW223646   3.052   0.544   6.165  0.2715 -1.8230  0.7506
 4004SOL     OW23647   4.487   2.688   8.834 -0.2143 -0.4668 -0.3105
 4004SOL    HW123648   4.466   2.742   8.910  2.5683  2.4091 -1.5774
 4004SOL    HW223649   4.506   2.602   8.871  1.0668 -0.0327  0.0379
 4005SOL     OW23650   4.659   1.957   4.393 -0.1105 -0.3726  0.3281
 4005SOL    HW123651   4.676   2.032   4.450  0.8702 -1.0747  0.9432
 4005SOL    HW223652   4.628   1.893   4.457 -2.5553 -1.5617 -2.0648
 4006SOL     OW23653   3.023   0.518   7.971 -0.3064  0.0519 -0.0819
 4006SOL    HW123654   2.970   0.595   7.987 -0.0633  1.0477 -3.9960
 4006SOL    HW223655   2.963   0.444   7.981 -0.0716 -0.1977 -0.4810
 4007SOL     OW23656   3.331   2.139   3.489 -0.4355 -0.1271 -1.0462
 4007SOL    HW123657   3.251   2.125   3.439 -1.3672  1.2461  0.0308
 4007SOL    HW223658   3.402   2.160   3.429 -0.2698 -0.3943 -0.9478
 4008SOL     OW23659   3.662   2.451   7.659 -0.0972 -0.2256 -0.2923
 4008SOL    HW123660   3.597   2.410   7.716  0.3873  1.2305  1.3462
 4008SOL    HW223661   3.739   2.402   7.688 -0.6290 -1.4042 -0.9162
 4009SOL     OW23662   1.305   2.581  11.699  0.3748  0.0770 -0.5945
 4009SOL    HW123663   1.299   2.512  11.765  2.4330 -0.0188 -0.5140
 4009SOL    HW223664   1.353   2.647  11.750 -2.7576 -0.2457  2.7802
 4010SOL     OW23665   0.230   0.377   8.625 -0.0634  0.0178 -0.2233
 4010SOL    HW123666   0.204   0.459   8.666  0.2422  0.9188 -1.8243
 4010SOL    HW223667   0.297   0.352   8.688  0.8314  0.8955 -0.8413
 4011SOL     OW23668   2.365   4.614   8.921  0.3376  0.1476  0.0269
 4011SOL    HW123669   2.289   4.583   8.968  0.0468 -0.4161 -0.8096
 4011SOL    HW223670   2.439   4.586   8.975 -0.8737  0.1654  1.6773
 4012SOL     OW23671   3.307   1.622   1.646 -0.3333 -0.1244  0.2200
 4012SOL    HW123672   3.277   1.618   1.737 -1.9260 -1.0561 -0.3343
 4012SOL    HW223673   3.384   1.566   1.652 -0.8978 -0.8905  0.3474
 4013SOL     OW23674   3.999   3.618   1.193  0.1617  0.0442  0.1549
 4013SOL    HW123675   3.924   3.605   1.135  0.2441  2.0728 -0.3766
 4013SOL    HW223676   4.053   3.547   1.158 -0.4801  0.2909 -1.3415
 4014SOL     OW23677   3.331   3.397   8.757 -0.0732  0.3276  0.1351
 4014SOL    HW123678   3.275   3.394   8.835 -1.1596 -2.1421 -0.7310
 4014SOL    HW223679   3.267   3.350   8.703 -2.5993  0.9308  2.6057
 4015SOL     OW23680   0.424   0.374   4.404 -0.0912 -0.1694  0.4184
 4015SOL    HW123681   0.370   0.453   4.405 -0.3059 -0.2973 -1.9964
 4015SOL    HW223682   0.432   0.360   4.499  2.1147 -2.5908 -0.1166
 4016SOL     OW23683   1.744   3.513  11.878 -0.3555 -0.2609  0.1890
 4016SOL    HW123684   1.811   3.522  11.810 -0.6358 -0.7299 -0.1473
 4016SOL    HW223685   1.706   3.599  11.892  0.6887  0.0376  1.2288
 4017SOL     OW23686   4.257   4.369  13.608  0.0662  0.0984 -0.1060
 4017SOL    HW123687   4.275   4.451  13.562 -0.3911 -0.8110 -1.9424
 4017SOL    HW223688   4.336   4.316  13.615  0.2230  0.5172  1.1913
 4018SOL     OW23689   0.102   4.341   9.788  0.1625 -0.1121 -0.4474
 4018SOL    HW123690   0.182   4.381   9.824  0.0921  0.0051 -0.4202
 4018SOL    HW223691   0.107   4.249   9.814 -1.8857 -0.1407 -0.1738
 4019SOL     OW23692   0.353   3.932   6.409  0.2102  0.4817  0.1529
 4019SOL    HW123693   0.306   3.870   6.353 -0.4790  0.1470  1.1093
 4019SOL    HW223694   0.351   4.007   6.350 -0.6502  0.0937 -0.3118
 4020SOL     OW23695   1.547   2.560   2.978 -0.1734 -0.2256 -0.4081
 4020SOL    HW123696   1.585   2.511   2.905  1.3344 -1.3196  1.1153
 4020SOL    HW223697   1.527   2.643   2.934 -0.3064  0.9694  1.8987
 4021SOL     OW23698   3.246   0.550   8.758  0.1594 -0.4327  0.2011
 4021SOL    HW123699   3.316   0.603   8.719 -0.3168 -0.3112 -0.4868
 4021SOL    HW223700   3.236   0.597   8.840  2.6089  1.3619 -0.5250
 4022SOL     OW23701   4.071   2.539   2.441  0.0725  0.8434  0.6303
 4022SOL    HW123702   4.134   2.476   2.406 -0.3254  1.0168 -0.4023
 4022SOL    HW223703   4.111   2.562   2.525  0.7884 -1.0499  0.8044
 4023SOL     OW23704   0.940   2.998  13.196  0.6881  0.4023  0.2633
 4023SOL    HW123705   0.950   2.910  13.233 -0.7573 -0.3691 -1.1771
 4023SOL    HW223706   0.856   3.032  13.227  1.8069  0.9173  2.7759
 4024SOL     OW23707   3.334   4.608  10.048 -0.0353  0.2831  0.5746
 4024SOL    HW123708   3.291   4.625  10.132 -0.5739 -0.4824  0.4494
 4024SOL    HW223709   3.267   4.638   9.987  0.4310 -0.0741 -0.1106
 4025SOL     OW23710   2.982   3.098   9.255 -0.2594  0.4700  0.0742
 4025SOL    HW123711   3.017   3.187   9.249  0.9493 -0.0363 -0.3549
 4025SOL    HW223712   2.944   3.110   9.343  1.1473  1.4703  0.5422
 4026SOL     OW23713   1.034   3.093  12.848  0.1512 -0.2112  0.0521
 4026SOL    HW123714   0.943   3.063  12.842 -0.5240  1.6629  0.9976
 4026SOL    HW223715   1.031   3.126  12.937 -1.1962 -1.7481  0.5792
 4027SOL     OW23716   1.697   0.044   5.325 -0.3470  0.9247  0.4080
 4027SOL    HW123717   1.742   0.094   5.392 -0.4785  0.8608  0.5433
 4027SOL    HW223718   1.645   4.718   5.376 -1.0618 -1.0930 -2.7153
 4028SOL     OW23719   1.661   1.820   1.287  0.0144  0.4285 -0.1657
 4028SOL    HW123720   1.612   1.861   1.216  0.5658 -1.3696 -1.5797
 4028SOL    HW223721   1.747   1.806   1.247 -0.7488 -0.9474 -1.3234
 4029SOL     OW23722   3.287   1.255   6.369  0.4916 -0.8093  0.1790
 4029SOL    HW123723   3.293   1.327   6.306  1.4492 -1.6906 -0.7307
 4029SOL    HW223724   3.315   1.183   6.313  0.6893  0.0219 -0.8002
 4030SOL     OW23725   1.054   1.402   1.588 -0.5927  0.0676  0.2723
 4030SOL    HW123726   1.015   1.348   1.657 -0.1878  0.4065  0.7662
 4030SOL    HW223727   0.998   1.379   1.514  0.1947  0.2873 -0.3877
 4031SOL     OW23728   0.256   2.256   5.168 -0.4532 -0.2971 -0.2849
 4031SOL    HW123729   0.162   2.262   5.149 -0.7006 -2.9908  0.1103
 4031SOL    HW223730   0.293   2.292   5.088 -1.9237 -0.9798 -1.2685
 4032SOL     OW23731   4.374   0.366  15.843  0.5057  0.4855  0.2952
 4032SOL    HW123732   4.462   0.349  15.876  0.3128 -0.5436  0.2846
 4032SOL    HW223733   4.383   0.445  15.790  1.1860 -0.0994 -0.4536
 4033SOL     OW23734   3.567   4.065   3.156  0.6568  0.0117  0.4227
 4033SOL    HW123735   3.550   4.138   3.097 -0.2078 -2.1020 -1.9113
 4033SOL    HW223736   3.638   4.018   3.112 -1.6079 -4.0604  1.1137
 4034SOL     OW23737   1.839   2.758  15.890  0.0342 -0.4282  0.9773
 4034SOL    HW123738   1.912   2.786  15.945  0.0203  1.6832 -0.1047
 4034SOL    HW223739   1.810   2.677  15.932  1.3112 -1.6304 -0.4960
 4035SOL     OW23740   2.246   4.650   7.735  0.2180  0.0224 -0.4454
 4035SOL    HW123741   2.192   4.613   7.665  1.2799 -0.6083 -0.9404
 4035SOL    HW223742   2.319   4.692   7.689 -0.4112 -0.0558 -1.5270
 4036SOL     OW23743   3.342   4.667   3.665 -0.1270 -0.4030  0.1306
 4036SOL    HW123744   3.305   4.653   3.578  3.1891  1.4601 -1.6075
 4036SOL    HW223745   3.267   4.648   3.721 -0.4589  0.6580  0.0397
 4037SOL     OW23746   1.201   4.314   0.598 -0.6900 -0.5027  0.6974
 4037SOL    HW123747   1.270   4.292   0.660 -0.0251  0.2553  0.2218
 4037SOL    HW223748   1.257   4.347   0.527 -0.6583  0.8673  1.3608
 4038SOL     OW23749   2.258   2.491   6.108 -0.0278  0.2218 -0.7220
 4038SOL    HW123750   2.306   2.418   6.149  0.8007  0.8588 -0.5666
 4038SOL    HW223751   2.331   2.546   6.081  1.9547 -0.9848  2.1242
 4039SOL     OW23752   2.958   4.065   2.288  0.3437  0.2123  0.1684
 4039SOL    HW123753   2.935   3.997   2.224 -0.3988 -1.8691  2.6323
 4039SOL    HW223754   2.868   4.089   2.311  1.1942  1.9214  1.6874
 4040SOL     OW23755   2.502   3.070   9.458 -0.2727  0.6317 -0.1344
 4040SOL    HW123756   2.508   3.000   9.523 -0.2350 -0.3307 -1.1582
 4040SOL    HW223757   2.408   3.066   9.443 -0.3777 -0.8871  0.9323
 4041SOL     OW23758   4.538   3.017   8.373 -0.1731 -0.0607  0.2746
 4041SOL    HW123759   4.555   2.966   8.294  3.9676 -0.0997  1.1898
 4041SOL    HW223760   4.615   3.074   8.370  0.5473 -1.1134 -1.1559
 4042SOL     OW23761   4.372   1.148   3.993  0.1947  0.0322  0.0386
 4042SOL    HW123762   4.310   1.221   3.988  1.4012  1.0376 -0.1983
 4042SOL    HW223763   4.324   1.088   4.050 -1.5295  0.2902 -1.1457
 4043SOL     OW23764   3.255   4.509   2.119 -0.0305  0.4403  0.0557
 4043SOL    HW123765   3.220   4.588   2.078  1.5785  0.2478 -1.6682
 4043SOL    HW223766   3.335   4.493   2.071 -0.5994 -0.2370 -0.6663
 4044SOL     OW23767   2.832   1.600   3.787 -0.0538 -0.4410 -0.0171
 4044SOL    HW123768   2.865   1.584   3.875  0.2124 -2.8888 -0.5528
 4044SOL    HW223769   2.753   1.641   3.822  0.0374 -1.2113  1.1042
 4045SOL     OW23770   4.377   4.459   5.940  0.1784 -0.5728  0.2383
 4045SOL    HW123771   4.342   4.414   6.017 -1.6724 -0.3528 -0.4756
 4045SOL    HW223772   4.307   4.457   5.876  0.2110  0.9584  0.1656
 4046SOL     OW23773   0.781   0.469   2.720 -0.1757 -0.4656 -0.3730
 4046SOL    HW123774   0.807   0.377   2.720  0.5683 -0.2581 -0.5852
 4046SOL    HW223775   0.773   0.486   2.626  2.2746  0.6535 -0.3673
 4047SOL     OW23776   0.109   1.318   5.760 -0.1005  0.1722 -0.4462
 4047SOL    HW123777   0.064   1.398   5.732 -0.8048 -0.2264 -0.4668
 4047SOL    HW223778   0.132   1.274   5.678 -6.3181 -2.6294 -0.7571
 4048SOL     OW23779   0.877   2.289   9.538  0.0132  0.7657 -0.1648
 4048SOL    HW123780   0.896   2.377   9.570  1.6423  1.1153 -2.0943
 4048SOL    HW223781   0.788   2.276   9.570  0.0607  1.6976  0.3655
 4049SOL     OW23782   3.769   2.344  15.007 -0.3505  0.7191 -0.1154
 4049SOL    HW123783   3.822   2.325  14.930 -2.5265 -0.5335 -1.3084
 4049SOL    HW223784   3.805   2.431  15.022  1.5428 -0.2380  0.9447
 4050SOL     OW23785   1.743   1.577   8.692 -0.7447 -0.3672  0.0581
 4050SOL    HW123786   1.773   1.659   8.654 -3.8006  1.7082  2.0572
 4050SOL    HW223787   1.817   1.553   8.748 -0.7499  0.0680  0.2543
 4051SOL     OW23788   0.460   1.777   0.107 -1.2239  0.3070  0.2272
 4051SOL    HW123789   0.505   1.693   0.117  0.2140  0.9084 -1.2394
 4051SOL    HW223790   0.386   1.746   0.054 -0.1352  0.4340 -1.3623
 4052SOL     OW23791   1.519   4.694   4.332 -0.0669 -0.2974  0.3407
 4052SOL    HW123792   1.443   4.674   4.386  0.3943 -0.1570  1.0348
 4052SOL    HW223793   1.556   0.035   4.376 -0.1838  1.0645 -1.9078
 4053SOL     OW23794   3.974   1.799   8.364 -0.4597  0.3506  0.0472
 4053SOL    HW123795   4.049   1.852   8.336 -0.4942  1.5579  2.2688
 4053SOL    HW223796   4.010   1.751   8.438 -0.2953  1.2706  0.5527
 4054SOL     OW23797   0.544   4.517   1.934  0.3581  0.0097  0.6798
 4054SOL    HW123798   0.619   4.568   1.904  0.6799 -1.2502 -0.6538
 4054SOL    HW223799   0.525   4.566   2.014 -0.2682  0.5315  0.2085
 4055SOL     OW23800   4.057   1.763  13.631 -1.1532 -0.0481 -0.2856
 4055SOL    HW123801   3.965   1.790  13.631 -0.7125  1.4728  3.4836
 4055SOL    HW223802   4.087   1.807  13.710 -0.6042 -0.6474 -0.1622
 4056SOL     OW23803   0.067   3.201   8.002  0.3664 -0.3524 -0.5074
 4056SOL    HW123804   0.070   3.286   7.958  1.2502 -1.0030 -1.7216
 4056SOL    HW223805   4.727   3.159   7.961  0.1681 -0.3167 -0.1716
 4057SOL     OW23806   3.591   3.523   6.978 -0.1091 -0.1878 -0.1508
 4057SOL    HW123807   3.497   3.534   6.974  0.0568  0.7035 -1.6481
 4057SOL    HW223808   3.604   3.505   7.071  1.4863 -0.1047 -0.3454
 4058SOL     OW23809   1.348   2.345   5.221 -0.6124  0.2861  0.6035
 4058SOL    HW123810   1.442   2.339   5.234 -0.2637 -0.5061 -2.1843
 4058SOL    HW223811   1.337   2.412   5.153 -1.1191 -0.0097  0.3884
 4059SOL     OW23812   0.481   2.719   6.739 -0.2002 -0.2691  0.3371
 4059SOL    HW123813   0.447   2.809   6.736  2.0818  0.5209 -1.5553
 4059SOL    HW223814   0.536   2.721   6.818  1.1230 -0.7127 -0.5811
 4060SOL     OW23815   1.872   2.662  10.455 -0.4112  0.0343 -0.1866
 4060SOL    HW123816   1.806   2.722  10.419 -0.2166 -0.8253 -1.9821
 4060SOL    HW223817   1.877   2.693  10.545 -1.1688  2.0219 -0.8236
 4061SOL     OW23818   1.665   2.921   5.556 -0.1050  0.4407 -0.2731
 4061SOL    HW123819   1.616   2.851   5.600  0.4256  0.5871  0.5412
 4061SOL    HW223820   1.610   2.952   5.484  1.6216  0.4032 -1.5960
 4062SOL     OW23821   0.847   3.007   7.035 -0.0331  0.4554 -0.3076
 4062SOL    HW123822   0.913   3.047   6.979 -0.7996  0.8781 -0.8998
 4062SOL    HW223823   0.824   3.086   7.084  2.3412 -0.1945  1.8643
 4063SOL     OW23824   3.489   3.039   5.517  0.0215 -0.0398  0.6005
 4063SOL    HW123825   3.412   3.029   5.460  1.9514  2.4659 -2.4075
 4063SOL    HW223826   3.441   3.079   5.590  3.1950  3.4438  0.7424
 4064SOL     OW23827   1.948   0.515   4.283  0.2225 -0.0828 -0.3478
 4064SOL    HW123828   2.042   0.515   4.298  0.2072  0.2711 -0.2577
 4064SOL    HW223829   1.951   0.514   4.188 -1.6588  0.2504 -0.4195
 4065SOL     OW23830   1.236   3.836   3.828 -0.1193  0.0581 -0.3257
 4065SOL    HW123831   1.317   3.837   3.879  0.6739 -0.1289 -1.5834
 4065SOL    HW223832   1.196   3.922   3.844  1.2004  0.2265  1.9737
 4066SOL     OW23833   4.283   3.250   3.017 -0.7854  0.6101 -0.2897
 4066SOL    HW123834   4.316   3.339   3.030  0.1848 -0.0134  1.4676
 4066SOL    HW223835   4.353   3.199   2.977 -1.2790  0.5973 -1.1438
 4067SOL     OW23836   3.892   1.505   1.320 -0.3217 -0.1368 -0.2636
 4067SOL    HW123837   3.941   1.506   1.238  0.8062  1.5930  0.4383
 4067SOL    HW223838   3.954   1.512   1.393 -0.0829  2.3295 -0.7088
 4068SOL     OW23839   4.279   2.970   8.145  0.2473 -0.4059 -0.0160
 4068SOL    HW123840   4.269   2.875   8.145  1.2193 -0.4984  1.4653
 4068SOL    HW223841   4.264   2.992   8.237  0.2785  2.3141 -0.6624
 4069SOL     OW23842   2.459   0.544   5.016 -0.0359  0.3758 -0.3579
 4069SOL    HW123843   2.476   0.636   4.996 -2.0293  0.4386 -1.7744
 4069SOL    HW223844   2.409   0.559   5.097  2.3636  1.4135  0.9488
 4070SOL     OW23845   4.293   3.723   5.022 -0.2120 -0.3436 -0.1053
 4070SOL    HW123846   4.375   3.674   5.032 -0.0178 -0.3289 -1.5828
 4070SOL    HW223847   4.271   3.719   5.115 -2.7428 -0.4966 -0.7061
 4071SOL     OW23848   4.327   1.566  16.474 -0.4682  0.2784  0.6819
 4071SOL    HW123849   4.393   1.511  16.433 -0.8230  0.1350  0.3099
 4071SOL    HW223850   4.338   1.538  16.565  0.4269 -3.9224 -0.7593
 4072SOL     OW23851   4.378   1.086   5.819 -0.4332  0.2777  0.0675
 4072SOL    HW123852   4.457   1.131   5.851 -1.7624  3.0407 -0.5642
 4072SOL    HW223853   4.363   1.139   5.741  2.4499  0.1293 -0.5951
 4073SOL     OW23854   4.397   2.881   9.033 -0.1363 -0.2280  0.4670
 4073SOL    HW123855   4.368   2.806   9.084 -0.7486 -0.9206 -0.9001
 4073SOL    HW223856   4.327   2.944   9.053 -0.3489 -0.3709  0.1750
 4074SOL     OW23857   3.448   0.197  17.361  0.7590 -0.4965 -0.2740
 4074SOL    HW123858   3.389   0.205  17.287  1.2968  1.6905 -0.4675
 4074SOL    HW223859   3.527   0.233  17.322  0.8874  1.0164  1.3896
 4075SOL     OW23860   0.615   4.159  10.171  0.1785 -0.2311  0.8818
 4075SOL    HW123861   0.556   4.199  10.108 -0.0694 -1.3227  0.4204
 4075SOL    HW223862   0.690   4.219  10.175 -0.6452  0.9500 -1.5405
 4076SOL     OW23863   4.361   2.440   6.541 -0.1803  0.0095  0.2833
 4076SOL    HW123864   4.280   2.460   6.588  0.4476 -1.1347  1.8780
 4076SOL    HW223865   4.385   2.524   6.502  0.8762 -0.7026 -0.5958
 4077SOL     OW23866   4.256   3.490  13.930  0.2635  0.1825  0.0178
 4077SOL    HW123867   4.181   3.435  13.951 -0.5801  0.8880 -1.1413
 4077SOL    HW223868   4.241   3.524  13.842 -1.8809 -1.8746 -0.3962
 4078SOL     OW23869   3.692   2.599   1.491  0.2476 -0.2155  0.0501
 4078SOL    HW123870   3.651   2.513   1.496  0.2490 -0.2657 -0.8758
 4078SOL    HW223871   3.758   2.591   1.422 -0.0034 -2.0763  0.0085
 4079SOL     OW23872   3.058   4.370  12.017 -0.1537  0.2651  0.0678
 4079SOL    HW123873   2.982   4.340  11.967 -0.3591  1.6319 -0.4314
 4079SOL    HW223874   3.128   4.376  11.952  1.9102 -2.0515  2.0750
 4080SOL     OW23875   4.002   1.117  14.809 -0.3948 -0.3082  0.0969
 4080SOL    HW123876   3.971   1.026  14.802 -0.0164 -0.5708  1.7980
 4080SOL    HW223877   4.024   1.132  14.717 -1.6441  0.9782  0.0088
 4081SOL     OW23878   1.595   1.730  12.607 -0.7514  0.2935  0.2366
 4081SOL    HW123879   1.555   1.765  12.527 -0.2231 -1.8447 -0.9479
 4081SOL    HW223880   1.682   1.719  12.570 -0.1849  0.4968  1.4819
 4082SOL     OW23881   0.611   0.207   8.881  0.2927 -0.3422  0.6496
 4082SOL    HW123882   0.547   0.140   8.855 -0.5063 -0.5301  3.0890
 4082SOL    HW223883   0.547   0.261   8.927  0.4733  0.3674  0.0616
 4083SOL     OW23884   0.543   1.815  11.713  0.3683 -0.3260 -0.1820
 4083SOL    HW123885   0.508   1.728  11.733  2.0422 -0.8172  0.5813
 4083SOL    HW223886   0.524   1.812  11.619 -2.2453  1.5816  0.2992
 4084SOL     OW23887   1.287   4.049   2.170  0.1044 -0.4981 -0.2846
 4084SOL    HW123888   1.338   4.117   2.215 -0.7819  0.0360 -0.0903
 4084SOL    HW223889   1.248   4.003   2.244 -1.7763 -0.5050 -1.2885
 4085SOL     OW23890   2.614   0.914  12.529 -0.4940  0.2179 -0.3251
 4085SOL    HW123891   2.682   0.946  12.470 -1.1910 -0.3001 -1.4022
 4085SOL    HW223892   2.675   0.878  12.593 -1.4747  0.4127  0.7365
 4086SOL     OW23893   4.632   2.266   2.753  0.2842 -0.0080 -0.3604
 4086SOL    HW123894   4.556   2.212   2.775  1.6459 -1.9477 -0.3375
 4086SOL    HW223895   4.702   2.215   2.794  0.6967  0.6423 -0.2650
 4087SOL     OW23896   1.928   3.383   9.237  0.5181 -0.4459  0.3736
 4087SOL    HW123897   1.980   3.325   9.181  0.7981 -2.0388  2.2637
 4087SOL    HW223898   1.917   3.332   9.318 -2.8685 -0.3455 -0.0418
 4088SOL     OW23899   0.053   2.807   3.949  0.2967  0.5556 -0.4640
 4088SOL    HW123900   4.704   2.772   3.974  0.6190 -0.3330 -0.6180
 4088SOL    HW223901   0.105   2.728   3.934  1.5266  1.1380  0.6311
 4089SOL     OW23902   3.407   1.511   0.209 -0.0432 -0.2079 -0.0065
 4089SOL    HW123903   3.341   1.542   0.271  0.2166  1.8456 -0.7797
 4089SOL    HW223904   3.461   1.589   0.195  0.8021 -0.4898  1.6548
 4090SOL     OW23905   2.693   3.033   6.902  0.6343 -0.5072  0.6471
 4090SOL    HW123906   2.670   2.958   6.958  1.2539 -2.2339 -1.3838
 4090SOL    HW223907   2.785   3.019   6.879  1.4605  1.8119  2.5665
 4091SOL     OW23908   2.021   0.808   7.005 -0.2172 -0.3099  0.2155
 4091SOL    HW123909   2.017   0.722   6.964  1.2409 -0.0497 -0.4799
 4091SOL    HW223910   1.954   0.804   7.074 -0.6010  2.7497  0.0289
 4092SOL     OW23911   4.443   2.744   5.258  0.4191 -0.5105 -0.2698
 4092SOL    HW123912   4.349   2.751   5.270  0.1327 -1.6607 -1.7328
 4092SOL    HW223913   4.449   2.713   5.167  1.0729  0.6553 -0.6267
 4093SOL     OW23914   2.240   2.712   4.734  0.1976 -0.0396  0.1625
 4093SOL    HW123915   2.273   2.800   4.719 -0.9635  0.4481  0.4853
 4093SOL    HW223916   2.215   2.710   4.826 -1.0638 -0.8600 -0.1859
 4094SOL     OW23917   2.011   0.427  15.475  0.2708 -0.3018  0.0005
 4094SOL    HW123918   2.031   0.382  15.558  0.7429  2.3265  1.3227
 4094SOL    HW223919   1.916   0.439  15.473  0.4678  0.7997 -1.9764
 4095SOL     OW23920   1.844   0.460   8.142 -0.2983  0.1312 -0.4848
 4095SOL    HW123921   1.851   0.553   8.124  2.7972  0.0225  0.0968
 4095SOL    HW223922   1.932   0.427   8.120 -0.2928  1.1107 -1.9218
 4096SOL     OW23923   1.722   2.667   1.502 -0.1259 -0.9341 -0.4146
 4096SOL    HW123924   1.785   2.657   1.574  1.2091 -0.2006 -1.4617
 4096SOL    HW223925   1.787   2.700   1.439 -1.5211  0.9961 -0.8592
 4097SOL     OW23926   2.694   4.434  12.746  0.1899  0.2370  0.0780
 4097SOL    HW123927   2.701   4.454  12.652  0.7081 -0.0777  0.0499
 4097SOL    HW223928   2.788   4.433  12.761  0.2580  1.0609 -0.2868
 4098SOL     OW23929   2.136   4.413  13.652 -0.1059 -0.4329 -0.1419
 4098SOL    HW123930   2.080   4.428  13.728 -1.2417 -3.2853 -0.3939
 4098SOL    HW223931   2.076   4.370  13.591 -0.7675  1.9763 -1.1609
 4099SOL     OW23932   2.807   4.173   4.979 -0.1522  0.2408 -0.5700
 4099SOL    HW123933   2.785   4.259   4.943  0.4095  0.6374  0.0508
 4099SOL    HW223934   2.878   4.155   4.918 -0.6702  0.9338 -1.3851
 4100SOL     OW23935   0.635   3.973   8.676 -0.3137  0.1714 -0.3633
 4100SOL    HW123936   0.707   3.916   8.703 -0.1935  0.1624 -0.7039
 4100SOL    HW223937   0.558   3.917   8.684  0.2393 -0.4716  0.4643
 4101SOL     OW23938   2.821   4.231  11.999  0.4063  0.2668  0.2292
 4101SOL    HW123939   2.800   4.161  11.937  0.4968  0.8269 -0.4331
 4101SOL    HW223940   2.742   4.283  11.984  0.2209  0.7376  2.6639
 4102SOL     OW23941   3.785   4.567   8.432 -0.4877 -0.0463  0.0977
 4102SOL    HW123942   3.728   4.491   8.419 -1.2916  0.1852  2.1313
 4102SOL    HW223943   3.841   4.534   8.502  1.6308  1.8087 -0.7279
 4103SOL     OW23944   3.239   3.322   8.411  0.1656  0.0509  0.4623
 4103SOL    HW123945   3.159   3.369   8.386  1.1908  1.0848 -0.9040
 4103SOL    HW223946   3.229   3.252   8.346  0.3156  1.5597 -1.1719
 4104SOL     OW23947   3.369   0.914  16.307  0.2116 -0.4137  0.4965
 4104SOL    HW123948   3.330   0.967  16.377  0.6431 -0.5814  0.8680
 4104SOL    HW223949   3.332   0.829  16.327 -3.3802  0.5506 -2.2098
 4105SOL     OW23950   0.651   1.700   4.854  0.2963 -0.2484 -0.2247
 4105SOL    HW123951   0.631   1.756   4.780 -0.7740 -1.7650 -1.0924
 4105SOL    HW223952   0.641   1.762   4.926 -0.3646 -0.8038  0.1716
 4106SOL     OW23953   1.999   2.164   3.374  0.1298  0.3909  1.4968
 4106SOL    HW123954   2.030   2.084   3.333 -2.4643 -0.6807  1.6526
 4106SOL    HW223955   1.960   2.124   3.452  0.7003 -0.1235  1.5169
 4107SOL     OW23956   3.904   2.076   7.755  0.4310 -0.3509 -0.0103
 4107SOL    HW123957   3.845   2.105   7.686  0.3464  0.1090  0.2548
 4107SOL    HW223958   3.900   1.982   7.738 -2.2382  0.2594 -2.7173
 4108SOL     OW23959   1.727   4.201   5.903  0.0796  0.0229 -0.0082
 4108SOL    HW123960   1.638   4.181   5.933 -0.4640  1.5064 -0.6353
 4108SOL    HW223961   1.724   4.148   5.823  0.8698  0.9104 -0.6231
 4109SOL     OW23962   1.030   0.084   9.177 -0.1909  0.0455 -0.1596
 4109SOL    HW123963   1.046   0.170   9.216 -0.9113 -0.3309  0.9430
 4109SOL    HW223964   1.111   0.038   9.195 -0.6876 -1.1213 -0.9118
 4110SOL     OW23965   1.935   4.054   8.911 -0.0470  0.2245  0.4683
 4110SOL    HW123966   2.024   4.024   8.894 -0.5922 -1.2935  0.2909
 4110SOL    HW223967   1.902   4.066   8.822  1.5301 -0.3343 -0.1953
 4111SOL     OW23968   0.153   0.518   5.327  0.2174  0.4077  0.2417
 4111SOL    HW123969   0.248   0.524   5.340  0.3520  1.1759 -1.1006
 4111SOL    HW223970   0.140   0.538   5.235 -0.8035 -1.7924 -0.0944
 4112SOL     OW23971   0.017   4.123   6.341 -0.4997 -0.3448 -0.4096
 4112SOL    HW123972   4.721   4.171   6.418  0.5351  0.1061 -0.2740
 4112SOL    HW223973   4.734   4.190   6.275 -0.3930  0.3092  0.2151
 4113SOL     OW23974   2.757   3.130   4.684 -0.3904  0.5644 -0.0876
 4113SOL    HW123975   2.687   3.092   4.631  1.2240  1.7780 -3.0865
 4113SOL    HW223976   2.805   3.189   4.626  2.3363 -2.1609 -0.5673
 4114SOL     OW23977   0.673   4.499  10.240  0.3575  0.4767  0.2518
 4114SOL    HW123978   0.736   4.462  10.302 -1.2592 -0.6137  1.2579
 4114SOL    HW223979   0.686   4.448  10.160 -0.9463 -0.4149  0.6016
 4115SOL     OW23980   2.413   0.217   6.017 -0.3447  0.7744 -0.3217
 4115SOL    HW123981   2.355   0.292   6.005 -1.5095 -0.0787  0.0389
 4115SOL    HW223982   2.441   0.232   6.108  0.6529  1.3861 -0.7242
 4116SOL     OW23983   1.128   1.175   1.376 -0.2816 -0.1947  0.0060
 4116SOL    HW123984   1.212   1.141   1.345 -0.1100 -1.3873  1.7840
 4116SOL    HW223985   1.106   1.104   1.436  2.5880  0.0646  1.3675
 4117SOL     OW23986   3.744   1.682   6.915  0.0725  0.1937 -0.0430
 4117SOL    HW123987   3.805   1.615   6.884  0.0807 -1.2770  3.1294
 4117SOL    HW223988   3.802   1.723   6.980  2.1680 -2.2679 -0.3341
 4118SOL     OW23989   4.285   2.497   5.277 -0.6120  0.0259  0.2202
 4118SOL    HW123990   4.285   2.491   5.372  2.3848 -0.1997  0.1953
 4118SOL    HW223991   4.204   2.546   5.266 -0.9097 -0.3939  0.5498
 4119SOL     OW23992   3.612   2.520   3.738  0.4004 -0.0036 -0.5755
 4119SOL    HW123993   3.654   2.482   3.815  2.6565  1.0278 -1.3146
 4119SOL    HW223994   3.690   2.499   3.687 -0.4949 -0.7969 -1.6282
 4120SOL     OW23995   0.424   0.152  10.989 -0.1165  0.6516 -0.2385
 4120SOL    HW123996   0.342   0.199  10.996 -0.5766 -0.3173  0.8512
 4120SOL    HW223997   0.384   0.065  10.985  0.2444  0.4764 -0.1123
 4121SOL     OW23998   3.176   2.486   1.406  0.1204  0.3190  0.2182
 4121SOL    HW123999   3.239   2.450   1.468  0.7465 -0.1110 -0.6653
 4121SOL    HW224000   3.226   2.495   1.324  1.0999 -2.2156  0.5512
 4122SOL     OW24001   2.129   0.886  13.444  0.1178  0.2971 -0.3101
 4122SOL    HW124002   2.152   0.794  13.425  0.3675 -0.3026  2.8640
 4122SOL    HW224003   2.056   0.862  13.501 -2.0182  1.2432 -2.6810
 4123SOL     OW24004   3.066   1.439   0.704 -0.2455 -0.0440  0.8609
 4123SOL    HW124005   3.040   1.415   0.615  0.6080  0.8362  0.3729
 4123SOL    HW224006   3.042   1.531   0.708 -0.1989  0.0455 -1.1955
 4124SOL     OW24007   2.934   1.021   4.191  0.4585  0.9261 -0.0940
 4124SOL    HW124008   2.993   0.956   4.153 -1.0309 -1.7190  2.1154
 4124SOL    HW224009   2.990   1.096   4.212  0.2003  1.0464  0.1675
 4125SOL     OW24010   3.945   1.303   8.743 -0.1023  0.0105 -0.3145
 4125SOL    HW124011   3.958   1.262   8.829  2.4490  2.0866  0.2831
 4125SOL    HW224012   3.858   1.271   8.719  0.1682 -1.5959  0.7908
 4126SOL     OW24013   2.851   2.249   5.413 -0.1518  0.1089  0.0844
 4126SOL    HW124014   2.795   2.191   5.465 -0.4450 -1.4962 -2.0448
 4126SOL    HW224015   2.786   2.283   5.352 -1.4454  1.4470  2.2025
 4127SOL     OW24016   0.539   4.607   3.638 -0.7217  0.3104 -0.0234
 4127SOL    HW124017   0.448   4.632   3.621 -1.0712 -1.2060 -0.3178
 4127SOL    HW224018   0.524   4.518   3.667 -2.0856  1.0079  1.3988
 4128SOL     OW24019   0.962   0.777  15.137 -0.0292 -0.1261  0.9607
 4128SOL    HW124020   1.006   0.845  15.188 -1.5716 -0.9112  3.3487
 4128SOL    HW224021   1.013   0.697  15.151  0.3990 -0.4262 -2.2648
 4129SOL     OW24022   4.616   2.113   2.085  0.0331 -0.7280 -0.1476
 4129SOL    HW124023   4.613   2.020   2.062 -1.2633 -0.8704  0.5886
 4129SOL    HW224024   4.589   2.157   2.004 -0.0971  3.8397  2.3960
 4130SOL     OW24025   4.125   4.101  16.593  0.4016 -0.6912 -0.1272
 4130SOL    HW124026   4.207   4.093  16.543 -1.5253  0.0249 -3.4269
 4130SOL    HW224027   4.056   4.043  16.561 -0.5129 -0.2343  1.0337
 4131SOL     OW24028   0.311   2.330   2.233 -0.1263 -0.0507  0.0957
 4131SOL    HW124029   0.392   2.287   2.207  0.2063  0.4112  0.3708
 4131SOL    HW224030   0.244   2.262   2.245  0.6120 -0.9522 -0.8143
 4132SOL     OW24031   1.472   4.096  17.009 -0.1387  0.1794  0.2100
 4132SOL    HW124032   1.451   4.064  17.097 -0.2108 -0.5216 -0.0644
 4132SOL    HW224033   1.556   4.138  17.028 -0.2941  1.0596 -1.0380
 4133SOL     OW24034   4.254   2.534  10.470  0.1018 -0.1516 -0.0518
 4133SOL    HW124035   4.297   2.454  10.439 -0.9258 -0.3276 -1.0175
 4133SOL    HW224036   4.163   2.505  10.472 -0.0784  0.3600 -0.7082
 4134SOL     OW24037   0.337   1.204   3.845 -1.0002  0.4063  0.3347
 4134SOL    HW124038   0.425   1.233   3.821 -1.4914  1.1511 -0.5556
 4134SOL    HW224039   0.293   1.289   3.845  0.8936  1.3966 -2.0918
 4135SOL     OW24040   1.208   2.244  10.980 -0.5491  0.3955  0.3006
 4135SOL    HW124041   1.195   2.187  10.905 -0.7594 -0.1108  0.7293
 4135SOL    HW224042   1.193   2.185  11.053  0.4162 -1.1808 -0.7803
 4136SOL     OW24043   0.265   3.170  14.392 -0.1414  0.2585  0.3264
 4136SOL    HW124044   0.173   3.176  14.364  0.2381  0.9304 -0.7664
 4136SOL    HW224045   0.300   3.259  14.388  0.1360 -0.0456 -3.5176
 4137SOL     OW24046   4.612   3.819   7.720  0.2768 -0.0618  0.4788
 4137SOL    HW124047   4.543   3.877   7.751  1.0641  0.4458  1.2794
 4137SOL    HW224048   4.689   3.838   7.774 -0.4546 -0.1595  1.5629
 4138SOL     OW24049   1.343   2.200   3.454 -0.1539  0.0087 -0.2202
 4138SOL    HW124050   1.281   2.145   3.504 -0.1862  0.5725  0.3645
 4138SOL    HW224051   1.423   2.151   3.438  0.4807  0.7873  0.5656
 4139SOL     OW24052   2.126   4.536   4.874  0.2731  0.2951 -0.1919
 4139SOL    HW124053   2.113   4.443   4.892  0.3387  0.1487 -0.9064
 4139SOL    HW224054   2.150   4.566   4.961  0.1030 -2.6533  0.8774
 4140SOL     OW24055   2.873   0.851  12.628 -0.5554 -0.0231  0.2392
 4140SOL    HW124056   2.914   0.883  12.709 -1.7875  1.5143  0.2442
 4140SOL    HW224057   2.925   0.770  12.627  0.1504  0.4532 -1.4211
 4141SOL     OW24058   3.987   2.800   8.445  0.1700  0.2562 -0.8251
 4141SOL    HW124059   3.908   2.788   8.393 -0.4931  1.1286 -0.0298
 4141SOL    HW224060   4.015   2.879   8.399 -0.0758  0.9486  0.2030
 4142SOL     OW24061   3.023   2.120   2.461  0.2686 -0.0935  0.0178
 4142SOL    HW124062   3.020   2.025   2.465 -0.6875 -0.0102  1.1869
 4142SOL    HW224063   2.962   2.133   2.388 -1.4490  1.6802  1.7684
 4143SOL     OW24064   4.676   0.785  16.194  0.1912  0.1994  0.2040
 4143SOL    HW124065   4.659   0.742  16.110  0.7678 -1.3429  0.8800
 4143SOL    HW224066   4.596   0.766  16.243 -0.2251 -0.2012 -0.6256
 4144SOL     OW24067   1.537   3.043   3.076  0.0246 -0.7703 -0.1688
 4144SOL    HW124068   1.534   3.137   3.092 -2.4486 -0.7772 -0.6247
 4144SOL    HW224069   1.605   3.039   3.009 -0.0742  0.1091 -0.3253
 4145SOL     OW24070   3.807   0.626   4.719 -0.1735 -0.0183 -0.0845
 4145SOL    HW124071   3.891   0.665   4.692 -0.7581  1.2791 -0.0550
 4145SOL    HW224072   3.841   0.545   4.756 -2.1687 -0.9457 -0.3220
 4146SOL     OW24073   1.973   2.124  10.331  0.5636 -0.0360 -0.8372
 4146SOL    HW124074   2.012   2.191  10.275 -1.0429  0.9152 -0.8142
 4146SOL    HW224075   1.918   2.177  10.389 -0.8415 -1.4007 -0.9043
 4147SOL     OW24076   3.454   3.892   7.853  0.1668  0.1942 -0.3837
 4147SOL    HW124077   3.430   3.922   7.941  0.1667  2.5830 -1.2160
 4147SOL    HW224078   3.539   3.851   7.873 -0.0494  0.1371  0.4214
 4148SOL     OW24079   1.724   1.437  15.184  0.3353 -0.0513  0.9011
 4148SOL    HW124080   1.754   1.520  15.220  0.7037 -0.0227  0.5214
 4148SOL    HW224081   1.810   1.403  15.161 -0.5996 -1.9702  0.1933
 4149SOL     OW24082   1.315   2.246   3.118  0.3455 -0.2727  0.1104
 4149SOL    HW124083   1.282   2.328   3.080 -0.7651 -0.7101  0.1238
 4149SOL    HW224084   1.406   2.269   3.098  0.2612  0.4088  0.4983
 4150SOL     OW24085   3.433   0.785   0.129 -0.5885  0.1499  0.6777
 4150SOL    HW124086   3.346   0.751   0.149 -0.4854 -0.1386  0.6378
 4150SOL    HW224087   3.475   0.775   0.214  0.1912 -0.4788  0.2275
 4151SOL     OW24088   2.634   2.518   8.284 -0.3103  0.1741  0.2853
 4151SOL    HW124089   2.683   2.590   8.245  3.3309 -2.9215 -0.9154
 4151SOL    HW224090   2.632   2.551   8.373 -0.6110 -1.6381  0.9428
 4152SOL     OW24091   4.375   0.610   8.680 -0.1324 -0.9671 -0.4060
 4152SOL    HW124092   4.343   0.603   8.770  0.4052  0.0388 -0.1285
 4152SOL    HW224093   4.404   0.520   8.678 -0.8242 -1.2090  0.2520
 4153SOL     OW24094   0.847   1.137   7.763  0.0797  0.8273  0.2166
 4153SOL    HW124095   0.942   1.145   7.777 -0.2875  0.2192  3.0352
 4153SOL    HW224096   0.834   1.170   7.674  2.4232 -2.0847 -1.2545
 4154SOL     OW24097   4.290   2.287   6.046 -0.1633 -0.1165 -0.1901
 4154SOL    HW124098   4.327   2.261   6.131  0.0846 -0.6603 -0.4681
 4154SOL    HW224099   4.240   2.209   6.022  0.8281 -0.1415 -2.1550
 4155SOL     OW24100   0.454   0.378   7.696  0.5854 -0.4129 -0.3449
 4155SOL    HW124101   0.412   0.463   7.706  1.1639 -0.1870  0.1400
 4155SOL    HW224102   0.424   0.332   7.775 -1.3870  0.8196 -0.3836
 4156SOL     OW24103   0.591   0.779   4.010  0.5310  0.0338  0.3629
 4156SOL    HW124104   0.521   0.823   3.961  0.0423 -0.7957  0.3148
 4156SOL    HW224105   0.596   0.850   4.074 -1.6378  2.5733 -2.3024
 4157SOL     OW24106   4.299   2.969   1.875 -0.5510  0.1460  0.2247
 4157SOL    HW124107   4.368   2.956   1.811 -0.9795 -0.6276 -0.0752
 4157SOL    HW224108   4.307   2.889   1.926 -0.0687 -0.1316 -0.2960
 4158SOL     OW24109   1.689   0.450   4.330 -0.5013  0.7430 -0.0271
 4158SOL    HW124110   1.679   0.506   4.407  0.0437  1.5110 -0.5091
 4158SOL    HW224111   1.783   0.457   4.310 -0.5005  1.0712  0.0868
 4159SOL     OW24112   0.055   4.678   8.083  0.6296 -0.5092 -0.4676
 4159SOL    HW124113   0.051   4.631   8.000 -0.7554 -0.8747 -0.1840
 4159SOL    HW224114   4.720   4.637   8.131 -0.7423  1.0947 -1.1062
 4160SOL     OW24115   2.537   2.137  14.377 -0.1510 -0.5841  0.2402
 4160SOL    HW124116   2.627   2.136  14.343  0.2238 -0.0596  1.2265
 4160SOL    HW224117   2.555   2.192  14.453 -1.7628 -1.0729  0.9683
 4161SOL     OW24118   4.641   4.700  15.800  0.4539  0.7794  0.3724
 4161SOL    HW124119   4.600   0.051  15.793 -0.5312  0.1727 -1.2592
 4161SOL    HW224120   4.729   4.720  15.766  0.6452 -2.2870 -0.8906
 4162SOL     OW24121   1.199   2.126   1.829  0.6841 -0.0045 -0.2333
 4162SOL    HW124122   1.137   2.056   1.807  2.1833 -1.0856 -0.9935
 4162SOL    HW224123   1.265   2.073   1.873  2.4674  1.0585 -1.5926
 4163SOL     OW24124   0.565   3.716   4.574 -0.0480 -0.2800  0.0196
 4163SOL    HW124125   0.542   3.771   4.649 -0.5044  1.1855 -1.1799
 4163SOL    HW224126   0.546   3.625   4.595 -0.0257 -0.3362 -0.2046
 4164SOL     OW24127   3.532   0.927   5.776 -0.0370  0.2445 -0.3436
 4164SOL    HW124128   3.516   0.922   5.870  0.3290  0.6593 -0.2576
 4164SOL    HW224129   3.443   0.912   5.746  0.5859  1.9698 -3.0295
 4165SOL     OW24130   3.097   1.265   3.283 -0.4230  0.6624 -0.5910
 4165SOL    HW124131   3.189   1.244   3.296 -1.0725 -1.8103  0.0967
 4165SOL    HW224132   3.075   1.177   3.251 -1.8991  0.2536  1.5463
 4166SOL     OW24133   4.725   2.683   9.543 -0.1396  0.1891 -0.6132
 4166SOL    HW124134   4.696   2.740   9.614 -0.7676 -1.6126  0.5884
 4166SOL    HW224135   4.644   2.632   9.535 -1.8833  2.7130  1.1087
 4167SOL     OW24136   0.069   1.671  13.044  0.1082 -0.0691  0.0212
 4167SOL    HW124137   0.014   1.601  13.079 -0.1840 -1.2368 -2.7928
 4167SOL    HW224138   0.106   1.702  13.127  1.8715 -1.5703 -0.2142
 4168SOL     OW24139   4.563   2.657   4.824  0.0873 -0.5742 -0.1785
 4168SOL    HW124140   4.498   2.678   4.756 -2.5508 -0.5499  2.3456
 4168SOL    HW224141   4.540   2.567   4.846  1.1656  0.0020  3.2743
 4169SOL     OW24142   3.784   0.171   9.220  0.1620 -0.3006  0.0646
 4169SOL    HW124143   3.846   0.239   9.247 -2.7147  1.5922  1.8413
 4169SOL    HW224144   3.709   0.229   9.231  0.1433 -0.3051 -0.0421
 4170SOL     OW24145   3.209   3.713  14.816 -0.6499  0.3980  0.2367
 4170SOL    HW124146   3.300   3.696  14.791 -0.9509 -0.9923  0.1190
 4170SOL    HW224147   3.207   3.708  14.912 -0.4285 -1.1305  0.1467
 4171SOL     OW24148   4.174   3.310  17.062  0.5701  0.3488  0.4071
 4171SOL    HW124149   4.081   3.319  17.043  0.5438 -0.2141  0.2751
 4171SOL    HW224150   4.165   3.239  17.126  2.5423 -0.7282 -0.5027
 4172SOL     OW24151   1.987   1.510   7.678  0.3727  0.5972  0.5968
 4172SOL    HW124152   2.004   1.427   7.632  0.9117  0.1578  1.5846
 4172SOL    HW224153   1.900   1.526   7.642  0.8319  1.1589 -0.2634
 4173SOL     OW24154   2.579   2.021   6.445  0.1193 -0.1434 -0.1864
 4173SOL    HW124155   2.600   1.934   6.412  0.0491 -0.0327 -0.5324
 4173SOL    HW224156   2.609   2.072   6.369  0.2699  2.5473  1.6872
 4174SOL     OW24157   2.092   2.870   3.256  0.3214  0.4315  0.4064
 4174SOL    HW124158   2.138   2.788   3.278 -0.4510  0.0855  0.7199
 4174SOL    HW224159   2.009   2.828   3.235  1.4429 -1.9274  0.5790
 4175SOL     OW24160   0.067   3.323   2.127  0.3786 -0.4961 -0.2328
 4175SOL    HW124161   0.064   3.347   2.035  0.5370 -0.6439 -0.2778
 4175SOL    HW224162   0.039   3.404   2.168 -2.0061 -0.4276 -2.0128
 4176SOL     OW24163   0.811   1.959   8.379  0.0583 -0.6843  0.3083
 4176SOL    HW124164   0.738   1.930   8.433 -1.4041  0.9604 -0.7983
 4176SOL    HW224165   0.872   2.003   8.439 -1.6806  0.9278  0.9017
 4177SOL     OW24166   1.756   0.851  15.733  0.2967 -0.4418 -0.6673
 4177SOL    HW124167   1.712   0.849  15.648 -0.6606 -2.0651 -0.1462
 4177SOL    HW224168   1.807   0.770  15.732  0.9044 -0.0459 -1.3052
 4178SOL     OW24169   1.956   3.125   6.514 -0.5978  0.5221  0.5896
 4178SOL    HW124170   2.017   3.176   6.461  0.3072 -0.2747  0.8521
 4178SOL    HW224171   1.999   3.039   6.514  1.1040  1.3721 -1.0004
 4179SOL     OW24172   3.461   1.591   9.113  0.2769 -0.1186  0.0173
 4179SOL    HW124173   3.443   1.533   9.187  1.6044 -1.4997 -0.7474
 4179SOL    HW224174   3.399   1.661   9.132  0.3335  0.0827 -0.5595
 4180SOL     OW24175   4.437   1.761   3.645 -0.1252 -0.0693 -0.3947
 4180SOL    HW124176   4.349   1.770   3.681  0.3013  0.4702  0.5119
 4180SOL    HW224177   4.416   1.694   3.580 -1.6448  1.8986 -1.9759
 4181SOL     OW24178   0.297   3.787  15.584  0.1107 -0.3807 -0.4463
 4181SOL    HW124179   0.280   3.718  15.520  1.1206  0.5034 -1.6695
 4181SOL    HW224180   0.362   3.735  15.631 -0.9243 -2.4587 -1.2926
 4182SOL     OW24181   1.985   4.178   6.000 -0.1412  0.1391  0.1601
 4182SOL    HW124182   1.892   4.192   5.981 -0.0071 -0.1444 -0.7145
 4182SOL    HW224183   2.028   4.154   5.918 -0.8189 -2.7093  0.6195
 4183SOL     OW24184   0.309   1.935  16.713 -0.0539  0.1382 -0.3139
 4183SOL    HW124185   0.213   1.932  16.710 -0.0419 -0.4604 -0.0388
 4183SOL    HW224186   0.325   1.897  16.627  1.7417  1.0883 -0.3949
 4184SOL     OW24187   4.648   1.872   1.983  0.5896 -0.0961  0.4974
 4184SOL    HW124188   4.672   1.839   1.896  2.9676  1.0636  0.7123
 4184SOL    HW224189   4.711   1.828   2.041  1.1696 -2.0173 -1.5753
 4185SOL     OW24190   1.535   1.274   2.477  0.0621 -0.5127  0.4145
 4185SOL    HW124191   1.564   1.303   2.391 -0.1806 -0.9341  0.1858
 4185SOL    HW224192   1.615   1.235   2.511  0.1350 -1.6323 -0.9981
 4186SOL     OW24193   0.929   1.508   0.160 -0.0247 -0.7580  0.8518
 4186SOL    HW124194   0.859   1.561   0.198  1.4628  1.7448  0.0962
 4186SOL    HW224195   0.889   1.424   0.140 -0.8149 -0.2348  0.2359
 4187SOL     OW24196   0.984   0.596   9.592  0.0528 -0.1166 -0.0446
 4187SOL    HW124197   1.078   0.579   9.596  0.2461  1.8268  5.0532
 4187SOL    HW224198   0.969   0.547   9.512 -2.0212 -0.4753  0.5756
 4188SOL     OW24199   0.167   4.591   8.517  0.3693  0.8416  0.3079
 4188SOL    HW124200   0.075   4.611   8.532  0.1977 -0.5930  1.2293
 4188SOL    HW224201   0.214   4.664   8.556  0.6723  0.4163  0.7448
 4189SOL     OW24202   0.539   1.359   9.197  0.0693  0.1307 -0.2586
 4189SOL    HW124203   0.594   1.434   9.219 -0.9293  0.3539  1.4799
 4189SOL    HW224204   0.456   1.367   9.244 -0.2398  0.4699 -0.8492
 4190SOL     OW24205   4.149   4.720   7.080  0.3401 -0.3047  0.1320
 4190SOL    HW124206   4.097   4.653   7.124  0.6121  0.5765  1.8167
 4190SOL    HW224207   4.175   0.032   7.159  1.6257 -0.9645  0.1115
 4191SOL     OW24208   1.916   0.616  15.750  0.4914 -0.1155 -0.0943
 4191SOL    HW124209   1.905   0.641  15.842  2.0519 -0.1866  0.1083
 4191SOL    HW224210   1.983   0.549  15.764  1.4980  0.8710 -0.1963
 4192SOL     OW24211   1.943   4.019   2.629  0.1620  0.0321  0.4798
 4192SOL    HW124212   1.945   3.991   2.537 -0.1342 -2.3912  1.2069
 4192SOL    HW224213   1.868   3.975   2.668  0.1930  0.1171  0.6330
 4193SOL     OW24214   0.179   0.959   9.002 -0.8575  0.6390 -0.0893
 4193SOL    HW124215   0.266   0.960   8.962 -0.2227  2.2462  1.3265
 4193SOL    HW224216   0.200   0.899   9.074 -0.9916 -0.3034 -0.8396
 4194SOL     OW24217   4.209   3.272   6.186  0.0074 -0.1503 -0.1042
 4194SOL    HW124218   4.288   3.323   6.172  1.1014 -2.3439 -1.9215
 4194SOL    HW224219   4.163   3.288   6.103 -1.0974 -1.7814  0.1785
 4195SOL     OW24220   1.677   1.283  13.474 -0.2948 -0.4991 -0.6620
 4195SOL    HW124221   1.652   1.210  13.417 -2.4985 -0.3724  0.1311
 4195SOL    HW224222   1.765   1.251  13.491 -0.2829 -0.0128  0.1762
 4196SOL     OW24223   1.507   2.488   7.555  0.1000  0.6471  0.2702
 4196SOL    HW124224   1.542   2.400   7.550  0.3977  0.5738  3.9999
 4196SOL    HW224225   1.485   2.497   7.462  0.3811 -0.3905  0.1046
 4197SOL     OW24226   4.205   1.298   1.249 -0.1361  0.2101 -0.3091
 4197SOL    HW124227   4.233   1.219   1.203  0.1383 -1.3623  2.5509
 4197SOL    HW224228   4.168   1.271   1.333  2.1225  0.7207  0.8441
 4198SOL     OW24229   4.368   2.157   8.864  0.3385 -0.6387  0.4559
 4198SOL    HW124230   4.329   2.244   8.849 -2.3955 -1.9556 -0.0533
 4198SOL    HW224231   4.324   2.127   8.944  1.6255  0.1901  1.4799
 4199SOL     OW24232   0.971   2.221   5.026 -0.6372 -0.2004 -0.4967
 4199SOL    HW124233   1.054   2.176   5.010 -1.0360 -0.5265 -1.6316
 4199SOL    HW224234   0.901   2.171   4.983  2.0450 -3.9513 -0.5207
 4200SOL     OW24235   1.086   3.170   7.657 -0.1919  0.6198  0.1001
 4200SOL    HW124236   1.179   3.172   7.635  0.3961  0.4934  2.5478
 4200SOL    HW224237   1.069   3.077   7.644  0.9811  0.3129  0.7376
 4201SOL     OW24238   0.543   2.680   9.082 -0.3297  0.2882  0.0772
 4201SOL    HW124239   0.562   2.773   9.097 -0.1790  0.4095 -0.8459
 4201SOL    HW224240   0.577   2.684   8.992  1.3412 -1.5744  0.6337
 4202SOL     OW24241   1.616   1.386   9.282  0.1851  0.3016 -0.8600
 4202SOL    HW124242   1.649   1.408   9.195  3.2184  1.5572  0.5569
 4202SOL    HW224243   1.671   1.311   9.306  0.7610  0.5802 -1.3071
 4203SOL     OW24244   4.559   2.148   3.705 -0.1049 -0.2875 -0.0032
 4203SOL    HW124245   4.606   2.230   3.691 -0.4602  0.0944  1.0480
 4203SOL    HW224246   4.474   2.185   3.683 -1.1756 -1.4950  2.0948
 4204SOL     OW24247   2.121   1.806  12.038 -0.1350  0.3447 -0.0008
 4204SOL    HW124248   2.034   1.797  11.999 -1.0455  0.9068  1.8864
 4204SOL    HW224249   2.121   1.896  12.069 -2.2300  0.2646  0.2455
 4205SOL     OW24250   2.278   3.818   5.336 -0.7409 -0.7828  0.4213
 4205SOL    HW124251   2.316   3.905   5.350  0.7626 -0.8014 -3.3700
 4205SOL    HW224252   2.257   3.824   5.242 -0.8023  1.1974  0.5561
 4206SOL     OW24253   2.994   2.959   9.022 -0.1172 -0.0462  0.3128
 4206SOL    HW124254   2.965   3.017   9.092  1.8318 -0.2674  1.2907
 4206SOL    HW224255   2.991   2.877   9.072  1.9653 -0.5718 -0.4333
 4207SOL     OW24256   3.600   3.179   8.202 -0.3601  0.2590 -0.4055
 4207SOL    HW124257   3.627   3.115   8.135 -1.4740 -1.5711  0.8924
 4207SOL    HW224258   3.571   3.260   8.160  1.5342  1.9472  1.5393
 4208SOL     OW24259   0.858   1.976   5.351  0.2956 -0.1393 -0.2040
 4208SOL    HW124260   0.836   2.024   5.431  2.4787  0.0186  0.3176
 4208SOL    HW224261   0.889   2.055   5.307  0.6571  0.7207  1.6123
 4209SOL     OW24262   4.061   4.669  15.672 -0.0972  0.0517  0.3273
 4209SOL    HW124263   4.138   4.650  15.618 -0.6198  1.3277 -0.8694
 4209SOL    HW224264   4.052   0.028  15.687 -3.8473  0.3438 -3.7548
 4210SOL     OW24265   1.261   3.809   4.610 -0.4573  0.1613  0.0068
 4210SOL    HW124266   1.168   3.787   4.611 -0.5486  0.5270 -0.1933
 4210SOL    HW224267   1.269   3.876   4.542  0.1407  1.1829  1.0810
 4211SOL     OW24268   1.579   1.818   8.532  0.4257  0.3717  0.0958
 4211SOL    HW124269   1.665   1.849   8.560  0.3869  0.3753  0.2131
 4211SOL    HW224270   1.528   1.889   8.571 -1.8676 -1.7244  0.9097
 4212SOL     OW24271   2.191   2.368  14.454  0.5671  0.0611 -0.3735
 4212SOL    HW124272   2.176   2.283  14.413  0.4543 -0.0670 -0.0647
 4212SOL    HW224273   2.162   2.419  14.378 -1.3398 -0.9102 -0.2981
 4213SOL     OW24274   3.073   2.894   7.768  0.0886 -0.4549  0.2079
 4213SOL    HW124275   3.128   2.926   7.840 -0.1252 -0.4665  0.3742
 4213SOL    HW224276   3.143   2.855   7.715  1.3208  1.0155  0.7463
 4214SOL     OW24277   0.597   0.436   3.152 -0.2933  0.2849  0.1512
 4214SOL    HW124278   0.553   0.464   3.233  0.5880 -0.1540  0.7922
 4214SOL    HW224279   0.552   0.357   3.124  2.4738 -1.3478  0.3014
 4215SOL     OW24280   4.071   0.147   1.830  0.9137  0.1975 -0.3301
 4215SOL    HW124281   4.085   0.083   1.900  0.1456  0.5950  0.1774
 4215SOL    HW224282   4.027   0.092   1.766  0.1292  0.1015  0.2925
 4216SOL     OW24283   2.116   4.458   8.855  0.1118 -0.4997  0.1097
 4216SOL    HW124284   2.201   4.456   8.810  0.0336  0.9654 -0.0807
 4216SOL    HW224285   2.098   4.551   8.866 -2.1529 -0.8932 -0.4011
 4217SOL     OW24286   3.826   3.552   4.027  0.7118 -0.0681  0.1225
 4217SOL    HW124287   3.774   3.631   4.015 -0.1018 -0.5589  0.3940
 4217SOL    HW224288   3.868   3.578   4.109 -2.3838  0.1342  1.6399
 4218SOL     OW24289   4.152   0.620  16.684  0.6139 -0.0420 -0.5081
 4218SOL    HW124290   4.107   0.704  16.676 -0.8647 -0.6049  1.7804
 4218SOL    HW224291   4.160   0.613  16.779  0.7588  0.4204 -0.4867
 4219SOL     OW24292   0.580   1.229   4.071 -0.0384 -0.3593 -0.5551
 4219SOL    HW124293   0.580   1.210   3.977 -1.4554 -1.7901 -0.2517
 4219SOL    HW224294   0.603   1.322   4.067  0.7373 -0.5354 -0.1334
 4220SOL     OW24295   0.160   1.789  13.277 -0.3151  0.5296  0.7662
 4220SOL    HW124296   0.127   1.782  13.367  0.4359 -0.6972  0.9349
 4220SOL    HW224297   0.253   1.797  13.297 -0.1043  0.2070 -0.1071
 4221SOL     OW24298   1.216   0.715   5.464 -0.3470 -0.1085 -0.4613
 4221SOL    HW124299   1.269   0.746   5.537  1.4285 -1.2841 -1.2434
 4221SOL    HW224300   1.280   0.708   5.393 -0.4261  1.2492 -0.6686
 4222SOL     OW24301   3.982   2.368  13.486 -0.3148 -0.2639 -0.0453
 4222SOL    HW124302   3.945   2.455  13.473 -0.4337 -0.3482 -0.2631
 4222SOL    HW224303   4.064   2.384  13.439 -0.5085  0.7028 -0.0537
 4223SOL     OW24304   2.747   1.441   4.848  0.3798 -0.8250  0.1099
 4223SOL    HW124305   2.717   1.520   4.895 -1.6450 -1.3853 -0.2274
 4223SOL    HW224306   2.820   1.472   4.796  0.6564 -0.2705  0.8195
 4224SOL     OW24307   2.554   3.036  15.478  0.2396 -0.3461  0.0246
 4224SOL    HW124308   2.514   3.029  15.565 -1.6146  0.8790 -0.7354
 4224SOL    HW224309   2.480   3.031  15.417  0.6300  1.5194 -0.5964
 4225SOL     OW24310   3.547   1.852   8.979  0.3347 -0.3854  0.5002
 4225SOL    HW124311   3.597   1.856   9.060  0.7954  0.0180  0.1970
 4225SOL    HW224312   3.519   1.761   8.983  0.4045 -0.5745 -2.9093
 4226SOL     OW24313   3.026   1.413  14.700  0.5204  0.0138 -0.6460
 4226SOL    HW124314   3.003   1.440  14.788 -1.1820 -1.3067 -0.6776
 4226SOL    HW224315   3.074   1.487  14.662  0.9441  0.8307  1.4855
 4227SOL     OW24316   2.108   2.259   5.041  0.0909 -0.2106 -0.3885
 4227SOL    HW124317   2.015   2.235   5.042  0.0257  0.1128  1.3356
 4227SOL    HW224318   2.138   2.202   4.970  1.8096  0.6120 -0.3253
 4228SOL     OW24319   4.117   0.926   8.792  0.0075  0.2542  0.1097
 4228SOL    HW124320   4.124   0.994   8.726  0.5294 -0.2119 -0.3115
 4228SOL    HW224321   4.134   0.847   8.740 -0.8119 -1.0888  1.8684
 4229SOL     OW24322   1.024   2.094   2.098 -0.1502 -0.0715  0.0843
 4229SOL    HW124323   1.033   2.078   2.192  2.2024  0.5521 -0.0552
 4229SOL    HW224324   1.115   2.078   2.074 -0.1819 -0.1191 -0.0040
 4230SOL     OW24325   4.040   1.691   6.218 -0.0556  0.6142  1.0084
 4230SOL    HW124326   4.037   1.732   6.305 -2.7949  1.1599  0.6549
 4230SOL    HW224327   4.122   1.643   6.215 -0.2994  0.3171 -0.9152
 4231SOL     OW24328   2.898   3.273  17.675  0.0140  0.0833  0.3198
 4231SOL    HW124329   2.985   3.296  17.706 -0.1407 -1.2401  1.7148
 4231SOL    HW224330   2.910   3.237  17.587  0.3219 -2.9617  1.6163
 4232SOL     OW24331   1.797   1.284   8.711 -0.3330  0.6326  0.0782
 4232SOL    HW124332   1.773   1.195   8.685 -1.1831  0.8934 -0.0321
 4232SOL    HW224333   1.833   1.319   8.629 -0.2187  3.0282  1.1337
 4233SOL     OW24334   3.354   1.066   9.376  0.8829  0.6614  0.0982
 4233SOL    HW124335   3.264   1.034   9.378  0.3679  2.1274  1.0213
 4233SOL    HW224336   3.335   1.160   9.385  0.8101  0.8820 -2.3702
 4234SOL     OW24337   3.691   4.102   4.534 -0.0212 -0.0236  0.0571
 4234SOL    HW124338   3.719   4.086   4.624  0.1931 -3.2802 -0.5879
 4234SOL    HW224339   3.776   4.087   4.492  0.7086  0.1357  1.5003
 4235SOL     OW24340   3.162   1.696   0.222 -0.4851 -0.1174  0.6069
 4235SOL    HW124341   3.176   1.693   0.316 -0.0019 -0.7660  0.5107
 4235SOL    HW224342   3.094   1.632   0.198 -1.7779  1.2055  0.7339
 4236SOL     OW24343   1.887   3.060  10.449 -0.0101 -0.0097 -0.0762
 4236SOL    HW124344   1.903   3.115  10.372  1.5301 -0.4110 -0.0438
 4236SOL    HW224345   1.829   2.999  10.404  0.3496  0.6118 -1.4118
 4237SOL     OW24346   3.594   0.506  15.731  0.1644 -0.8793  0.2273
 4237SOL    HW124347   3.664   0.538  15.789 -0.4542  0.1043  0.4091
 4237SOL    HW224348   3.606   0.549  15.647 -1.9379  3.0887  1.9935
 4238SOL     OW24349   2.804   4.652  13.606  0.1744  0.4565 -0.1028
 4238SOL    HW124350   2.849   4.635  13.689  1.8458  2.0107 -0.6775
 4238SOL    HW224351   2.722   4.608  13.627  0.4370 -0.0126 -0.0526
 4239SOL     OW24352   1.593   2.835   8.915  0.6244 -0.7794  0.1787
 4239SOL    HW124353   1.654   2.862   8.846 -1.3381  0.5091 -1.0609
 4239SOL    HW224354   1.648   2.790   8.979  0.0354 -1.5423  0.1430
 4240SOL     OW24355   1.838   2.980   9.339 -0.2955  0.0843 -0.0010
 4240SOL    HW124356   1.763   2.949   9.289  0.6903 -1.3838 -0.5645
 4240SOL    HW224357   1.796   2.982   9.425 -0.8764 -0.3080 -0.2746
 4241SOL     OW24358   0.677   0.724  16.715 -0.5059  0.2821  0.3434
 4241SOL    HW124359   0.600   0.681  16.676  0.1043 -0.4246 -0.0851
 4241SOL    HW224360   0.742   0.671  16.669 -0.2130  1.4915 -0.6242
 4242SOL     OW24361   0.701   2.105   3.600  0.1675 -0.3447 -0.3606
 4242SOL    HW124362   0.745   2.076   3.680 -2.8215 -0.2768  1.3238
 4242SOL    HW224363   0.738   2.051   3.530 -0.1613 -1.8878  0.6615
 4243SOL     OW24364   3.401   3.160   2.829  0.8708 -0.2274  0.3432
 4243SOL    HW124365   3.329   3.119   2.781  1.1408 -0.1132 -0.1582
 4243SOL    HW224366   3.432   3.079   2.869 -0.2913  0.4484  2.6634
 4244SOL     OW24367   0.425   1.328   8.314 -0.7422  0.4502  0.5308
 4244SOL    HW124368   0.511   1.288   8.302 -1.2671 -0.5141 -0.0596
 4244SOL    HW224369   0.393   1.313   8.225  0.7639 -1.1485  0.2639
 4245SOL     OW24370   4.633   1.755   7.758  0.2697 -0.0751 -0.0314
 4245SOL    HW124371   4.670   1.785   7.841  0.0401 -1.8797  0.7203
 4245SOL    HW224372   4.621   1.662   7.774 -0.4068  0.2366  1.2513
 4246SOL     OW24373   3.873   3.498   7.956  0.2287  0.9183 -0.2717
 4246SOL    HW124374   3.892   3.492   8.050  1.5742  0.4723 -0.5782
 4246SOL    HW224375   3.786   3.457   7.951 -0.0861  1.3988  1.1176
 4247SOL     OW24376   0.868   3.688   3.690  0.4783 -0.7788 -0.5456
 4247SOL    HW124377   0.871   3.718   3.781 -1.5970 -0.5227 -0.5609
 4247SOL    HW224378   0.821   3.605   3.691 -2.5590  0.9972  2.9185
 4248SOL     OW24379   0.075   2.685   5.833  0.1487  0.3226 -0.6257
 4248SOL    HW124380   0.107   2.598   5.856 -1.7496  0.0012  0.6900
 4248SOL    HW224381   0.121   2.693   5.749  0.9432 -0.0213 -0.2305
 4249SOL     OW24382   0.511   2.109   8.407  0.1767 -0.2366 -0.0571
 4249SOL    HW124383   0.473   2.185   8.450 -1.1670 -1.7069  1.3722
 4249SOL    HW224384   0.568   2.155   8.347 -0.3442  0.7689  0.2268
 4250SOL     OW24385   3.901   1.778   1.298  0.0661  0.3964  0.3974
 4250SOL    HW124386   3.900   1.768   1.393  1.2969  1.1823  0.5003
 4250SOL    HW224387   3.984   1.735   1.276  0.5479  1.2510  0.5302
 4251SOL     OW24388   4.444   2.942   5.016 -0.2188 -0.2905 -1.0006
 4251SOL    HW124389   4.376   2.955   4.949 -1.3213 -3.0246 -0.4157
 4251SOL    HW224390   4.409   2.998   5.086 -0.3509 -1.2324 -0.3158
 4252SOL     OW24391   0.762   0.952   4.954  0.4030 -0.2163 -0.0697
 4252SOL    HW124392   0.743   1.041   4.923  1.1561  0.0237  0.1713
 4252SOL    HW224393   0.670   0.931   4.974  0.2160  0.9379  0.2551
 4253SOL     OW24394   4.131   0.436   0.896 -0.7389  0.5497  0.0191
 4253SOL    HW124395   4.195   0.393   0.953  1.1908  0.3084 -2.3399
 4253SOL    HW224396   4.099   0.497   0.963  4.0108  1.9002  1.0630
 4254SOL     OW24397   1.783   1.691   6.481 -0.6295 -0.0779  0.0483
 4254SOL    HW124398   1.829   1.625   6.429 -1.1656  0.3798 -1.0065
 4254SOL    HW224399   1.704   1.638   6.495 -2.5026  2.3286 -1.6525
 4255SOL     OW24400   1.733   0.614   0.901  0.6230  0.1879  0.2125
 4255SOL    HW124401   1.801   0.651   0.844  0.5705 -1.7200 -1.0914
 4255SOL    HW224402   1.756   0.521   0.904  0.2401  0.0596 -0.7252
 4256SOL     OW24403   3.908   3.732   9.494  0.2863 -0.5397 -0.2959
 4256SOL    HW124404   3.965   3.712   9.420 -1.9492  0.3393 -2.2640
 4256SOL    HW224405   3.956   3.803   9.537  0.6564 -0.6266 -0.5635
 4257SOL     OW24406   4.357   3.773   2.621 -0.1375  0.1965 -0.9417
 4257SOL    HW124407   4.396   3.704   2.674 -1.0247 -0.4635 -1.1543
 4257SOL    HW224408   4.394   3.760   2.534  0.5171  1.8756 -0.9115
 4258SOL     OW24409   1.485   2.346   5.997  0.3561 -0.5776  0.1243
 4258SOL    HW124410   1.402   2.322   6.039  0.4592 -2.3063 -0.6514
 4258SOL    HW224411   1.458   2.329   5.907 -1.4911 -0.2375  0.6120
 4259SOL     OW24412   2.963   2.783   6.255 -0.1484  0.1715 -0.0064
 4259SOL    HW124413   2.985   2.691   6.265 -0.0059  0.2879  0.7329
 4259SOL    HW224414   3.049   2.807   6.221  1.3104 -2.8062  1.5997
 4260SOL     OW24415   3.796   3.755   2.513  0.5015 -0.0191 -0.4213
 4260SOL    HW124416   3.748   3.838   2.508  0.1322 -0.2214 -0.2983
 4260SOL    HW224417   3.875   3.782   2.468  0.6308 -1.1958 -0.8884
 4261SOL     OW24418   1.766   3.192   7.493  0.0283  0.1846  0.0069
 4261SOL    HW124419   1.770   3.133   7.569  0.0787 -1.8307 -1.5619
 4261SOL    HW224420   1.727   3.268   7.537  0.4908  0.4766 -0.0823
 4262SOL     OW24421   1.203   3.978   1.928  0.8433  0.0452 -0.0589
 4262SOL    HW124422   1.256   4.012   2.000 -0.2153 -1.9136  1.6354
 4262SOL    HW224423   1.123   3.944   1.968  0.2128  0.6329 -0.8208
 4263SOL     OW24424   4.049   1.302   9.412 -0.4253 -0.3628  0.3346
 4263SOL    HW124425   4.027   1.267   9.498  0.5418  1.3104  1.2737
 4263SOL    HW224426   3.966   1.310   9.365 -0.5413 -1.5066  0.3390
 4264SOL     OW24427   3.805   1.275   7.928  0.5222  0.3939 -0.5833
 4264SOL    HW124428   3.838   1.219   7.858  2.5193 -1.1146  1.6167
 4264SOL    HW224429   3.715   1.300   7.905 -0.5917 -0.9684  2.4333
 4265SOL     OW24430   3.707   0.445   3.021  1.1819  0.2685 -0.3415
 4265SOL    HW124431   3.615   0.421   3.013  0.4674  2.1549  2.4267
 4265SOL    HW224432   3.707   0.538   3.045  0.8313  0.2261 -0.1826
 4266SOL     OW24433   0.848   0.414  13.405 -0.0961  0.3041 -0.0720
 4266SOL    HW124434   0.910   0.438  13.474  2.3391  0.1368 -2.2011
 4266SOL    HW224435   0.844   0.319  13.418  1.9638  0.1136 -0.8697
 4267SOL     OW24436   0.198   3.035  12.050 -0.4274  0.4534 -0.3132
 4267SOL    HW124437   0.248   2.994  12.120 -1.5434  1.4282  1.0477
 4267SOL    HW224438   0.124   3.070  12.099 -0.2952 -1.0812  0.9813
 4268SOL     OW24439   1.059   0.723   2.364 -0.5398 -0.7205  0.2169
 4268SOL    HW124440   0.994   0.792   2.372 -0.7367 -0.9230  0.3798
 4268SOL    HW224441   1.016   0.667   2.300 -2.6771  1.6003 -0.3448
 4269SOL     OW24442   2.261   4.448   3.879  0.5659 -0.1231 -0.0409
 4269SOL    HW124443   2.268   4.404   3.964  1.0253 -3.0091 -1.5640
 4269SOL    HW224444   2.286   4.540   3.892 -1.0239  0.5206 -1.5021
 4270SOL     OW24445   3.048   4.053  11.829  0.0200  0.3976  0.4130
 4270SOL    HW124446   3.037   4.055  11.924  0.1029 -2.1707  0.4857
 4270SOL    HW224447   3.059   3.958  11.820 -2.7117 -0.0062  1.4418
 4271SOL     OW24448   3.713   4.075   3.577  0.0858  0.6499  0.8915
 4271SOL    HW124449   3.723   4.159   3.534 -0.8640 -1.2108 -2.9206
 4271SOL    HW224450   3.765   4.013   3.526 -0.1637  1.2408 -0.0619
 4272SOL     OW24451   4.512   3.275  14.267  0.0457  0.1860 -0.2283
 4272SOL    HW124452   4.426   3.261  14.228  0.3917  1.0432 -1.3143
 4272SOL    HW224453   4.494   3.273  14.361 -2.3723 -2.3404 -0.7262
 4273SOL     OW24454   2.898   1.163   7.980 -0.2971 -0.1233 -0.4646
 4273SOL    HW124455   2.947   1.189   8.058  0.2513  1.9335 -1.4861
 4273SOL    HW224456   2.872   1.249   7.946 -2.6016 -0.9486 -0.8252
 4274SOL     OW24457   4.249   1.838   4.356  0.4927 -0.1516  0.1790
 4274SOL    HW124458   4.189   1.772   4.322  0.6453 -0.6237  0.8315
 4274SOL    HW224459   4.333   1.802   4.327 -0.3100 -1.5215 -0.4245
 4275SOL     OW24460   3.112   3.335   0.074 -0.3527  0.0632 -0.0049
 4275SOL    HW124461   3.155   3.406   0.121  0.7093 -0.7211  0.2108
 4275SOL    HW224462   3.180   3.329   0.006 -0.4446 -3.0616  0.1571
 4276SOL     OW24463   2.518   0.735   9.563  0.0530  0.7632 -0.3958
 4276SOL    HW124464   2.532   0.825   9.534 -0.5344  1.4537  1.4758
 4276SOL    HW224465   2.535   0.748   9.656 -1.7195  2.6821 -0.3367
 4277SOL     OW24466   2.543   4.452   5.416  0.2823  0.6057 -0.0756
 4277SOL    HW124467   2.564   4.527   5.470  1.5560  1.3654 -1.6278
 4277SOL    HW224468   2.552   4.487   5.327 -2.3289  0.5442 -0.3630
 4278SOL     OW24469   0.538   0.811   9.381  0.2981  0.0753 -0.4515
 4278SOL    HW124470   0.512   0.855   9.301 -1.1037  3.2925  1.7628
 4278SOL    HW224471   0.568   0.723   9.356  0.9710  0.3704 -0.6918
 4279SOL     OW24472   2.534   1.250   9.367  0.2682  0.0791 -0.0536
 4279SOL    HW124473   2.478   1.203   9.306  0.2820  0.1385 -0.1124
 4279SOL    HW224474   2.544   1.178   9.430  1.5407  0.9699  0.7652
 4280SOL     OW24475   1.410   2.024  14.483 -0.1717  0.5696  0.6531
 4280SOL    HW124476   1.425   2.061  14.396 -0.4009 -0.6210  0.1053
 4280SOL    HW224477   1.330   2.070  14.507 -0.2874  0.2242  0.9157
 4281SOL     OW24478   3.401   1.607   2.843  0.0682 -0.4941  0.3392
 4281SOL    HW124479   3.374   1.699   2.849 -0.2898 -0.6924  1.7616
 4281SOL    HW224480   3.493   1.615   2.820 -0.2762  0.9326 -0.5573
 4282SOL     OW24481   0.058   1.917   0.346 -0.5164 -0.1985 -0.2882
 4282SOL    HW124482   0.046   1.852   0.277  0.0682  1.1299 -1.6523
 4282SOL    HW224483   0.150   1.942   0.336 -0.4100 -0.4487  0.0834
 4283SOL     OW24484   1.380   3.828   6.489 -0.5082  0.1445 -0.0910
 4283SOL    HW124485   1.434   3.893   6.534  1.4525 -0.1641 -2.0566
 4283SOL    HW224486   1.444   3.761   6.468 -0.4802 -0.5427  2.1673
 4284SOL     OW24487   0.044   0.671  13.803  0.6327 -0.4278 -0.4062
 4284SOL    HW124488   0.042   0.652  13.709 -1.3727  1.1905 -0.6946
 4284SOL    HW224489   4.684   0.671  13.811  0.8835 -1.6461  2.3353
 4285SOL     OW24490   3.397   2.303   7.025 -1.2217  0.2729 -0.2746
 4285SOL    HW124491   3.466   2.295   6.959 -1.4009 -0.4106 -0.3773
 4285SOL    HW224492   3.437   2.374   7.076  0.1823 -0.9379  0.2918
 4286SOL     OW24493   3.095   3.445  15.895 -0.0488  0.2455 -0.2942
 4286SOL    HW124494   3.149   3.403  15.962 -0.7798  1.3203  0.9789
 4286SOL    HW224495   3.144   3.463  15.815 -0.1192 -0.6504 -0.5277
 4287SOL     OW24496   2.450   0.777   2.638  0.4315  0.2511 -0.0959
 4287SOL    HW124497   2.385   0.708   2.655  0.0713  0.6593  0.2042
 4287SOL    HW224498   2.473   0.801   2.728 -0.5291  0.7946  0.0018
 4288SOL     OW24499   1.170   1.981   4.692 -0.0644 -0.5009 -0.0239
 4288SOL    HW124500   1.209   1.924   4.625  0.6765 -0.5914  0.4841
 4288SOL    HW224501   1.124   2.037   4.629  1.3382 -1.3161 -1.7866
 4289SOL     OW24502   4.517   4.345  12.620 -0.2957 -0.1899  0.3168
 4289SOL    HW124503   4.570   4.268  12.599  2.7564  1.3627  2.2546
 4289SOL    HW224504   4.427   4.313  12.629  0.0706 -2.1335 -3.0387
 4290SOL     OW24505   2.634   3.734   7.567  0.1953  0.4746  0.3164
 4290SOL    HW124506   2.561   3.676   7.549  0.8751 -0.4070  0.4183
 4290SOL    HW224507   2.704   3.671   7.549 -0.3499 -0.2660  0.7975
 4291SOL     OW24508   2.825   3.668   8.500 -0.1187  0.4397 -0.1897
 4291SOL    HW124509   2.785   3.747   8.536 -0.7912  0.6413 -1.3804
 4291SOL    HW224510   2.792   3.667   8.411 -1.2195  1.6932  0.2046
 4292SOL     OW24511   3.750   2.915   8.337 -0.0932 -0.1062 -0.7891
 4292SOL    HW124512   3.789   2.898   8.251  1.3318 -1.7291  0.1749
 4292SOL    HW224513   3.656   2.914   8.321 -0.1535  0.3852 -0.4316
 4293SOL     OW24514   3.394   0.123   8.692 -0.3566  0.4969 -0.2727
 4293SOL    HW124515   3.333   0.050   8.687 -0.1275  0.2306  0.7081
 4293SOL    HW224516   3.331   0.188   8.723  0.5222  1.1110  0.2366
 4294SOL     OW24517   4.186   0.434  14.143  0.2832  0.2239  0.1799
 4294SOL    HW124518   4.105   0.384  14.155  0.9021 -1.0180 -0.7442
 4294SOL    HW224519   4.169   0.473  14.057 -1.5790 -2.1189 -0.5186
 4295SOL     OW24520   0.469   1.477  16.086  0.4604  0.0420 -0.0729
 4295SOL    HW124521   0.507   1.390  16.080 -0.6625 -0.4423 -0.0384
 4295SOL    HW224522   0.456   1.489  16.180 -0.1041  0.1214 -0.1606
 4296SOL     OW24523   4.645   0.046   4.433 -0.2225  0.1829  0.2261
 4296SOL    HW124524   4.707   0.094   4.378 -1.7668  0.2188 -1.4856
 4296SOL    HW224525   4.627   0.121   4.489 -2.7051 -0.1518 -0.1403
 4297SOL     OW24526   4.234   3.627   5.281  0.0360  0.3056  0.4918
 4297SOL    HW124527   4.147   3.600   5.309 -0.6325  1.2546 -0.7142
 4297SOL    HW224528   4.276   3.544   5.306  0.3356 -0.0780 -1.2813
 4298SOL     OW24529   1.693   1.444   8.291 -0.2327  0.1197  0.5839
 4298SOL    HW124530   1.656   1.362   8.323 -2.8997  1.0675 -0.0261
 4298SOL    HW224531   1.776   1.449   8.338  0.3324  0.7347 -0.4712
 4299SOL     OW24532   4.301   1.268   7.899 -0.3998 -0.1919  0.3758
 4299SOL    HW124533   4.217   1.275   7.945  0.3102  1.4189  1.4193
 4299SOL    HW224534   4.344   1.349   7.927 -1.3720 -0.4542  2.6508
 4300SOL     OW24535   1.642   3.306   6.110 -0.2542 -0.3436 -0.3157
 4300SOL    HW124536   1.583   3.370   6.150  0.3127  0.5948 -0.9831
 4300SOL    HW224537   1.676   3.251   6.180 -0.1815  0.8134  0.5687
 4301SOL     OW24538   4.676   2.112   3.208 -0.1513  0.0990  0.2162
 4301SOL    HW124539   0.016   2.062   3.177 -0.2880 -0.6791  1.1667
 4301SOL    HW224540   4.726   2.183   3.247 -1.6981  1.6848 -0.6703
 4302SOL     OW24541   2.597   3.331   3.714 -0.1415 -0.2462 -0.0685
 4302SOL    HW124542   2.503   3.315   3.722 -0.0807 -1.1743 -1.1606
 4302SOL    HW224543   2.622   3.303   3.802  1.2128 -1.1627 -0.7360
 4303SOL     OW24544   3.110   4.421  11.475  0.8053 -0.0563  0.4000
 4303SOL    HW124545   3.068   4.483  11.534  0.0948  0.5841 -0.7625
 4303SOL    HW224546   3.065   4.341  11.503 -1.4383  0.9476 -0.3455
 4304SOL     OW24547   2.498   4.512   8.057 -0.2341  0.2477 -0.6567
 4304SOL    HW124548   2.584   4.514   8.016 -0.2097  4.9658 -0.3780
 4304SOL    HW224549   2.474   4.604   8.057 -1.9323 -0.1924 -1.3579
 4305SOL     OW24550   1.489   3.515  12.035  0.5636  0.0891  0.3318
 4305SOL    HW124551   1.517   3.464  12.110  0.9184  0.1066  0.2154
 4305SOL    HW224552   1.493   3.449  11.965 -0.3837  0.3485  0.0383
 4306SOL     OW24553   0.541   1.681  13.863 -0.3248 -0.0650  0.7033
 4306SOL    HW124554   0.485   1.714  13.933 -0.0384  0.0084  0.8974
 4306SOL    HW224555   0.626   1.717  13.888  0.4017  0.0943 -1.9826
 4307SOL     OW24556   0.151   0.568   8.388  1.1471  0.2152  0.0687
 4307SOL    HW124557   0.223   0.507   8.404  0.6190 -0.1538  1.0707
 4307SOL    HW224558   0.083   0.514   8.427 -0.3922  1.3243 -1.0639
 4308SOL     OW24559   2.776   4.457   8.430 -0.2947 -0.2199  0.5157
 4308SOL    HW124560   2.722   4.398   8.482  0.7478 -0.2246  1.5919
 4308SOL    HW224561   2.755   4.537   8.478 -0.4254 -1.1623  2.0570
 4309SOL     OW24562   0.703   4.368   2.879 -0.3683 -0.1275 -0.0914
 4309SOL    HW124563   0.787   4.322   2.871 -0.6053 -1.0233  2.6336
 4309SOL    HW224564   0.654   4.340   2.802 -1.4122  0.7638  0.2415
 4310SOL     OW24565   2.566   4.670   2.369 -0.2090 -0.1388  0.1115
 4310SOL    HW124566   2.528   4.679   2.456 -2.4834  0.0204 -0.9148
 4310SOL    HW224567   2.524   4.593   2.331 -0.7609  0.1288  0.1827
 4311SOL     OW24568   4.469   0.871   0.764  0.3060  0.1438  0.6406
 4311SOL    HW124569   4.535   0.920   0.715 -1.5588  0.9930 -1.0395
 4311SOL    HW224570   4.524   0.860   0.841  0.9552  2.0947  0.4385
 4312SOL     OW24571   3.987   4.471  13.699 -0.3444 -0.1676  0.5523
 4312SOL    HW124572   4.063   4.441  13.650 -1.6018 -1.3964 -0.6140
 4312SOL    HW224573   4.018   4.454  13.789  2.8100 -0.6465 -0.6115
 4313SOL     OW24574   3.636   3.593  11.429 -0.8616 -0.1757 -0.0896
 4313SOL    HW124575   3.654   3.596  11.335 -1.1365 -0.1690 -0.1414
 4313SOL    HW224576   3.550   3.633  11.425 -0.5483  0.4822 -0.2947
 4314SOL     OW24577   1.989   3.498   3.162 -0.2932  0.1356 -0.4928
 4314SOL    HW124578   1.958   3.442   3.233  2.7015  0.6243  1.2236
 4314SOL    HW224579   2.032   3.444   3.095 -1.7654 -2.6730  0.7936
 4315SOL     OW24580   2.056   1.668   8.551 -0.5227  0.3025  0.2260
 4315SOL    HW124581   2.135   1.613   8.555  0.1611  1.1352 -2.3634
 4315SOL    HW224582   2.032   1.653   8.643  0.3964 -2.9737 -0.0729
 4316SOL     OW24583   0.033   3.219  10.470 -0.5913  0.1558  0.0297
 4316SOL    HW124584   4.674   3.207  10.471 -0.4198 -1.2606 -1.1294
 4316SOL    HW224585   0.030   3.310  10.439  1.4855  0.1511 -0.1530
 4317SOL     OW24586   1.634   3.619  15.961  0.0051  0.2151  0.1790
 4317SOL    HW124587   1.567   3.609  15.894 -0.5189  1.0471  0.5737
 4317SOL    HW224588   1.715   3.622  15.911  0.3436  1.1414  0.7771
 4318SOL     OW24589   1.275   3.762   3.167 -0.6461 -0.0396  0.1980
 4318SOL    HW124590   1.366   3.762   3.135 -0.7262 -1.6652  0.0015
 4318SOL    HW224591   1.240   3.706   3.098 -2.4690  1.5450 -0.1480
 4319SOL     OW24592   3.369   0.027   3.279 -0.3513  0.3628 -0.6383
 4319SOL    HW124593   3.324   4.683   3.308  2.2794 -0.9133 -0.0566
 4319SOL    HW224594   3.299   0.090   3.295 -0.8528 -0.5049  0.5846
 4320SOL     OW24595   0.747   0.653  16.974  0.2302 -0.3217  0.3053
 4320SOL    HW124596   0.739   0.738  17.018 -1.0595  0.5472 -1.5881
 4320SOL    HW224597   0.713   0.674  16.887 -1.0570  1.7500  1.3033
 4321SOL     OW24598   1.431   0.932  17.184  0.4956 -0.0008 -0.6486
 4321SOL    HW124599   1.463   0.945  17.095  0.1712 -1.0897 -0.9273
 4321SOL    HW224600   1.342   0.904  17.166  0.8182  0.2678 -2.6157
 4322SOL     OW24601   0.783   0.656   9.784  0.0200 -0.0795 -0.5911
 4322SOL    HW124602   0.852   0.624   9.726  0.6656  1.9054 -0.9348
 4322SOL    HW224603   0.833   0.702   9.852  0.1814  0.9919 -1.4285
 4323SOL     OW24604   1.763   3.201  12.171 -0.0874  0.0043  0.2250
 4323SOL    HW124605   1.756   3.112  12.137  0.7668 -0.6625  1.8026
 4323SOL    HW224606   1.845   3.200  12.222  0.6368 -1.4793 -0.9638
 4324SOL     OW24607   0.927   0.900   8.790  0.1940  0.2857  0.6569
 4324SOL    HW124608   1.013   0.866   8.815 -0.3697 -1.9256 -0.5138
 4324SOL    HW224609   0.883   0.865   8.868 -0.0806  1.8557  1.2225
 4325SOL     OW24610   2.300   0.945   6.081  0.9311  0.0293 -0.4987
 4325SOL    HW124611   2.290   0.871   6.141 -0.6876  1.4138  0.9011
 4325SOL    HW224612   2.252   1.010   6.132  1.6870  1.4654 -1.6121
 4326SOL     OW24613   0.210   3.931   1.151 -0.5221 -0.3071 -0.5122
 4326SOL    HW124614   0.240   3.919   1.241 -2.3337  1.0304  0.2644
 4326SOL    HW224615   0.137   3.873   1.131  1.4200 -3.4538  1.6248
 4327SOL     OW24616   0.303   4.083   8.587  0.0589 -0.1775  0.8371
 4327SOL    HW124617   0.339   4.081   8.675  0.5837 -0.7140  0.6063
 4327SOL    HW224618   0.366   4.149   8.560 -1.9104  1.4743  0.2527
 4328SOL     OW24619   2.625   0.310   9.448  0.1003 -0.3799  0.0535
 4328SOL    HW124620   2.532   0.321   9.465  0.5916 -0.6955  3.0313
 4328SOL    HW224621   2.650   0.267   9.530 -0.6734  1.4398  1.2501
 4329SOL     OW24622   2.928   2.244   9.610  0.2142 -0.8746 -0.0562
 4329SOL    HW124623   2.841   2.277   9.586  0.9907  0.3899 -1.1337
 4329SOL    HW224624   2.946   2.171   9.551  0.4170 -0.1293 -0.9175
 4330SOL     OW24625   4.636   1.711   6.100 -0.6765  0.6708  0.3983
 4330SOL    HW124626   4.706   1.772   6.120  0.6190 -0.5717 -0.3611
 4330SOL    HW224627   4.572   1.739   6.166 -0.5557  0.7524  0.4799
 4331SOL     OW24628   0.164   3.325   7.084 -0.3633  0.1343  0.3016
 4331SOL    HW124629   0.199   3.348   6.998 -0.1352  1.8282  0.8587
 4331SOL    HW224630   0.141   3.235   7.060  1.5480 -0.8526  2.1591
 4332SOL     OW24631   4.580   2.740   5.964 -0.3276  0.8442 -0.3459
 4332SOL    HW124632   4.649   2.704   5.909  0.2168 -0.4496  1.1688
 4332SOL    HW224633   4.590   2.688   6.044  0.8521 -1.1752 -1.8215
 4333SOL     OW24634   3.622   0.404   6.426 -0.1572 -0.1867  0.4262
 4333SOL    HW124635   3.627   0.487   6.379 -0.8849  0.3970  1.3742
 4333SOL    HW224636   3.710   0.366   6.426  0.5899  1.5173 -1.5729
 4334SOL     OW24637   1.478   1.376  11.665  0.9043  0.2102  0.1958
 4334SOL    HW124638   1.516   1.359  11.752 -0.2883 -0.1187  0.6480
 4334SOL    HW224639   1.467   1.470  11.679  3.0460  0.4201  0.5067
 4335SOL     OW24640   0.904   2.138   8.755 -0.3457 -0.5442  0.8390
 4335SOL    HW124641   0.854   2.138   8.836 -0.6743 -2.5272  0.6294
 4335SOL    HW224642   0.841   2.179   8.695  3.6967  2.1679 -1.5786
 4336SOL     OW24643   4.701   3.301   7.675 -0.0688  1.1560 -0.4562
 4336SOL    HW124644   4.633   3.273   7.613 -1.9636  0.0085  2.1883
 4336SOL    HW224645   4.649   3.346   7.741 -1.1325 -0.9912  0.1652
 4337SOL     OW24646   0.319   4.723   8.117 -0.6805  1.0339 -0.4363
 4337SOL    HW124647   0.225   4.711   8.102 -1.0736  1.2533  1.9802
 4337SOL    HW224648   0.318   4.653   8.181 -0.3880  3.0365  1.7349
 4338SOL     OW24649   4.081   1.994   1.593  0.0460 -0.1827 -0.0565
 4338SOL    HW124650   4.160   1.946   1.615 -0.0017 -0.7612 -1.1256
 4338SOL    HW224651   4.093   2.033   1.506 -1.1149 -2.3684 -1.1954
 4339SOL     OW24652   0.314   0.213   3.831  0.0879  0.3994 -0.1620
 4339SOL    HW124653   0.338   0.206   3.739  0.2277  0.0105 -0.0937
 4339SOL    HW224654   0.263   0.133   3.843  1.3500 -0.2553  0.8897
 4340SOL     OW24655   2.318   2.521   4.132 -0.0512 -0.1282  0.2159
 4340SOL    HW124656   2.285   2.596   4.082 -1.4755 -0.2110  1.0456
 4340SOL    HW224657   2.398   2.501   4.083  0.3983 -2.6127  1.9504
 4341SOL     OW24658   0.616   4.588  15.979  0.7746 -0.4242 -0.1115
 4341SOL    HW124659   0.534   4.590  15.930 -0.4199 -0.1255  1.9143
 4341SOL    HW224660   0.671   4.533  15.923  2.1236  1.7289 -0.9408
 4342SOL     OW24661   1.556   0.374   5.367  0.0130 -0.1250  0.0168
 4342SOL    HW124662   1.535   0.354   5.458  1.5263 -0.9000  0.1960
 4342SOL    HW224663   1.642   0.336   5.353 -0.8646 -1.5562 -1.4741
 4343SOL     OW24664   0.982   2.362   2.026 -0.2130 -0.2919  0.0651
 4343SOL    HW124665   0.983   2.279   2.073 -3.3753  1.0019  2.3957
 4343SOL    HW224666   0.924   2.346   1.951 -0.4587  1.2688 -0.0777
 4344SOL     OW24667   2.426   3.904   3.066  0.1068 -0.4651  0.6300
 4344SOL    HW124668   2.459   3.940   2.983  1.0650 -0.7710  0.8869
 4344SOL    HW224669   2.400   3.818   3.034 -0.6821  0.1304 -0.3462
 4345SOL     OW24670   1.413   0.933   8.125  0.0632 -0.0924  0.0026
 4345SOL    HW124671   1.332   0.984   8.135 -0.0047  0.0593 -1.3581
 4345SOL    HW224672   1.380   0.847   8.152  0.4414  0.0104  0.7850
 4346SOL     OW24673   3.553   4.669   5.587  0.3468 -0.0116  0.4472
 4346SOL    HW124674   3.495   4.597   5.612  1.6134 -1.5136 -0.9495
 4346SOL    HW224675   3.615   4.667   5.660 -1.0902 -1.6719  1.6336
 4347SOL     OW24676   2.366   0.802   4.753  0.2069  0.9649 -0.7115
 4347SOL    HW124677   2.347   0.791   4.846  1.4989  1.6165 -0.3710
 4347SOL    HW224678   2.451   0.847   4.747  0.0005  1.3346 -0.8642
 4348SOL     OW24679   3.632   4.618   3.077 -0.4899  0.1353 -0.3650
 4348SOL    HW124680   3.691   4.682   3.038  1.8866 -0.6422  1.9834
 4348SOL    HW224681   3.697   4.553   3.104 -1.2006  0.1431  1.3933
 4349SOL     OW24682   0.275   1.647  16.817  0.6626 -0.3298  0.7826
 4349SOL    HW124683   0.267   1.742  16.811  0.6091 -0.3340  0.7945
 4349SOL    HW224684   0.367   1.634  16.793  0.2503  0.9239 -1.5364
 4350SOL     OW24685   4.034   2.775   7.180 -0.3259  0.7654 -0.1616
 4350SOL    HW124686   4.117   2.800   7.139  0.0611 -0.2726 -0.0073
 4350SOL    HW224687   3.968   2.766   7.111 -1.3757  1.5743  0.7384
 4351SOL     OW24688   3.257   3.419   4.571  0.0473 -0.3284  0.2427
 4351SOL    HW124689   3.228   3.469   4.648  0.2598 -0.6818  0.5530
 4351SOL    HW224690   3.323   3.486   4.555  0.0873 -0.5321 -0.4364
 4352SOL     OW24691   3.571   0.458  17.262 -0.0908  0.1402 -1.0822
 4352SOL    HW124692   3.642   0.458  17.198  1.2603 -1.0994  0.4144
 4352SOL    HW224693   3.508   0.520  17.225  0.4102  1.7364  0.7989
 4353SOL     OW24694   1.245   2.729   6.084  0.1101  0.3919 -0.0941
 4353SOL    HW124695   1.320   2.670   6.074 -0.3003  0.0225 -0.9371
 4353SOL    HW224696   1.196   2.670   6.140  0.4510  0.7438  0.5758
 4354SOL     OW24697   4.165   4.331   8.224 -0.2428  0.5835 -0.3252
 4354SOL    HW124698   4.174   4.426   8.236  0.2880  0.6654 -1.4590
 4354SOL    HW224699   4.069   4.326   8.218 -0.3272  0.8623  0.7084
 4355SOL     OW24700   3.402   1.773   8.677  0.1932  0.1475 -0.2118
 4355SOL    HW124701   3.355   1.711   8.733 -3.1997  3.7466  0.8965
 4355SOL    HW224702   3.398   1.722   8.596 -2.1614 -3.1857  2.0136
 4356SOL     OW24703   0.481   3.213   3.888  0.5437  0.3577  0.1904
 4356SOL    HW124704   0.469   3.307   3.874 -1.4128 -0.0872 -1.1646
 4356SOL    HW224705   0.434   3.173   3.815 -0.2190  1.5868  0.0191
 4357SOL     OW24706   0.424   1.245   9.624  0.5305  0.1689 -0.2876
 4357SOL    HW124707   0.355   1.311   9.629 -0.7524 -1.3465  1.9373
 4357SOL    HW224708   0.501   1.295   9.595  1.4441 -1.9634 -1.5019
 4358SOL     OW24709   3.458   3.005   1.833  0.0792  0.9767  0.1615
 4358SOL    HW124710   3.474   2.928   1.888 -0.7089  0.4730 -0.3168
 4358SOL    HW224711   3.447   2.956   1.751 -0.3232  0.8193  0.3118
 4359SOL     OW24712   0.272   0.678   3.862  0.1557 -0.5568 -0.0132
 4359SOL    HW124713   0.199   0.674   3.924 -0.7126 -3.2122 -1.2383
 4359SOL    HW224714   0.272   0.591   3.821 -1.8141 -0.2787 -0.5618
 4360SOL     OW24715   3.732   1.131   8.512  0.2728  0.7753 -0.3481
 4360SOL    HW124716   3.797   1.064   8.535 -1.9504 -0.7170  1.5761
 4360SOL    HW224717   3.775   1.170   8.435  1.7629  2.2290  1.2264
 4361SOL     OW24718   2.184   2.574   3.672  0.1476  0.4655  0.8278
 4361SOL    HW124719   2.240   2.512   3.718  0.6567 -0.0520 -0.4860
 4361SOL    HW224720   2.162   2.514   3.600  2.2898  0.6721 -0.0076
 4362SOL     OW24721   1.619   1.809  10.300 -0.1107  0.4769  0.5156
 4362SOL    HW124722   1.638   1.779  10.211  0.7918 -0.9709  1.1976
 4362SOL    HW224723   1.665   1.744  10.353  1.7361 -0.0186 -1.6657
 4363SOL     OW24724   4.205   2.865   5.516 -0.1882 -0.4556 -0.3159
 4363SOL    HW124725   4.286   2.915   5.509 -0.3499 -0.0755  0.4151
 4363SOL    HW224726   4.204   2.860   5.612  1.1599  1.5004 -0.1978
 4364SOL     OW24727   3.148   1.107   5.517  0.3960  0.7593 -0.4104
 4364SOL    HW124728   3.129   1.102   5.611 -1.7756 -1.4783 -0.9473
 4364SOL    HW224729   3.194   1.191   5.512  1.3343  0.2242 -0.8516
 4365SOL     OW24730   1.397   3.144   2.629  0.0802  0.5507  0.3444
 4365SOL    HW124731   1.348   3.180   2.703  0.2327  2.3138 -0.4008
 4365SOL    HW224732   1.352   3.061   2.614 -2.0772  1.7873 -0.0344
 4366SOL     OW24733   0.872   0.244   8.374 -0.2146  0.0537  0.0815
 4366SOL    HW124734   0.931   0.292   8.316 -3.1826  2.3207 -1.1172
 4366SOL    HW224735   0.892   0.158   8.339 -0.8309  0.4689 -1.3038
 4367SOL     OW24736   4.117   4.464  14.427  0.3872 -0.6176  0.6651
 4367SOL    HW124737   4.098   4.388  14.372  1.5048  1.1617 -2.1545
 4367SOL    HW224738   4.200   4.443  14.470  1.1165 -0.4944 -0.6721
 4368SOL     OW24739   2.304   3.424   2.728  0.1999 -0.2991  0.4821
 4368SOL    HW124740   2.344   3.494   2.677  1.4061 -1.0861  0.3442
 4368SOL    HW224741   2.247   3.395   2.657  0.8183 -2.2553  0.7709
 4369SOL     OW24742   1.376   0.675   4.482  0.0868 -0.0113  0.2532
 4369SOL    HW124743   1.340   0.627   4.408 -1.3162 -0.0143  0.9304
 4369SOL    HW224744   1.457   0.626   4.497  0.2871 -0.1735 -1.4179
 4370SOL     OW24745   3.709   2.476   8.505  0.3171 -0.3446 -0.1153
 4370SOL    HW124746   3.642   2.474   8.437 -0.8445  2.6857  0.9590
 4370SOL    HW224747   3.751   2.393   8.483 -1.0354 -1.0351 -0.0534
 4371SOL     OW24748   3.232   3.636   0.779 -0.3256 -0.3562  0.4994
 4371SOL    HW124749   3.229   3.588   0.696 -0.0824 -0.6240  0.6431
 4371SOL    HW224750   3.258   3.563   0.836  1.8670  3.0891  3.8967
 4372SOL     OW24751   2.146   3.782   5.093  0.2124  0.1032 -1.0575
 4372SOL    HW124752   2.107   3.869   5.086 -1.0457 -0.2916  0.8870
 4372SOL    HW224753   2.116   3.741   5.012  0.0591  2.5546 -2.2095
 4373SOL     OW24754   3.557   1.281  11.390  0.5251  0.6575 -0.1687
 4373SOL    HW124755   3.490   1.301  11.454 -0.5951 -0.4513 -0.9880
 4373SOL    HW224756   3.592   1.203  11.435 -2.6231 -1.0049 -0.6131
 4374SOL     OW24757   4.492   0.069  14.592 -0.6563 -0.1321 -0.4500
 4374SOL    HW124758   4.547   0.009  14.644  0.7746 -0.3143 -2.1514
 4374SOL    HW224759   4.527   0.154  14.618 -0.9631 -0.6330  1.5900
 4375SOL     OW24760   1.561   0.955   4.232  0.3251 -0.0655  0.9325
 4375SOL    HW124761   1.608   1.037   4.241 -2.3732  1.7375 -1.3690
 4375SOL    HW224762   1.582   0.919   4.146  2.1608  1.1337  0.8859
 4376SOL     OW24763   3.602   2.795   4.552 -0.0196  0.3941  0.0332
 4376SOL    HW124764   3.580   2.887   4.565  0.9534  0.5824  0.3542
 4376SOL    HW224765   3.694   2.800   4.577  0.6665 -1.8001 -1.9834
 4377SOL     OW24766   4.320   0.167   0.061 -0.9372  0.1886  0.0251
 4377SOL    HW124767   4.285   0.146   0.148  0.1627 -2.5192 -0.1826
 4377SOL    HW224768   4.256   0.223   0.018 -0.3267 -0.1996 -1.4039
 4378SOL     OW24769   2.742   3.074   7.425 -0.0198  0.2285  0.1175
 4378SOL    HW124770   2.830   3.053   7.394 -0.2542 -0.2526 -0.2224
 4378SOL    HW224771   2.755   3.038   7.512 -0.3022  0.1106  0.1098
 4379SOL     OW24772   1.829   4.616   7.191 -0.1042  0.0662  0.3929
 4379SOL    HW124773   1.861   4.631   7.102 -0.1600 -2.7185 -0.1159
 4379SOL    HW224774   1.737   4.643   7.190 -0.3570 -0.8384 -1.3834
 4380SOL     OW24775   2.367   1.053  10.786  0.0564 -0.7122  0.2876
 4380SOL    HW124776   2.328   1.133  10.750 -1.0027 -1.6051 -0.5834
 4380SOL    HW224777   2.306   1.034  10.858 -0.2614  2.3317  0.8060
 4381SOL     OW24778   4.375   3.112  17.457  0.5836  0.2107 -0.4092
 4381SOL    HW124779   4.416   3.133  17.373 -0.2737  3.3176 -0.0580
 4381SOL    HW224780   4.315   3.047  17.422 -1.9349  1.8338  0.8925
 4382SOL     OW24781   4.512   2.021  12.273 -0.3674 -0.4491  0.1220
 4382SOL    HW124782   4.556   1.935  12.273  0.7220  0.1013  0.6516
 4382SOL    HW224783   4.431   2.005  12.225 -0.9960 -1.9595  1.6767
 4383SOL     OW24784   1.214   0.753   2.595 -0.4481  0.5591  0.1808
 4383SOL    HW124785   1.164   0.755   2.514 -2.8712  2.4653  1.7062
 4383SOL    HW224786   1.143   0.720   2.650 -1.2546 -0.4441 -1.4749
 4384SOL     OW24787   2.138   2.706   9.159 -0.8048  0.0170 -0.7992
 4384SOL    HW124788   2.057   2.656   9.168 -0.1592 -1.0373 -0.9126
 4384SOL    HW224789   2.206   2.641   9.142 -1.2379  0.0649 -2.6847
 4385SOL     OW24790   1.201   4.444   6.030  0.0454  0.2745  0.3352
 4385SOL    HW124791   1.201   4.467   5.937 -0.6854  0.2297  0.3212
 4385SOL    HW224792   1.112   4.411   6.040  0.0366 -0.3069 -1.6851
 4386SOL     OW24793   2.970   2.925  13.968 -0.5916 -0.1190  0.1669
 4386SOL    HW124794   2.999   2.848  13.919 -0.0464  1.1189 -1.4754
 4386SOL    HW224795   3.048   2.950  14.017  0.0203 -2.1755  0.2367
 4387SOL     OW24796   2.707   0.395   1.363  0.3117 -0.2630  0.2656
 4387SOL    HW124797   2.777   0.339   1.394  0.0517  0.1959  1.6926
 4387SOL    HW224798   2.666   0.323   1.314 -0.9840 -0.1803  1.2182
 4388SOL     OW24799   2.019   3.316  15.717 -0.5584  0.4579 -0.3884
 4388SOL    HW124800   1.950   3.294  15.780  2.4953 -3.5712  1.4879
 4388SOL    HW224801   2.100   3.293  15.761 -1.3442  2.7035  2.2441
 4389SOL     OW24802   1.728   3.767   5.102  0.4208 -0.8520 -0.3251
 4389SOL    HW124803   1.782   3.792   5.027  0.9566 -1.2094 -0.0639
 4389SOL    HW224804   1.644   3.785   5.061  0.3660  1.5734  0.8667
 4390SOL     OW24805   1.690   3.311  16.697  0.1052 -0.2291  0.1897
 4390SOL    HW124806   1.681   3.350  16.610  0.8684  0.7907  0.5719
 4390SOL    HW224807   1.672   3.390  16.748 -0.2335 -0.3589  0.2690
 4391SOL     OW24808   4.037   2.762   9.728 -0.2401 -0.4262 -0.2476
 4391SOL    HW124809   3.978   2.741   9.656 -2.4223 -2.1945  2.0203
 4391SOL    HW224810   4.086   2.830   9.683 -0.0580 -0.7998 -0.6074
 4392SOL     OW24811   1.407   2.290   4.866  0.2149  0.2371  0.1414
 4392SOL    HW124812   1.491   2.314   4.906  0.9221 -1.2538 -0.4462
 4392SOL    HW224813   1.360   2.372   4.876 -1.3575 -0.7747  1.1331
 4393SOL     OW24814   0.723   3.092  15.087 -0.0094  0.6313  0.2271
 4393SOL    HW124815   0.629   3.101  15.099 -0.4227 -0.2151 -2.4205
 4393SOL    HW224816   0.718   3.012  15.034  2.2893  0.3987  0.3596
 4394SOL     OW24817   4.264   1.091   2.277  0.1338  0.1966 -0.4131
 4394SOL    HW124818   4.220   1.022   2.226  2.0273 -3.2806  2.7242
 4394SOL    HW224819   4.328   1.116   2.211  0.7506  0.4946  0.3071
 4395SOL     OW24820   2.734   3.692   2.687  1.3150  0.1448  0.4666
 4395SOL    HW124821   2.743   3.681   2.593 -1.1113  0.0423  0.2273
 4395SOL    HW224822   2.791   3.620   2.715  3.0415  0.4830 -2.2834
 4396SOL     OW24823   2.805   3.277   2.000 -0.0404  0.0758 -0.3856
 4396SOL    HW124824   2.866   3.205   1.988  0.9538  1.0734 -1.2419
 4396SOL    HW224825   2.728   3.258   1.945 -0.8234 -1.1520  1.1377
 4397SOL     OW24826   3.469   0.214   7.451  0.2577 -0.1011 -0.1908
 4397SOL    HW124827   3.393   0.270   7.435  1.3315  1.3991 -0.0218
 4397SOL    HW224828   3.493   0.249   7.537  1.0579  2.1207 -1.3068
 4398SOL     OW24829   0.495   2.788   7.659 -0.4224  0.4753  0.3933
 4398SOL    HW124830   0.448   2.822   7.735  1.4794 -0.1427  1.8256
 4398SOL    HW224831   0.420   2.773   7.601  0.5331 -1.7983 -0.2397
 4399SOL     OW24832   2.168   2.937   2.265  0.2602 -0.2727  0.2052
 4399SOL    HW124833   2.255   2.899   2.256  0.5805  0.3595  0.6043
 4399SOL    HW224834   2.117   2.888   2.329 -0.3947  1.2624  0.8580
 4400SOL     OW24835   1.628   3.279   9.405  0.3230  0.1052 -0.4030
 4400SOL    HW124836   1.536   3.279   9.434  0.3002  1.6490 -0.4599
 4400SOL    HW224837   1.622   3.207   9.343 -1.4415 -2.4432  2.6712
 4401SOL     OW24838   4.296   4.090   8.265  0.2584  0.4664 -0.4062
 4401SOL    HW124839   4.271   4.180   8.244 -2.1166 -0.2727 -0.7366
 4401SOL    HW224840   4.214   4.070   8.311  1.4197 -0.6069  1.1758
 4402SOL     OW24841   0.299   3.896   4.739  0.3623  0.0507 -0.4253
 4402SOL    HW124842   0.279   3.935   4.825  1.0529  0.1307 -0.3021
 4402SOL    HW224843   0.394   3.902   4.741  0.4521 -1.2639 -0.7563
 4403SOL     OW24844   2.834   4.655   4.776  0.1245 -0.0978 -0.5658
 4403SOL    HW124845   2.869   4.639   4.688  0.5341 -2.6775  0.0515
 4403SOL    HW224846   2.908   4.634   4.833 -0.0499  1.9222  0.3814
 4404SOL     OW24847   3.757   3.270   2.877 -0.1411 -0.7232  0.4830
 4404SOL    HW124848   3.763   3.347   2.821  2.2650 -0.0226  1.6977
 4404SOL    HW224849   3.849   3.252   2.894  0.1632 -1.3121 -1.7811
 4405SOL     OW24850   2.301   4.402   7.871  0.3012  0.5770 -0.5009
 4405SOL    HW124851   2.253   4.482   7.848  1.8092  1.7325  0.3423
 4405SOL    HW224852   2.368   4.436   7.930 -0.4741  0.1624  0.6204
 4406SOL     OW24853   3.197   2.411   2.329  0.2754  0.8078  0.2337
 4406SOL    HW124854   3.288   2.439   2.320  0.8351 -1.4074 -0.9604
 4406SOL    HW224855   3.154   2.489   2.294  1.3526 -0.8590 -4.7278
 4407SOL     OW24856   0.850   0.218   5.375 -0.7079  0.1008 -0.0293
 4407SOL    HW124857   0.802   0.136   5.366 -2.0748  0.7655  1.2860
 4407SOL    HW224858   0.939   0.195   5.402 -0.6866 -1.0485 -1.0726
 4408SOL     OW24859   2.288   1.771   1.978 -0.0586 -0.6579 -0.3589
 4408SOL    HW124860   2.244   1.687   1.992 -2.3393  0.3889 -1.2260
 4408SOL    HW224861   2.340   1.746   1.902  2.4009 -0.5106  1.2847
 4409SOL     OW24862   1.263   1.715   4.407  0.2041  0.0568  0.1153
 4409SOL    HW124863   1.321   1.643   4.383  0.2137  0.2533 -0.4311
 4409SOL    HW224864   1.323   1.754   4.472 -0.1501 -0.7172  0.9064
 4410SOL     OW24865   2.951   0.321   9.871  0.3366  0.5663 -0.3045
 4410SOL    HW124866   2.924   0.379   9.943 -2.0740  0.4508 -1.0976
 4410SOL    HW224867   2.964   0.246   9.928 -1.4024 -0.2229 -0.9413
 4411SOL     OW24868   1.158   0.233  15.686 -0.0263 -0.6168  0.0552
 4411SOL    HW124869   1.207   0.188  15.755 -0.5830 -0.8274  0.3118
 4411SOL    HW224870   1.070   0.205  15.710 -0.5136 -0.7815 -1.9052
 4412SOL     OW24871   4.106   0.622   9.730  0.1362 -0.2920 -0.0360
 4412SOL    HW124872   4.154   0.703   9.718 -4.2472  2.4796  1.2874
 4412SOL    HW224873   4.041   0.658   9.790 -0.0654 -1.9663  0.7517
 4413SOL     OW24874   3.914   1.590   8.737  0.0364 -0.1264  0.9645
 4413SOL    HW124875   4.001   1.597   8.697 -0.7009  1.8939 -0.2752
 4413SOL    HW224876   3.911   1.497   8.760  1.5103 -0.5512 -0.5703
 4414SOL     OW24877   3.983   3.755   2.282 -0.2974 -0.3595 -0.1120
 4414SOL    HW124878   4.042   3.684   2.307 -1.1030 -1.2546 -0.7949
 4414SOL    HW224879   3.931   3.730   2.206 -0.8211  5.2749 -1.5910
 4415SOL     OW24880   0.088   1.030  15.937 -0.0857 -0.0538  0.7990
 4415SOL    HW124881   0.166   0.976  15.923  0.4031  1.1649 -1.0981
 4415SOL    HW224882   0.116   1.107  15.888 -0.5398 -0.0108  0.6121
 4416SOL     OW24883   2.003   4.402   7.810  0.3137  0.1422 -0.2092
 4416SOL    HW124884   1.990   4.472   7.746 -3.9240 -1.4571 -1.0927
 4416SOL    HW224885   1.932   4.403   7.874  0.6637  2.1972  0.1477
 4417SOL     OW24886   3.919   2.342   7.748 -0.3457  0.1271  0.6567
 4417SOL    HW124887   3.923   2.247   7.746 -0.3676  0.1582 -0.6933
 4417SOL    HW224888   4.010   2.369   7.736 -0.3584  1.5116  3.5248
 4418SOL     OW24889   4.038   3.433  10.056 -0.1379 -0.1849  0.6544
 4418SOL    HW124890   3.988   3.473   9.985 -0.3726 -0.5456  0.6111
 4418SOL    HW224891   4.033   3.341  10.028 -0.4601 -0.0544  0.2688
 4419SOL     OW24892   4.524   2.960   2.668  0.2305 -0.3918 -0.1022
 4419SOL    HW124893   4.575   2.883   2.643  0.4134 -0.1413 -0.5024
 4419SOL    HW224894   4.439   2.931   2.633  0.3947  0.0651 -0.8816
 4420SOL     OW24895   2.766   4.390   4.457  0.0685 -0.2297 -0.6636
 4420SOL    HW124896   2.808   4.305   4.473  1.6640  0.7611  0.3441
 4420SOL    HW224897   2.688   4.392   4.511  1.2316 -1.5166  1.0810
 4421SOL     OW24898   1.924   1.680  16.900  0.1247  0.0792 -0.3108
 4421SOL    HW124899   1.871   1.742  16.950  0.2370 -0.0301 -0.0558
 4421SOL    HW224900   1.903   1.598  16.943 -0.6821 -0.4157 -1.6473
 4422SOL     OW24901   3.733   1.445   6.062 -0.4645 -0.6821  0.5912
 4422SOL    HW124902   3.716   1.536   6.086 -1.0538 -0.9611  1.2394
 4422SOL    HW224903   3.810   1.454   6.005 -2.2240 -0.4146 -1.7611
 4423SOL     OW24904   1.874   1.661  12.567 -0.1587  0.4602 -0.2044
 4423SOL    HW124905   1.828   1.633  12.647 -1.7485  0.5494 -1.0898
 4423SOL    HW224906   1.952   1.690  12.614 -0.6953 -1.2816  1.7966
 4424SOL     OW24907   1.349   2.844   9.207  0.2136  0.5876 -0.6079
 4424SOL    HW124908   1.312   2.757   9.223 -0.6663  0.4291 -3.5719
 4424SOL    HW224909   1.277   2.905   9.189  0.3902  0.8004 -0.5896
 4425SOL     OW24910   0.029   3.280   2.656 -0.5540 -0.4264 -0.9047
 4425SOL    HW124911   4.684   3.281   2.604 -2.3894  1.3484  1.9503
 4425SOL    HW224912   0.070   3.365   2.637 -0.6220  0.0212  0.9195
 4426SOL     OW24913   3.287   1.985   4.084  0.8274  0.0372  0.6969
 4426SOL    HW124914   3.222   1.981   4.014  0.5174 -1.0707  1.0379
 4426SOL    HW224915   3.302   2.079   4.083  1.1652 -0.0330 -1.8467
 4427SOL     OW24916   0.955   3.918   1.672  0.0803 -0.3034  0.0929
 4427SOL    HW124917   0.958   3.842   1.731 -2.4183 -2.3282 -2.4260
 4427SOL    HW224918   0.994   3.884   1.591  0.0393  1.2564 -0.5757
 4428SOL     OW24919   1.127   1.663   3.762  0.7639 -0.0699  0.2561
 4428SOL    HW124920   1.112   1.627   3.674  0.4507  0.4525  0.0969
 4428SOL    HW224921   1.041   1.689   3.794  0.8740  1.3405 -0.5886
 4429SOL     OW24922   1.894   0.092   9.212 -0.4521  1.2707 -0.3910
 4429SOL    HW124923   1.836   0.018   9.231 -1.0229  1.5859 -0.9175
 4429SOL    HW224924   1.896   0.140   9.296 -0.2163  0.4422  0.0752
 4430SOL     OW24925   0.892   2.791   6.318 -0.1213 -0.0932  0.4613
 4430SOL    HW124926   0.877   2.850   6.244  0.0802 -0.6301  0.0014
 4430SOL    HW224927   0.838   2.825   6.390 -0.1164  1.0229 -0.0526
 4431SOL     OW24928   4.605   2.775   5.475  0.2207 -0.4696 -0.2509
 4431SOL    HW124929   4.541   2.770   5.404  1.2750 -0.5343 -1.1965
 4431SOL    HW224930   4.631   2.684   5.486  3.2587  0.1839 -2.0803
 4432SOL     OW24931   1.690   3.120  15.513  0.0463  0.6278  0.8126
 4432SOL    HW124932   1.689   3.052  15.580  0.3307 -0.2014 -0.0289
 4432SOL    HW224933   1.620   3.182  15.536 -2.9258 -2.2763 -0.4213
 4433SOL     OW24934   0.484   3.085  17.312 -0.4512  0.3336  0.0691
 4433SOL    HW124935   0.420   3.154  17.296  1.9099  2.3056 -0.7956
 4433SOL    HW224936   0.531   3.078  17.229  0.9058 -0.4654  0.8986
 4434SOL     OW24937   3.026   0.362   4.200 -0.4243 -0.0019  0.1096
 4434SOL    HW124938   3.049   0.327   4.286 -0.0644 -0.4139 -0.1539
 4434SOL    HW224939   3.096   0.328   4.144  1.0099 -0.3480  2.0815
 4435SOL     OW24940   4.397   3.342  17.582  0.2626  0.5638  0.1328
 4435SOL    HW124941   4.390   3.299  17.667 -0.4768  1.1045  0.3447
 4435SOL    HW224942   4.389   3.259  17.536 -0.3953 -0.2830  1.7646
 4436SOL     OW24943   4.262   1.056  14.571  0.5933  0.2330  0.5190
 4436SOL    HW124944   4.172   1.031  14.548  1.1128 -0.0162 -1.2078
 4436SOL    HW224945   4.300   1.050  14.484  0.1925  0.2044  0.3435
 4437SOL     OW24946   3.761   2.459   3.953  0.4816  0.6714 -0.3000
 4437SOL    HW124947   3.750   2.440   4.047  0.8643 -0.9768 -0.5807
 4437SOL    HW224948   3.837   2.405   3.931 -0.5883 -1.0724  0.2611
 4438SOL     OW24949   2.071   1.994  11.133 -0.0241 -0.6543  0.4871
 4438SOL    HW124950   1.981   2.009  11.162  0.3856  0.7198  1.0632
 4438SOL    HW224951   2.080   2.083  11.099 -2.3272 -0.1393  1.1883
 4439SOL     OW24952   0.792   2.287   2.721  0.1236 -0.3526  0.4839
 4439SOL    HW124953   0.854   2.337   2.774  0.1622  0.5155 -0.3855
 4439SOL    HW224954   0.840   2.275   2.639  1.1249 -0.1430  1.0331
 4440SOL     OW24955   3.353   3.200   5.715 -0.1563  0.1261 -0.6961
 4440SOL    HW124956   3.390   3.288   5.723  0.0564 -0.3815  4.0378
 4440SOL    HW224957   3.266   3.229   5.688  0.4462  1.4449 -1.2394
 4441SOL     OW24958   3.160   4.144   3.120 -0.0161  0.4405  0.0864
 4441SOL    HW124959   3.236   4.190   3.084  2.2135 -2.1904  1.4325
 4441SOL    HW224960   3.207   4.074   3.165 -1.1100 -0.8887 -0.8717
 4442SOL     OW24961   0.753   3.359  14.977 -0.0255 -0.2680  0.3141
 4442SOL    HW124962   0.660   3.374  14.964  0.2224  1.5694  0.6374
 4442SOL    HW224963   0.753   3.273  15.020  0.0660  0.7712  2.3911
 4443SOL     OW24964   4.438   2.400   1.214  0.6265  0.4130  0.0855
 4443SOL    HW124965   4.466   2.326   1.160 -3.4318 -2.4017  1.7806
 4443SOL    HW224966   4.354   2.422   1.174  0.3307  1.8208  1.4874
 4444SOL     OW24967   3.585   2.170   1.690 -0.0070  0.1362  0.0516
 4444SOL    HW124968   3.666   2.119   1.689 -1.2886 -1.9126  0.9497
 4444SOL    HW224969   3.518   2.103   1.680 -0.1690  0.4831 -1.2504
 4445SOL     OW24970   0.829   4.564   1.957 -0.0816 -0.5539 -0.5656
 4445SOL    HW124971   0.898   4.503   1.981  3.1570  2.9322 -0.9542
 4445SOL    HW224972   0.875   4.648   1.971 -0.0496 -0.4216 -1.4776
 4446SOL     OW24973   3.064   1.914   3.915  0.0171 -0.3978  0.1990
 4446SOL    HW124974   2.969   1.909   3.924 -0.1790  0.9463 -1.1234
 4446SOL    HW224975   3.067   1.953   3.828  1.5030  0.2584  0.5438
 4447SOL     OW24976   2.914   4.721   9.588  0.4616  0.0032 -0.7435
 4447SOL    HW124977   2.993   0.034   9.612  0.2868  0.0465 -0.2581
 4447SOL    HW224978   2.934   4.627   9.594  0.4785  0.2531  3.2423
 4448SOL     OW24979   1.339   2.402   8.043 -0.4978 -0.1991  0.3466
 4448SOL    HW124980   1.252   2.427   8.013 -0.1621 -0.9532 -1.2808
 4448SOL    HW224981   1.324   2.307   8.049  0.0596 -0.2156  1.6221
 4449SOL     OW24982   2.470   0.911  10.564  0.2577 -0.0738  0.2594
 4449SOL    HW124983   2.423   0.963  10.629  1.0819  0.7497  0.1885
 4449SOL    HW224984   2.436   0.827  10.595 -0.6117 -0.0567 -0.6266
 4450SOL     OW24985   3.854   2.499   0.554  0.4847 -0.3185 -0.1117
 4450SOL    HW124986   3.905   2.422   0.576  0.3278 -0.3751  0.0538
 4450SOL    HW224987   3.897   2.514   0.470  0.9098 -1.2572 -0.0551
 4451SOL     OW24988   1.895   2.644  16.833  0.2475 -0.2675 -0.2005
 4451SOL    HW124989   1.903   2.725  16.782 -0.8027 -0.6342 -0.9512
 4451SOL    HW224990   1.961   2.660  16.901 -1.6745  1.1889  1.3294
 4452SOL     OW24991   3.942   3.466  15.593 -0.8625  0.3143 -0.7184
 4452SOL    HW124992   4.000   3.469  15.670 -0.3632  0.6442 -1.1046
 4452SOL    HW224993   3.961   3.546  15.545 -2.2387  1.5485  0.8289
 4453SOL     OW24994   1.168   1.919   6.535  0.6394 -0.4462 -0.0802
 4453SOL    HW124995   1.127   1.906   6.449  2.4776  2.6311 -1.4224
 4453SOL    HW224996   1.090   1.953   6.579 -0.1013  0.2468 -1.9172
 4454SOL     OW24997   0.152   2.128   2.215  0.6820  0.5476 -0.3984
 4454SOL    HW124998   0.082   2.131   2.150  2.0088 -1.0606 -1.8814
 4454SOL    HW224999   0.102   2.117   2.296  0.9550  0.2089 -0.2784
 4455SOL     OW25000   4.592   0.263  16.442 -0.1643 -0.0933 -0.7858
 4455SOL    HW125001   4.549   0.251  16.357 -1.3755 -0.7729 -0.0723
 4455SOL    HW225002   4.522   0.250  16.506  1.1086  1.0899  0.8628
 4456SOL     OW25003   3.554   3.458  15.655 -0.3956 -0.2174 -0.0643
 4456SOL    HW125004   3.461   3.461  15.679 -0.5809 -0.4378 -0.7284
 4456SOL    HW225005   3.563   3.538  15.604 -1.2806  0.4096  0.7736
 4457SOL     OW25006   4.671   4.325   4.305 -0.2761 -0.5849 -0.0630
 4457SOL    HW125007   4.577   4.312   4.320  0.2741 -3.1413  1.0510
 4457SOL    HW225008   4.690   4.399   4.363 -0.2645 -0.1672 -0.5941
 4458SOL     OW25009   3.316   3.883   8.356  0.0529 -0.1669  0.4771
 4458SOL    HW125010   3.234   3.853   8.395 -1.0570  1.6674 -0.4689
 4458SOL    HW225011   3.374   3.821   8.400 -0.1787 -0.7109  0.0208
 4459SOL     OW25012   0.639   2.640   8.604  0.2119  0.1012  0.0557
 4459SOL    HW125013   0.647   2.614   8.512  0.6241  0.9288 -0.1427
 4459SOL    HW225014   0.719   2.603   8.640  0.7149  0.8177 -0.3375
 4460SOL     OW25015   1.757   1.613  14.049 -0.4301  0.5029  0.1992
 4460SOL    HW125016   1.674   1.628  14.095 -0.1199  1.2075  0.5229
 4460SOL    HW225017   1.784   1.538  14.101 -0.4383  1.4783  1.6107
 4461SOL     OW25018   1.799   0.983   6.016 -0.0624  0.0739 -0.8419
 4461SOL    HW125019   1.888   1.005   5.987  1.0568 -0.8935  1.8595
 4461SOL    HW225020   1.768   0.942   5.935  0.6604 -2.7980  0.3208
 4462SOL     OW25021   4.184   2.043   4.838  0.2407  0.4396  0.2590
 4462SOL    HW125022   4.261   2.099   4.852  2.1210 -1.4799 -2.3989
 4462SOL    HW225023   4.123   2.110   4.810 -2.1697 -2.1433 -0.6829
 4463SOL     OW25024   4.579   4.394   5.736 -0.2054 -0.0791  0.6587
 4463SOL    HW125025   4.491   4.430   5.725  0.1034  1.0745  1.9630
 4463SOL    HW225026   4.582   4.377   5.831 -0.1620 -0.9614  0.4987
 4464SOL     OW25027   4.583   4.019  14.066  0.6001  0.2079 -0.0713
 4464SOL    HW125028   4.587   3.924  14.063 -0.6698  0.0597  2.4256
 4464SOL    HW225029   4.493   4.028  14.038  0.2287 -1.4968  0.5912
 4465SOL     OW25030   3.813   3.344   8.644  0.6410 -0.4152  0.2539
 4465SOL    HW125031   3.742   3.313   8.700  0.2829  1.3771  0.8150
 4465SOL    HW225032   3.802   3.306   8.557  2.1329  1.5193 -0.8014
 4466SOL     OW25033   1.397   1.437  16.401 -0.0945 -0.5853 -0.0575
 4466SOL    HW125034   1.466   1.375  16.423  2.0212  0.8651 -2.6096
 4466SOL    HW225035   1.408   1.441  16.306  0.5927  0.1897  0.0515
 4467SOL     OW25036   1.759   0.167  14.441  0.8241 -0.3773  0.3750
 4467SOL    HW125037   1.782   0.245  14.491  2.4116 -0.3581 -0.3698
 4467SOL    HW225038   1.789   0.098  14.500  1.4990 -0.6897 -0.3285
 4468SOL     OW25039   4.230   0.119   2.365 -0.3967 -0.2042  0.7757
 4468SOL    HW125040   4.219   0.029   2.336  1.2541 -0.5824  1.3534
 4468SOL    HW225041   4.305   0.109   2.424  2.0200 -1.8295 -2.6097
 4469SOL     OW25042   4.486   3.204  10.415 -0.1092 -0.5344  0.7784
 4469SOL    HW125043   4.525   3.220  10.329  0.6985 -0.2947  1.1889
 4469SOL    HW225044   4.400   3.247  10.417 -0.5131 -1.3619  1.0359
 4470SOL     OW25045   4.543   0.345   7.401  0.0701 -0.0190  0.1425
 4470SOL    HW125046   4.632   0.317   7.380 -0.0909  1.0467 -1.9599
 4470SOL    HW225047   4.555   0.359   7.495 -0.2037 -0.8215  0.2984
 4471SOL     OW25048   4.183   0.181   2.794 -0.2490 -0.0095  0.2057
 4471SOL    HW125049   4.100   0.161   2.837 -1.6976  1.3792 -1.9114
 4471SOL    HW225050   4.239   0.162   2.869  0.0665  0.3772  0.0682
 4472SOL     OW25051   3.767   2.447   9.353  0.0121  0.0464 -0.0133
 4472SOL    HW125052   3.783   2.477   9.442 -2.9272  2.4177 -0.2538
 4472SOL    HW225053   3.790   2.525   9.302 -3.2474  1.2552  0.3591
 4473SOL     OW25054   2.036   4.199   9.479 -0.5506  0.1638 -0.2043
 4473SOL    HW125055   1.947   4.171   9.456 -0.5812  0.7731 -0.8169
 4473SOL    HW225056   2.012   4.278   9.527 -0.8211  0.2052 -0.4075
 4474SOL     OW25057   2.978   1.923   6.415 -0.2020  0.5168  0.1856
 4474SOL    HW125058   2.998   1.892   6.503 -0.8919  0.9640  0.4979
 4474SOL    HW225059   3.020   2.008   6.428 -0.6055  0.5602  1.1816
 4475SOL     OW25060   0.437   3.809  12.581  0.5547 -0.0179 -0.4494
 4475SOL    HW125061   0.371   3.789  12.647  0.1410  1.4324 -0.4198
 4475SOL    HW225062   0.512   3.769  12.625  0.5204  1.4242  0.9252
 4476SOL     OW25063   2.470   1.847   4.196  0.3007 -0.2812  0.1622
 4476SOL    HW125064   2.472   1.870   4.103  1.1558 -1.2007 -0.0475
 4476SOL    HW225065   2.555   1.880   4.226 -0.0119  1.8685 -1.2845
 4477SOL     OW25066   4.109   0.048  12.967  0.0712 -0.0420 -0.3663
 4477SOL    HW125067   4.113   4.689  12.979 -1.3065  0.1109  1.3292
 4477SOL    HW225068   4.196   0.080  12.989  0.2324  1.7201 -3.6457
 4478SOL     OW25069   3.198   4.057   4.441  0.4790  0.3899  0.0771
 4478SOL    HW125070   3.193   4.113   4.364  0.1309 -0.8276 -0.7837
 4478SOL    HW225071   3.293   4.048   4.445  0.5489  0.9946 -0.2962
 4479SOL     OW25072   1.610   0.588   9.122 -0.2392  0.2958  0.0719
 4479SOL    HW125073   1.657   0.542   9.191 -2.2092 -3.2009 -0.8883
 4479SOL    HW225074   1.682   0.583   9.059  0.6497  1.4793  0.9883
 4480SOL     OW25075   0.705   3.749  17.328 -0.8864 -0.3312 -0.2224
 4480SOL    HW125076   0.757   3.812  17.278 -0.0590 -0.8746 -0.0412
 4480SOL    HW225077   0.623   3.796  17.314  0.6685  2.5201  0.3672
 4481SOL     OW25078   1.192   1.519  13.674 -0.4422 -0.0687 -0.2927
 4481SOL    HW125079   1.163   1.504  13.764  0.5892 -3.1298 -0.4959
 4481SOL    HW225080   1.114   1.498  13.623 -0.4777 -2.4384  0.7480
 4482SOL     OW25081   1.291   1.823   3.480 -0.2237 -0.2604  0.2265
 4482SOL    HW125082   1.297   1.798   3.387  2.5350  1.0208  0.0734
 4482SOL    HW225083   1.217   1.884   3.475  1.3532  1.6889  0.9649
 4483SOL     OW25084   1.452   0.791   3.322  0.3852  0.7276 -0.3214
 4483SOL    HW125085   1.546   0.772   3.321  0.0930 -0.6624 -1.2165
 4483SOL    HW225086   1.411   0.740   3.391  0.2821  1.1737 -0.0559
 4484SOL     OW25087   1.165   0.216   1.923 -0.0673  0.0184 -0.4465
 4484SOL    HW125088   1.254   0.205   1.890  0.3376  0.8628  0.3691
 4484SOL    HW225089   1.118   0.238   1.843 -1.2268  1.3872  0.6319
 4485SOL     OW25090   0.190   0.582   8.123  0.0045 -0.2325 -0.2388
 4485SOL    HW125091   0.161   0.582   8.214  1.1061  0.3929  0.1074
 4485SOL    HW225092   0.251   0.510   8.141 -0.1200  0.4345  2.7354
 4486SOL     OW25093   3.495   2.575  14.088 -0.5744  0.1967 -0.0801
 4486SOL    HW125094   3.400   2.565  14.094 -0.3155 -0.4009  2.8896
 4486SOL    HW225095   3.527   2.568  14.178 -2.3316  1.4860  0.6407
 4487SOL     OW25096   0.976   3.247  15.233  0.3117 -0.4301  0.3731
 4487SOL    HW125097   0.990   3.338  15.207 -0.4552 -0.4535 -0.1181
 4487SOL    HW225098   0.888   3.235  15.197  0.2945 -1.6143  0.8063
 4488SOL     OW25099   3.985   0.147  10.252 -0.0743  0.4335  0.3520
 4488SOL    HW125100   3.978   0.242  10.248  3.2673  0.6807  0.2380
 4488SOL    HW225101   3.891   0.135  10.245  0.0744 -0.3811 -0.2247
 4489SOL     OW25102   1.789   4.444   7.954  0.0639  0.0623  0.0512
 4489SOL    HW125103   1.802   4.435   8.049  0.7538 -1.0041 -0.1442
 4489SOL    HW225104   1.718   4.382   7.935  0.6049 -0.8470  0.9669
 4490SOL     OW25105   4.613   2.350   4.247 -0.2571 -0.6188 -0.2032
 4490SOL    HW125106   4.543   2.287   4.226 -1.3076  0.2567  0.6689
 4490SOL    HW225107   4.647   2.357   4.158  0.2708  1.2646  0.1665
 4491SOL     OW25108   0.988   4.039   6.785 -0.8290  0.4182  0.0203
 4491SOL    HW125109   1.042   4.007   6.713 -1.3557  1.5941 -0.9096
 4491SOL    HW225110   0.912   3.985   6.766  0.0082 -0.3168 -1.1881
 4492SOL     OW25111   1.550   4.398   0.188  0.3696 -0.3991  0.4985
 4492SOL    HW125112   1.608   4.405   0.113  1.4669 -0.4814  1.3397
 4492SOL    HW225113   1.617   4.403   0.256 -0.7227  1.6827  1.4382
 4493SOL     OW25114   3.484   3.852   5.160 -0.0819  0.2810 -0.6170
 4493SOL    HW125115   3.427   3.871   5.086 -0.9504 -0.7129 -0.2066
 4493SOL    HW225116   3.426   3.873   5.234  0.1623  0.0889 -0.3682
 4494SOL     OW25117   0.437   2.550   5.007 -0.0024  0.2756  0.2733
 4494SOL    HW125118   0.479   2.616   4.952  0.5872  0.3179  0.7737
 4494SOL    HW225119   0.506   2.511   5.060 -0.4009 -0.3421  0.3345
 4495SOL     OW25120   2.683   4.348   0.704 -0.0801  0.0692  0.2479
 4495SOL    HW125121   2.621   4.325   0.773  0.8389 -1.7281  0.4610
 4495SOL    HW225122   2.674   4.266   0.657 -0.2202  0.5070 -0.4860
 4496SOL     OW25123   3.851   3.826   5.208 -0.6863 -0.5809 -0.0576
 4496SOL    HW125124   3.910   3.785   5.144  0.9535  1.8538 -0.1324
 4496SOL    HW225125   3.803   3.887   5.152 -0.8367  0.0537  0.7734
 4497SOL     OW25126   0.983   3.591  13.439 -0.7863  0.3632 -0.0059
 4497SOL    HW125127   0.905   3.591  13.494  0.3996  1.0316  1.6660
 4497SOL    HW225128   1.042   3.643  13.493 -2.4733 -0.2153  2.3843
 4498SOL     OW25129   3.929   0.869   6.251  0.5721  0.0228  0.3569
 4498SOL    HW125130   3.990   0.801   6.221 -0.9865 -0.6419 -1.3500
 4498SOL    HW225131   3.863   0.859   6.182 -0.1287  1.4566  0.8243
 4499SOL     OW25132   0.344   0.067  13.205 -0.3537  0.3331 -0.1590
 4499SOL    HW125133   0.298   0.017  13.272  2.7003  0.1662  1.8190
 4499SOL    HW225134   0.395   4.729  13.170 -0.3331 -0.0196  0.6212
 4500SOL     OW25135   3.922   3.334   5.529  0.0138  0.2443 -0.8029
 4500SOL    HW125136   3.840   3.294   5.559 -0.2460 -0.2382 -2.1471
 4500SOL    HW225137   3.986   3.287   5.582  0.4014  3.1906  1.3470
 4501SOL     OW25138   3.191   1.267   5.020  0.0747  0.3916  0.5382
 4501SOL    HW125139   3.207   1.191   5.075  2.7203  0.6277  0.0827
 4501SOL    HW225140   3.104   1.250   4.984  0.7380  1.0661 -1.3906
 4502SOL     OW25141   2.766   4.250   9.160  0.2788 -0.6412  0.2993
 4502SOL    HW125142   2.679   4.269   9.194  1.3778  1.4267  1.9485
 4502SOL    HW225143   2.768   4.155   9.160 -0.9263 -0.6548  0.6021
 4503SOL     OW25144   2.327   3.208   6.258  0.1171  0.1922  0.1556
 4503SOL    HW125145   2.396   3.207   6.324  1.5189 -1.3009 -1.3112
 4503SOL    HW225146   2.254   3.206   6.319  0.9010 -1.7799  1.0381
 4504SOL     OW25147   0.175   4.312   3.693  0.1011 -0.3463  0.7710
 4504SOL    HW125148   0.169   4.231   3.643 -0.8514 -0.2952  0.7963
 4504SOL    HW225149   0.092   4.310   3.741  0.3192 -2.3402  1.0738
 4505SOL     OW25150   1.860   2.402  11.232 -0.5285  0.3779  0.0036
 4505SOL    HW125151   1.885   2.348  11.307  2.0870 -1.5389 -2.2651
 4505SOL    HW225152   1.859   2.490  11.270  1.9917 -0.1671  1.3350
 4506SOL     OW25153   0.109   3.838  15.759  0.1853  0.7220  0.1321
 4506SOL    HW125154   0.041   3.858  15.695  0.9207  2.1329 -0.2227
 4506SOL    HW225155   0.183   3.811  15.704  0.2350 -0.7834  0.9335
 4507SOL     OW25156   0.284   0.867   2.225 -0.1274  0.1674 -0.1676
 4507SOL    HW125157   0.240   0.952   2.233 -1.0854 -0.3180 -0.2410
 4507SOL    HW225158   0.327   0.867   2.311 -0.7596  2.5090  0.1446
 4508SOL     OW25159   4.661   2.134  10.295  0.0743 -0.2929  0.0099
 4508SOL    HW125160   4.601   2.066  10.266  0.2997 -0.4609 -0.0569
 4508SOL    HW225161   4.617   2.166  10.375 -2.6730 -0.0464 -1.6003
 4509SOL     OW25162   3.448   1.653  15.478 -0.7276  0.0193  0.0096
 4509SOL    HW125163   3.375   1.600  15.508 -1.5286  1.7042  1.0138
 4509SOL    HW225164   3.505   1.582  15.448 -0.1528  0.5761 -0.2165
 4510SOL     OW25165   2.359   0.667   1.920  0.5070  0.0070 -0.0243
 4510SOL    HW125166   2.313   0.738   1.876 -2.8326 -0.8035  2.1238
 4510SOL    HW225167   2.306   0.593   1.890 -0.2256  0.7752 -0.6256
 4511SOL     OW25168   2.711   0.485   8.293  0.2867 -0.3070 -0.3386
 4511SOL    HW125169   2.756   0.418   8.345  1.7720  0.9455 -0.0258
 4511SOL    HW225170   2.727   0.565   8.343 -0.4139 -0.2041 -0.2760
 4512SOL     OW25171   1.539   3.042   7.361  0.5041  0.0742 -0.4051
 4512SOL    HW125172   1.546   3.069   7.270 -0.8270  2.6787  0.2687
 4512SOL    HW225173   1.589   3.113   7.401  1.0473  0.2002 -1.3141
 4513SOL     OW25174   0.378   3.163   3.504 -0.4368 -0.2498 -0.8065
 4513SOL    HW125175   0.435   3.226   3.461 -1.8118  2.3896  1.2789
 4513SOL    HW225176   0.427   3.085   3.478 -0.7302 -0.4806 -0.6797
 4514SOL     OW25177   4.705   0.187   9.250 -0.9008  0.2902  0.0108
 4514SOL    HW125178   0.016   0.106   9.271 -2.3188 -1.5337 -3.9421
 4514SOL    HW225179   0.029   0.252   9.288 -1.5051  0.1323  1.2134
 4515SOL     OW25180   2.572   0.557   6.770 -0.0658  0.3676 -0.2866
 4515SOL    HW125181   2.604   0.603   6.848  0.8508  1.0393 -1.0483
 4515SOL    HW225182   2.486   0.524   6.795  0.2895 -0.9799 -0.8297
 4516SOL     OW25183   0.831   3.531   0.099 -0.1501  0.3418 -0.4325
 4516SOL    HW125184   0.767   3.474   0.056 -0.8264  0.2338  0.7455
 4516SOL    HW225185   0.902   3.526   0.034 -2.1642  1.0704 -2.7037
 4517SOL     OW25186   2.973   1.468  15.762 -0.2635 -0.0280 -0.3973
 4517SOL    HW125187   2.918   1.494  15.687  0.2069 -1.8341 -1.3633
 4517SOL    HW225188   2.919   1.404  15.809 -0.6809  0.1789 -0.5903
 4518SOL     OW25189   0.765   3.641  16.467 -0.3115 -0.2737  0.4534
 4518SOL    HW125190   0.809   3.648  16.552 -0.5049 -0.7579  0.5888
 4518SOL    HW225191   0.728   3.730  16.459  3.0311  0.9357 -1.4984
 4519SOL     OW25192   0.404   3.729   7.688 -0.1283 -1.0156  0.2592
 4519SOL    HW125193   0.381   3.794   7.755 -1.4258 -1.9743  0.7339
 4519SOL    HW225194   0.322   3.723   7.640  0.1603 -0.8123 -0.2611
 4520SOL     OW25195   0.209   2.416   5.891 -0.0632 -0.2595 -0.1563
 4520SOL    HW125196   0.293   2.394   5.850 -0.0754  1.3317 -1.0305
 4520SOL    HW225197   0.136   2.375   5.844  0.0814 -0.8261  0.1122
 4521SOL     OW25198   1.027   3.688   4.596 -0.0140 -0.0966 -0.0861
 4521SOL    HW125199   0.946   3.732   4.569  0.1236 -0.9148 -1.8645
 4521SOL    HW225200   1.031   3.612   4.537 -0.5814  0.7693 -1.2465
 4522SOL     OW25201   3.734   1.617   4.801 -0.1189  0.0718  0.1582
 4522SOL    HW125202   3.767   1.663   4.724 -0.8361 -0.6093 -0.5708
 4522SOL    HW225203   3.770   1.529   4.796 -0.6953 -0.1014 -1.0153
 4523SOL     OW25204   0.172   2.029   8.413 -0.5175 -0.0728 -0.3737
 4523SOL    HW125205   0.234   2.085   8.365  0.0412 -1.0728 -0.8197
 4523SOL    HW225206   0.193   1.940   8.385 -0.7920 -0.0792 -0.5535
 4524SOL     OW25207   3.863   3.659   6.191  0.2616 -0.5211 -0.6414
 4524SOL    HW125208   3.853   3.750   6.163 -1.8029 -0.4622  0.2714
 4524SOL    HW225209   3.811   3.625   6.118 -0.2169  1.1027 -1.0597
 4525SOL     OW25210   2.382   3.721  11.080 -0.1969 -0.6319  0.2777
 4525SOL    HW125211   2.309   3.667  11.111 -2.5735  1.4361 -1.7894
 4525SOL    HW225212   2.451   3.697  11.143  0.4157  1.2611  0.3163
 4526SOL     OW25213   4.595   0.665   4.877  0.3067  0.1198 -0.2322
 4526SOL    HW125214   4.676   0.716   4.871  0.4579  0.0557  1.2041
 4526SOL    HW225215   4.543   0.731   4.923  0.4578  0.7497 -0.9627
 4527SOL     OW25216   0.850   3.069   6.083  0.3639 -0.5701  0.3042
 4527SOL    HW125217   0.935   3.112   6.091  0.2369 -0.3176  0.2866
 4527SOL    HW225218   0.818   3.112   6.003 -1.5598 -3.8012 -0.6704
 4528SOL     OW25219   4.208   0.881   7.001  0.3389  0.0097  0.2754
 4528SOL    HW125220   4.189   0.891   7.094  0.3260  1.2033  0.1455
 4528SOL    HW225221   4.134   0.829   6.972 -0.1574  0.5748  0.5314
 4529SOL     OW25222   1.271   3.499   4.243  0.1281  0.0449 -0.2777
 4529SOL    HW125223   1.314   3.419   4.212 -0.3720 -0.3540  0.0633
 4529SOL    HW225224   1.253   3.535   4.156 -2.3083  0.8752  0.5869
 4530SOL     OW25225   1.197   4.057   4.470  0.3716  0.2932  0.2172
 4530SOL    HW125226   1.105   4.060   4.495  0.6548 -0.5830  1.3478
 4530SOL    HW225227   1.199   4.153   4.475 -2.8654  0.3373  0.3908
 4531SOL     OW25228   1.076   3.786   4.284  0.5073  0.5705  0.0005
 4531SOL    HW125229   1.025   3.738   4.219 -0.6564 -0.7401  1.8937
 4531SOL    HW225230   1.060   3.729   4.359 -1.2624 -1.0544 -1.5961
 4532SOL     OW25231   4.233   0.995   4.148  0.0661  0.3102 -0.1799
 4532SOL    HW125232   4.149   0.973   4.187 -0.6028 -0.2110 -1.9050
 4532SOL    HW225233   4.288   0.918   4.164  0.8469  1.0066  0.4545
 4533SOL     OW25234   2.443   0.464   3.867  0.2293 -0.3437 -0.2964
 4533SOL    HW125235   2.373   0.477   3.931  1.8107 -0.6243  1.5013
 4533SOL    HW225236   2.385   0.431   3.798 -1.2317  0.4661  0.5460
 4534SOL     OW25237   2.194   1.369   1.506  0.1546  0.1227 -0.1582
 4534SOL    HW125238   2.246   1.327   1.437 -2.1724 -1.3205 -1.0353
 4534SOL    HW225239   2.181   1.450   1.457  3.0293  0.1813 -0.8168
 4535SOL     OW25240   0.193   1.765   5.652  0.4200 -0.3627  0.0146
 4535SOL    HW125241   0.178   1.831   5.720 -0.3975  0.6173 -1.1092
 4535SOL    HW225242   0.148   1.812   5.582 -0.0371  1.8532  1.7778
 4536SOL     OW25243   1.496   4.148   6.011  0.2360 -0.4798 -0.4641
 4536SOL    HW125244   1.459   4.222   6.060 -0.0710 -0.9771  0.0567
 4536SOL    HW225245   1.444   4.076   6.046  1.7771  0.0588  2.8788
 4537SOL     OW25246   3.207   4.653   4.599  0.3621 -0.0425  0.6788
 4537SOL    HW125247   3.180   0.007   4.620  0.5549 -0.0744  1.0625
 4537SOL    HW225248   3.122   4.615   4.576  2.2132 -1.9390 -3.0362
 4538SOL     OW25249   0.410   3.815   8.371 -0.0261  0.6171  0.5207
 4538SOL    HW125250   0.324   3.851   8.349 -0.2088 -0.2555 -0.1970
 4538SOL    HW225251   0.462   3.849   8.299  1.0530 -1.4460  0.3218
 4539SOL     OW25252   2.781   1.101   8.578 -0.2920 -0.6365 -0.4451
 4539SOL    HW125253   2.845   1.058   8.522  0.4024 -0.5497  0.2863
 4539SOL    HW225254   2.702   1.050   8.557  1.0830 -2.7129 -0.6116
 4540SOL     OW25255   4.254   3.938  15.092  0.3231  0.5545 -0.1193
 4540SOL    HW125256   4.310   3.982  15.029  0.1393  1.6996  0.5131
 4540SOL    HW225257   4.165   3.970  15.074 -0.8269 -2.6591 -0.0514
 4541SOL     OW25258   2.392   2.167  13.841 -0.1973  0.0662 -0.4385
 4541SOL    HW125259   2.408   2.150  13.934 -0.9693  0.8976 -0.1519
 4541SOL    HW225260   2.429   2.088  13.801 -0.3246  0.3626 -1.1350
 4542SOL     OW25261   4.541   2.684  10.507 -0.3121  0.4899  0.6322
 4542SOL    HW125262   4.528   2.778  10.496  0.1005  0.2980 -1.6345
 4542SOL    HW225263   4.453   2.645  10.512 -1.0156  2.1543  1.1833
 4543SOL     OW25264   1.799   0.654   0.107  0.7161 -0.4496  0.0452
 4543SOL    HW125265   1.744   0.731   0.088  1.3354  0.3897  1.7376
 4543SOL    HW225266   1.769   0.597   0.035  4.1473 -2.0926 -0.0783
 4544SOL     OW25267   1.960   3.092   4.461  0.0018 -0.3261 -0.1768
 4544SOL    HW125268   1.872   3.078   4.427 -0.1016  1.1929 -0.5034
 4544SOL    HW225269   1.960   3.028   4.533 -0.2538 -0.7685 -0.5715
 4545SOL     OW25270   1.285   4.192  13.474  0.3953  0.3671 -0.6151
 4545SOL    HW125271   1.364   4.213  13.425  1.1749  1.2291  1.0227
 4545SOL    HW225272   1.312   4.121  13.531  1.1022  1.1688  0.0491
 4546SOL     OW25273   2.829   0.739   9.931  0.5011 -0.1218  0.6379
 4546SOL    HW125274   2.850   0.649   9.957 -0.2042 -0.6513 -0.6683
 4546SOL    HW225275   2.921   0.766   9.930  0.5166 -0.2021  0.1321
 4547SOL     OW25276   2.118   3.741   8.503  0.1502 -0.2993 -0.0206
 4547SOL    HW125277   2.068   3.815   8.468 -2.3179 -0.4847  3.1127
 4547SOL    HW225278   2.207   3.776   8.498 -0.0486  0.2108  0.0104
 4548SOL     OW25279   2.731   2.964   5.867 -0.0612  0.3924 -0.0211
 4548SOL    HW125280   2.683   3.010   5.936 -0.5205  1.4295 -1.0326
 4548SOL    HW225281   2.814   3.011   5.862 -0.6683  1.4031 -0.4471
 4549SOL     OW25282   1.258   1.097   4.267 -0.4461 -0.2279  0.2026
 4549SOL    HW125283   1.279   1.183   4.303  2.2041 -0.8245  0.0583
 4549SOL    HW225284   1.341   1.076   4.225  0.1993  1.8193  0.4318
 4550SOL     OW25285   4.215   0.443  15.289 -0.3812  0.5398  0.6621
 4550SOL    HW125286   4.193   0.533  15.310 -0.8398  0.1216  2.0048
 4550SOL    HW225287   4.261   0.449  15.205 -1.4886 -2.3536 -0.1784
 4551SOL     OW25288   0.352   3.281  14.825  0.0519 -0.9669 -0.2581
 4551SOL    HW125289   0.357   3.187  14.808  2.5525 -1.3257  2.4687
 4551SOL    HW225290   0.391   3.319  14.747 -0.5895  2.5287  1.1177
 4552SOL     OW25291   3.424   0.986   8.137  0.4186 -0.4307  0.8559
 4552SOL    HW125292   3.445   1.079   8.137 -0.7836 -0.1632  0.1636
 4552SOL    HW225293   3.511   0.952   8.115  0.6345  1.5412 -1.3662
 4553SOL     OW25294   0.006   2.779  12.037 -0.0866  0.3190  0.3548
 4553SOL    HW125295   4.689   2.833  12.096  0.3501 -0.0383  1.0774
 4553SOL    HW225296   0.016   2.702  12.093 -1.3145 -1.1088 -1.3539
 4554SOL     OW25297   3.585   0.712  15.546  0.1852 -0.2554  0.0819
 4554SOL    HW125298   3.518   0.667  15.494  0.5094 -0.3283 -0.2750
 4554SOL    HW225299   3.648   0.733  15.477 -1.1007  2.0694 -0.3973
 4555SOL     OW25300   3.641   3.443   3.702  0.0217 -0.0759  0.2609
 4555SOL    HW125301   3.630   3.500   3.625 -1.0252 -0.0273  0.4438
 4555SOL    HW225302   3.583   3.493   3.759 -0.9954 -0.5244 -0.3620
 4556SOL     OW25303   1.675   3.499   9.226  0.3044  0.0451  0.3758
 4556SOL    HW125304   1.763   3.463   9.219  0.2024  0.5043 -3.0659
 4556SOL    HW225305   1.636   3.433   9.284 -0.6938 -0.1323 -0.5133
 4557SOL     OW25306   1.050   0.072   4.636  0.4630 -0.0550  0.4180
 4557SOL    HW125307   1.047   0.114   4.550 -0.5158  0.1566  0.5562
 4557SOL    HW225308   1.105   0.134   4.684  1.3107 -0.4584 -0.0153
 4558SOL     OW25309   4.245   3.298  14.177 -0.1221  0.5904  0.1465
 4558SOL    HW125310   4.180   3.287  14.107 -2.6201 -1.0422  2.7601
 4558SOL    HW225311   4.187   3.312  14.252 -0.0616 -1.4887  0.5673
 4559SOL     OW25312   1.370   4.673   3.146 -0.2741 -0.5513  0.3701
 4559SOL    HW125313   1.352   4.641   3.234  1.0965 -0.2779  0.7453
 4559SOL    HW225314   1.286   4.646   3.108 -0.6161 -0.0018  0.7476
 4560SOL     OW25315   4.677   0.057   9.660 -0.0752 -0.3525 -0.5115
 4560SOL    HW125316   4.653   0.148   9.645 -2.5268 -1.0960 -1.2454
 4560SOL    HW225317   0.036   0.064   9.672 -0.2213  1.0708 -0.2295
 4561SOL     OW25318   0.368   1.089   9.249 -0.0696  0.0464  0.0573
 4561SOL    HW125319   0.347   1.181   9.238  0.4127  0.2063  0.5138
 4561SOL    HW225320   0.343   1.080   9.341 -1.5780 -0.4991 -0.4184
 4562SOL     OW25321   1.091   0.029  13.610  0.1785 -0.0824 -0.1052
 4562SOL    HW125322   1.077   4.686  13.663  0.6580  0.2373  0.4906
 4562SOL    HW225323   1.186   0.037  13.609  0.0151  1.7235 -0.4038
 4563SOL     OW25324   1.260   4.054   3.490 -0.3464 -0.6526 -0.0820
 4563SOL    HW125325   1.342   4.026   3.532 -0.5673 -0.1415  0.6721
 4563SOL    HW225326   1.208   3.974   3.501 -1.7843  0.3788  0.5300
 4564SOL     OW25327   4.664   1.377   8.219 -0.0674  0.1239  0.4155
 4564SOL    HW125328   4.592   1.427   8.180 -1.2878 -2.3100 -0.4611
 4564SOL    HW225329   4.657   1.293   8.174  0.4404  0.0370  0.5006
 4565SOL     OW25330   0.491   0.224   5.227 -0.2307  0.0705  0.1965
 4565SOL    HW125331   0.426   0.210   5.159 -0.1909  2.5349 -0.3782
 4565SOL    HW225332   0.444   0.183   5.300 -0.0877 -1.0717 -0.3736
 4566SOL     OW25333   3.963   1.563   7.436 -0.3990  0.0022  0.0211
 4566SOL    HW125334   4.001   1.620   7.503  0.5488 -0.5561 -0.0573
 4566SOL    HW225335   3.876   1.542   7.472 -1.1824 -1.0939 -2.5493
 4567SOL     OW25336   0.177   3.792   8.916  0.5501  0.0216 -0.3776
 4567SOL    HW125337   0.125   3.723   8.957  0.6185 -0.9302 -1.9017
 4567SOL    HW225338   0.098   3.840   8.892 -0.0444  0.7010  2.9397
 4568SOL     OW25339   0.654   4.001   2.593 -0.7129 -0.1213 -0.0383
 4568SOL    HW125340   0.724   4.063   2.616  0.2706 -0.9619 -0.7247
 4568SOL    HW225341   0.638   4.026   2.502  0.3251  1.6015  0.2580
 4569SOL     OW25342   3.047   2.255   3.043  0.0556  0.1257  0.3076
 4569SOL    HW125343   3.040   2.306   2.962  0.7226  0.1814  0.2828
 4569SOL    HW225344   2.966   2.205   3.044 -0.3689  0.8231  0.8301
 4570SOL     OW25345   0.578   2.826   6.210  0.4254 -0.7367 -0.0261
 4570SOL    HW125346   0.580   2.920   6.224  0.0577 -0.2718 -3.1836
 4570SOL    HW225347   0.659   2.803   6.165  0.5222  1.6401 -1.0276
 4571SOL     OW25348   3.383   2.777   8.971 -0.0310 -0.5543  0.5134
 4571SOL    HW125349   3.463   2.761   8.922  0.0071  0.8418  0.1359
 4571SOL    HW225350   3.377   2.871   8.957 -0.3194 -0.9361 -1.8338
 4572SOL     OW25351   4.288   3.325   4.901 -0.1956  0.7850  0.3909
 4572SOL    HW125352   4.336   3.394   4.946 -0.1021  0.0026  1.5052
 4572SOL    HW225353   4.236   3.282   4.968 -1.4471 -0.8684 -1.6388
 4573SOL     OW25354   3.217   2.558   8.415  0.4275 -0.6419 -0.1991
 4573SOL    HW125355   3.131   2.521   8.398  1.9546 -3.5348 -1.7840
 4573SOL    HW225356   3.191   2.628   8.475 -1.2127  0.9662 -2.8385
 4574SOL     OW25357   4.498   2.538   6.834  0.0726  0.8253 -0.1856
 4574SOL    HW125358   4.504   2.456   6.785 -6.2000  0.3475 -0.1093
 4574SOL    HW225359   4.433   2.579   6.777 -0.7212  0.4345  0.4356
 4575SOL     OW25360   2.764   2.780   3.315  0.0927 -0.0277  0.1094
 4575SOL    HW125361   2.831   2.736   3.367 -0.1890 -0.1805  0.3443
 4575SOL    HW225362   2.704   2.711   3.286 -1.9351  1.7807  0.0079
 4576SOL     OW25363   1.864   3.103   5.588 -0.2407  0.0060  0.1206
 4576SOL    HW125364   1.851   3.151   5.506  1.4525 -1.6585 -1.1333
 4576SOL    HW225365   1.793   3.039   5.592 -0.5411  0.3354  0.0841
 4577SOL     OW25366   3.861   4.706  13.679  0.0562 -0.0393 -0.0415
 4577SOL    HW125367   3.899   4.619  13.664 -2.2608 -1.0748  0.0620
 4577SOL    HW225368   3.791   4.713  13.615  0.3548  1.1074 -0.2424
 4578SOL     OW25369   3.398   3.831   7.288  0.0944  0.1408 -0.3101
 4578SOL    HW125370   3.388   3.904   7.226  1.4846  0.3167 -0.3270
 4578SOL    HW225371   3.486   3.798   7.272 -1.1052 -2.2406 -2.0237
 4579SOL     OW25372   0.493   4.135   3.537  0.1724 -0.3647  0.0778
 4579SOL    HW125373   0.459   4.196   3.472 -1.3219  0.7952  1.9481
 4579SOL    HW225374   0.547   4.078   3.482  0.4123  0.9387 -1.0458
 4580SOL     OW25375   2.677   4.084   3.854  0.3344 -0.2278  0.3027
 4580SOL    HW125376   2.605   4.143   3.830  1.6346  1.0171 -0.5805
 4580SOL    HW225377   2.743   4.153   3.862 -0.6444  0.5336  1.6847
 4581SOL     OW25378   2.346   2.035   5.396 -0.7186 -0.3497 -0.9790
 4581SOL    HW125379   2.434   1.998   5.389 -0.6053 -0.6842  2.2643
 4581SOL    HW225380   2.377   2.125   5.380 -3.2895  0.8969  1.0440
 4582SOL     OW25381   3.394   0.618   9.981  0.3690  0.4133 -0.3438
 4582SOL    HW125382   3.458   0.586   9.918  2.1242  3.7216 -0.2630
 4582SOL    HW225383   3.313   0.620   9.930  0.1483 -0.5714 -0.0322
 4583SOL     OW25384   0.060   2.276  14.013 -0.5173 -0.2245  0.1924
 4583SOL    HW125385   4.707   2.243  14.025 -0.8879  0.1697 -1.4733
 4583SOL    HW225386   0.086   2.237  13.930 -1.0092  1.7616 -0.9065
 4584SOL     OW25387   4.554   4.606   4.953  0.4081  0.1394 -0.3517
 4584SOL    HW125388   4.647   4.611   4.974 -0.1805  0.6458  2.1064
 4584SOL    HW225389   4.545   4.548   4.878 -2.0370  0.7508 -0.5363
 4585SOL     OW25390   3.732   0.924   5.152 -0.4819 -0.6913 -0.5354
 4585SOL    HW125391   3.736   0.852   5.089  1.9083  1.8667 -3.3020
 4585SOL    HW225392   3.728   0.876   5.235  1.2502 -3.0511 -1.8021
 4586SOL     OW25393   2.688   2.095   5.538 -0.1327  0.3894 -0.2276
 4586SOL    HW125394   2.663   2.003   5.525  0.8204  0.0619  0.1944
 4586SOL    HW225395   2.714   2.100   5.630  1.0995  2.7510 -0.7208
 4587SOL     OW25396   3.690   3.191   5.605  0.2785 -0.1425  0.2823
 4587SOL    HW125397   3.670   3.150   5.689  1.8109  1.3638  1.3844
 4587SOL    HW225398   3.616   3.158   5.554  1.5527 -2.0439 -0.3391
 4588SOL     OW25399   2.218   1.769  15.297 -0.1297  0.3471  0.6560
 4588SOL    HW125400   2.274   1.776  15.375 -0.0626  0.2138  0.6205
 4588SOL    HW225401   2.256   1.834  15.237 -2.9088  0.0884 -1.3717
 4589SOL     OW25402   3.227   0.565   9.159 -0.2279  0.1446  0.0113
 4589SOL    HW125403   3.138   0.587   9.189 -0.4004 -2.9207  1.6308
 4589SOL    HW225404   3.215   0.478   9.121  0.1697  0.3307 -0.5385
 4590SOL     OW25405   4.016   0.229   8.408  0.5565  0.2583  0.2630
 4590SOL    HW125406   3.940   0.282   8.432 -0.5643 -1.6770  0.9708
 4590SOL    HW225407   4.033   0.181   8.489 -3.8491 -1.6739  0.0044
 4591SOL     OW25408   0.343   4.405   4.389 -0.5168  0.5802  0.1847
 4591SOL    HW125409   0.257   4.364   4.376  0.2479 -0.8402 -0.4566
 4591SOL    HW225410   0.322   4.495   4.366 -1.6935  0.2791  0.0446
 4592SOL     OW25411   0.683   0.343   5.678 -0.6403 -0.1689  0.0071
 4592SOL    HW125412   0.642   0.363   5.762 -0.9215  0.3287 -0.2551
 4592SOL    HW225413   0.723   0.426   5.653  2.9535 -2.4522 -1.9018
 4593SOL     OW25414   0.510   1.726   3.387  0.2820 -0.0774 -0.3945
 4593SOL    HW125415   0.565   1.798   3.356  1.4186 -0.7486  0.1144
 4593SOL    HW225416   0.537   1.698   3.474 -0.9096  0.2837  0.1020
 4594SOL     OW25417   1.514   4.436   7.137 -0.6289 -0.3456  0.7038
 4594SOL    HW125418   1.551   4.525   7.135 -2.8252  0.5413 -0.8166
 4594SOL    HW225419   1.495   4.434   7.231  3.0449 -1.7292  1.3721
 4595SOL     OW25420   4.110   4.517   9.619 -0.5163  0.0693  0.1352
 4595SOL    HW125421   4.074   4.604   9.600 -0.2759 -0.4652 -2.7264
 4595SOL    HW225422   4.202   4.530   9.641 -1.0063  1.5290  1.3594
 4596SOL     OW25423   3.516   3.564  17.218 -0.1963  0.1516  0.2015
 4596SOL    HW125424   3.469   3.610  17.288  0.3776  2.1671 -0.7287
 4596SOL    HW225425   3.527   3.641  17.162 -1.4605  0.0295 -0.2143
 4597SOL     OW25426   3.400   4.308   1.951  0.1299  0.5307 -0.5901
 4597SOL    HW125427   3.457   4.365   1.899  0.6631  0.7239  0.2078
 4597SOL    HW225428   3.320   4.343   1.913  1.3104  1.6619 -2.0199
 4598SOL     OW25429   4.679   4.100   2.080  0.3417  0.0322  0.7551
 4598SOL    HW125430   0.037   4.118   2.075  0.2006  0.7062  0.5593
 4598SOL    HW225431   4.655   4.116   1.988  2.2119  0.6622  0.3758
 4599SOL     OW25432   4.271   2.809   3.590 -0.2077  0.3491  0.6433
 4599SOL    HW125433   4.178   2.790   3.593  0.1089 -1.1432  0.8720
 4599SOL    HW225434   4.282   2.898   3.555  0.0487 -0.8492 -2.3468
 4600SOL     OW25435   2.262   1.722   3.862  0.3700 -0.5026 -0.0611
 4600SOL    HW125436   2.204   1.690   3.932 -2.1068  3.4827 -0.2882
 4600SOL    HW225437   2.275   1.814   3.885  1.9606 -0.6083 -0.5881
 4601SOL     OW25438   3.372   2.333   8.513  0.1031  0.2198 -0.3388
 4601SOL    HW125439   3.319   2.401   8.472 -0.1492  0.1224 -0.1733
 4601SOL    HW225440   3.379   2.381   8.596  2.1191 -0.7552  0.0535
 4602SOL     OW25441   0.195   2.806  12.632 -0.1506 -0.2475  0.3459
 4602SOL    HW125442   0.160   2.776  12.548  0.7882  1.5024 -0.6697
 4602SOL    HW225443   0.281   2.765  12.635 -0.7143 -1.3180  2.0503
 4603SOL     OW25444   0.055   1.949   5.808  0.3642  0.4923  0.4850
 4603SOL    HW125445   4.696   1.959   5.821  0.0228  0.9878 -2.5521
 4603SOL    HW225446   0.089   1.985   5.890 -2.1021  1.1491  1.2229
 4604SOL     OW25447   2.674   1.166   4.061 -0.3270 -0.0029  0.7359
 4604SOL    HW125448   2.684   1.260   4.069 -1.2069  0.3753 -2.4485
 4604SOL    HW225449   2.754   1.138   4.106  0.4185 -0.0242 -0.5834
 4605SOL     OW25450   0.507   3.213   5.969  0.0854 -0.2569  0.5847
 4605SOL    HW125451   0.475   3.279   5.908 -0.6372 -3.3767 -2.3859
 4605SOL    HW225452   0.590   3.197   5.924 -0.5043 -2.3255  0.2450
 4606SOL     OW25453   1.255   1.008   2.677 -0.6320 -0.1992 -0.2735
 4606SOL    HW125454   1.215   0.998   2.764 -3.6449 -0.1328 -1.6529
 4606SOL    HW225455   1.253   0.913   2.661 -2.0649 -0.0724 -0.8134
 4607SOL     OW25456   1.959   2.431   9.243  0.3260 -0.9506  0.2993
 4607SOL    HW125457   1.930   2.521   9.259 -0.7714 -1.4950  1.3716
 4607SOL    HW225458   1.935   2.418   9.151 -1.8748 -0.3652  0.7754
 4608SOL     OW25459   4.635   0.561   3.687  0.4245  0.4885  0.0055
 4608SOL    HW125460   4.692   0.631   3.719  1.3585  0.3527 -1.3932
 4608SOL    HW225461   4.593   0.588   3.605  1.3814 -1.5740 -1.1515
 4609SOL     OW25462   2.955   3.834  15.084 -0.3658  0.1374 -0.8473
 4609SOL    HW125463   2.893   3.874  15.024 -1.0834 -0.9973 -0.8647
 4609SOL    HW225464   3.035   3.886  15.076  0.3099 -1.1824 -2.8299
 4610SOL     OW25465   4.725   4.063   7.278 -0.1027  0.3392  0.2678
 4610SOL    HW125466   4.733   4.153   7.249  0.8178 -0.2760 -1.3973
 4610SOL    HW225467   4.725   4.079   7.372  0.9556 -1.0182  0.5023
 4611SOL     OW25468   0.456   1.247   5.071  0.3336 -0.5106  0.0376
 4611SOL    HW125469   0.431   1.302   4.997  2.1083  0.3000  0.0379
 4611SOL    HW225470   0.550   1.233   5.061  0.4868 -0.5028  1.3579
 4612SOL     OW25471   4.299   3.696  13.279 -0.2595 -0.6493  0.6243
 4612SOL    HW125472   4.327   3.788  13.279  0.1290 -0.7699  1.3894
 4612SOL    HW225473   4.362   3.659  13.217  0.1554  0.6999  0.2307
 4613SOL     OW25474   4.670   3.144   1.668 -0.0330  0.2259 -0.6764
 4613SOL    HW125475   4.628   3.184   1.745 -0.6368 -2.1178  0.1872
 4613SOL    HW225476   4.638   3.055   1.672  1.5933 -0.4564 -2.8253
 4614SOL     OW25477   1.668   0.086   8.063  0.1822 -0.6492 -0.1816
 4614SOL    HW125478   1.761   0.079   8.087  0.1958 -0.3185 -0.1357
 4614SOL    HW225479   1.683   0.047   7.977  3.0781 -0.0582  0.0428
 4615SOL     OW25480   0.621   1.810   2.561  0.2169  0.1562  0.0374
 4615SOL    HW125481   0.559   1.776   2.497  2.0377 -0.6426 -1.3057
 4615SOL    HW225482   0.613   1.758   2.641  1.9630 -0.7797 -0.3902
 4616SOL     OW25483   0.713   1.546   1.371  0.3438 -0.2580  0.2532
 4616SOL    HW125484   0.647   1.512   1.431  0.5493 -0.2096  0.5092
 4616SOL    HW225485   0.779   1.477   1.363  2.0294  1.3172  0.4391
 4617SOL     OW25486   2.224   2.751  11.457 -0.1866 -0.1816 -0.1567
 4617SOL    HW125487   2.193   2.695  11.385  3.8268  1.2216 -2.9310
 4617SOL    HW225488   2.175   2.832  11.444 -2.0874 -0.7709  3.2815
 4618SOL     OW25489   4.188   0.520   8.314  0.4212  0.5482 -0.1005
 4618SOL    HW125490   4.196   0.606   8.354 -0.1847  0.7463 -0.4076
 4618SOL    HW225491   4.238   0.538   8.234  0.3304  1.3211  0.0192
 4619SOL     OW25492   3.015   0.854  13.538  0.7082  0.6919  0.2935
 4619SOL    HW125493   3.018   0.798  13.616  0.4632  0.5810  0.2247
 4619SOL    HW225494   2.924   0.882  13.538  0.4204 -0.2369 -0.4424
 4620SOL     OW25495   2.662   0.750   1.827  0.4404 -0.1090  0.4530
 4620SOL    HW125496   2.608   0.695   1.883 -1.0058  0.9441  0.0998
 4620SOL    HW225497   2.687   0.832   1.870  0.3419 -0.1784  0.6396
 4621SOL     OW25498   3.957   0.469   7.693  0.4046  0.2271 -0.0463
 4621SOL    HW125499   3.977   0.558   7.725  1.3313 -0.4643  1.3141
 4621SOL    HW225500   3.909   0.490   7.613  0.8525 -0.3067 -0.4564
 4622SOL     OW25501   0.456   2.548  16.072  0.2201  0.6628  0.4846
 4622SOL    HW125502   0.430   2.595  15.992 -3.3913 -1.8353  0.1665
 4622SOL    HW225503   0.413   2.609  16.132 -1.4344 -1.0833  1.0711
 4623SOL     OW25504   4.200   4.477   7.562  0.0502 -0.2108 -0.7263
 4623SOL    HW125505   4.216   4.487   7.656 -1.7764  4.2483 -0.8867
 4623SOL    HW225506   4.136   4.407   7.562  0.7349 -0.8324  0.8787
 4624SOL     OW25507   0.731   2.894   8.476 -0.0078  0.6342 -0.0183
 4624SOL    HW125508   0.779   2.819   8.440  0.2384  1.4173 -1.3227
 4624SOL    HW225509   0.673   2.853   8.540 -0.3885  1.2843  0.0528
 4625SOL     OW25510   0.462   4.608   3.206 -0.1801  0.3069 -0.2229
 4625SOL    HW125511   0.524   4.558   3.153 -1.2332 -1.1738 -0.0287
 4625SOL    HW225512   0.383   4.593   3.154 -0.8539 -0.4783  1.0478
 4626SOL     OW25513   2.084   1.174   7.131 -0.5507 -0.2312  0.6491
 4626SOL    HW125514   2.127   1.111   7.073  0.6437  1.1990 -0.0334
 4626SOL    HW225515   2.067   1.116   7.204  1.3330 -1.4937  0.0907
 4627SOL     OW25516   0.971   0.542   7.476 -0.0875  0.1991 -0.4515
 4627SOL    HW125517   0.906   0.505   7.417 -0.1591  0.9180 -0.8229
 4627SOL    HW225518   0.918   0.523   7.554  0.4293  1.3336  0.1629
 4628SOL     OW25519   4.186   2.417  15.784  0.1290  0.2536 -0.3416
 4628SOL    HW125520   4.196   2.412  15.879  1.5551  0.9485 -0.4509
 4628SOL    HW225521   4.152   2.331  15.757 -1.3594  0.5231  0.6420
 4629SOL     OW25522   4.710   2.570  12.205  0.4366  0.2381  0.1765
 4629SOL    HW125523   4.623   2.538  12.229  0.1618  1.3090  0.5738
 4629SOL    HW225524   0.004   2.491  12.158  0.3569 -0.1858  0.8473
 4630SOL     OW25525   3.981   3.680   6.587  0.8963  0.3777 -0.3729
 4630SOL    HW125526   3.990   3.679   6.683 -1.7460 -1.9534 -0.1260
 4630SOL    HW225527   3.890   3.707   6.579  1.2293  1.2605 -1.0838
 4631SOL     OW25528   0.847   4.051   5.573  1.1802  0.1658  0.5833
 4631SOL    HW125529   0.834   4.110   5.647  2.4862  3.2052 -1.6276
 4631SOL    HW225530   0.761   4.014   5.555  0.4999  2.2248 -0.4042
 4632SOL     OW25531   3.523   2.406   9.993 -0.3977 -0.0252 -0.5577
 4632SOL    HW125532   3.517   2.402  10.088  0.5395 -2.2630 -0.5779
 4632SOL    HW225533   3.490   2.322   9.959  0.9557 -0.8133  0.0856
 4633SOL     OW25534   0.836   1.425   7.407  0.4451  0.1220 -0.4313
 4633SOL    HW125535   0.769   1.487   7.379 -1.1569 -1.1869  0.5241
 4633SOL    HW225536   0.904   1.447   7.343 -0.9317  0.4380 -1.7828
 4634SOL     OW25537   3.319   1.931  16.050  0.3863 -0.2257 -0.2309
 4634SOL    HW125538   3.359   1.891  16.128  0.6813  3.1032  1.3457
 4634SOL    HW225539   3.347   1.869  15.983 -0.2474 -1.4918  0.6755
 4635SOL     OW25540   1.368   1.615  13.486 -0.3465  0.0152 -0.3084
 4635SOL    HW125541   1.300   1.593  13.550  0.1171 -0.6614 -0.0507
 4635SOL    HW225542   1.335   1.566  13.411 -0.9655 -0.2146  0.1183
 4636SOL     OW25543   4.586   3.582  15.759  0.4105  0.8864 -0.0425
 4636SOL    HW125544   4.629   3.635  15.827  1.2910 -0.6123  0.5618
 4636SOL    HW225545   4.650   3.517  15.730  1.1932  2.2220 -1.3225
 4637SOL     OW25546   4.563   3.196   6.035 -0.9299 -0.2110 -0.4016
 4637SOL    HW125547   4.587   3.207   6.126 -1.4397 -2.1547 -0.0290
 4637SOL    HW225548   4.628   3.130   6.011  0.6764  1.3711 -0.3916
 4638SOL     OW25549   0.132   2.164   4.409 -0.4196 -0.1489 -0.7627
 4638SOL    HW125550   0.210   2.217   4.395  0.8095 -1.7871 -0.1456
 4638SOL    HW225551   0.103   2.165   4.318 -2.5466 -0.1811 -0.0727
 4639SOL     OW25552   4.498   4.104   5.542  0.4517 -0.5079  0.2036
 4639SOL    HW125553   4.413   4.149   5.535  1.0282  0.5750  0.1064
 4639SOL    HW225554   4.524   4.142   5.626  2.5390  0.0253 -0.6673
 4640SOL     OW25555   3.037   0.455  14.066 -0.0739 -0.3766 -0.4331
 4640SOL    HW125556   2.997   0.402  14.135 -0.7679 -0.4397 -0.8803
 4640SOL    HW225557   3.115   0.488  14.111  1.3192 -1.1903 -2.2831
 4641SOL     OW25558   0.357   1.303   4.598 -0.2051 -0.2853 -0.2803
 4641SOL    HW125559   0.343   1.398   4.591 -2.2532 -0.4646  1.5227
 4641SOL    HW225560   0.283   1.268   4.550  0.1584 -2.0005  0.4274
 4642SOL     OW25561   4.416   2.038  11.580 -0.4090 -0.3760  0.3422
 4642SOL    HW125562   4.419   2.064  11.488  1.6193 -4.5310 -0.7971
 4642SOL    HW225563   4.336   2.080  11.611 -1.0723 -0.6469 -0.9798
 4643SOL     OW25564   2.283   1.107   7.597 -0.2429 -0.7617  0.1754
 4643SOL    HW125565   2.319   1.081   7.682  1.6809  0.3754 -0.2957
 4643SOL    HW225566   2.189   1.094   7.612 -0.4224 -0.6346 -0.8580
 4644SOL     OW25567   3.663   4.127  12.882 -0.0755  0.6914  0.3439
 4644SOL    HW125568   3.690   4.037  12.866 -1.8601  0.7066 -2.6789
 4644SOL    HW225569   3.639   4.147  12.792  0.6028  0.0962  0.0326
 4645SOL     OW25570   4.177   1.838   9.009  0.0635  0.1730 -0.4419
 4645SOL    HW125571   4.230   1.804   8.937 -1.5839  1.4303 -2.2514
 4645SOL    HW225572   4.139   1.916   8.971 -0.5024 -0.3730 -1.0002
 4646SOL     OW25573   4.194   3.215   7.819 -0.5969 -0.4717 -0.2797
 4646SOL    HW125574   4.226   3.292   7.773 -2.0250  1.7600  2.4435
 4646SOL    HW225575   4.248   3.221   7.898 -0.5235  1.3368 -0.4638
 4647SOL     OW25576   4.613   0.267  13.541  0.5224 -0.3890  0.5175
 4647SOL    HW125577   4.646   0.305  13.623 -1.3030  0.5918  0.7892
 4647SOL    HW225578   4.637   0.175  13.550  0.4443 -0.5160 -0.5084
 4648SOL     OW25579   0.647   1.161   9.360 -0.1241  0.8210 -0.3770
 4648SOL    HW125580   0.595   1.082   9.344  2.8494 -0.8718 -1.6855
 4648SOL    HW225581   0.623   1.226   9.294  0.9006  0.1046 -1.4610
 4649SOL     OW25582   3.820   0.182   8.034  0.2588  0.0023 -0.7556
 4649SOL    HW125583   3.852   0.242   7.967 -0.5423  0.4820 -0.6981
 4649SOL    HW225584   3.781   0.247   8.092 -1.0283  1.1066 -2.8651
 4650SOL     OW25585   0.254   1.319   2.072  0.3913  0.0575 -0.1391
 4650SOL    HW125586   0.292   1.257   2.010 -1.0297 -0.2108 -0.7490
 4650SOL    HW225587   0.181   1.348   2.017  0.9056 -1.8375 -1.8505
 4651SOL     OW25588   1.405   0.213   5.193 -0.2431 -0.2956 -0.1279
 4651SOL    HW125589   1.475   0.245   5.251  1.6620  0.2186 -2.7037
 4651SOL    HW225590   1.369   0.292   5.154  0.0803  0.9326  2.0868
 4652SOL     OW25591   3.512   3.972   4.196  0.1485 -0.1230 -0.4353
 4652SOL    HW125592   3.433   3.933   4.158 -0.0035  2.0552 -2.3591
 4652SOL    HW225593   3.495   3.971   4.290 -0.6801 -0.1098 -0.5797
 4653SOL     OW25594   3.305   0.551   0.552  0.0237  0.2800 -0.3081
 4653SOL    HW125595   3.268   0.638   0.541 -0.7482 -0.1596 -1.3025
 4653SOL    HW225596   3.309   0.535   0.457  0.8857 -1.9272  0.1018
 4654SOL     OW25597   3.403   1.031   6.480  0.3224 -0.4830 -0.2708
 4654SOL    HW125598   3.449   1.017   6.563 -0.5260  0.4103  0.3543
 4654SOL    HW225599   3.368   1.120   6.478 -1.2121 -1.0494  1.2726
 4655SOL     OW25600   0.208   2.552   6.150 -0.1318  0.5013  0.0453
 4655SOL    HW125601   0.236   2.500   6.075  1.9462 -0.0156  1.1935
 4655SOL    HW225602   0.208   2.495   6.226 -0.6400  1.3991  0.7127
 4656SOL     OW25603   4.284   2.080   3.464 -0.2317  0.9829  0.4541
 4656SOL    HW125604   4.288   2.063   3.558 -0.5531  1.7202  0.6045
 4656SOL    HW225605   4.343   2.155   3.453  0.4021  0.0864 -2.1301
 4657SOL     OW25606   1.296   1.866   7.972 -0.3871 -0.4163  0.1274
 4657SOL    HW125607   1.391   1.875   7.985 -0.0764 -1.0969 -1.7099
 4657SOL    HW225608   1.295   1.770   7.969 -1.6303 -0.3228 -2.2227
 4658SOL     OW25609   3.181   3.536   6.462 -0.6464  0.1881  0.0087
 4658SOL    HW125610   3.137   3.612   6.424 -1.3396  0.2822  0.9982
 4658SOL    HW225611   3.274   3.544   6.442 -1.0612  1.9076 -1.2969
 4659SOL     OW25612   2.980   2.699   9.582 -0.9385  0.0662  0.1391
 4659SOL    HW125613   2.912   2.715   9.517  2.0298 -0.8824 -3.2183
 4659SOL    HW225614   3.039   2.646   9.530 -0.2641  0.4924  0.4600
 4660SOL     OW25615   4.535   0.267   2.223 -0.0189 -0.6310  0.0813
 4660SOL    HW125616   4.516   0.225   2.139 -0.4329  1.2445 -0.7778
 4660SOL    HW225617   4.585   0.344   2.195 -2.8444  1.0842 -0.3052
 4661SOL     OW25618   0.920   3.656  12.885 -0.3964  0.4489 -0.7320
 4661SOL    HW125619   0.968   3.585  12.844 -0.1961 -0.7427  1.5743
 4661SOL    HW225620   0.948   3.644  12.976  1.2971  0.5494 -1.2440
 4662SOL     OW25621   3.270   0.117   5.607  0.6014  0.4590  0.3677
 4662SOL    HW125622   3.201   0.051   5.612  0.2598  0.6563 -1.7539
 4662SOL    HW225623   3.338   0.090   5.669 -0.3453 -1.1069  0.7187
 4663SOL     OW25624   1.658   4.613   5.566  0.3023  0.5579  0.0460
 4663SOL    HW125625   1.674   4.522   5.590 -0.0118  0.1199 -1.4195
 4663SOL    HW225626   1.681   4.671   5.639  0.5208  0.0787  0.3515
 4664SOL     OW25627   0.620   0.746   5.269 -0.0200  0.0688  0.3106
 4664SOL    HW125628   0.712   0.769   5.256 -0.3606  1.5904  0.6577
 4664SOL    HW225629   0.574   0.782   5.194 -2.1044 -0.2571  1.4208
 4665SOL     OW25630   2.002   2.976   8.789  0.7461  0.1786  0.6835
 4665SOL    HW125631   1.930   2.922   8.758 -0.6395  2.6835 -0.5057
 4665SOL    HW225632   1.995   2.968   8.884 -1.7884 -1.4549  0.3516
 4666SOL     OW25633   2.817   1.220   6.054  0.2065  0.3582  0.0322
 4666SOL    HW125634   2.803   1.182   6.140 -0.6885  1.1863  0.2508
 4666SOL    HW225635   2.889   1.276   6.082  0.9438 -0.6626  0.1865
 4667SOL     OW25636   0.665   2.242   5.092  0.6056  0.7075  0.0742
 4667SOL    HW125637   0.582   2.258   5.046  0.9482 -1.7457 -1.3761
 4667SOL    HW225638   0.712   2.180   5.037 -0.5181 -0.4652  0.4496
 4668SOL     OW25639   2.276   0.663   5.191  0.0606  0.2871  0.3583
 4668SOL    HW125640   2.233   0.747   5.209 -1.7784 -0.4506 -0.6091
 4668SOL    HW225641   2.331   0.653   5.269  0.7732  0.6376 -0.1047
 4669SOL     OW25642   4.414   2.304   3.455  0.6984  0.4044  0.0627
 4669SOL    HW125643   4.346   2.366   3.482 -0.4368 -1.1412  0.7359
 4669SOL    HW225644   4.455   2.357   3.387  1.4137 -1.2815 -0.8025
 4670SOL     OW25645   4.583   2.050   6.377  0.4996  0.0048  0.2106
 4670SOL    HW125646   4.627   2.089   6.452  2.7194  0.6476 -1.4088
 4670SOL    HW225647   4.657   2.017   6.325 -1.0727  0.4925 -2.3158
 4671SOL     OW25648   0.227   1.218  15.801 -0.5042  0.0776 -0.2262
 4671SOL    HW125649   0.227   1.304  15.759 -0.2251  0.1114 -0.1562
 4671SOL    HW225650   0.298   1.171  15.759  0.0102 -0.3136  1.0719
 4672SOL     OW25651   4.584   1.730   7.371 -0.2435 -0.4354 -0.5937
 4672SOL    HW125652   4.580   1.770   7.284 -0.1829  0.9020  0.0279
 4672SOL    HW225653   4.542   1.799   7.422 -0.8407 -0.7344 -0.6734
 4673SOL     OW25654   1.740   2.792   0.768  0.4563  0.0157  0.2639
 4673SOL    HW125655   1.726   2.785   0.674 -5.1180  2.4131  0.8825
 4673SOL    HW225656   1.806   2.723   0.779  0.2753 -0.2070 -0.0663
 4674SOL     OW25657   1.940   3.875   5.835  0.1411 -0.7718  0.0482
 4674SOL    HW125658   1.862   3.923   5.862  0.7798  0.6236 -0.5676
 4674SOL    HW225659   1.920   3.824   5.756 -2.2555  0.5193 -0.1925
 4675SOL     OW25660   2.206   0.940  15.005  0.1744 -0.0039  0.0923
 4675SOL    HW125661   2.240   0.858  15.043 -1.8870 -0.4677  0.9217
 4675SOL    HW225662   2.284   0.996  15.004  2.2077 -2.8039  0.7289
 4676SOL     OW25663   3.896   4.669   6.043 -0.0240 -0.4107  0.0662
 4676SOL    HW125664   3.824   4.726   6.070 -1.0551 -2.1865  1.0156
 4676SOL    HW225665   3.867   4.588   6.085 -0.8286  0.0293  0.3664
 4677SOL     OW25666   3.673   4.110   3.982 -0.0570  0.7570 -0.3360
 4677SOL    HW125667   3.634   4.196   4.000 -0.6196  0.8338 -1.9173
 4677SOL    HW225668   3.613   4.064   4.041  1.3744 -2.4431 -1.4262
 4678SOL     OW25669   1.386   3.313   5.550 -0.3787 -0.1437  0.0884
 4678SOL    HW125670   1.388   3.396   5.598  0.7229  0.2469 -0.6259
 4678SOL    HW225671   1.458   3.278   5.603  1.0683 -0.2168 -1.9546
 4679SOL     OW25672   3.181   0.370   5.694  0.3618  0.0789  0.0395
 4679SOL    HW125673   3.221   0.296   5.650 -0.0041  0.7636 -1.4498
 4679SOL    HW225674   3.261   0.418   5.718  1.7690 -1.5468 -1.3868
 4680SOL     OW25675   4.266   4.586  15.494 -0.6514  0.0790 -0.0079
 4680SOL    HW125676   4.220   4.506  15.520 -2.4753  0.8747 -0.7452
 4680SOL    HW225677   4.313   4.610  15.573 -2.3351  0.9123  0.7448
 4681SOL     OW25678   2.533   3.065   6.033  0.0699 -0.6958 -0.3073
 4681SOL    HW125679   2.501   2.975   6.037 -0.3065 -0.5616 -0.2509
 4681SOL    HW225680   2.596   3.072   6.104  0.7306  0.4658 -1.0122
 4682SOL     OW25681   2.639   0.937   9.159 -0.3825  0.3131 -0.6667
 4682SOL    HW125682   2.550   0.968   9.142 -0.8774 -1.6074 -1.5587
 4682SOL    HW225683   2.628   0.846   9.130  3.4472  0.5957 -2.9889
 4683SOL     OW25684   1.899   2.901   4.632 -0.1439  0.5414 -0.7998
 4683SOL    HW125685   1.912   2.868   4.721  1.5453  1.2452 -0.7827
 4683SOL    HW225686   1.830   2.843   4.601 -0.4808 -0.4084  1.7767
 4684SOL     OW25687   3.009   1.819   0.576 -0.0983  0.3926 -0.4751
 4684SOL    HW125688   2.922   1.838   0.541 -1.6589 -0.6522  2.8031
 4684SOL    HW225689   3.019   1.903   0.621  0.0614 -0.8703  1.8493
 4685SOL     OW25690   2.842   1.477  12.707  0.0907 -0.3410 -0.5051
 4685SOL    HW125691   2.873   1.387  12.698  0.2252 -0.5167  1.6686
 4685SOL    HW225692   2.852   1.513  12.619  1.3875 -0.7795 -0.5489
 4686SOL     OW25693   3.614   3.500   5.535  0.1917  0.1651  0.3098
 4686SOL    HW125694   3.620   3.557   5.459  1.7252  0.0750  0.3739
 4686SOL    HW225695   3.644   3.417   5.498 -0.2939 -0.1952  0.7232
 4687SOL     OW25696   3.704   1.327   1.256  0.0247 -0.2435  0.4617
 4687SOL    HW125697   3.727   1.292   1.342  0.3984 -1.3348 -0.0846
 4687SOL    HW225698   3.773   1.392   1.250 -1.5295  1.4868  1.3071
 4688SOL     OW25699   2.509   4.297   9.252  0.1171  0.3298  0.6638
 4688SOL    HW125700   2.422   4.259   9.268 -0.0234  0.6843  0.7407
 4688SOL    HW225701   2.506   4.377   9.304 -1.5508  0.0274  1.0422
 4689SOL     OW25702   0.719   1.503   7.725  0.0721  0.6142  0.1503
 4689SOL    HW125703   0.627   1.488   7.749  0.3117 -0.2948  0.4816
 4689SOL    HW225704   0.705   1.566   7.654 -0.0055 -0.2138 -0.5638
 4690SOL     OW25705   3.435   4.507  14.443  0.0864  0.4015  0.1973
 4690SOL    HW125706   3.389   4.481  14.523 -0.4292 -0.8220 -0.4994
 4690SOL    HW225707   3.452   4.600  14.460 -0.9749  0.5442  0.4748
 4691SOL     OW25708   4.551   3.840   5.588  0.0622 -0.2443  0.5407
 4691SOL    HW125709   4.459   3.812   5.587 -0.7069  2.2953 -0.0685
 4691SOL    HW225710   4.543   3.934   5.568  3.3422  0.2157  1.4881
 4692SOL     OW25711   1.996   4.705   6.965 -0.1937 -0.0798  0.3915
 4692SOL    HW125712   2.016   0.041   6.904 -3.0637 -0.1322 -0.6332
 4692SOL    HW225713   2.075   4.691   7.017  0.3324  1.8570  0.1210
 4693SOL     OW25714   1.611   2.401   7.979  0.4483  0.0197 -0.4437
 4693SOL    HW125715   1.518   2.389   8.001  0.1729  0.7922 -1.1713
 4693SOL    HW225716   1.600   2.484   7.932  0.2574 -0.1619 -0.7255
 4694SOL     OW25717   1.993   0.763   3.144 -0.0321  0.4865 -0.1435
 4694SOL    HW125718   1.942   0.840   3.119 -0.8509  0.7004  2.2082
 4694SOL    HW225719   1.975   0.756   3.238 -0.9214  1.6763 -0.2297
 4695SOL     OW25720   0.689   3.959   1.703  0.3144 -0.3391 -0.3149
 4695SOL    HW125721   0.782   3.961   1.680 -0.0231 -0.0379 -1.6757
 4695SOL    HW225722   0.694   3.942   1.797 -1.9988 -0.5774 -0.2191
 4696SOL     OW25723   1.269   2.485   6.646  0.1092  0.8693 -0.5914
 4696SOL    HW125724   1.261   2.495   6.741 -2.3708  2.3244 -0.9669
 4696SOL    HW225725   1.254   2.576   6.620 -0.7416  0.5071 -1.3550
 4697SOL     OW25726   3.562   3.568   8.701 -0.2843 -0.1029 -0.1845
 4697SOL    HW125727   3.471   3.553   8.725 -0.2444 -0.5379 -0.3206
 4697SOL    HW225728   3.603   3.527   8.777 -0.0076 -0.2472 -0.4154
 4698SOL     OW25729   4.115   1.276   6.599 -0.1807  0.0213 -0.1244
 4698SOL    HW125730   4.150   1.267   6.510  0.5079  0.8481  0.0599
 4698SOL    HW225731   4.026   1.308   6.582 -0.2526 -0.2258 -0.2269
 4699SOL     OW25732   2.129   0.862   6.566  0.5147  0.6744  0.3117
 4699SOL    HW125733   2.178   0.810   6.629  0.3532 -0.0133 -0.1290
 4699SOL    HW225734   2.044   0.853   6.608  1.0721 -1.5689  0.9747
 4700SOL     OW25735   3.938   0.920   3.304 -0.2943 -0.2445 -0.5940
 4700SOL    HW125736   3.962   0.879   3.221  0.9226 -1.3808  0.3223
 4700SOL    HW225737   3.922   1.009   3.273 -0.6317 -0.6573 -1.6136
 4701SOL     OW25738   2.886   3.375   8.884  0.3212 -0.5709  0.2293
 4701SOL    HW125739   2.974   3.380   8.846  0.5861  1.5446  1.1315
 4701SOL    HW225740   2.838   3.417   8.812 -0.7363 -1.6471  0.2945
 4702SOL     OW25741   3.456   3.869   2.928  0.3414  0.5686  0.2125
 4702SOL    HW125742   3.515   3.794   2.934  1.4988  1.4038 -0.8095
 4702SOL    HW225743   3.385   3.829   2.979  0.1151  1.4767  0.6032
 4703SOL     OW25744   3.487   0.816   6.041 -0.4624  0.1116  0.7727
 4703SOL    HW125745   3.392   0.808   6.030 -0.3814 -0.5941  0.5487
 4703SOL    HW225746   3.496   0.775   6.127  1.1795 -0.5005  0.2978
 4704SOL     OW25747   3.507   3.228   9.698 -0.1733  0.4122 -0.1650
 4704SOL    HW125748   3.579   3.171   9.726 -1.0463  0.6418  2.5966
 4704SOL    HW225749   3.440   3.161   9.684 -0.5158  0.3999  1.5776
 4705SOL     OW25750   4.133   0.165  11.132 -0.0934  0.2610  0.2988
 4705SOL    HW125751   4.130   0.197  11.041 -1.4690 -3.6721 -1.0096
 4705SOL    HW225752   4.212   0.208  11.166  0.0897 -1.1537  1.6427
 4706SOL     OW25753   4.141   0.813   3.687  0.2896 -0.2537 -0.1553
 4706SOL    HW125754   4.172   0.898   3.655 -1.7227  0.6257  0.2405
 4706SOL    HW225755   4.218   0.760   3.666  0.2702  0.4908 -2.0393
 4707SOL     OW25756   0.165   1.097   7.915 -0.4950  0.2832  0.1665
 4707SOL    HW125757   0.187   1.023   7.971 -2.8297 -1.0336 -0.6465
 4707SOL    HW225758   0.188   1.061   7.830  0.6893 -1.5632  1.2910
 4708SOL     OW25759   0.344   0.315   2.264  0.6677  0.0859 -0.5794
 4708SOL    HW125760   0.333   0.403   2.229 -0.4687 -0.6819 -2.1293
 4708SOL    HW225761   0.325   0.255   2.192  0.2672 -0.0912 -0.3347
 4709SOL     OW25762   3.059   2.442   2.822 -0.2760 -0.4051  0.2424
 4709SOL    HW125763   3.009   2.506   2.772  0.0470 -2.1059 -2.3165
 4709SOL    HW225764   3.102   2.393   2.751 -1.8256 -1.6333  0.1372
 4710SOL     OW25765   0.042   2.488   6.902  0.2541 -0.1025 -0.2628
 4710SOL    HW125766   0.011   2.478   6.992  1.6955  2.4997  0.5219
 4710SOL    HW225767   4.706   2.543   6.869  0.0693 -0.7916 -1.0178
 4711SOL     OW25768   3.850   2.522  14.777 -0.2454  0.0411  0.6438
 4711SOL    HW125769   3.774   2.481  14.735  0.7068 -1.2383  0.1604
 4711SOL    HW225770   3.835   2.615  14.759 -0.1407  0.2188  1.4535
 4712SOL     OW25771   1.329   3.467  16.896 -0.1123 -0.1891  0.6771
 4712SOL    HW125772   1.344   3.383  16.939  2.4014  0.1885  0.5006
 4712SOL    HW225773   1.413   3.483  16.854 -0.2420  0.3233  0.6142
 4713SOL     OW25774   3.751   4.193   5.337  0.2203 -0.2235 -0.5523
 4713SOL    HW125775   3.728   4.266   5.394  1.4577  0.3923 -0.8496
 4713SOL    HW225776   3.800   4.137   5.396 -2.1527 -1.5104  0.1757
 4714SOL     OW25777   4.605   2.969   7.005 -0.1393 -0.0049 -0.0290
 4714SOL    HW125778   4.531   3.026   7.022 -1.0256 -1.3567  0.6056
 4714SOL    HW225779   4.569   2.921   6.931  0.9381 -1.2183  0.2220
 4715SOL     OW25780   0.611   2.945   2.889  0.0333  0.3163  0.0184
 4715SOL    HW125781   0.534   2.889   2.890  0.7763 -0.6841  0.4774
 4715SOL    HW225782   0.584   3.010   2.824 -0.0359 -0.7968 -1.0596
 4716SOL     OW25783   1.920   2.184   9.340 -0.2724  0.3447 -0.2081
 4716SOL    HW125784   1.936   2.270   9.301 -1.5409 -0.4352 -2.4681
 4716SOL    HW225785   1.843   2.159   9.289 -0.0457 -0.2184 -0.2736
 4717SOL     OW25786   1.379   1.484   9.347 -0.2637  0.1418  0.6811
 4717SOL    HW125787   1.469   1.459   9.327 -1.2965 -1.2538 -2.1615
 4717SOL    HW225788   1.343   1.401   9.380  0.7223 -1.0551 -1.2869
 4718SOL     OW25789   1.087   1.902   7.003 -0.8365  0.4808 -0.0698
 4718SOL    HW125790   1.170   1.949   6.995 -0.3866 -0.4921 -1.0865
 4718SOL    HW225791   1.073   1.906   7.098 -0.5069 -0.9960  0.0392
 4719SOL     OW25792   1.251   2.892   2.675 -0.6887  0.1405  0.3470
 4719SOL    HW125793   1.174   2.927   2.720 -1.1995 -1.0301  0.3811
 4719SOL    HW225794   1.217   2.832   2.608  0.8857 -1.8612  1.3099
 4720SOL     OW25795   2.253   0.916   5.554 -0.0464 -0.1095 -0.0888
 4720SOL    HW125796   2.252   0.943   5.462 -2.5030 -0.3739 -0.1392
 4720SOL    HW225797   2.236   0.822   5.555 -0.0880 -0.1315 -2.4809
 4721SOL     OW25798   2.298   0.826   4.069  0.0137  0.2768  0.1431
 4721SOL    HW125799   2.256   0.887   4.130  0.6069  1.3516 -0.5170
 4721SOL    HW225800   2.381   0.811   4.114  0.1911 -0.9917 -0.6092
 4722SOL     OW25801   2.939   1.430   2.980 -0.2078 -0.1705  0.3028
 4722SOL    HW125802   2.999   1.380   2.924 -0.5871 -0.5014  0.1902
 4722SOL    HW225803   3.000   1.480   3.034 -0.4500  1.2036 -0.6753
 4723SOL     OW25804   2.702   4.024   5.180 -0.0340 -0.0576 -0.2800
 4723SOL    HW125805   2.696   4.084   5.255  2.8135 -1.0459  0.7499
 4723SOL    HW225806   2.720   4.074   5.100 -2.7412  0.5208 -0.5109
 4724SOL     OW25807   4.401   0.548   2.487 -0.3032 -0.2190  0.4160
 4724SOL    HW125808   4.482   0.505   2.462 -0.8622 -0.5165 -0.8945
 4724SOL    HW225809   4.403   0.630   2.438 -0.2418 -2.0607 -2.6519
 4725SOL     OW25810   3.896   1.714  10.949 -0.1972  0.2879 -0.1497
 4725SOL    HW125811   3.985   1.726  10.916 -0.2969 -0.4718 -0.6868
 4725SOL    HW225812   3.896   1.650  11.020  1.8548  2.4778  1.8045
 4726SOL     OW25813   1.101   4.075  11.028 -0.6893  0.5378 -0.2151
 4726SOL    HW125814   1.144   3.995  10.997  1.7858  1.8280 -0.0562
 4726SOL    HW225815   1.146   4.094  11.110 -0.1584 -3.6231  0.4344
 4727SOL     OW25816   4.382   0.069   8.106  0.3225 -0.4155 -0.1365
 4727SOL    HW125817   4.292   0.064   8.075  0.8801  2.3319 -2.1932
 4727SOL    HW225818   4.410   0.024   8.026  0.8808 -0.9533  0.3618
 4728SOL     OW25819   0.432   0.348  14.574  0.7687  0.1292  0.6977
 4728SOL    HW125820   0.462   0.355  14.483 -1.8317  1.3434 -0.0366
 4728SOL    HW225821   0.429   0.441  14.596 -1.2849  0.1069  0.5228
 4729SOL     OW25822   3.189   2.960   3.913 -0.1955  0.0085  0.3952
 4729SOL    HW125823   3.196   3.036   3.970  0.4387  0.1859  0.0811
 4729SOL    HW225824   3.238   2.899   3.969 -0.8111 -0.7189  0.1524
 4730SOL     OW25825   1.746   4.179  10.309  0.5658 -0.0524  0.7616
 4730SOL    HW125826   1.777   4.121  10.378  0.8565 -1.1021 -0.2623
 4730SOL    HW225827   1.798   4.146  10.237  1.4128 -1.4595  2.0318
 4731SOL     OW25828   1.972   1.891   8.095  0.1176  0.3171 -0.2486
 4731SOL    HW125829   1.926   1.866   8.015  2.5429 -2.6680 -0.6918
 4731SOL    HW225830   1.919   1.858   8.167  0.1705 -0.0416 -0.3754
 4732SOL     OW25831   1.931   3.772  12.470 -0.5596  0.0491 -0.3902
 4732SOL    HW125832   1.933   3.851  12.416  3.0320  1.2131  1.4967
 4732SOL    HW225833   1.986   3.716  12.414  0.3929  2.6142 -2.0107
 4733SOL     OW25834   4.365   3.563   4.663 -0.2832  0.0839  0.3143
 4733SOL    HW125835   4.409   3.598   4.586 -1.5629  0.4281 -0.2542
 4733SOL    HW225836   4.291   3.621   4.683 -1.1090 -0.1732 -2.0411
 4734SOL     OW25837   2.992   3.963   2.707  0.5172  0.1227  0.3803
 4734SOL    HW125838   3.017   3.911   2.630 -0.4146 -1.0295  0.8612
 4734SOL    HW225839   3.064   3.937   2.765 -1.6899 -0.8900  2.6311
 4735SOL     OW25840   0.559   0.905   2.184 -0.3329 -0.2385  0.0769
 4735SOL    HW125841   0.563   0.997   2.157 -1.8981 -0.1766  0.0106
 4735SOL    HW225842   0.466   0.896   2.161 -0.7701  2.2240  0.8169
 4736SOL     OW25843   0.591   3.603   4.947 -0.5855 -0.4321 -0.4977
 4736SOL    HW125844   0.516   3.557   4.909  0.4137  0.5734 -3.7108
 4736SOL    HW225845   0.538   3.663   5.000  1.7834  0.0941  1.2452
 4737SOL     OW25846   3.523   2.861   5.004 -0.6554  0.0070  0.2840
 4737SOL    HW125847   3.434   2.851   4.970 -0.7612 -1.2000  0.9125
 4737SOL    HW225848   3.539   2.952   4.978  0.3517 -0.1039  0.5430
 4738SOL     OW25849   1.669   1.598   8.979 -0.0573  0.0650 -0.6566
 4738SOL    HW125850   1.712   1.516   9.003  0.7863  0.9674  0.8793
 4738SOL    HW225851   1.683   1.599   8.884 -0.7692 -0.0831 -0.7591
 4739SOL     OW25852   4.650   1.154   8.048  0.4002  0.2964 -0.4735
 4739SOL    HW125853   4.561   1.123   8.064  0.0832  1.1783 -0.5148
 4739SOL    HW225854   4.656   1.134   7.955 -0.2295 -1.4436 -0.1343
 4740SOL     OW25855   0.911   3.445  16.364  0.4188 -0.2258  0.3146
 4740SOL    HW125856   0.844   3.392  16.321 -0.7598  0.3051  1.4776
 4740SOL    HW225857   0.858   3.520  16.391  1.6796  1.0062 -0.6158
 4741SOL     OW25858   1.927   3.879   7.000  0.2308  0.5681 -0.2850
 4741SOL    HW125859   1.945   3.857   7.092  0.7966 -0.6388 -0.6826
 4741SOL    HW225860   1.837   3.910   7.009  0.2093  0.8062 -1.4084
 4742SOL     OW25861   3.736   3.152  15.107  0.3357  0.0432  0.0098
 4742SOL    HW125862   3.752   3.247  15.112 -2.9077  0.6402 -0.6032
 4742SOL    HW225863   3.654   3.146  15.058  0.2503  1.2343  0.0065
 4743SOL     OW25864   0.943   0.943   3.430 -0.2948 -0.0184 -0.0863
 4743SOL    HW125865   0.926   0.870   3.490 -1.1555  0.7982  0.6535
 4743SOL    HW225866   0.856   0.982   3.435 -0.6092 -0.7744  0.3477
 4744SOL     OW25867   1.162   4.129   5.882  0.0705  0.1251  0.1994
 4744SOL    HW125868   1.179   4.072   5.956 -1.3713  0.2286  0.6213
 4744SOL    HW225869   1.106   4.197   5.920  0.6116  0.0806  1.0617
 4745SOL     OW25870   4.035   4.488   5.916  0.5088 -0.0081  1.0141
 4745SOL    HW125871   4.010   4.574   5.950 -0.2902  0.5619 -0.9810
 4745SOL    HW225872   4.071   4.458   5.999  0.9474  1.4855  1.3658
 4746SOL     OW25873   1.045   1.589   8.821 -1.0346  0.4125  0.0551
 4746SOL    HW125874   1.021   1.667   8.771 -1.8115 -1.3822 -2.3644
 4746SOL    HW225875   1.110   1.548   8.764 -1.8623  0.2009 -0.7474
 4747SOL     OW25876   2.993   4.292   9.011 -0.2116  0.1189 -0.3016
 4747SOL    HW125877   2.915   4.265   9.059  0.8280  0.2755  1.4634
 4747SOL    HW225878   2.989   4.225   8.943 -0.3610 -1.3434  1.1535
 4748SOL     OW25879   0.562   2.288   7.953  0.4626 -0.5825 -0.1963
 4748SOL    HW125880   0.637   2.259   7.901  0.7493 -1.9676  0.9675
 4748SOL    HW225881   0.498   2.221   7.930 -0.1829 -0.3911  1.0296
 4749SOL     OW25882   2.020   2.960  11.378  0.4445 -0.1114  0.1212
 4749SOL    HW125883   2.009   2.987  11.287 -1.2944  1.2505  0.7352
 4749SOL    HW225884   1.929   2.976  11.403  0.3297 -0.5354 -0.0265
 4750SOL     OW25885   4.259   3.457   3.548 -0.5033  0.0950  0.4516
 4750SOL    HW125886   4.229   3.469   3.458 -0.8494  1.9165  0.8153
 4750SOL    HW225887   4.343   3.413   3.533  0.3608  1.7666  0.4204
 4751SOL     OW25888   4.326   4.115  15.588 -0.3190  0.1164 -0.2312
 4751SOL    HW125889   4.407   4.165  15.576 -0.2737  0.5084  1.6178
 4751SOL    HW225890   4.366   4.044  15.637 -3.3500  0.3197  2.5776
 4752SOL     OW25891   3.907   1.299   5.648 -0.5038  0.9626 -0.4617
 4752SOL    HW125892   3.844   1.366   5.673 -0.6226  0.8699 -0.5098
 4752SOL    HW225893   3.989   1.337   5.680  1.2482 -0.1361 -3.6133
 4753SOL     OW25894   3.439   2.594   5.769 -0.5486 -0.1185 -0.0350
 4753SOL    HW125895   3.464   2.658   5.702  0.4515 -0.8554 -0.3553
 4753SOL    HW225896   3.343   2.591   5.765 -0.4330 -1.8962 -1.4983
 4754SOL     OW25897   2.424   3.585   6.554  0.4266  0.4824  0.2125
 4754SOL    HW125898   2.490   3.558   6.617 -0.1142 -0.9541  0.1619
 4754SOL    HW225899   2.470   3.663   6.524  0.3224  0.1383 -0.8628
 4755SOL     OW25900   1.151   4.638  13.948 -0.8369  0.7700  0.6572
 4755SOL    HW125901   1.145   4.733  13.959 -1.7379  0.7488  0.2954
 4755SOL    HW225902   1.076   4.622  13.891 -0.7897 -1.6219  1.2908
 4756SOL     OW25903   0.753   1.723   1.815 -0.3246 -0.4393  0.0012
 4756SOL    HW125904   0.800   1.790   1.864  1.4909 -1.4697 -0.3341
 4756SOL    HW225905   0.661   1.743   1.834 -0.9473 -2.3701 -0.9507
 4757SOL     OW25906   4.586   0.777   3.903 -0.1381  0.0744 -0.2316
 4757SOL    HW125907   4.570   0.861   3.860 -2.6551  0.2706  1.0496
 4757SOL    HW225908   4.502   0.741   3.931 -0.5830  1.2861  0.0169
 4758SOL     OW25909   3.077   2.160   5.648  0.5642 -0.0063 -0.6808
 4758SOL    HW125910   3.114   2.185   5.564  3.2247  0.3790  0.6133
 4758SOL    HW225911   3.006   2.225   5.651 -2.0865 -2.8960 -1.1541
 4759SOL     OW25912   0.037   2.917  14.511 -0.1668  0.5234  0.0381
 4759SOL    HW125913   0.034   2.963  14.427 -1.0398  0.7076  0.1711
 4759SOL    HW225914   4.704   2.853  14.493 -2.0238  2.2714  0.8772
 4760SOL     OW25915   3.466   2.525   5.395  0.3499 -0.0408 -0.6750
 4760SOL    HW125916   3.428   2.613   5.393 -1.4213 -0.7228  1.8940
 4760SOL    HW225917   3.474   2.505   5.302 -0.0046 -3.4388  0.0162
 4761SOL     OW25918   4.546   3.041   4.647 -0.2860  0.0605  0.4778
 4761SOL    HW125919   4.584   3.035   4.559  3.0473  0.4766  1.8845
 4761SOL    HW225920   4.607   2.993   4.702  1.1663 -0.4723 -1.5786
 4762SOL     OW25921   3.592   1.998   3.784  0.0723 -0.4365 -0.2679
 4762SOL    HW125922   3.538   2.066   3.824 -1.5595 -1.9633  0.0758
 4762SOL    HW225923   3.677   2.021   3.822 -1.6353  1.9862  2.1248
 4763SOL     OW25924   4.495   3.634   8.266  0.4806  0.0636 -0.2209
 4763SOL    HW125925   4.519   3.723   8.293 -0.2127 -0.0109  0.6481
 4763SOL    HW225926   4.471   3.601   8.353  1.5560  0.2790  0.1493
 4764SOL     OW25927   3.345   4.564  11.453  0.0794 -0.9348  0.8537
 4764SOL    HW125928   3.265   4.511  11.449 -0.4380 -0.3446  2.9902
 4764SOL    HW225929   3.392   4.540  11.374  0.5949  0.1234  0.8417
 4765SOL     OW25930   2.850   2.208   4.960 -0.2253 -0.4435 -0.0533
 4765SOL    HW125931   2.813   2.290   4.930 -1.3655 -0.8200  0.3173
 4765SOL    HW225932   2.931   2.196   4.910  0.4198 -0.6565  1.0310
 4766SOL     OW25933   2.304   2.944   8.564 -0.2119  0.3846 -0.4986
 4766SOL    HW125934   2.345   2.967   8.480 -0.3283  0.2548 -0.5922
 4766SOL    HW225935   2.233   3.008   8.562 -0.1709  0.3983 -2.0440
 4767SOL     OW25936   3.895   0.309   0.894  0.3220 -0.3968 -0.6585
 4767SOL    HW125937   3.975   0.358   0.875  0.0277  0.5637  0.6227
 4767SOL    HW225938   3.842   0.367   0.948  1.6433 -0.3934  0.6238
 4768SOL     OW25939   2.851   3.096  15.561  0.2917  0.0893 -0.8886
 4768SOL    HW125940   2.761   3.070  15.543  0.7427 -2.5377  0.6500
 4768SOL    HW225941   2.865   3.173  15.506  0.7901  0.4784 -0.2072
 4769SOL     OW25942   1.484   1.645  13.816 -0.2675 -0.1703 -0.7248
 4769SOL    HW125943   1.499   1.555  13.847 -2.3385 -0.4126 -0.4054
 4769SOL    HW225944   1.420   1.635  13.745 -2.0797  1.5280  0.6686
 4770SOL     OW25945   0.564   4.168  13.480 -0.7190  0.2276 -0.7533
 4770SOL    HW125946   0.510   4.108  13.530  0.2641  0.5641  0.7102
 4770SOL    HW225947   0.498   4.237  13.482  0.6310  1.4826  0.1564
 4771SOL     OW25948   3.771   2.936   8.600 -0.1811 -0.2152  0.4156
 4771SOL    HW125949   3.794   2.845   8.619 -2.4045 -1.0636 -0.8928
 4771SOL    HW225950   3.745   2.927   8.508  2.8648 -0.1178 -0.4381
 4772SOL     OW25951   0.733   4.181  17.706  0.0052  0.3685 -0.1594
 4772SOL    HW125952   0.717   4.109   0.026  0.9945  1.1315  0.9901
 4772SOL    HW225953   0.821   4.210  17.729  0.8695 -1.3925 -1.2605
 4773SOL     OW25954   2.006   0.324   9.384 -0.8847  0.2486  0.0715
 4773SOL    HW125955   2.035   0.301   9.472  2.2322 -1.6265 -1.4765
 4773SOL    HW225956   2.087   0.303   9.339 -0.4168  1.1458  0.4870
 4774SOL     OW25957   2.491   4.422  10.755  0.2188  0.2183 -0.5962
 4774SOL    HW125958   2.486   4.330  10.732  2.7827  0.2326 -1.2576
 4774SOL    HW225959   2.580   4.436  10.722  0.6712 -1.2936  0.0327
 4775SOL     OW25960   1.306   1.816  16.957 -0.2614 -0.1857  0.2460
 4775SOL    HW125961   1.317   1.891  16.899  1.7461 -1.5907 -1.1793
 4775SOL    HW225962   1.227   1.849  17.000 -0.7520  0.4609 -1.1492
 4776SOL     OW25963   2.487   0.062   7.705  0.6116  0.6234  0.0723
 4776SOL    HW125964   2.512   4.706   7.708  0.3750  0.6252  2.4553
 4776SOL    HW225965   2.555   0.106   7.756  2.6857  0.7882 -2.8384
 4777SOL     OW25966   2.435   2.868   1.357 -0.4271 -0.5923 -0.2728
 4777SOL    HW125967   2.421   2.946   1.302  3.4494  0.7940  0.6967
 4777SOL    HW225968   2.493   2.914   1.418  0.3035  0.9321 -2.1046
 4778SOL     OW25969   2.188   0.200   6.948 -0.2464  0.2802 -0.1323
 4778SOL    HW125970   2.202   0.182   6.855 -0.9868 -1.7564  0.1569
 4778SOL    HW225971   2.252   0.147   6.996  0.1355  2.2539  1.5394
 4779SOL     OW25972   3.256   2.271   1.589  0.0593 -0.0732  0.1416
 4779SOL    HW125973   3.245   2.205   1.521  1.8439  0.5366 -0.7308
 4779SOL    HW225974   3.165   2.285   1.615 -0.1642 -1.0475 -0.1077
 4780SOL     OW25975   1.533   3.712  15.167  0.1257 -0.0441 -0.2106
 4780SOL    HW125976   1.470   3.648  15.135 -0.0191 -0.0235  0.0285
 4780SOL    HW225977   1.499   3.743  15.251  1.3939 -0.0629  0.3127
 4781SOL     OW25978   1.879   4.120   8.621 -0.2854  0.6129 -0.0013
 4781SOL    HW125979   1.800   4.173   8.617 -0.8106 -0.3165 -1.5482
 4781SOL    HW225980   1.939   4.187   8.589  0.7298 -0.6580 -0.7534
 4782SOL     OW25981   0.654   4.438   9.976  0.1902  0.0468 -0.4639
 4782SOL    HW125982   0.736   4.389   9.965  0.3922 -0.3561  2.6390
 4782SOL    HW225983   0.650   4.490   9.896 -1.7598  1.2241  0.3976
 4783SOL     OW25984   0.718   3.305  16.255 -0.1463 -0.0508 -0.0758
 4783SOL    HW125985   0.645   3.328  16.197 -2.5064 -1.2958  2.4168
 4783SOL    HW225986   0.682   3.264  16.334 -0.7802 -1.8485 -1.2893
 4784SOL     OW25987   3.095   2.468  17.302  1.0578 -0.0758  0.3162
 4784SOL    HW125988   3.019   2.421  17.267 -1.8531  3.1460  2.3151
 4784SOL    HW225989   3.057   2.494  17.386  1.0849 -0.3649  0.4188
 4785SOL     OW25990   3.581   0.867  16.152  0.3053  0.2045  0.4564
 4785SOL    HW125991   3.622   0.949  16.181  1.8949 -0.4268 -0.0552
 4785SOL    HW225992   3.493   0.900  16.173  0.5844  2.5825 -2.0500
 4786SOL     OW25993   2.003   4.214  13.997  0.1783  0.1897  0.5741
 4786SOL    HW125994   2.025   4.142  13.938 -1.6903 -0.2259  0.3778
 4786SOL    HW225995   2.084   4.218  14.046  2.0446 -0.2256 -2.4817
 4787SOL     OW25996   0.099   4.012   3.264  0.6865  0.0497  0.6065
 4787SOL    HW125997   0.085   3.977   3.176  1.7710  1.6432 -0.1878
 4787SOL    HW225998   0.012   4.013   3.303  1.0349  0.0977  1.3942
 4788SOL     OW25999   3.572   1.372   7.833  0.2542 -0.2966  0.0904
 4788SOL    HW126000   3.522   1.392   7.912 -1.0874  0.2942 -0.9011
 4788SOL    HW226001   3.511   1.365   7.760  2.3953  1.0622 -1.8194
 4789SOL     OW26002   4.436   4.387   7.444  0.0954  0.0467 -0.0173
 4789SOL    HW126003   4.468   4.351   7.526 -1.0408  0.0086  0.4109
 4789SOL    HW226004   4.367   4.442   7.479  0.8687  0.9761  0.0420
 4790SOL     OW26005   1.322   0.210   6.223  0.5117 -0.3156  0.1425
 4790SOL    HW126006   1.274   0.133   6.191  1.8509 -1.0648 -0.1088
 4790SOL    HW226007   1.257   0.251   6.280 -1.1811 -2.1643 -0.4738
 4791SOL     OW26008   3.256   3.389   9.042 -0.0063  0.4247  0.0829
 4791SOL    HW126009   3.185   3.329   9.020 -0.8891  1.1024  1.0908
 4791SOL    HW226010   3.231   3.419   9.130 -2.1953  2.9481 -1.3764
 4792SOL     OW26011   0.832   4.569   4.703  0.6790  0.0822  0.0082
 4792SOL    HW126012   0.858   4.580   4.795 -1.1011  2.5236  0.2439
 4792SOL    HW226013   0.916   4.561   4.657 -0.2960 -1.7491 -1.4094
 4793SOL     OW26014   0.951   4.082   4.584  0.6599  0.1899  0.0400
 4793SOL    HW126015   0.904   4.153   4.540  0.8591 -0.3281 -0.9896
 4793SOL    HW226016   0.897   4.009   4.556 -1.6134  2.1570 -0.7495
 4794SOL     OW26017   0.444   1.094  14.029  0.1436 -0.1853 -0.0235
 4794SOL    HW126018   0.456   1.099  13.934 -2.6567  1.8052 -0.2630
 4794SOL    HW226019   0.377   1.161  14.037 -0.9858 -1.4990  1.5112
 4795SOL     OW26020   4.090   3.117   2.216 -0.3759 -0.2141 -0.2760
 4795SOL    HW126021   4.098   3.211   2.197  0.0172 -0.8133 -2.9799
 4795SOL    HW226022   4.157   3.078   2.160  1.5109  1.3408  0.8908
 4796SOL     OW26023   3.749   4.233   8.223 -0.0034 -0.4769  0.3077
 4796SOL    HW126024   3.725   4.202   8.136  1.8978  1.1272 -0.7807
 4796SOL    HW226025   3.815   4.302   8.212  1.2553 -1.3605  2.2187
 4797SOL     OW26026   1.008   3.439   7.627 -0.5817 -0.2098 -0.4707
 4797SOL    HW126027   1.075   3.480   7.573 -1.2550  0.3621 -0.8881
 4797SOL    HW226028   1.059   3.364   7.656 -0.2832 -0.0671 -0.6302
 4798SOL     OW26029   3.467   4.720   4.538 -0.4506 -0.4364  0.0647
 4798SOL    HW126030   3.374   4.705   4.552 -1.2182  1.0895 -3.4858
 4798SOL    HW226031   3.487   0.048   4.607  3.4257 -0.2820 -1.1813
 4799SOL     OW26032   4.116   1.163  12.760 -0.1776  0.6143 -0.0993
 4799SOL    HW126033   4.207   1.188  12.773  0.3254 -0.5254 -1.4430
 4799SOL    HW226034   4.118   1.183  12.666  2.8227 -1.5721 -0.4864
 4800SOL     OW26035   2.187   2.539   2.226 -0.4868  0.1436 -0.8331
 4800SOL    HW126036   2.105   2.490   2.232 -2.1268  2.9100 -0.7798
 4800SOL    HW226037   2.249   2.468   2.208 -0.3927 -0.5639  2.2012
 4801SOL     OW26038   2.508   3.760   8.287  0.6394  0.0790  0.3482
 4801SOL    HW126039   2.456   3.794   8.359  0.4552 -1.9762  1.1800
 4801SOL    HW226040   2.561   3.834   8.256  0.0803  0.3006 -0.0682
 4802SOL     OW26041   0.005   2.976   2.847  0.1484 -0.3491 -0.1950
 4802SOL    HW126042   4.668   2.971   2.786  0.7449  0.1671 -0.9488
 4802SOL    HW226043   0.007   2.898   2.902 -1.1061 -0.2582 -0.0124
 4803SOL     OW26044   1.025   2.395   2.839 -0.5548 -0.4156 -0.7825
 4803SOL    HW126045   1.090   2.355   2.781  1.3209  0.4147  0.7251
 4803SOL    HW226046   1.083   2.413   2.914 -0.1528  0.6910 -1.3599
 4804SOL     OW26047   3.575   4.614  17.586  0.5872 -0.0607  0.6115
 4804SOL    HW126048   3.569   4.538  17.644 -0.3442  0.6243  1.4213
 4804SOL    HW226049   3.670   4.627  17.584  0.8814 -2.5316 -1.4753
 4805SOL     OW26050   1.563   3.436   0.099  0.1049  0.1261 -0.2608
 4805SOL    HW126051   1.477   3.404   0.124  0.6387 -0.5744  0.6926
 4805SOL    HW226052   1.584   3.494   0.173  0.3379  0.9994 -1.0052
 4806SOL     OW26053   0.281   4.622   3.980 -0.8031 -0.1468  0.2116
 4806SOL    HW126054   0.226   4.669   3.917 -3.4818 -3.2622  0.2491
 4806SOL    HW226055   0.210   4.620   4.044 -0.8310  2.2104  0.2564
 4807SOL     OW26056   3.898   0.333   2.552 -0.2298  0.2036 -0.3113
 4807SOL    HW126057   3.826   0.282   2.589 -1.5865  3.8930  2.0787
 4807SOL    HW226058   3.960   0.337   2.625  1.3668  2.5961 -1.8154
 4808SOL     OW26059   1.541   4.097  14.399  0.2484  0.1380 -0.0745
 4808SOL    HW126060   1.504   4.164  14.342 -1.6868 -0.1882  0.8022
 4808SOL    HW226061   1.614   4.056  14.353  1.0122  3.1560 -1.5208
 4809SOL     OW26062   4.051   4.036   2.920 -0.4619  0.0058  0.0870
 4809SOL    HW126063   4.095   4.078   2.846  2.3658  0.0446  1.8076
 4809SOL    HW226064   4.011   3.959   2.881 -1.3198 -0.4649  1.8708
 4810SOL     OW26065   4.174   3.678   6.839 -0.1778 -0.0755  0.1967
 4810SOL    HW126066   4.174   3.682   6.934  0.3932 -1.6135  0.2653
 4810SOL    HW226067   4.183   3.769   6.810  1.3880 -0.3203 -0.0814
 4811SOL     OW26068   1.315   0.995   6.888 -0.1473  0.4044 -0.7116
 4811SOL    HW126069   1.243   0.999   6.951 -0.7003 -0.4748 -1.2889
 4811SOL    HW226070   1.382   0.931   6.910 -2.1618 -1.1329  0.9499
 4812SOL     OW26071   3.504   3.237   8.450  0.4429  0.0264 -0.0381
 4812SOL    HW126072   3.540   3.224   8.362 -0.1876  0.0958 -0.3030
 4812SOL    HW226073   3.409   3.236   8.439  0.2746 -0.9824  1.4387
 4813SOL     OW26074   3.587   3.261   2.441 -0.1054 -0.8523  0.1965
 4813SOL    HW126075   3.617   3.236   2.354  0.2626  0.3801 -0.0211
 4813SOL    HW226076   3.533   3.184   2.462  1.2637 -1.3659  1.8053
 4814SOL     OW26077   2.687   4.350  10.202 -0.1528  0.7141  0.3978
 4814SOL    HW126078   2.648   4.436  10.211  0.3395  0.8820  0.9330
 4814SOL    HW226079   2.734   4.357  10.119 -1.2066 -1.7843 -0.4102
 4815SOL     OW26080   0.449   1.619   8.943 -0.4212 -0.7770 -0.4096
 4815SOL    HW126081   0.442   1.714   8.934  0.5424 -0.5386  1.2644
 4815SOL    HW226082   0.453   1.583   8.855  0.5693  0.3677 -0.8181
 4816SOL     OW26083   2.692   2.612   7.693  0.3264  0.3362  0.4613
 4816SOL    HW126084   2.631   2.564   7.748  0.0886 -0.9945 -0.9527
 4816SOL    HW226085   2.768   2.624   7.750  1.5012  0.2279 -1.0736
 4817SOL     OW26086   3.645   4.188   7.497  0.2162  0.0329  0.1864
 4817SOL    HW126087   3.730   4.160   7.531 -0.1806  1.1729  2.1331
 4817SOL    HW226088   3.661   4.157   7.408  0.8871 -0.9107  0.6440
 4818SOL     OW26089   0.018   3.022   6.533 -0.0583 -0.2681  0.5712
 4818SOL    HW126090   0.064   3.072   6.465 -0.3359 -0.8892 -0.0755
 4818SOL    HW226091   4.663   3.036   6.505  0.9570 -0.4271 -2.7485
 4819SOL     OW26092   3.553   1.914   5.046  0.1004 -0.2878  0.3138
 4819SOL    HW126093   3.615   1.940   5.115  1.6930  0.6781 -1.4942
 4819SOL    HW226094   3.624   1.898   4.984  1.1943 -0.1728  1.5104
 4820SOL     OW26095   0.466   1.538   6.983  0.0410  0.2729 -0.3352
 4820SOL    HW126096   0.459   1.578   6.896 -1.7392 -0.4602 -0.5146
 4820SOL    HW226097   0.511   1.605   7.035  0.9909  1.0677 -2.1528
 4821SOL     OW26098   4.307   2.696  12.277  0.5440  0.2459  0.1862
 4821SOL    HW126099   4.346   2.775  12.240  2.0095 -0.2086  0.7470
 4821SOL    HW226100   4.368   2.692  12.351  0.3131 -0.4581  0.3390
 4822SOL     OW26101   1.206   1.181   3.209  0.0073 -0.5524  0.0528
 4822SOL    HW126102   1.115   1.172   3.180  0.0241 -2.4530  0.6135
 4822SOL    HW226103   1.240   1.107   3.158 -0.1552 -0.4455 -0.2147
 4823SOL     OW26104   0.016   2.299   5.041  0.4293 -0.6794 -0.2688
 4823SOL    HW126105   0.039   2.392   5.047 -0.9459 -0.3306 -0.5371
 4823SOL    HW226106   4.661   2.308   5.070  0.7937  0.8142  0.4188
 4824SOL     OW26107   0.455   4.385  16.478 -0.0568  0.2895  0.1714
 4824SOL    HW126108   0.523   4.389  16.546  0.5981  1.8904 -0.5698
 4824SOL    HW226109   0.496   4.450  16.421 -0.8867  0.4745 -0.2177
 4825SOL     OW26110   0.503   4.283   2.248  0.0733 -0.4215  0.3446
 4825SOL    HW126111   0.536   4.196   2.224  0.0158 -0.1385 -0.7773
 4825SOL    HW226112   0.582   4.332   2.223 -0.0930  0.9825  2.6675
 4826SOL     OW26113   2.305   4.528   6.819 -0.4844 -0.1167 -0.2265
 4826SOL    HW126114   2.282   4.621   6.817 -0.4180 -0.1170 -0.7960
 4826SOL    HW226115   2.336   4.491   6.736 -0.0827 -1.7570  0.6505
 4827SOL     OW26116   2.132   4.295   9.055 -0.0728 -0.4524  0.1121
 4827SOL    HW126117   2.091   4.359   9.113  1.9795 -0.1374  1.2290
 4827SOL    HW226118   2.125   4.342   8.972 -0.3004 -1.7886 -0.6338
 4828SOL     OW26119   0.802   4.684   8.049 -0.8820 -0.3033  0.4006
 4828SOL    HW126120   0.887   4.706   8.086 -0.1756 -1.2797 -0.6661
 4828SOL    HW226121   0.818   4.683   7.955 -1.6866  0.8707  0.2545
 4829SOL     OW26122   4.449   1.857   7.579  0.4295 -0.0797 -0.3326
 4829SOL    HW126123   4.511   1.807   7.633 -0.2258 -0.8623 -0.3076
 4829SOL    HW226124   4.500   1.935   7.557 -0.5833  0.7577  0.3133
 4830SOL     OW26125   2.608   3.010   4.499 -0.0340 -0.0184  0.2123
 4830SOL    HW126126   2.648   2.933   4.459  1.3729  0.7139  0.2344
 4830SOL    HW226127   2.516   2.983   4.503 -0.6973  1.9067 -2.4233
 4831SOL     OW26128   2.738   0.875   3.566 -0.2162  0.1008 -0.3805
 4831SOL    HW126129   2.649   0.867   3.531  0.3375  0.0272 -1.7481
 4831SOL    HW226130   2.717   0.931   3.641  1.0186 -1.5063  1.1859
 4832SOL     OW26131   4.150   0.739   8.565  0.1996  0.5297 -0.0074
 4832SOL    HW126132   4.076   0.678   8.561  0.3248  0.2832  1.5648
 4832SOL    HW226133   4.225   0.690   8.598  1.1845  1.5234 -0.7577
 4833SOL     OW26134   3.195   0.781   2.165  0.3139  0.0785 -0.1002
 4833SOL    HW126135   3.279   0.790   2.120 -0.1141 -0.4710 -1.0332
 4833SOL    HW226136   3.204   0.866   2.208 -0.1836  0.4073 -0.6367
 4834SOL     OW26137   3.924   3.636  11.805  0.1956  0.5935  0.1063
 4834SOL    HW126138   3.908   3.593  11.721  0.1258 -0.0175  0.4263
 4834SOL    HW226139   3.886   3.723  11.795 -0.1831  0.2903 -1.0599
 4835SOL     OW26140   3.410   1.798   1.375 -0.0615 -0.0121 -0.0701
 4835SOL    HW126141   3.340   1.733   1.381 -0.8661  0.9395  0.8371
 4835SOL    HW226142   3.490   1.746   1.373  0.0419  0.0644  2.0680
 4836SOL     OW26143   0.434   4.688   9.057 -0.2734 -0.3276 -0.2502
 4836SOL    HW126144   0.419   4.682   8.962  2.0584  0.4404 -0.6724
 4836SOL    HW226145   0.496   4.616   9.070 -1.1104 -0.8564  0.8296
 4837SOL     OW26146   2.581   1.288  16.133 -0.1616  0.2264 -0.3880
 4837SOL    HW126147   2.645   1.303  16.063 -0.0165 -0.1872 -0.3462
 4837SOL    HW226148   2.596   1.363  16.191 -0.7968 -0.6015  0.8593
 4838SOL     OW26149   4.669   3.496  12.795  0.4279  0.5432  0.0121
 4838SOL    HW126150   4.722   3.506  12.874  0.1715 -0.3789  0.3028
 4838SOL    HW226151   4.710   3.567  12.745  1.7785 -1.4665 -1.7334
 4839SOL     OW26152   1.211   3.296   8.651 -0.2628 -1.0176 -0.1385
 4839SOL    HW126153   1.210   3.350   8.572  1.2121 -0.3018  0.3356
 4839SOL    HW226154   1.135   3.245   8.623 -0.8983 -0.3999  0.4610
 4840SOL     OW26155   4.010   2.825   3.805  0.0892  0.2022  0.2788
 4840SOL    HW126156   4.101   2.838   3.834 -0.2868 -0.6106  1.7652
 4840SOL    HW226157   3.980   2.911   3.834 -0.3610 -0.0703  0.6102
 4841SOL     OW26158   4.299   2.509   6.209 -0.1647  0.0600 -0.2168
 4841SOL    HW126159   4.333   2.425   6.177 -0.2279 -0.1186  0.1820
 4841SOL    HW226160   4.378   2.561   6.224 -0.8551  0.9890  0.2016
 4842SOL     OW26161   0.969   2.790   7.130 -0.2098  0.3000 -0.3195
 4842SOL    HW126162   0.928   2.869   7.094 -0.3979 -1.2076 -3.4048
 4842SOL    HW226163   0.972   2.808   7.224 -2.1442  0.0031 -0.1927
 4843SOL     OW26164   3.117   3.708   8.739 -0.4510  0.2904  0.1054
 4843SOL    HW126165   3.087   3.620   8.716 -3.6796  1.2172  0.8397
 4843SOL    HW226166   3.157   3.731   8.655 -0.5786  0.9728  0.2372
 4844SOL     OW26167   2.537   2.405   7.163  0.1396  0.2550 -0.0487
 4844SOL    HW126168   2.458   2.412   7.110 -1.0109 -2.0552  1.3742
 4844SOL    HW226169   2.515   2.351   7.239  1.4299  0.0823  0.2061
 4845SOL     OW26170   2.217   3.887   9.190 -0.1735 -0.2489  0.1313
 4845SOL    HW126171   2.126   3.896   9.163 -0.3582  1.1231  1.1724
 4845SOL    HW226172   2.201   3.829   9.264  0.6810 -1.2802 -0.5056
 4846SOL     OW26173   3.178   3.562   4.145 -0.0098 -0.5027  0.4427
 4846SOL    HW126174   3.160   3.480   4.099 -1.6654  1.1581 -1.9058
 4846SOL    HW226175   3.191   3.610   4.063 -0.8133 -0.3692  0.3888
 4847SOL     OW26176   3.258   2.427   7.371  0.5768  0.2152 -0.3372
 4847SOL    HW126177   3.322   2.387   7.430  1.9342  0.9367 -1.3151
 4847SOL    HW226178   3.177   2.413   7.419  0.2534  0.4561 -0.8087
 4848SOL     OW26179   3.357   2.648   1.741  0.1997  0.3562 -0.7387
 4848SOL    HW126180   3.430   2.662   1.681 -0.2091 -0.0954 -1.3552
 4848SOL    HW226181   3.379   2.564   1.782 -0.7180 -0.5401 -2.0694
 4849SOL     OW26182   3.288   1.522   5.096 -0.6182  0.6085  0.1825
 4849SOL    HW126183   3.253   1.564   5.017  1.1774  0.1001 -0.8816
 4849SOL    HW226184   3.265   1.431   5.079 -1.3914  0.5544  1.5320
 4850SOL     OW26185   3.548   2.569   6.185  0.4659  0.1721 -0.3756
 4850SOL    HW126186   3.619   2.587   6.247 -0.0940  0.3432  0.2197
 4850SOL    HW226187   3.524   2.656   6.153  0.8341  1.0876  1.8455
 4851SOL     OW26188   1.671   3.605   8.202  0.7061  0.5245 -0.1274
 4851SOL    HW126189   1.627   3.668   8.145 -2.3786 -1.2911  0.2935
 4851SOL    HW226190   1.591   3.576   8.246  0.4773 -1.0797 -1.6227
 4852SOL     OW26191   4.728   3.178   8.325  0.1694 -0.7320  0.3001
 4852SOL    HW126192   0.058   3.156   8.259  0.9614  2.6252 -0.0498
 4852SOL    HW226193   0.046   3.217   8.394 -0.2042  0.0649  0.1467
 4853SOL     OW26194   4.722   1.147   6.894  0.3539  0.1017  0.6055
 4853SOL    HW126195   0.046   1.163   6.820 -0.5140 -0.7981 -0.2854
 4853SOL    HW226196   4.655   1.208   6.863  1.2758  1.9738  2.3256
 4854SOL     OW26197   3.395   2.845   3.241 -0.3642 -0.2891  0.0284
 4854SOL    HW126198   3.443   2.765   3.265  0.1327 -0.0663 -0.2220
 4854SOL    HW226199   3.309   2.821   3.276 -0.6136  2.2678  1.1777
 4855SOL     OW26200   0.361   1.270   5.918 -0.1949  0.0200  0.4967
 4855SOL    HW126201   0.340   1.234   6.004 -1.0616 -0.0895  0.2418
 4855SOL    HW226202   0.280   1.285   5.869 -1.5911 -0.1405  2.7520
 4856SOL     OW26203   0.886   4.106   5.095  0.4593  0.3318 -0.0740
 4856SOL    HW126204   0.838   4.028   5.069  0.9917  0.4865 -1.5461
 4856SOL    HW226205   0.816   4.169   5.113 -1.7277 -2.5574  1.3695
 4857SOL     OW26206   1.102   0.457   2.492  0.4912 -0.4029 -0.3800
 4857SOL    HW126207   1.082   0.546   2.462 -2.4494 -1.3125 -1.1371
 4857SOL    HW226208   1.055   0.454   2.575 -0.6520 -1.4092 -1.0590
 4858SOL     OW26209   1.311   3.930   4.242  0.1840 -0.6689 -0.0668
 4858SOL    HW126210   1.269   3.965   4.320 -2.4749 -1.5986 -1.0636
 4858SOL    HW226211   1.231   3.890   4.208 -1.0327  0.1343  1.8892
 4859SOL     OW26212   2.424   4.165   7.064  0.3107  0.0158 -0.0877
 4859SOL    HW126213   2.367   4.208   7.000  1.7031  0.2711 -1.1381
 4859SOL    HW226214   2.373   4.087   7.087  2.2949 -1.2050  0.1617
 4860SOL     OW26215   3.358   3.598   6.892  0.0426 -0.1546 -0.4480
 4860SOL    HW126216   3.399   3.684   6.880  0.3461  0.0724  2.1394
 4860SOL    HW226217   3.310   3.608   6.810  1.7232  0.7943 -1.3152
 4861SOL     OW26218   4.279   3.223   0.444  0.5005  0.6558 -0.1263
 4861SOL    HW126219   4.364   3.181   0.431  0.9873  1.4003  0.5907
 4861SOL    HW226220   4.242   3.164   0.509  0.9203  0.0403 -0.4413
 4862SOL     OW26221   3.151   3.579   7.801 -0.0453  0.5364 -0.1444
 4862SOL    HW126222   3.097   3.657   7.787 -0.6928 -0.2074 -1.7343
 4862SOL    HW226223   3.156   3.530   7.720 -1.9248  1.1095 -0.5996
 4863SOL     OW26224   3.043   1.304   0.095  1.0890 -0.4605  0.5107
 4863SOL    HW126225   2.978   1.234   0.103 -0.9410  1.4973  1.2325
 4863SOL    HW226226   3.129   1.264   0.108  0.4517 -1.8170  0.5472
 4864SOL     OW26227   3.593   3.406  17.727 -0.2243  0.0259  0.0165
 4864SOL    HW126228   3.647   3.349   0.041  0.9146 -0.9342 -2.1047
 4864SOL    HW226229   3.638   3.413  17.642  0.1033 -1.2195  0.0771
 4865SOL     OW26230   2.058   3.150   8.049 -0.6050  0.2307  0.1828
 4865SOL    HW126231   2.099   3.228   8.085 -0.9484  0.8699 -0.8208
 4865SOL    HW226232   2.130   3.114   7.997  1.2333  3.2359  0.6712
 4866SOL     OW26233   0.102   2.648   4.322 -0.3000 -0.1152  0.0133
 4866SOL    HW126234   0.031   2.661   4.384 -0.8972  1.0649 -0.9237
 4866SOL    HW226235   0.148   2.587   4.380  1.3523  2.6849  1.6734
 4867SOL     OW26236   2.990   1.334   8.208 -0.1374 -0.1643 -0.0039
 4867SOL    HW126237   2.909   1.330   8.258  0.7268 -0.5846  1.3507
 4867SOL    HW226238   3.048   1.312   8.281  0.1023  0.4753  0.0057
 4868SOL     OW26239   0.205   0.828   5.221 -0.4102 -0.2318  0.0851
 4868SOL    HW126240   0.163   0.750   5.187  0.2433 -0.2449 -0.7023
 4868SOL    HW226241   0.134   0.854   5.280  1.0787  0.4977  1.5628
 4869SOL     OW26242   2.368   4.635  14.699  0.1500 -0.1501 -0.2445
 4869SOL    HW126243   2.282   4.677  14.708 -0.5697 -1.3006 -1.5916
 4869SOL    HW226244   2.417   4.704  14.654 -0.2245  1.2317  1.4774
 4870SOL     OW26245   2.036   2.248  11.031 -0.1513 -0.0590 -0.4028
 4870SOL    HW126246   2.032   2.260  10.936  1.1317  0.5358 -0.3906
 4870SOL    HW226247   1.977   2.319  11.059  0.6176  0.2455  0.4414
 4871SOL     OW26248   3.326   3.689   2.620  0.0320  0.3745  0.1352
 4871SOL    HW126249   3.392   3.621   2.632 -3.0835 -2.9465 -1.5546
 4871SOL    HW226250   3.243   3.642   2.620  0.0090  0.3960  2.3680
 4872SOL     OW26251   2.844   2.089  14.572  0.3993 -0.1765 -0.5324
 4872SOL    HW126252   2.800   2.040  14.503 -1.0980  1.7113 -0.9104
 4872SOL    HW226253   2.891   2.147  14.514  0.2587 -0.1578 -0.6277
 4873SOL     OW26254   2.144   0.628   3.577  0.3445  0.0624 -0.2798
 4873SOL    HW126255   2.119   0.546   3.621  0.4796 -0.6944 -1.6082
 4873SOL    HW226256   2.175   0.669   3.657 -0.6137  0.1404  0.0583
 4874SOL     OW26257   2.929   4.380   5.350  0.5282 -0.1835  0.0061
 4874SOL    HW126258   2.957   4.466   5.382  0.0212  0.2810 -0.7739
 4874SOL    HW226259   2.943   4.389   5.255  0.6079  2.8945  0.3108
 4875SOL     OW26260   0.986   3.740   0.774  0.3588  0.0943 -0.3888
 4875SOL    HW126261   0.913   3.719   0.716 -2.3329  1.9534  2.3039
 4875SOL    HW226262   1.024   3.811   0.722  1.8490  0.4921  1.2815
 4876SOL     OW26263   0.205   0.836   8.015 -0.4142  0.4527 -0.0206
 4876SOL    HW126264   0.168   0.755   8.050  1.4713 -0.0393  0.8431
 4876SOL    HW226265   0.293   0.804   7.994 -0.4200  0.0254  0.6005
 4877SOL     OW26266   1.465   4.064   6.288  0.2468  0.6958 -0.2008
 4877SOL    HW126267   1.432   4.028   6.370 -1.6576  0.5857 -1.0149
 4877SOL    HW226268   1.411   4.143   6.284 -3.0316 -1.5073  1.5031
 4878SOL     OW26269   3.938   2.671  10.268  0.2467  0.0571 -0.5174
 4878SOL    HW126270   3.990   2.746  10.297 -0.6200  0.5565 -0.2476
 4878SOL    HW226271   3.926   2.674  10.173 -1.4305 -1.5156 -0.3764
 4879SOL     OW26272   4.160   1.789   7.281  0.4140 -0.4369  0.1428
 4879SOL    HW126273   4.090   1.853   7.276 -1.2412 -2.3504 -1.5177
 4879SOL    HW226274   4.205   1.823   7.358 -1.5953  1.8490  0.2903
 4880SOL     OW26275   0.657   4.733   1.519  0.4426 -0.3499  0.3791
 4880SOL    HW126276   0.676   0.085   1.486 -0.7397 -0.0003  0.6016
 4880SOL    HW226277   0.578   0.013   1.571 -1.1604 -0.7359 -1.9618
 4881SOL     OW26278   0.378   1.898  14.617 -0.0419 -0.6181 -0.1982
 4881SOL    HW126279   0.393   1.905  14.711 -1.0115 -0.1269 -0.0812
 4881SOL    HW226280   0.287   1.871  14.607 -0.2178 -0.2067  0.3169
 4882SOL     OW26281   1.019   3.282   2.083 -0.6700  0.2725  0.4478
 4882SOL    HW126282   0.954   3.224   2.123 -1.3515  0.0200 -1.0112
 4882SOL    HW226283   1.094   3.277   2.142 -1.4837 -0.9071  1.3839
 4883SOL     OW26284   0.053   0.243   4.293 -0.6135 -0.4814 -0.1247
 4883SOL    HW126285   0.044   0.338   4.287  1.4890 -0.3652 -1.3424
 4883SOL    HW226286   0.030   0.225   4.202 -2.9235  1.2835  0.1000
 4884SOL     OW26287   3.262   2.425  15.619  0.2604 -0.0620 -0.0134
 4884SOL    HW126288   3.350   2.448  15.588 -0.2441  1.1803 -0.5152
 4884SOL    HW226289   3.259   2.330  15.605 -1.8365  0.3533 -2.3011
 4885SOL     OW26290   0.071   2.414   8.128 -0.3831 -0.2084  0.0668
 4885SOL    HW126291   0.021   2.452   8.201  0.9319  0.5992  0.5508
 4885SOL    HW226292   0.106   2.499   8.098  1.4214 -1.1863 -0.5909
 4886SOL     OW26293   4.174   0.314  10.441 -0.3117 -0.5580 -0.7879
 4886SOL    HW126294   4.192   0.322  10.347  0.4117  0.2555 -0.5768
 4886SOL    HW226295   4.135   0.227  10.448 -1.1828 -0.1734 -0.8472
 4887SOL     OW26296   1.739   4.104   9.118 -0.2351 -0.0853  0.3628
 4887SOL    HW126297   1.801   4.125   9.048  0.0801 -2.1258  0.0285
 4887SOL    HW226298   1.672   4.063   9.063  1.4726 -0.2685 -1.5924
 4888SOL     OW26299   0.297   1.792  13.985  0.6947 -0.0392  0.2187
 4888SOL    HW126300   0.295   1.867  14.044 -2.0890  1.2799 -1.5728
 4888SOL    HW226301   0.265   1.718  14.037 -1.5837 -1.0150 -2.5129
 4889SOL     OW26302   1.176   2.967   5.255  0.8407 -0.1029 -0.2655
 4889SOL    HW126303   1.175   3.048   5.305  0.0044  0.2666 -0.8720
 4889SOL    HW226304   1.198   2.902   5.322  3.6659  1.5550  0.4022
 4890SOL     OW26305   3.682   4.564   4.529 -0.1070 -0.0793  0.2110
 4890SOL    HW126306   3.722   4.611   4.456 -1.1953 -1.2437 -1.1325
 4890SOL    HW226307   3.601   4.614   4.524 -0.4099 -0.2195  3.4652
 4891SOL     OW26308   0.204   2.032   3.186 -0.4126  0.3174  0.3390
 4891SOL    HW126309   0.180   1.999   3.272 -0.4748 -1.8012 -0.4906
 4891SOL    HW226310   0.283   1.979   3.178 -1.4989 -1.3132  0.4600
 4892SOL     OW26311   3.656   3.482  11.934 -0.0649 -0.2020  0.0357
 4892SOL    HW126312   3.746   3.505  11.911 -0.5560  0.4800 -1.2060
 4892SOL    HW226313   3.666   3.451  12.024 -0.6113  0.5360  0.3469
 4893SOL     OW26314   4.210   4.084   7.441  0.0531 -0.0091 -0.5005
 4893SOL    HW126315   4.293   4.129   7.423 -0.0050  0.0279 -0.6780
 4893SOL    HW226316   4.228   3.996   7.409  0.9116  0.0900 -0.3072
 4894SOL     OW26317   0.213   0.988   1.705  0.4621  0.4305  0.1157
 4894SOL    HW126318   0.278   0.928   1.667  1.2819  1.0034  0.6065
 4894SOL    HW226319   0.174   0.936   1.775  0.9164 -0.2018 -0.0905
 4895SOL     OW26320   0.087   2.810  15.085 -0.0176  0.4166 -0.4057
 4895SOL    HW126321   0.039   2.821  15.002  1.2993  2.2096 -0.9366
 4895SOL    HW226322   0.075   2.715  15.093 -2.4073  0.6592 -0.9322
 4896SOL     OW26323   3.554   3.734  15.485 -0.4779  0.7491  0.0134
 4896SOL    HW126324   3.648   3.734  15.465  0.3802 -1.6776  4.1558
 4896SOL    HW226325   3.551   3.808  15.546  0.1948  0.3149  0.5722
 4897SOL     OW26326   4.337   4.102  16.421  0.6917 -0.3119 -0.5368
 4897SOL    HW126327   4.380   4.068  16.343  2.2980 -1.1996  0.7281
 4897SOL    HW226328   4.404   4.083  16.487 -1.0518 -2.8157  0.5182
 4898SOL     OW26329   4.391   2.933   6.023 -0.2288  0.5069  0.2418
 4898SOL    HW126330   4.438   2.855   5.994 -0.4193 -0.0947  1.5305
 4898SOL    HW226331   4.437   3.007   5.983  2.3914 -0.5949  1.1993
 4899SOL     OW26332   2.743   2.801   7.024  0.1343  0.7466 -0.3803
 4899SOL    HW126333   2.696   2.785   7.105  2.9588 -2.6577  0.5693
 4899SOL    HW226334   2.831   2.796   7.061 -0.8361  1.4803  2.0516
 4900SOL     OW26335   4.306   2.895   8.751 -0.0266 -0.5391 -0.0172
 4900SOL    HW126336   4.220   2.876   8.788  0.0043 -0.7304 -0.0443
 4900SOL    HW226337   4.351   2.811   8.760 -0.1031 -0.6867 -1.0432
 4901SOL     OW26338   1.663   2.509  10.996 -0.2331  0.1445  0.3151
 4901SOL    HW126339   1.687   2.596  11.030 -0.1700  0.0295  0.5641
 4901SOL    HW226340   1.712   2.448  11.051 -2.7500 -0.3182  2.0344
 4902SOL     OW26341   0.285   0.350   6.028 -0.3377  1.0424 -0.2668
 4902SOL    HW126342   0.231   0.291   6.080  0.1594 -0.0475 -0.9896
 4902SOL    HW226343   0.301   0.424   6.087  0.1562  0.6336  0.1045
 4903SOL     OW26344   0.772   3.465   7.459 -0.1062  0.4328  0.3324
 4903SOL    HW126345   0.825   3.443   7.536  0.0834 -1.2862 -0.2859
 4903SOL    HW226346   0.804   3.551   7.430  0.5487 -0.1384 -0.6337
 4904SOL     OW26347   2.683   1.147   6.906  0.0387  0.4236 -0.6008
 4904SOL    HW126348   2.608   1.091   6.886  0.1872  0.4163 -1.1130
 4904SOL    HW226349   2.753   1.095   6.866  1.1354  1.2106  0.2929
 4905SOL     OW26350   0.079   4.335   2.757  1.0650 -0.7041 -0.5725
 4905SOL    HW126351   0.009   4.272   2.772  1.0217  0.1728  3.1278
 4905SOL    HW226352   0.113   4.293   2.678  0.0195 -2.7563  0.0634
 4906SOL     OW26353   3.104   2.651   1.937  0.0367 -0.0209  0.4114
 4906SOL    HW126354   3.115   2.576   1.995 -0.8110 -1.2133 -0.9657
 4906SOL    HW226355   3.182   2.641   1.881 -1.4936 -1.9589 -1.3845
 4907SOL     OW26356   1.786   0.394   5.177 -0.0223 -0.4018 -0.1030
 4907SOL    HW126357   1.799   0.316   5.123  1.9179 -0.2444  0.1367
 4907SOL    HW226358   1.699   0.428   5.154 -0.1005 -2.0632 -2.2152
 4908SOL     OW26359   2.348   0.263   8.312  0.0233 -0.4241  0.1357
 4908SOL    HW126360   2.410   0.326   8.350 -1.6581  1.4369 -0.2200
 4908SOL    HW226361   2.410   0.191   8.296 -0.6249 -1.2949  1.5632
 4909SOL     OW26362   2.914   3.035   8.205 -0.2307  0.0054  0.1182
 4909SOL    HW126363   2.974   3.108   8.190  2.8384 -2.6896 -0.7405
 4909SOL    HW226364   2.971   2.967   8.168 -0.8908  0.0297 -0.9209
 4910SOL     OW26365   2.425   3.036   6.830  0.0110  0.1865  0.5721
 4910SOL    HW126366   2.424   2.945   6.800  1.5402  0.4605 -0.3182
 4910SOL    HW226367   2.521   3.039   6.834 -0.0738 -0.1366  2.8149
 4911SOL     OW26368   0.811   3.904   6.289 -0.5289  0.2644  0.2348
 4911SOL    HW126369   0.718   3.890   6.307 -0.1926  1.1487  2.6752
 4911SOL    HW226370   0.842   3.845   6.358 -0.7437  0.1481  0.2321
 4912SOL     OW26371   3.076   4.134   4.682  0.1020 -0.2197  0.1934
 4912SOL    HW126372   3.108   4.225   4.676 -0.1774 -0.1961 -0.7691
 4912SOL    HW226373   3.119   4.096   4.606 -0.5789  1.1923 -0.8971
 4913SOL     OW26374   3.157   1.626  13.097 -0.2124 -0.1696  0.3867
 4913SOL    HW126375   3.134   1.719  13.106  2.8261  0.5338  1.0737
 4913SOL    HW226376   3.250   1.625  13.122 -0.3963 -0.0856  1.0788
 4914SOL     OW26377   0.148   1.254   6.686 -0.3080  0.6969 -0.0671
 4914SOL    HW126378   0.123   1.203   6.609  1.1628 -0.3130  0.1296
 4914SOL    HW226379   0.241   1.274   6.672  0.1482 -1.1482  0.3518
 4915SOL     OW26380   3.465   2.175   5.000 -0.5458  0.3949 -0.4785
 4915SOL    HW126381   3.507   2.203   4.919  2.3006 -3.1990 -0.2501
 4915SOL    HW226382   3.501   2.087   4.996  1.2458  0.9660  2.9878
 4916SOL     OW26383   2.656   2.163   7.810 -0.6938  0.1017 -0.0521
 4916SOL    HW126384   2.573   2.138   7.851  1.4072 -2.1197  2.8584
 4916SOL    HW226385   2.634   2.252   7.783  0.0934  0.2993 -0.0338
 4917SOL     OW26386   4.140   0.545   9.165 -0.8335 -0.6262 -0.2379
 4917SOL    HW126387   4.074   0.588   9.110  0.4393  0.8137 -0.6326
 4917SOL    HW226388   4.151   0.608   9.236  1.6142  0.0541 -1.2365
 4918SOL     OW26389   4.129   3.992   2.268  0.0388 -0.1587 -0.2121
 4918SOL    HW126390   4.066   3.923   2.249 -0.8929  0.9252 -1.1215
 4918SOL    HW226391   4.080   4.075   2.263  1.4982  0.6796 -0.6530
 4919SOL     OW26392   3.884   4.261   5.112  0.2985 -0.9729  0.4876
 4919SOL    HW126393   3.829   4.215   5.176  2.5883 -0.5276  2.7967
 4919SOL    HW226394   3.951   4.195   5.094  1.2084 -0.2979  1.4170
 4920SOL     OW26395   0.864   0.290   8.852 -0.2254  0.0386 -0.2850
 4920SOL    HW126396   0.890   0.198   8.857  1.3917  0.4422 -1.1110
 4920SOL    HW226397   0.771   0.275   8.834  0.1057 -0.8198 -1.2558
 4921SOL     OW26398   0.072   2.769   3.014  0.0844 -0.0484 -0.2211
 4921SOL    HW126399   0.041   2.782   3.103  2.5387 -0.5469  0.7077
 4921SOL    HW226400   0.106   2.679   3.021 -0.0972 -0.1996 -1.2649
 4922SOL     OW26401   3.173   3.421  10.522 -0.2701  0.3881 -0.2845
 4922SOL    HW126402   3.085   3.449  10.497 -1.3810 -0.7318  2.4485
 4922SOL    HW226403   3.168   3.332  10.488  1.2356 -0.6002  2.1118
 4923SOL     OW26404   4.425   1.947   7.884  0.2835 -0.2436 -0.0437
 4923SOL    HW126405   4.511   1.915   7.910  0.3034  1.7118  2.2379
 4923SOL    HW226406   4.410   1.905   7.799 -1.1770  0.4305 -0.1305
 4924SOL     OW26407   3.860   3.492   6.432 -0.1639  0.7329 -0.3599
 4924SOL    HW126408   3.874   3.547   6.355 -2.8414 -0.2401 -1.5529
 4924SOL    HW226409   3.929   3.516   6.493 -0.8341 -0.5606  0.8939
 4925SOL     OW26410   1.087   4.496   1.196 -0.1677 -0.4718  0.5344
 4925SOL    HW126411   1.114   4.455   1.278  1.8828  0.8171  0.5110
 4925SOL    HW226412   1.039   4.422   1.159  1.3527 -0.9990 -0.3685
 4926SOL     OW26413   1.626   1.334  16.558 -0.5494  0.4170 -0.4742
 4926SOL    HW126414   1.681   1.408  16.533  0.5865 -1.6881 -4.2827
 4926SOL    HW226415   1.687   1.265  16.532 -0.3889  0.4241 -0.1200
 4927SOL     OW26416   1.697   1.781   7.624 -0.0132  0.2882 -0.6035
 4927SOL    HW126417   1.711   1.827   7.541 -2.9738  0.2170 -1.1602
 4927SOL    HW226418   1.678   1.696   7.584 -0.4996 -0.1769  0.6324
 4928SOL     OW26419   2.148   4.376   7.301 -0.0897 -0.0070 -0.7846
 4928SOL    HW126420   2.129   4.369   7.207 -1.8068  2.4517 -0.6205
 4928SOL    HW226421   2.193   4.292   7.313 -0.3129 -0.2807 -1.8402
 4929SOL     OW26422   1.160   0.014   9.653 -0.2518  0.2291 -0.4568
 4929SOL    HW126423   1.225   0.055   9.596 -1.4955 -0.0578 -2.0778
 4929SOL    HW226424   1.184   0.056   9.736  1.8181 -1.8627  0.0099
 4930SOL     OW26425   2.577   2.698   7.225 -0.2227 -0.2515  0.6397
 4930SOL    HW126426   2.574   2.603   7.231  1.1486 -0.2226  1.5686
 4930SOL    HW226427   2.595   2.718   7.317  0.1465  1.0441  0.2872
 4931SOL     OW26428   0.881   2.320   7.780  0.1449 -0.3125  0.0716
 4931SOL    HW126429   0.889   2.303   7.686  0.9428 -1.4359  0.3341
 4931SOL    HW226430   0.931   2.401   7.788  0.4344 -0.4484 -0.3453
 4932SOL     OW26431   2.949   1.510   0.244  0.8463  0.0782 -0.1424
 4932SOL    HW126432   2.948   1.444   0.314 -0.3120 -1.1414 -1.3029
 4932SOL    HW226433   2.973   1.451   0.173 -1.0902 -1.1500  0.2063
 4933SOL     OW26434   4.593   0.170   9.017 -0.2597  0.7059  0.1720
 4933SOL    HW126435   4.609   0.077   8.999 -1.9376  0.5122 -0.2952
 4933SOL    HW226436   4.629   0.162   9.106 -2.5652  0.7713  1.1048
 4934SOL     OW26437   2.607   3.263   9.202 -0.2352  0.3840  0.5193
 4934SOL    HW126438   2.527   3.269   9.150  0.0352 -0.8701 -0.0324
 4934SOL    HW226439   2.612   3.170   9.221 -1.7863  0.0036 -0.9892
 4935SOL     OW26440   3.053   1.041   3.167  0.4946 -0.0632  0.0540
 4935SOL    HW126441   3.061   0.953   3.132 -0.0628  0.0757 -0.4233
 4935SOL    HW226442   3.023   1.020   3.256 -0.5713 -0.2406 -0.3516
 4936SOL     OW26443   2.750   1.176   4.567 -0.8207 -0.3840  0.4364
 4936SOL    HW126444   2.782   1.251   4.516 -1.3406 -0.5340 -0.1027
 4936SOL    HW226445   2.775   1.107   4.506 -1.8981  1.1072 -1.6578
 4937SOL     OW26446   3.165   1.196   6.909 -0.1614 -0.3373 -0.0889
 4937SOL    HW126447   3.242   1.154   6.946  0.2193  0.7402  0.3338
 4937SOL    HW226448   3.177   1.183   6.815 -1.3065 -1.2683 -0.1076
 4938SOL     OW26449   3.141   2.762   8.568 -0.1497  0.1430  0.1238
 4938SOL    HW126450   3.155   2.771   8.662 -0.1485 -2.6046  0.3875
 4938SOL    HW226451   3.081   2.835   8.554  0.5786  0.5885 -0.6817
 4939SOL     OW26452   3.270   4.061  12.149 -0.0106 -0.1314  0.0554
 4939SOL    HW126453   3.178   4.047  12.124 -0.5361 -0.9311  2.4270
 4939SOL    HW226454   3.296   3.970  12.165  2.3095  0.2612 -1.5946
 4940SOL     OW26455   4.595   1.795   8.561 -0.0921 -0.2547  0.1753
 4940SOL    HW126456   4.683   1.758   8.568  0.2562  0.5590  0.1069
 4940SOL    HW226457   4.611   1.877   8.609 -1.2671 -0.0647  0.2563
 4941SOL     OW26458   4.351   2.735   7.799  0.3507 -0.6402 -0.0613
 4941SOL    HW126459   4.279   2.686   7.760  2.1848 -3.3188 -0.1266
 4941SOL    HW226460   4.303   2.813   7.825 -0.4818 -1.7862  1.8282
 4942SOL     OW26461   0.226   3.211   2.301 -0.1407  0.0807  0.2094
 4942SOL    HW126462   0.158   3.184   2.363  0.3447 -1.2126  0.1848
 4942SOL    HW226463   0.178   3.259   2.233  0.5492  1.9888  1.0636
 4943SOL     OW26464   0.505   1.745  17.080  0.0839  0.6796 -0.2211
 4943SOL    HW126465   0.557   1.772  17.004  1.9464 -0.0660  0.7879
 4943SOL    HW226466   0.421   1.780  17.051  0.4333  0.7046 -1.2093
 4944SOL     OW26467   1.324   1.926   9.601 -0.1612 -0.2734  0.4838
 4944SOL    HW126468   1.261   1.977   9.549 -0.9780 -1.2135  0.5661
 4944SOL    HW226469   1.304   1.835   9.581  2.7330 -0.7635 -0.0975
 4945SOL     OW26470   3.075   3.918   5.783 -0.5060  0.4461  0.9227
 4945SOL    HW126471   3.012   3.982   5.813 -0.3033  0.8368  0.5147
 4945SOL    HW226472   3.156   3.970   5.782 -0.6446  0.6344 -0.4141
 4946SOL     OW26473   0.904   4.558   3.278 -0.9259  0.1798  0.1552
 4946SOL    HW126474   0.842   4.623   3.311 -0.5164  0.2666  0.7619
 4946SOL    HW226475   0.857   4.476   3.288 -0.7516  0.1406  0.6644
 4947SOL     OW26476   3.864   3.586   3.552  0.2066  0.4156 -0.0122
 4947SOL    HW126477   3.915   3.587   3.632  0.3793  0.4209 -0.1231
 4947SOL    HW226478   3.926   3.614   3.485  2.7689  0.0082  2.1892
 4948SOL     OW26479   2.693   0.446   5.035 -0.2491  0.2106  0.0367
 4948SOL    HW126480   2.601   0.472   5.027 -0.1433  0.8231  0.8355
 4948SOL    HW226481   2.682   0.370   5.093  1.0914 -0.8462 -1.0749
 4949SOL     OW26482   0.115   0.707   7.064 -0.0676 -0.3392 -0.7304
 4949SOL    HW126483   0.164   0.776   7.019  3.3686 -1.1195  1.8118
 4949SOL    HW226484   0.150   0.722   7.151  1.7165 -2.8763 -0.9985
 4950SOL     OW26485   0.904   0.042   6.534 -0.3021  0.0288  0.4322
 4950SOL    HW126486   0.849   0.055   6.458  0.0715 -0.1092  0.1380
 4950SOL    HW226487   0.882   0.111   6.597  0.3980  0.6983 -0.0569
 4951SOL     OW26488   0.716   3.023  16.848  0.5898 -0.1226 -0.3938
 4951SOL    HW126489   0.776   2.983  16.785 -0.9673  0.1782 -2.0584
 4951SOL    HW226490   0.639   3.015  16.791 -1.0838 -1.7565  2.1351
 4952SOL     OW26491   1.659   1.079   8.633  0.1270  0.2689 -0.2547
 4952SOL    HW126492   1.701   1.018   8.573 -1.5995 -0.8136 -0.3712
 4952SOL    HW226493   1.599   1.023   8.683 -2.3702  1.1145 -2.3442
 4953SOL     OW26494   1.531   2.558   7.227  0.0125  0.0856 -0.2276
 4953SOL    HW126495   1.589   2.588   7.157  0.5129  1.7647  0.8958
 4953SOL    HW226496   1.556   2.466   7.234 -0.8197 -0.1192  0.0293
 4954SOL     OW26497   1.244   1.960   2.608 -0.0594 -0.7585 -0.3702
 4954SOL    HW126498   1.294   1.969   2.689 -0.5555  0.2836 -0.1836
 4954SOL    HW226499   1.250   1.866   2.589  0.3681 -0.7404 -0.3176
 4955SOL     OW26500   3.697   4.398   7.057 -0.3203 -0.1997 -0.6257
 4955SOL    HW126501   3.643   4.319   7.051  0.5221 -0.9104  1.2668
 4955SOL    HW226502   3.638   4.460   7.015 -2.1630 -1.6817 -0.2532
 4956SOL     OW26503   3.770   2.849  13.715 -0.5660  0.1635 -0.5360
 4956SOL    HW126504   3.724   2.821  13.794 -1.3013 -0.4877 -1.1907
 4956SOL    HW226505   3.741   2.790  13.646 -1.7974  0.8489 -0.6178
 4957SOL     OW26506   3.716   2.966   9.436  0.2733  0.2833 -0.1302
 4957SOL    HW126507   3.632   2.920   9.440  1.3165 -1.7675 -1.3349
 4957SOL    HW226508   3.699   3.057   9.415  0.1380 -0.0073 -1.2677
 4958SOL     OW26509   4.563   2.920   9.312 -0.6933 -0.3125 -1.0859
 4958SOL    HW126510   4.474   2.907   9.279 -0.9271 -0.4837 -0.3745
 4958SOL    HW226511   4.527   2.947   9.396 -0.7705 -0.8643 -0.9440
 4959SOL     OW26512   2.100   4.704   1.795  0.3213  0.2534 -0.1091
 4959SOL    HW126513   2.105   0.004   1.883 -0.4546 -1.6457  0.6881
 4959SOL    HW226514   2.051   4.623   1.808 -1.0785  1.4581  2.0566
 4960SOL     OW26515   1.051   2.458  14.115  0.4316 -0.2981 -0.3973
 4960SOL    HW126516   1.041   2.478  14.022  1.5889 -0.6397 -0.5907
 4960SOL    HW226517   1.143   2.480  14.129  0.6074 -0.6745 -0.9691
 4961SOL     OW26518   1.973   4.190   2.275  0.1973 -0.3075 -0.4992
 4961SOL    HW126519   1.956   4.261   2.337  0.1192 -1.8586  1.2728
 4961SOL    HW226520   2.068   4.182   2.271  0.2186 -1.0571  1.4865
 4962SOL     OW26521   0.819   4.331   8.597 -0.0461  0.4491 -0.3289
 4962SOL    HW126522   0.907   4.328   8.559  0.0612 -2.0757  0.1133
 4962SOL    HW226523   0.799   4.423   8.610  1.8565  0.6523  1.0170
 4963SOL     OW26524   0.385   4.079   8.841 -0.0332  0.2271  0.1448
 4963SOL    HW126525   0.389   4.163   8.885  0.7736  0.6242 -0.6869
 4963SOL    HW226526   0.389   4.020   8.916  0.1205 -0.5619 -0.4747
 4964SOL     OW26527   0.042   2.262  16.182  0.2735  0.0056  0.4260
 4964SOL    HW126528   0.060   2.289  16.272  1.3770  0.0825  0.1776
 4964SOL    HW226529   4.724   2.187  16.211 -0.9536  0.8484  0.3684
 4965SOL     OW26530   3.256   3.711   6.660 -0.2677 -0.1263  0.0602
 4965SOL    HW126531   3.222   3.668   6.581 -1.0580 -0.6737  0.6994
 4965SOL    HW226532   3.179   3.763   6.683  1.3873  3.8999 -3.3406
 4966SOL     OW26533   0.505   3.833   8.970  0.6201  0.1744 -0.3042
 4966SOL    HW126534   0.467   3.842   8.882  0.2950  0.5211 -0.1245
 4966SOL    HW226535   0.483   3.743   8.991 -1.2695  0.0518 -2.7901
 4967SOL     OW26536   4.494   4.238   8.798  0.5925  0.2582  0.4140
 4967SOL    HW126537   4.505   4.264   8.889 -1.0136  0.9566  0.4198
 4967SOL    HW226538   4.438   4.162   8.817  0.6237 -0.8476 -3.8647
 4968SOL     OW26539   1.811   0.890   9.311  0.2409 -0.3901 -0.4163
 4968SOL    HW126540   1.754   0.839   9.369 -1.5888  0.0158 -1.8899
 4968SOL    HW226541   1.893   0.843   9.328  0.3356  0.2896  1.0133
 4969SOL     OW26542   4.016   1.845   3.144  0.3777  0.2439  0.6007
 4969SOL    HW126543   4.064   1.925   3.170 -2.0891  1.1077  2.4767
 4969SOL    HW226544   4.061   1.787   3.205  2.9093  0.4882 -1.0157
 4970SOL     OW26545   2.321   3.561   4.499  0.4503 -0.2600  0.6042
 4970SOL    HW126546   2.301   3.539   4.408  0.8267  0.6057  0.3093
 4970SOL    HW226547   2.378   3.485   4.512 -1.2871 -1.6725 -0.1351
 4971SOL     OW26548   1.799   3.134   9.657  0.4985 -0.7519 -0.3363
 4971SOL    HW126549   1.728   3.095   9.708 -2.1365  0.5466 -2.9570
 4971SOL    HW226550   1.811   3.214   9.710  0.2353 -1.4533  0.7797
 4972SOL     OW26551   1.333   3.552   5.202 -0.1431 -0.6410 -0.3190
 4972SOL    HW126552   1.297   3.638   5.224 -1.2677 -0.8371 -1.4214
 4972SOL    HW226553   1.294   3.541   5.115 -2.4341  1.3241  0.4776
 4973SOL     OW26554   2.549   4.049   4.658  0.4771 -0.1629  0.4234
 4973SOL    HW126555   2.475   4.042   4.719 -1.3604 -0.2389 -1.8060
 4973SOL    HW226556   2.567   4.140   4.679  2.3013 -0.3526 -0.3399
 4974SOL     OW26557   0.397   1.012  15.101 -0.1225 -0.0280 -0.2833
 4974SOL    HW126558   0.318   1.053  15.066  0.6985  2.3383  0.6005
 4974SOL    HW226559   0.432   0.960  15.028  2.4530 -0.1904  1.0522
 4975SOL     OW26560   4.599   2.720   9.807  0.1260 -0.0662  0.0069
 4975SOL    HW126561   4.557   2.666   9.873  2.3696  0.4755  1.9131
 4975SOL    HW226562   4.558   2.804   9.829  0.6212  0.4011 -0.8362
 4976SOL     OW26563   4.189   1.120   6.883 -0.3033  0.0450  0.4170
 4976SOL    HW126564   4.273   1.136   6.840 -0.7957  1.0868 -0.1546
 4976SOL    HW226565   4.204   1.040   6.933 -3.4208 -0.5884  0.3239
 4977SOL     OW26566   1.834   4.270   7.048 -0.3694  0.2447 -0.2300
 4977SOL    HW126567   1.879   4.223   7.119  0.1029  1.4769  0.2858
 4977SOL    HW226568   1.915   4.282   6.999  0.5741  0.0366  1.2597
 4978SOL     OW26569   2.644   0.513   4.346  0.4662 -0.0448  0.1395
 4978SOL    HW126570   2.604   0.441   4.298  0.7938  0.0125 -0.2173
 4978SOL    HW226571   2.716   0.537   4.288  1.6083  2.2340  2.4860
 4979SOL     OW26572   1.340   3.538   9.087  0.4204 -0.4355 -0.3218
 4979SOL    HW126573   1.293   3.476   9.031 -1.1235  0.5037 -0.0746
 4979SOL    HW226574   1.434   3.529   9.070  0.5286  2.7973 -1.4122
 4980SOL     OW26575   2.369   2.534   5.069  0.0797  0.1194  0.0475
 4980SOL    HW126576   2.387   2.454   5.020 -0.3122  0.1941 -0.2162
 4980SOL    HW226577   2.457   2.571   5.081 -0.2331  1.5473 -2.1229
 4981SOL     OW26578   1.681   0.622  14.187  0.4432 -0.0185 -0.0673
 4981SOL    HW126579   1.705   0.712  14.164  0.3026 -0.2132 -0.9723
 4981SOL    HW226580   1.699   0.631  14.280  2.9730 -0.6348 -0.4898
 4982SOL     OW26581   1.756   3.735   8.870  0.0782 -0.0286 -0.3481
 4982SOL    HW126582   1.734   3.737   8.777 -2.0696 -1.0901  0.1467
 4982SOL    HW226583   1.846   3.766   8.866  1.1896 -2.9602  1.4761
 4983SOL     OW26584   1.717   2.018  13.714 -0.0995 -0.7811 -0.4509
 4983SOL    HW126585   1.804   2.006  13.750  0.8260  0.9706 -2.0926
 4983SOL    HW226586   1.668   1.966  13.778  0.0203 -0.6462 -0.2516
 4984SOL     OW26587   2.562   2.881   7.658 -0.4371  0.0431  0.2816
 4984SOL    HW126588   2.604   2.797   7.677 -0.7019  0.4975  2.7853
 4984SOL    HW226589   2.513   2.862   7.578  0.7285  0.6390 -0.5819
 4985SOL     OW26590   4.597   3.856   4.052 -0.1665  0.4835 -0.2614
 4985SOL    HW126591   4.690   3.830   4.055 -0.1085  0.6772 -0.4189
 4985SOL    HW226592   4.559   3.778   4.012 -0.2104  0.4065 -0.0704
 4986SOL     OW26593   0.578   3.770  17.035 -0.4241  0.7010  0.0222
 4986SOL    HW126594   0.501   3.737  16.991  1.4106  0.8747 -3.2828
 4986SOL    HW226595   0.543   3.790  17.122 -0.6837 -1.2544  0.3516
 4987SOL     OW26596   0.594   1.222  16.094  0.0573  0.3061 -0.0058
 4987SOL    HW126597   0.648   1.162  16.145 -0.4278  0.0584  0.2205
 4987SOL    HW226598   0.541   1.160  16.044  0.4719  0.5987 -0.7983
 4988SOL     OW26599   2.909   1.512  11.772 -0.2837  0.1625 -0.7992
 4988SOL    HW126600   2.905   1.584  11.709 -1.3362  1.5648  0.8836
 4988SOL    HW226601   3.002   1.497  11.756  0.1371 -0.6004  2.4102
 4989SOL     OW26602   3.504   0.667   2.438 -0.3156 -0.0581 -0.2341
 4989SOL    HW126603   3.576   0.677   2.500  0.1795  1.6799 -1.0990
 4989SOL    HW226604   3.439   0.726   2.477  1.3119  1.0616  0.7525
 4990SOL     OW26605   2.641   0.023   8.038 -0.1079  0.1983  0.2069
 4990SOL    HW126606   2.719   4.703   8.047 -1.7796 -2.1916 -0.1497
 4990SOL    HW226607   2.661   0.078   7.963 -1.5764 -0.5616 -0.7453
 4991SOL     OW26608   1.759   1.473   7.213 -0.2457  0.2934 -0.2334
 4991SOL    HW126609   1.723   1.395   7.171 -1.2596  0.2893  0.6425
 4991SOL    HW226610   1.827   1.489   7.148 -3.3026 -1.0112 -3.7199
 4992SOL     OW26611   0.303   1.492   3.912 -0.4605  0.2079  0.0351
 4992SOL    HW126612   0.267   1.475   3.998  2.7835 -1.0055  1.1730
 4992SOL    HW226613   0.390   1.528   3.932 -0.5652  0.0781  0.7255
 4993SOL     OW26614   4.130   4.073   2.633 -0.2186  0.5008  0.2214
 4993SOL    HW126615   4.088   4.156   2.613  0.6840  1.6385  3.0501
 4993SOL    HW226616   4.216   4.108   2.659  0.6173 -1.3821  0.0175
 4994SOL     OW26617   3.188   1.440   6.550 -0.1721 -0.1450  0.2045
 4994SOL    HW126618   3.226   1.375   6.490  0.5395  1.0186 -0.5933
 4994SOL    HW226619   3.123   1.481   6.494  0.2208 -1.3520 -1.1463
 4995SOL     OW26620   2.947   3.557   5.452  0.4415 -0.2519  0.3593
 4995SOL    HW126621   2.926   3.497   5.381  1.3742 -0.4949  0.2859
 4995SOL    HW226622   2.869   3.613   5.451  1.9145  1.7905 -0.7725
 4996SOL     OW26623   3.296   3.750   3.104 -0.5047 -0.4391  0.0202
 4996SOL    HW126624   3.325   3.808   3.175  0.5231  3.1693 -3.2885
 4996SOL    HW226625   3.348   3.672   3.124 -2.0974 -1.5741 -0.2660
 4997SOL     OW26626   2.536   2.316  14.825  0.5620  0.5888  0.8973
 4997SOL    HW126627   2.493   2.290  14.907  2.5895  1.5400  2.2459
 4997SOL    HW226628   2.627   2.314  14.854  0.5712 -0.5836  0.8094
 4998SOL     OW26629   3.678   0.060   2.256 -0.1625 -0.6633  0.3018
 4998SOL    HW126630   3.720   0.068   2.343 -0.4650  1.4468  0.2646
 4998SOL    HW226631   3.661   4.702   2.247  0.9922 -1.0238  1.7508
 4999SOL     OW26632   0.712   0.456   5.308 -0.1694 -0.4957 -0.0553
 4999SOL    HW126633   0.739   0.364   5.301 -0.4019 -0.4986 -0.8428
 4999SOL    HW226634   0.758   0.502   5.239 -0.8628  1.1869  0.6049
 5000SOL     OW26635   2.445   1.012   2.840  0.3082  0.0783  0.3206
 5000SOL    HW126636   2.481   1.097   2.863 -0.0671  0.3144  0.0414
 5000SOL    HW226637   2.496   0.953   2.895  0.2503  1.5459  1.9344
 5001SOL     OW26638   1.378   4.405   7.739 -0.1217  0.1269  0.3076
 5001SOL    HW126639   1.365   4.328   7.794 -0.6984 -0.9547 -1.3579
 5001SOL    HW226640   1.299   4.408   7.685  0.0143  2.0297  0.2251
 5002SOL     OW26641   1.804   1.909  13.234  0.6517 -0.0383 -1.0058
 5002SOL    HW126642   1.722   1.923  13.188 -0.9281 -0.2006  1.7238
 5002SOL    HW226643   1.771   1.905  13.324 -2.6713 -1.4290 -2.2898
 5003SOL     OW26644   1.716   1.568   1.740  0.1095  0.5016 -0.0519
 5003SOL    HW126645   1.652   1.569   1.669 -1.0460 -0.1501  0.9942
 5003SOL    HW226646   1.703   1.653   1.782 -1.8662  0.8611 -1.3651
 5004SOL     OW26647   0.954   3.739   9.053 -0.2497 -0.3962 -0.0815
 5004SOL    HW126648   0.987   3.682   8.983  0.1712 -0.2635  0.0083
 5004SOL    HW226649   0.919   3.817   9.011  1.1048  1.4438  2.2314
 5005SOL     OW26650   1.852   3.256   5.809  0.2791 -0.3234  0.2839
 5005SOL    HW126651   1.865   3.194   5.737  0.2763  0.8689 -0.7457
 5005SOL    HW226652   1.860   3.339   5.762  1.4574 -2.0426 -2.5517
 5006SOL     OW26653   3.729   1.121  15.002  0.2544  0.0730  0.0059
 5006SOL    HW126654   3.642   1.135  14.964  0.4574  0.7963 -0.1765
 5006SOL    HW226655   3.781   1.105  14.923  1.6418 -0.6854  1.0749
 5007SOL     OW26656   1.797   2.538  12.205  0.4835  0.9114 -0.2228
 5007SOL    HW126657   1.822   2.598  12.275  0.5042  2.6365 -1.7112
 5007SOL    HW226658   1.734   2.583  12.149 -0.0340 -1.6660 -1.7116
 5008SOL     OW26659   4.242   3.661   2.873 -0.2585  0.1803 -0.3789
 5008SOL    HW126660   4.231   3.752   2.844  1.1990  0.3659 -0.3658
 5008SOL    HW226661   4.336   3.650   2.884 -0.1141  1.4098 -0.3426
 5009SOL     OW26662   2.780   1.016   3.066 -0.1801 -0.0437 -0.1864
 5009SOL    HW126663   2.720   1.065   3.123  0.8392 -0.9124  1.6046
 5009SOL    HW226664   2.868   1.034   3.100 -0.0995  1.5275 -1.1793
 5010SOL     OW26665   1.368   4.236  11.024  0.2016  0.5269  0.4252
 5010SOL    HW126666   1.404   4.324  11.032  0.3303  0.6457 -1.2622
 5010SOL    HW226667   1.296   4.227  11.085 -0.0762 -1.0304 -0.1325
 5011SOL     OW26668   3.897   3.243  11.651  0.4235 -0.3654 -0.5034
 5011SOL    HW126669   3.854   3.205  11.574 -0.4145 -1.7147  0.6211
 5011SOL    HW226670   3.870   3.335  11.648 -0.5866 -0.6690 -0.9504
 5012SOL     OW26671   1.318   2.217  13.001 -0.2847  0.8005 -0.4094
 5012SOL    HW126672   1.272   2.277  12.942  0.5861  1.1106 -0.7670
 5012SOL    HW226673   1.257   2.190  13.070  1.2830 -0.0230  0.6482
 5013SOL     OW26674   1.528   2.012  10.018  0.3731 -0.4174 -0.8032
 5013SOL    HW126675   1.496   2.082  10.075  1.3105 -0.6990  0.0890
 5013SOL    HW226676   1.591   1.977  10.081 -0.4314 -1.4132 -0.5552
 5014SOL     OW26677   2.796   0.842   8.226 -0.4438 -0.1835  0.0790
 5014SOL    HW126678   2.752   0.791   8.294  0.8445  0.6139  1.4994
 5014SOL    HW226679   2.746   0.922   8.240  0.2417  0.3038 -0.3313
 5015SOL     OW26680   0.257   2.929  15.869 -0.2437 -0.0919  0.9178
 5015SOL    HW126681   0.257   2.838  15.897  1.3356 -0.6147 -0.8217
 5015SOL    HW226682   0.283   2.974  15.950  0.3834  1.9047 -0.4177
 5016SOL     OW26683   4.602   1.093   8.935 -0.2754  0.3059  0.4488
 5016SOL    HW126684   4.561   1.154   8.874 -0.1975  1.3475  1.4456
 5016SOL    HW226685   4.651   1.149   8.995  1.4343 -0.1397 -0.5341
 5017SOL     OW26686   4.543   4.014  16.553 -0.0141 -0.4767  0.2677
 5017SOL    HW126687   4.628   4.044  16.584  0.1023  0.3342 -0.8356
 5017SOL    HW226688   4.524   3.941  16.612  0.7794  0.6470  1.9073
 5018SOL     OW26689   4.723   3.704  15.975 -0.5470  0.1097 -0.2337
 5018SOL    HW126690   0.029   3.774  15.924  0.5943 -0.4702 -0.0929
 5018SOL    HW226691   0.069   3.653  15.976  0.2318  1.3219 -2.2077
 5019SOL     OW26692   2.632   0.753   7.463  0.0106  0.1102 -0.6149
 5019SOL    HW126693   2.572   0.812   7.419 -0.1093  0.8717  0.5962
 5019SOL    HW226694   2.603   0.761   7.553  2.1379  0.2420  0.0670
 5020SOL     OW26695   4.249   0.418   7.918  0.1386  0.1167 -0.2493
 5020SOL    HW126696   4.284   0.433   8.006  0.9952  1.4260 -0.8177
 5020SOL    HW226697   4.158   0.400   7.940  1.0026 -2.8017  0.9486
 5021SOL     OW26698   0.839   4.099  13.493 -0.2074 -0.9293  0.1171
 5021SOL    HW126699   0.745   4.102  13.473 -0.5649 -1.3082  1.7155
 5021SOL    HW226700   0.876   4.108  13.406  1.3820  3.2480  1.2557
 5022SOL     OW26701   4.231   0.827   7.335 -0.0068 -0.4776  0.3711
 5022SOL    HW126702   4.278   0.902   7.372  0.7641 -0.3815 -0.7805
 5022SOL    HW226703   4.141   0.848   7.360 -0.3330 -0.8215 -0.5051
 5023SOL     OW26704   0.697   1.605   8.601  0.0573  0.1478 -0.1910
 5023SOL    HW126705   0.751   1.549   8.656 -1.0420 -1.5269 -0.8142
 5023SOL    HW226706   0.721   1.592   8.509 -1.3041 -1.9552 -0.2484
 5024SOL     OW26707   3.286   3.360   9.806 -0.1142 -0.0231 -0.8218
 5024SOL    HW126708   3.270   3.270   9.833  0.3466  0.1666  0.0643
 5024SOL    HW226709   3.378   3.348   9.782 -0.0261  0.3173 -0.6547
 5025SOL     OW26710   0.946   0.805   4.628 -0.3777  0.2392  0.3081
 5025SOL    HW126711   0.994   0.887   4.635 -0.0410 -0.0588  1.4328
 5025SOL    HW226712   0.954   0.776   4.718 -1.8646  0.8411  0.6373
 5026SOL     OW26713   0.527   1.874   8.811  0.4937 -0.8400 -0.4175
 5026SOL    HW126714   0.524   1.857   8.717 -2.5308  0.3536 -0.5528
 5026SOL    HW226715   0.619   1.873   8.836  0.3278  3.1439  0.3351
 5027SOL     OW26716   1.211   3.607   4.005  0.7925 -0.0881  0.7004
 5027SOL    HW126717   1.191   3.570   3.919 -1.2567  2.0474  0.2450
 5027SOL    HW226718   1.213   3.699   3.980  0.3283 -0.4155 -0.5537
 5028SOL     OW26719   2.834   2.112   1.862 -0.3993 -0.3015 -0.0683
 5028SOL    HW126720   2.914   2.071   1.896 -0.9100  0.0185  1.4879
 5028SOL    HW226721   2.779   2.034   1.870  0.9065 -1.4767 -2.2595
 5029SOL     OW26722   0.384   2.401   9.122  0.2748  0.2037 -0.6154
 5029SOL    HW126723   0.318   2.335   9.101 -0.7941  0.8865  0.6016
 5029SOL    HW226724   0.319   2.470   9.139  0.7665  0.3659  0.6036
 5030SOL     OW26725   4.694   2.809   8.640  0.6408  0.2205 -0.1013
 5030SOL    HW126726   4.622   2.757   8.605 -0.2970  2.4082 -1.4764
 5030SOL    HW226727   4.653   2.888   8.675 -1.1073 -1.1120  0.8328
 5031SOL     OW26728   3.271   3.371   1.907  0.0568  0.2167 -0.4680
 5031SOL    HW126729   3.304   3.417   1.984 -1.3539 -1.7529  1.3212
 5031SOL    HW226730   3.201   3.319   1.947  0.2221 -0.8510 -1.5478
 5032SOL     OW26731   2.299   0.314   9.023  0.7428  0.7730  0.2828
 5032SOL    HW126732   2.280   0.290   9.114  3.1421 -0.2379  0.5199
 5032SOL    HW226733   2.267   0.233   8.983 -0.0093  1.0592  0.3055
 5033SOL     OW26734   4.523   3.406  10.702 -0.3755  0.2555 -0.2680
 5033SOL    HW126735   4.557   3.317  10.691 -2.7747 -0.7084  0.0638
 5033SOL    HW226736   4.459   3.388  10.770  0.4131 -1.2353  0.0801
 5034SOL     OW26737   2.228   0.606   8.213  0.4877  0.9070 -0.1117
 5034SOL    HW126738   2.199   0.694   8.238 -0.2396  1.2048 -2.0255
 5034SOL    HW226739   2.304   0.593   8.269 -0.7381 -0.9402  1.1329
 5035SOL     OW26740   4.361   2.223   6.307  0.1496 -0.3981 -0.3497
 5035SOL    HW126741   4.430   2.161   6.330 -1.0456 -1.4572  0.3708
 5035SOL    HW226742   4.385   2.291   6.371 -0.0669 -1.3956  0.7938
 5036SOL     OW26743   1.740   3.575   3.395  0.4061  0.4402 -0.3973
 5036SOL    HW126744   1.667   3.607   3.448  0.2922  1.1971 -1.0194
 5036SOL    HW226745   1.703   3.568   3.307  1.0866  0.1647 -0.6620
 5037SOL     OW26746   1.915   0.047  10.571  0.0468  0.0706  0.8976
 5037SOL    HW126747   1.906   0.109  10.643 -2.6065 -1.1831  1.6556
 5037SOL    HW226748   2.010   0.056  10.577 -0.0635  1.0286  1.2601
 5038SOL     OW26749   0.713   0.256  13.720 -0.0411  0.4648 -0.5062
 5038SOL    HW126750   0.696   0.289  13.809 -1.8136  0.4142 -0.8377
 5038SOL    HW226751   0.805   0.231  13.727 -0.2967 -0.2413  0.2654
 5039SOL     OW26752   3.028   0.606   5.041  0.4144 -0.1807 -0.0272
 5039SOL    HW126753   2.936   0.590   5.019  0.4106 -1.5789  0.9929
 5039SOL    HW226754   3.073   0.609   4.957 -0.3049 -1.9345 -0.4757
 5040SOL     OW26755   3.622   3.140   4.942  0.2564  0.1408 -0.0406
 5040SOL    HW126756   3.652   3.230   4.953  1.0228 -0.4777  3.1020
 5040SOL    HW226757   3.615   3.139   4.847 -3.3046 -0.6266  0.2242
 5041SOL     OW26758   2.827   3.874  17.037  0.1908 -0.1468 -0.1307
 5041SOL    HW126759   2.749   3.821  17.017 -0.5140  1.6593 -2.2037
 5041SOL    HW226760   2.897   3.864  16.973  1.9234  4.1489  1.1249
 5042SOL     OW26761   3.891   0.320   8.881 -0.0763 -0.4018  0.2037
 5042SOL    HW126762   3.806   0.321   8.923 -0.8108  2.2430 -1.3443
 5042SOL    HW226763   3.946   0.269   8.941  1.2620 -0.7193 -1.2804
 5043SOL     OW26764   1.570   0.583   4.983  0.1536  0.4111  0.7698
 5043SOL    HW126765   1.522   0.662   4.958 -0.2473 -0.8065 -2.2813
 5043SOL    HW226766   1.636   0.577   4.914  0.6031 -0.6891  1.2840
 5044SOL     OW26767   1.571   4.281   7.946  0.2511  0.2877  0.0786
 5044SOL    HW126768   1.530   4.313   8.027  0.2874 -0.2436  0.3035
 5044SOL    HW226769   1.502   4.221   7.919 -0.0704  0.5922  0.2153
 5045SOL     OW26770   0.790   4.036   2.920 -0.2648  0.5702 -0.1712
 5045SOL    HW126771   0.806   4.016   3.012 -3.8546 -0.0346  0.3299
 5045SOL    HW226772   0.845   4.113   2.905 -0.2926  0.5945 -0.1476
 5046SOL     OW26773   4.636   0.044   2.994 -0.1983  0.2683 -0.2435
 5046SOL    HW126774   4.660   4.727   2.918  1.6827  0.9273 -0.1062
 5046SOL    HW226775   4.646   4.716   3.065 -0.8068 -0.5951 -0.9271
 5047SOL     OW26776   0.858   2.115   8.128 -0.2543 -0.2802 -0.2860
 5047SOL    HW126777   0.832   2.079   8.043  0.4879 -1.0190 -0.2055
 5047SOL    HW226778   0.858   2.039   8.186  1.1189  0.7826  1.0986
 5048SOL     OW26779   2.475   2.268   5.454 -0.1678 -0.1012  0.3680
 5048SOL    HW126780   2.459   2.280   5.547  1.3526 -0.7763  0.6962
 5048SOL    HW226781   2.559   2.224   5.455 -0.2780 -0.3995 -2.0009
 5049SOL     OW26782   2.275   0.536   7.880 -0.0218 -0.3395 -0.1099
 5049SOL    HW126783   2.299   0.552   7.789 -1.1507 -2.8863 -0.8557
 5049SOL    HW226784   2.356   0.507   7.922 -1.1468 -0.8935  1.6665
 5050SOL     OW26785   4.579   3.775   7.336  0.2972 -0.1627 -0.5394
 5050SOL    HW126786   4.674   3.778   7.327  0.5002 -1.0685  1.3178
 5050SOL    HW226787   4.572   3.702   7.274  1.6258 -2.5816  2.1625
 5051SOL     OW26788   0.558   0.741   2.556 -0.4639  0.1945 -0.4223
 5051SOL    HW126789   0.563   0.678   2.628 -2.0692  2.6408  1.8403
 5051SOL    HW226790   0.603   0.687   2.491 -0.3971  0.8734 -0.9365
 5052SOL     OW26791   3.714   2.294  13.519  0.2675 -0.6909 -0.4705
 5052SOL    HW126792   3.682   2.377  13.554  2.8792  0.1878 -0.1607
 5052SOL    HW226793   3.805   2.321  13.505 -0.1167  0.3835 -0.9115
 5053SOL     OW26794   1.552   3.635  14.460 -0.2344  0.0145  0.6043
 5053SOL    HW126795   1.616   3.630  14.531 -0.4032  1.8496  0.8596
 5053SOL    HW226796   1.468   3.612  14.500  0.4139 -3.6670 -0.1041
 5054SOL     OW26797   1.715   4.051   5.617 -0.0537 -0.0345  0.4505
 5054SOL    HW126798   1.665   4.088   5.544  1.5000  4.1235  1.4834
 5054SOL    HW226799   1.787   4.113   5.616  1.2384 -1.5795 -1.0979
 5055SOL     OW26800   2.649   3.644   3.391 -0.2481  0.3026  0.6975
 5055SOL    HW126801   2.712   3.716   3.390 -0.9612  0.9481  2.1418
 5055SOL    HW226802   2.705   3.570   3.415  1.6719  1.2878 -0.6995
 5056SOL     OW26803   2.503   1.635   5.903  0.5558 -0.6713  0.1950
 5056SOL    HW126804   2.596   1.626   5.882  0.5629  2.9799 -1.2008
 5056SOL    HW226805   2.501   1.723   5.941  2.1338 -0.0345 -1.2162
 5057SOL     OW26806   1.718   2.665   6.204 -0.5908 -0.3641 -0.0266
 5057SOL    HW126807   1.709   2.612   6.283  0.6182 -0.8392 -0.2158
 5057SOL    HW226808   1.756   2.746   6.238 -0.3412 -0.9955  1.2103
 5058SOL     OW26809   2.823   2.282   2.712  0.3549  0.2879  0.0109
 5058SOL    HW126810   2.916   2.270   2.731  0.5488  2.2977  0.3389
 5058SOL    HW226811   2.799   2.344   2.782 -0.2944  0.5552 -0.4417
 5059SOL     OW26812   3.233   4.622  13.482 -0.1749 -0.9614  0.2024
 5059SOL    HW126813   3.327   4.610  13.499 -0.0780  0.0441  0.3539
 5059SOL    HW226814   3.240   4.648  13.390  2.3073  1.3741  1.0469
 5060SOL     OW26815   1.386   0.997   0.941  0.8309 -0.1744 -0.0695
 5060SOL    HW126816   1.463   1.054   0.945  1.2483 -0.7568  0.2532
 5060SOL    HW226817   1.385   0.980   0.847  3.3770 -0.6227 -0.0168
 5061SOL     OW26818   3.083   2.706   2.263 -0.5253  0.1448  0.7042
 5061SOL    HW126819   3.089   2.787   2.312 -1.3523  1.0389 -0.6581
 5061SOL    HW226820   3.067   2.736   2.173 -1.2038 -0.8907  0.4741
 5062SOL     OW26821   2.500   1.013   1.717  0.1555  0.6188 -0.2014
 5062SOL    HW126822   2.522   0.946   1.781 -2.4653  0.5469  0.6175
 5062SOL    HW226823   2.405   0.998   1.710  0.1835  1.0061 -1.3999
 5063SOL     OW26824   2.028   1.757   3.031  0.2461  0.1593  0.4089
 5063SOL    HW126825   2.103   1.736   2.975  0.5687  1.9886  0.1706
 5063SOL    HW226826   1.958   1.707   2.988  1.9107 -2.7994  1.1711
 5064SOL     OW26827   0.429   0.202   9.252  0.0609  0.1128 -0.0423
 5064SOL    HW126828   0.465   0.272   9.198  0.1639  1.4309  1.7339
 5064SOL    HW226829   0.388   0.143   9.189  0.0879  0.4489 -0.3722
 5065SOL     OW26830   4.086   1.640  16.751  0.1510 -0.2952 -0.7942
 5065SOL    HW126831   4.049   1.552  16.765 -0.8105 -0.1071 -2.1802
 5065SOL    HW226832   4.102   1.641  16.657 -0.5916 -0.9655 -0.9264
 5066SOL     OW26833   3.700   3.361   4.541 -0.3503 -0.7272  0.4979
 5066SOL    HW126834   3.631   3.423   4.517 -0.0448 -0.2506  0.8380
 5066SOL    HW226835   3.736   3.416   4.611 -1.6101  2.3401 -1.2706
 5067SOL     OW26836   2.899   4.279   5.695  0.4004  0.0753 -0.1103
 5067SOL    HW126837   2.962   4.309   5.630 -1.1549 -0.8459 -2.0397
 5067SOL    HW226838   2.862   4.200   5.655  0.6225 -1.3322  2.4252
 5068SOL     OW26839   0.945   0.113  15.781 -0.1236  0.1488  0.2265
 5068SOL    HW126840   0.871   0.091  15.725 -0.7302 -1.0809  1.5030
 5068SOL    HW226841   0.909   0.102  15.869  0.4451 -1.0440  0.3081
 5069SOL     OW26842   0.821   3.708   3.155  0.4572 -0.5123  0.1714
 5069SOL    HW126843   0.794   3.796   3.128 -0.0479  0.0641  2.5384
 5069SOL    HW226844   0.811   3.712   3.251  2.1379 -0.4388  0.3396
 5070SOL     OW26845   3.321   0.739   8.207 -0.1269  0.1077 -0.4758
 5070SOL    HW126846   3.234   0.741   8.168 -0.8374 -0.0853  1.1037
 5070SOL    HW226847   3.356   0.826   8.186 -2.9400  1.3371 -0.0347
 5071SOL     OW26848   4.659   2.100   9.724  0.8406  0.1098 -0.0830
 5071SOL    HW126849   4.681   2.025   9.780  1.4695  1.9600  2.1296
 5071SOL    HW226850   4.680   2.161   9.795 -0.3869  1.5412 -0.9496
 5072SOL     OW26851   1.649   2.922  14.588  0.5222 -0.1322 -0.0914
 5072SOL    HW126852   1.614   2.834  14.575 -0.6885  0.5074 -1.2097
 5072SOL    HW226853   1.581   2.964  14.642  0.5965 -0.3827  0.1977
 5073SOL     OW26854   4.005   1.010   5.363  0.1588 -0.3860  0.1017
 5073SOL    HW126855   3.921   1.052   5.385  1.0219  0.9999  0.7276
 5073SOL    HW226856   3.974   0.934   5.314  0.3088 -0.0138 -0.5667
 5074SOL     OW26857   3.738   3.016   6.188  0.0713  0.2694 -0.4063
 5074SOL    HW126858   3.717   2.939   6.135  2.4585 -1.2716  0.8668
 5074SOL    HW226859   3.656   3.028   6.235  0.5684  0.4610  0.4053
 5075SOL     OW26860   3.188   1.060   3.866  0.0066  0.0156  0.4371
 5075SOL    HW126861   3.150   1.143   3.840 -2.7251 -1.1319  0.7772
 5075SOL    HW226862   3.109   1.013   3.838 -0.9154  3.0332 -2.0167
 5076SOL     OW26863   0.793   0.543  13.732 -0.4934  0.1670  0.0693
 5076SOL    HW126864   0.815   0.634  13.715  0.7224  0.0348  1.0016
 5076SOL    HW226865   0.868   0.521  13.786 -0.9136 -0.4195  0.4155
 5077SOL     OW26866   2.282   1.722   2.919 -0.5132  0.1857  0.2916
 5077SOL    HW126867   2.286   1.637   2.875 -0.1952 -0.1522  0.9794
 5077SOL    HW226868   2.319   1.779   2.851 -0.4040 -0.9314 -0.5905
 5078SOL     OW26869   3.867   0.321   1.577 -0.1863 -0.0702  0.0061
 5078SOL    HW126870   3.845   0.298   1.667 -0.7450 -0.7937 -0.3055
 5078SOL    HW226871   3.816   0.401   1.575 -0.3809 -0.2014 -0.3597
 5079SOL     OW26872   4.140   0.518   1.398 -0.0364  0.5685  0.2839
 5079SOL    HW126873   4.121   0.540   1.489 -2.5460  2.2143 -0.6206
 5079SOL    HW226874   4.230   0.550   1.390 -0.4268  1.6742  0.2852
 5080SOL     OW26875   4.497   2.145  17.434  0.7268  0.1818 -0.4104
 5080SOL    HW126876   4.498   2.099  17.350 -1.9977 -1.7466  0.6089
 5080SOL    HW226877   4.462   2.084  17.499  1.2015  0.7018  0.3276
 5081SOL     OW26878   1.857   0.549   3.042 -0.1645 -0.1590  0.5779
 5081SOL    HW126879   1.891   0.635   3.069 -1.5137  0.6390 -0.2950
 5081SOL    HW226880   1.914   0.492   3.093  0.8920  1.2775  1.0112
 5082SOL     OW26881   2.396   2.689   6.995 -0.3036  0.2780  0.3405
 5082SOL    HW126882   2.349   2.739   7.062 -0.5808 -0.8470  0.9894
 5082SOL    HW226883   2.484   2.722   7.012  0.6395 -0.7430 -2.5105
 5083SOL     OW26884   2.633   4.496   6.058  0.4131  0.6412 -0.6398
 5083SOL    HW126885   2.642   4.590   6.044 -1.4517  1.1905  1.8711
 5083SOL    HW226886   2.649   4.461   5.971 -2.7967  0.4567 -1.1481
 5084SOL     OW26887   2.626   3.417   4.687 -0.5676  0.3406  0.5352
 5084SOL    HW126888   2.548   3.387   4.734 -1.3959 -0.9575 -1.6505
 5084SOL    HW226889   2.597   3.410   4.596  2.4020  1.9378 -0.5283
 5085SOL     OW26890   0.056   2.084  11.511 -0.3451 -0.4800 -0.4245
 5085SOL    HW126891   0.088   1.998  11.539  1.1558 -0.2839 -1.4796
 5085SOL    HW226892   4.724   2.100  11.576  0.8609 -3.9980  1.7578
 5086SOL     OW26893   3.863   0.336   6.751 -0.0343  0.1519 -0.1375
 5086SOL    HW126894   3.775   0.372   6.753 -0.2585 -0.4016 -0.0405
 5086SOL    HW226895   3.884   0.316   6.842  0.0104  0.0849 -0.1618
 5087SOL     OW26896   2.632   4.006   8.238  0.1493  0.3583  0.2171
 5087SOL    HW126897   2.684   4.067   8.289  1.5574 -1.5679  1.0851
 5087SOL    HW226898   2.678   4.001   8.154 -1.6429  4.4135 -0.9927
 5088SOL     OW26899   3.753   0.277   5.259 -0.0662 -0.4909 -0.2817
 5088SOL    HW126900   3.799   0.253   5.339 -2.2954 -1.2377  0.7833
 5088SOL    HW226901   3.697   0.199   5.255 -0.2490 -0.3309 -0.8084
 5089SOL     OW26902   3.713   4.070  17.080  0.4250  0.1677 -0.0676
 5089SOL    HW126903   3.782   4.006  17.059  1.2419  0.6420  1.2018
 5089SOL    HW226904   3.644   4.033  17.025  0.0503  2.8252 -1.3861
 5090SOL     OW26905   3.198   4.572  13.041  0.1394  0.0268 -0.2832
 5090SOL    HW126906   3.289   4.547  13.030  0.1592  0.7187 -1.6355
 5090SOL    HW226907   3.210   4.658  13.080 -0.1962 -0.2805  0.4897
 5091SOL     OW26908   3.233   1.301   2.558  0.4194  0.0273 -0.0394
 5091SOL    HW126909   3.260   1.335   2.643 -0.1682  1.5387 -0.4666
 5091SOL    HW226910   3.154   1.254   2.584  1.5972 -2.4228 -0.8234
 5092SOL     OW26911   0.965   3.233   3.204  0.2551 -0.4053 -0.1380
 5092SOL    HW126912   0.892   3.190   3.158  0.1642  0.4814 -0.8368
 5092SOL    HW226913   0.991   3.294   3.135 -0.6903  0.3494  0.1689
 5093SOL     OW26914   3.460   3.448  12.735 -0.2342  0.0533 -0.2965
 5093SOL    HW126915   3.486   3.362  12.769  0.4202  0.4538  0.2277
 5093SOL    HW226916   3.365   3.451  12.719  0.2096  3.2125 -2.2220
 5094SOL     OW26917   3.915   2.259  11.660  0.0402 -0.7772 -0.4754
 5094SOL    HW126918   3.875   2.300  11.737  0.5098 -3.4714  1.2016
 5094SOL    HW226919   3.842   2.201  11.640  0.2582  0.0887 -3.6781
 5095SOL     OW26920   1.091   3.238   3.443  0.1583  0.3722 -0.5087
 5095SOL    HW126921   1.051   3.244   3.357 -0.2960  0.0461 -0.3161
 5095SOL    HW226922   1.075   3.144   3.447 -1.3424  0.6092 -1.0472
 5096SOL     OW26923   1.033   4.154  17.144  0.4354 -0.1466 -0.2798
 5096SOL    HW126924   1.067   4.066  17.130  1.8734  0.2137  1.0561
 5096SOL    HW226925   0.998   4.150  17.233  0.5162  1.5651 -0.1665
 5097SOL     OW26926   3.278   4.714   7.774  0.1666 -0.3593 -0.4970
 5097SOL    HW126927   3.197   0.001   7.729  0.9404 -2.2566 -2.8323
 5097SOL    HW226928   3.346   4.706   7.707  0.7270  0.1161  0.0137
 5098SOL     OW26929   4.717   2.295  12.377 -0.5365 -0.8252 -0.2911
 5098SOL    HW126930   4.673   2.350  12.312 -0.2334  1.9084  1.8167
 5098SOL    HW226931   0.040   2.239  12.326 -0.8124 -0.4085 -1.0747
 5099SOL     OW26932   2.858   1.152   7.417 -0.4035  0.2305 -0.2313
 5099SOL    HW126933   2.888   1.242   7.409 -0.9220  0.3559 -0.7866
 5099SOL    HW226934   2.889   1.106   7.339  0.4830 -0.1325  0.3428
 5100SOL     OW26935   2.121   1.362   8.726  0.3954 -0.2270  0.0818
 5100SOL    HW126936   2.089   1.446   8.760  0.0861 -0.7071  0.9670
 5100SOL    HW226937   2.101   1.304   8.799  0.1292 -1.0946 -0.6678
 5101SOL     OW26938   3.059   0.653   4.764  0.5510  0.1525  0.0842
 5101SOL    HW126939   3.068   0.726   4.703 -0.3057 -1.3487 -1.8226
 5101SOL    HW226940   2.987   0.602   4.728  1.3356 -1.6511  1.0070
 5102SOL     OW26941   3.592   1.388   0.377  0.5916 -0.3341 -0.0964
 5102SOL    HW126942   3.545   1.439   0.311 -0.8135 -1.4205  0.0562
 5102SOL    HW226943   3.680   1.420   0.361  0.3392 -0.3730 -1.5368
 5103SOL     OW26944   3.902   0.151   4.968 -0.5690  0.0222  0.1965
 5103SOL    HW126945   3.909   0.056   4.979 -2.4229  0.0571  1.5684
 5103SOL    HW226946   3.995   0.172   4.974 -0.4466 -0.3199 -0.5254
 5104SOL     OW26947   1.746   4.370   3.875  1.1837 -0.3195  0.1551
 5104SOL    HW126948   1.669   4.319   3.901 -1.6005  1.5092 -4.5917
 5104SOL    HW226949   1.725   4.461   3.896  1.8851 -0.4687  1.5235
 5105SOL     OW26950   1.849   4.421   4.202  0.1589 -0.1735  0.1863
 5105SOL    HW126951   1.942   4.402   4.215 -0.0011  0.0903  1.7306
 5105SOL    HW226952   1.838   4.451   4.112  1.6677 -2.3055 -0.6999
 5106SOL     OW26953   2.959   4.420   3.919 -0.5718 -0.1425  0.1566
 5106SOL    HW126954   2.868   4.439   3.941 -0.7355 -1.7641  0.8369
 5106SOL    HW226955   2.949   4.325   3.923  0.5984 -0.2863 -0.3957
 5107SOL     OW26956   3.703   1.211   3.954 -0.7891  0.2233 -0.5029
 5107SOL    HW126957   3.719   1.297   3.993  1.2045  0.2456 -1.3667
 5107SOL    HW226958   3.794   1.185   3.971 -0.4593  0.3467 -2.0505
 5108SOL     OW26959   0.531   2.558   8.338  0.2937 -0.2285 -0.4575
 5108SOL    HW126960   0.555   2.475   8.296 -1.4468 -0.9350 -0.0460
 5108SOL    HW226961   0.580   2.630   8.298  1.2485 -1.1519 -0.9691
 5109SOL     OW26962   4.087   0.036   8.573 -0.1360  0.8909 -0.5853
 5109SOL    HW126963   4.115   0.029   8.664 -1.8952  0.5050 -0.0783
 5109SOL    HW226964   4.162   0.014   8.518 -1.8000 -0.0140 -2.4900
 5110SOL     OW26965   2.458   4.494  12.855 -0.3282 -0.5101 -0.3567
 5110SOL    HW126966   2.550   4.482  12.832  0.0594  0.5879  0.5946
 5110SOL    HW226967   2.438   4.550  12.780 -1.3439  1.9932  1.7979
 5111SOL     OW26968   3.273   3.757   8.947  0.3410  0.0362 -0.1722
 5111SOL    HW126969   3.218   3.760   8.869  0.3957  0.1326 -0.2073
 5111SOL    HW226970   3.205   3.752   9.014 -0.5021  2.0595 -0.8757
 5112SOL     OW26971   1.544   1.682   9.823 -0.4861  0.4207  0.2431
 5112SOL    HW126972   1.451   1.697   9.842 -1.3053 -0.2195 -3.2123
 5112SOL    HW226973   1.588   1.690   9.908 -0.6018  0.6738  0.2802
 5113SOL     OW26974   3.308   2.999   3.665  0.0813  0.4242  0.2214
 5113SOL    HW126975   3.259   3.014   3.746  0.6328 -2.5976  1.1328
 5113SOL    HW226976   3.346   2.911   3.671  0.0975  0.3814 -0.5246
 5114SOL     OW26977   0.171   0.254   1.479  0.0038  0.0498  0.4918
 5114SOL    HW126978   0.251   0.210   1.504  0.1158  0.5946  1.0911
 5114SOL    HW226979   0.158   0.302   1.561  1.6995  1.5427 -0.1165
 5115SOL     OW26980   3.876   1.146   5.053 -0.1794 -0.4031  0.0180
 5115SOL    HW126981   3.831   1.083   5.109  1.8315 -1.3336  0.6095
 5115SOL    HW226982   3.834   1.123   4.971 -0.2120  1.0906 -0.3868
 5116SOL     OW26983   2.216   2.888   2.649 -0.9661  0.1765 -0.0148
 5116SOL    HW126984   2.174   2.889   2.563 -1.2367  0.8940  0.1198
 5116SOL    HW226985   2.141   2.856   2.699 -0.9547  0.1255 -0.0304
 5117SOL     OW26986   1.354   3.226  16.542  0.4181 -0.5457  0.1019
 5117SOL    HW126987   1.425   3.198  16.485  1.0260 -0.1182  0.6526
 5117SOL    HW226988   1.324   3.305  16.497 -1.3219 -0.7572  0.8547
 5118SOL     OW26989   0.957   2.610   7.657 -0.3070 -0.2537 -0.9328
 5118SOL    HW126990   1.040   2.596   7.612  1.0454 -0.2266  1.5911
 5118SOL    HW226991   0.985   2.698   7.680 -0.2700 -0.3445 -0.6433
 5119SOL     OW26992   3.527   2.801   1.544  0.1738  0.4303 -0.1234
 5119SOL    HW126993   3.494   2.815   1.456  0.3991 -0.9192 -0.4174
 5119SOL    HW226994   3.590   2.731   1.525 -2.2881 -1.3170 -1.8433
 5120SOL     OW26995   1.141   2.042   9.453 -0.0550  0.4788 -0.2160
 5120SOL    HW126996   1.053   2.006   9.443  0.7419 -1.4834 -0.1824
 5120SOL    HW226997   1.157   2.083   9.368  0.9463  1.0244  0.2371
 5121SOL     OW26998   4.728   4.516   4.494  0.5568  0.4913 -0.3745
 5121SOL    HW126999   4.701   4.602   4.461 -1.5711  0.9450  2.5216
 5121SOL    HW227000   0.079   4.532   4.457  1.1506  2.0208  1.6415
 5122SOL     OW27001   0.916   0.234   2.764  0.5586  0.1190 -0.0827
 5122SOL    HW127002   0.965   0.162   2.725  0.6748 -0.5272  1.2485
 5122SOL    HW227003   0.949   0.245   2.854  1.0441  0.1049 -0.2593
 5123SOL     OW27004   3.342   1.087   5.258  0.0251 -0.2274 -0.0801
 5123SOL    HW127005   3.418   1.072   5.203 -0.7732 -2.8702 -0.4750
 5123SOL    HW227006   3.300   1.001   5.262  0.1747 -0.2371  1.1457
 5124SOL     OW27007   0.399   0.963   8.868 -0.2280  0.1455 -0.4097
 5124SOL    HW127008   0.441   1.032   8.816  2.7831  0.5063  2.4933
 5124SOL    HW227009   0.387   0.899   8.798  0.4844 -1.2105  0.7089
 5125SOL     OW27010   4.559   1.782   4.566 -0.9532 -0.1465 -0.0041
 5125SOL    HW127011   4.480   1.828   4.595 -0.9233 -0.7965  1.0994
 5125SOL    HW227012   4.582   1.743   4.651 -0.2833  0.5234  0.1210
 5126SOL     OW27013   2.753   4.360  10.694 -0.4155  0.0239  0.1102
 5126SOL    HW127014   2.793   4.307  10.762 -2.6020 -0.5427  0.9708
 5126SOL    HW227015   2.766   4.296  10.623 -1.2529 -1.3388  1.1910
 5127SOL     OW27016   3.908   1.856   2.113 -0.1864  0.6878 -0.4064
 5127SOL    HW127017   3.988   1.816   2.078 -0.6235  0.1898 -0.8172
 5127SOL    HW227018   3.851   1.841   2.039  1.6834 -1.8433 -1.3490
 5128SOL     OW27019   4.034   0.169   1.066 -0.1932  0.1539 -1.3812
 5128SOL    HW127020   4.002   0.221   0.992 -0.2634  1.3127 -0.5260
 5128SOL    HW227021   3.987   0.206   1.141 -0.2483  1.3057 -1.9869
 5129SOL     OW27022   0.272   4.729   1.871  0.3641 -0.3165  0.2621
 5129SOL    HW127023   0.236   4.648   1.906  1.0583  0.2737  2.3101
 5129SOL    HW227024   0.237   4.720   1.782 -0.6655  2.5172  0.3617
 5130SOL     OW27025   2.135   1.412   3.475  0.2221  0.0773  0.5536
 5130SOL    HW127026   2.163   1.474   3.541 -3.4377 -0.4014  2.5365
 5130SOL    HW227027   2.045   1.389   3.500  0.2937 -0.4998  0.2867
 5131SOL     OW27028   2.109   2.626   1.963 -0.2840 -0.1975  0.2475
 5131SOL    HW127029   2.167   2.628   2.040 -1.4445  0.7808  1.0909
 5131SOL    HW227030   2.025   2.626   2.009 -0.7807 -0.0859 -0.6702
 5132SOL     OW27031   1.138   0.011   6.105  0.0861 -0.1573 -0.4083
 5132SOL    HW127032   1.133   4.661   6.150  0.4792  0.2304  0.3624
 5132SOL    HW227033   1.051   0.022   6.066 -0.0823 -1.3672 -0.4032
 5133SOL     OW27034   0.969   4.147  11.999  0.0640  0.2941  0.5426
 5133SOL    HW127035   0.908   4.108  12.061  0.7613 -0.5836  0.6720
 5133SOL    HW227036   1.047   4.152  12.054  2.0824 -2.0155 -2.1208
 5134SOL     OW27037   3.889   2.249   6.736  0.2134  0.2261  0.1247
 5134SOL    HW127038   3.869   2.163   6.698  0.0586  0.0183  0.6775
 5134SOL    HW227039   3.939   2.280   6.661 -0.2027  2.3104  0.6978
 5135SOL     OW27040   3.759   3.355  17.532  0.0742  0.6362  0.1948
 5135SOL    HW127041   3.825   3.294  17.500 -1.9079 -1.0231 -0.7901
 5135SOL    HW227042   3.775   3.426  17.471 -3.4958  2.1218  0.9817
 5136SOL     OW27043   4.390   3.417   1.050  0.4118  0.2325 -0.3678
 5136SOL    HW127044   4.363   3.408   0.959 -2.3923  1.1664  0.3888
 5136SOL    HW227045   4.431   3.332   1.068  4.0540  2.1660  0.4892
 5137SOL     OW27046   1.280   1.220   8.437 -0.6879  0.1328 -0.4674
 5137SOL    HW127047   1.262   1.217   8.531  2.0379  1.7459  0.0898
 5137SOL    HW227048   1.214   1.158   8.405 -0.7499  0.5989 -1.2545
 5138SOL     OW27049   2.839   4.136  12.826 -0.1296  0.1750  0.2729
 5138SOL    HW127050   2.765   4.127  12.887 -0.2472  0.7508  0.2097
 5138SOL    HW227051   2.910   4.131  12.889  1.7728 -1.4960 -1.9931
 5139SOL     OW27052   1.297   4.053   3.188  0.3541  0.2176  0.6706
 5139SOL    HW127053   1.321   4.080   3.277 -0.3453 -2.4244  1.6495
 5139SOL    HW227054   1.301   3.959   3.205  1.8372  0.2735  0.6434
 5140SOL     OW27055   0.962   4.390   9.108  0.0420 -0.4754 -0.3780
 5140SOL    HW127056   0.990   4.465   9.160  1.6760 -1.0393 -0.4477
 5140SOL    HW227057   1.041   4.343   9.082 -0.1986 -1.5117  0.7391
 5141SOL     OW27058   2.807   4.045   8.497  0.6600  0.0243 -0.0642
 5141SOL    HW127059   2.762   3.961   8.497 -0.8563  0.8367  0.8274
 5141SOL    HW227060   2.744   4.109   8.531 -0.8541 -1.4099 -0.2321
 5142SOL     OW27061   0.325   3.042   8.310  0.2264 -0.2192  0.2835
 5142SOL    HW127062   0.314   3.089   8.393 -0.8675 -0.2283  0.1455
 5142SOL    HW227063   0.257   2.975   8.311  0.4053 -0.4240 -1.1931
 5143SOL     OW27064   1.737   1.733  10.049 -0.6111  0.1235 -0.7593
 5143SOL    HW127065   1.804   1.665  10.041  0.7817  1.1309  2.0511
 5143SOL    HW227066   1.790   1.797  10.097  2.1567 -0.3198 -3.2443
 5144SOL     OW27067   1.537   0.135   9.318  0.2701  0.1919  0.4364
 5144SOL    HW127068   1.450   0.150   9.354 -1.4874 -2.1118 -2.8729
 5144SOL    HW227069   1.563   0.054   9.361 -0.4254 -0.3865 -0.2288
 5145SOL     OW27070   0.664   0.339   9.625  0.7944  0.2721  0.3057
 5145SOL    HW127071   0.718   0.390   9.686 -0.2756  1.0314  0.6192
 5145SOL    HW227072   0.716   0.342   9.545 -0.4129 -1.2293 -0.5411
 5146SOL     OW27073   2.641   0.664   6.502  0.0745 -0.8698  0.4408
 5146SOL    HW127074   2.576   0.733   6.485  0.4834 -0.6759 -0.3679
 5146SOL    HW227075   2.621   0.651   6.594  0.8572 -1.3756  0.5367
 5147SOL     OW27076   1.329   4.120  10.782  0.1005 -0.3179 -0.3918
 5147SOL    HW127077   1.324   4.060  10.856  1.4526  0.6631  0.5033
 5147SOL    HW227078   1.384   4.182  10.832  0.2033  0.3451 -1.3359
 5148SOL     OW27079   4.069   3.136   9.965 -0.6592  0.2818  0.3946
 5148SOL    HW127080   4.053   3.165   9.875  0.6990  0.6225  0.2584
 5148SOL    HW227081   4.148   3.082   9.956 -1.9433 -1.5650  0.2459
 5149SOL     OW27082   1.387   1.855   3.082  0.3770 -0.5844 -0.5878
 5149SOL    HW127083   1.338   1.780   3.118 -0.8191  0.1839 -0.6104
 5149SOL    HW227084   1.319   1.918   3.104  0.6769 -0.3958 -0.1912
 5150SOL     OW27085   4.627   2.961  12.300  0.3230 -0.0648 -0.2566
 5150SOL    HW127086   4.541   2.945  12.339 -0.8776  0.7268 -2.5202
 5150SOL    HW227087   4.663   3.029  12.357  0.7702 -0.1533 -0.4350
 5151SOL     OW27088   0.400   1.190   5.524  0.3823 -0.5452  0.0428
 5151SOL    HW127089   0.386   1.140   5.444  1.5965  0.7138 -0.9598
 5151SOL    HW227090   0.442   1.260   5.474 -2.1412 -0.0005 -1.3072
 5152SOL     OW27091   2.880   4.452   7.396  0.1265 -0.2306 -0.0489
 5152SOL    HW127092   2.786   4.470   7.405  0.8302  2.4015  1.9478
 5152SOL    HW227093   2.906   4.517   7.331 -0.6020  0.0986 -0.0130
 5153SOL     OW27094   2.268   3.662   3.816 -0.2312 -0.1494 -0.2247
 5153SOL    HW127095   2.359   3.651   3.844  0.7325 -0.5900 -3.5028
 5153SOL    HW227096   2.274   3.723   3.743  1.4941 -0.1580 -0.0881
 5154SOL     OW27097   3.646   2.098   2.051 -0.6858  0.0827 -0.5333
 5154SOL    HW127098   3.635   2.132   2.140 -1.5275 -0.7478 -0.3253
 5154SOL    HW227099   3.580   2.143   1.997 -2.3004  0.6323  1.8860
 5155SOL     OW27100   3.121   2.565   3.076 -0.4948 -0.2744  0.7677
 5155SOL    HW127101   3.189   2.627   3.050 -0.5591 -0.2322  0.7000
 5155SOL    HW227102   3.124   2.508   2.999 -1.8934 -0.1336  0.5970
 5156SOL     OW27103   3.708   1.269   7.537  0.0676 -0.0020 -0.2309
 5156SOL    HW127104   3.707   1.340   7.473 -1.0132 -1.4922 -1.8912
 5156SOL    HW227105   3.613   1.271   7.551  0.1313  0.0833  0.1770
 5157SOL     OW27106   4.116   0.488   5.466  0.4748 -0.4681 -0.4560
 5157SOL    HW127107   4.153   0.486   5.377 -0.1078  0.4788 -0.7304
 5157SOL    HW227108   4.082   0.578   5.472  0.1146 -0.7257  1.2100
 5158SOL     OW27109   1.607   1.195   4.615  0.6304  0.0600 -0.0460
 5158SOL    HW127110   1.638   1.285   4.609  0.4450  0.0633 -1.1090
 5158SOL    HW227111   1.553   1.178   4.537 -2.2423  5.0933  0.8633
 5159SOL     OW27112   0.111   4.500   1.858 -0.5748  0.2601  0.4981
 5159SOL    HW127113   0.044   4.556   1.899 -1.3654 -0.2208 -0.1325
 5159SOL    HW227114   0.055   4.444   1.805 -1.8317  1.0893  0.9296
 5160SOL     OW27115   4.286   4.321   7.201 -0.0852  0.6339 -0.0359
 5160SOL    HW127116   4.326   4.332   7.287  0.3662 -0.3889 -0.1159
 5160SOL    HW227117   4.358   4.343   7.142 -1.8062 -1.4615 -2.9427
 5161SOL     OW27118   2.106   3.523   4.060  0.4744  0.1555  0.1338
 5161SOL    HW127119   2.069   3.451   4.010 -0.0746  1.4779 -1.3347
 5161SOL    HW227120   2.125   3.592   3.996  0.0840 -0.2056 -0.3610
 5162SOL     OW27121   1.305   3.514  13.688 -0.5652 -0.3822  0.1589
 5162SOL    HW127122   1.380   3.553  13.733 -1.8921 -0.2496  2.2527
 5162SOL    HW227123   1.305   3.540  13.596 -1.5720 -2.0559 -0.3097
 5163SOL     OW27124   2.210   4.708   9.381  0.1722  0.5923 -0.5250
 5163SOL    HW127125   2.156   4.636   9.414  1.3162  0.5717  1.3104
 5163SOL    HW227126   2.277   4.711   9.450  0.9719 -1.9332 -1.1708
 5164SOL     OW27127   1.560   2.105  12.935  0.2077 -0.0136  0.8240
 5164SOL    HW127128   1.605   2.167  12.877 -1.2556  0.3094  0.0257
 5164SOL    HW227129   1.478   2.153  12.946  0.3793  0.2197  1.0876
 5165SOL     OW27130   0.375   1.713   2.391 -0.2600  0.2042  0.5785
 5165SOL    HW127131   0.350   1.805   2.380 -1.3194  0.0395  1.5555
 5165SOL    HW227132   0.347   1.666   2.313 -0.6904  2.0625 -0.3975
 5166SOL     OW27133   0.401   4.080   3.030 -0.3029 -0.4872 -0.2061
 5166SOL    HW127134   0.331   4.145   3.043 -0.8688 -0.7856 -1.7893
 5166SOL    HW227135   0.390   4.070   2.936  1.4665  2.5173 -0.7370
 5167SOL     OW27136   1.195   2.144  15.056  0.0815 -0.4280  0.1143
 5167SOL    HW127137   1.193   2.051  15.080  0.5678 -0.8814 -1.5559
 5167SOL    HW227138   1.105   2.158  15.028 -0.5535  0.0853  2.4100
 5168SOL     OW27139   1.654   2.119   2.330 -0.4411  0.1123 -0.1688
 5168SOL    HW127140   1.698   2.072   2.259 -3.4221  1.1600 -2.7132
 5168SOL    HW227141   1.584   2.150   2.272 -0.0700  1.2639 -0.0036
 5169SOL     OW27142   1.860   2.075  17.475  0.7435 -0.1659  0.1006
 5169SOL    HW127143   1.839   2.166  17.493 -1.4415 -0.0398 -3.0148
 5169SOL    HW227144   1.931   2.070  17.539  1.4793  2.5244 -0.5298
 5170SOL     OW27145   2.887   3.844  15.358  0.4107 -0.0934  0.3752
 5170SOL    HW127146   2.809   3.895  15.336 -0.1920 -1.1820  0.0130
 5170SOL    HW227147   2.918   3.814  15.272  2.6726  2.8016  0.1841
 5171SOL     OW27148   2.891   4.569   3.034  0.1161  0.8006 -0.5443
 5171SOL    HW127149   2.835   4.597   2.962  1.4723  2.2134 -1.0306
 5171SOL    HW227150   2.974   4.573   2.987  0.9640 -2.4005  0.7125
 5172SOL     OW27151   3.655   0.817  12.487  0.3448  0.1098 -0.0670
 5172SOL    HW127152   3.692   0.739  12.446 -1.0956 -0.3233 -0.5420
 5172SOL    HW227153   3.676   0.880  12.417 -1.1190  0.7952  0.1130
 5173SOL     OW27154   3.886   4.481   3.064  0.2874 -0.7534  0.3026
 5173SOL    HW127155   3.927   4.516   3.143  0.0795 -0.6643  0.3736
 5173SOL    HW227156   3.958   4.424   3.039  0.5870 -0.9278  1.5733
 5174SOL     OW27157   3.698   3.345  12.183  0.4400 -0.2179 -0.1812
 5174SOL    HW127158   3.653   3.264  12.158 -0.1168 -0.3376  1.2194
 5174SOL    HW227159   3.688   3.351  12.278  0.7239 -1.6294 -0.0567
 5175SOL     OW27160   3.397   1.215   3.311 -0.3138  0.2223  0.3395
 5175SOL    HW127161   3.345   1.206   3.392 -0.5108 -2.3883 -0.0584
 5175SOL    HW227162   3.466   1.271   3.345 -0.2533  0.6189 -0.4526
 5176SOL     OW27163   3.755   1.634   1.077 -0.1742 -0.1032 -0.3569
 5176SOL    HW127164   3.740   1.664   1.166 -1.2487  2.0588 -1.2712
 5176SOL    HW227165   3.670   1.593   1.060 -0.5952  0.4937  0.3217
 5177SOL     OW27166   3.225   2.492   7.702  0.3383  0.0922 -0.5394
 5177SOL    HW127167   3.255   2.520   7.788 -0.5022 -0.7294  0.0265
 5177SOL    HW227168   3.209   2.399   7.716 -1.1763  0.4687  0.2975
 5178SOL     OW27169   2.690   0.301   3.397  0.4359  0.0080 -0.3232
 5178SOL    HW127170   2.710   0.207   3.386  0.1929 -0.0889  0.0867
 5178SOL    HW227171   2.644   0.318   3.315 -0.3845 -2.1439 -0.3277
 5179SOL     OW27172   3.692   4.329   3.472 -0.3573 -0.3371  0.2420
 5179SOL    HW127173   3.628   4.346   3.402  0.0270  0.2573  0.0400
 5179SOL    HW227174   3.773   4.319   3.422 -0.5138  1.7173 -0.4308
 5180SOL     OW27175   4.341   2.319  17.326  1.3253  0.2721 -0.0803
 5180SOL    HW127176   4.384   2.246  17.369 -0.8853  0.3030  2.2454
 5180SOL    HW227177   4.418   2.375  17.329 -0.6791  3.0685 -0.3384
 5181SOL     OW27178   0.754   2.597   4.064 -0.0185  0.4823 -0.2455
 5181SOL    HW127179   0.843   2.577   4.035 -0.6576  0.1881 -2.0070
 5181SOL    HW227180   0.744   2.688   4.036  2.0281  1.0721  0.9114
 5182SOL     OW27181   0.750   3.634  16.173  0.4227 -0.0431 -0.3346
 5182SOL    HW127182   0.779   3.556  16.125 -2.5232 -0.0035 -2.1135
 5182SOL    HW227183   0.797   3.627  16.257  0.0527  1.3255 -0.0173
 5183SOL     OW27184   1.556   1.466   0.781  0.4981 -0.3291  0.2066
 5183SOL    HW127185   1.500   1.418   0.721  0.3192 -1.3708  1.2229
 5183SOL    HW227186   1.647   1.444   0.764  1.2338 -0.2123  3.9274
 5184SOL     OW27187   1.372   2.459   3.798  0.3960  0.2252 -0.0271
 5184SOL    HW127188   1.466   2.467   3.779  0.5064 -0.3326  0.3108
 5184SOL    HW227189   1.372   2.508   3.880  0.1007 -0.3945  0.3376
 5185SOL     OW27190   0.783   4.263   4.462 -0.6149  0.3353 -0.2100
 5185SOL    HW127191   0.804   4.340   4.408  1.7485  2.0510  3.1260
 5185SOL    HW227192   0.750   4.293   4.546 -1.7463  1.1846 -0.9627
 5186SOL     OW27193   2.623   4.576   6.624  0.1011  0.4107  0.7430
 5186SOL    HW127194   2.588   4.625   6.549 -0.5051  1.5501  1.7685
 5186SOL    HW227195   2.686   4.509   6.599 -0.4811  0.0271  0.3007
 5187SOL     OW27196   1.042   0.057   8.105 -0.2440  0.0139  0.3633
 5187SOL    HW127197   1.039   0.123   8.036 -0.6920 -0.4653 -0.0810
 5187SOL    HW227198   1.115   0.085   8.159  0.4257 -1.9667  0.4834
 5188SOL     OW27199   2.703   2.797   3.791 -0.1638 -0.7614 -0.1405
 5188SOL    HW127200   2.699   2.817   3.885 -0.5644  0.3636 -0.4029
 5188SOL    HW227201   2.792   2.833   3.786 -1.4017  2.1448 -1.4342
 5189SOL     OW27202   1.623   2.305   7.255  0.3862  0.0021  0.3085
 5189SOL    HW127203   1.596   2.274   7.342 -2.0367 -0.9701 -0.8069
 5189SOL    HW227204   1.648   2.219   7.224 -0.2570 -0.9421  2.3814
 5190SOL     OW27205   3.311   3.497   0.235  0.4097  0.0222  0.1949
 5190SOL    HW127206   3.398   3.521   0.203 -0.3258 -0.8747 -2.4782
 5190SOL    HW227207   3.264   3.577   0.212  2.5570  1.1825 -0.1615
 5191SOL     OW27208   1.682   2.745  12.355  0.5010  0.3800  0.7349
 5191SOL    HW127209   1.743   2.767  12.425  1.6131  2.0081 -0.7559
 5191SOL    HW227210   1.606   2.717  12.406  0.1097 -0.6664 -0.4240
 5192SOL     OW27211   0.265   2.634   6.582 -0.4428  0.1532 -0.3003
 5192SOL    HW127212   0.311   2.656   6.663  1.0632 -1.0308 -0.8165
 5192SOL    HW227213   0.335   2.592   6.532 -0.3229  1.2279 -1.0309
 5193SOL     OW27214   3.014   0.980  10.164 -0.0842  0.0453  0.5375
 5193SOL    HW127215   3.085   1.031  10.203 -0.5610  0.2590  1.1353
 5193SOL    HW227216   3.029   0.904  10.222  0.8240  0.1757  0.4716
 5194SOL     OW27217   4.574   2.079   7.439 -0.2605  0.4294  0.2841
 5194SOL    HW127218   4.567   2.165   7.398  0.6382 -0.4352 -1.6375
 5194SOL    HW227219   4.616   2.037   7.364 -1.7229  0.5058 -0.5637
 5195SOL     OW27220   0.166   2.384   8.688 -0.0257 -0.0047 -0.3824
 5195SOL    HW127221   0.108   2.380   8.612  0.5699 -0.4073 -0.8114
 5195SOL    HW227222   0.121   2.451   8.740 -1.6770  0.0802 -1.9357
 5196SOL     OW27223   0.234   2.496  16.681  0.8023  0.2801  0.5874
 5196SOL    HW127224   0.151   2.532  16.712 -0.7341  0.3727 -3.5234
 5196SOL    HW227225   0.217   2.401  16.678 -0.0430  0.3939  1.7547
 5197SOL     OW27226   1.209   2.982   6.087  0.8295  0.1448 -0.3262
 5197SOL    HW127227   1.225   2.888   6.080  0.8570  0.1999 -1.0245
 5197SOL    HW227228   1.218   2.984   6.182 -0.6581 -1.4854 -0.1425
 5198SOL     OW27229   4.425   2.035   6.096  0.0699 -0.1662 -0.0678
 5198SOL    HW127230   4.513   2.064   6.121 -0.0881 -2.1943  2.8242
 5198SOL    HW227231   4.408   1.961   6.153  1.6989  1.1813  2.1579
 5199SOL     OW27232   1.376   3.283   6.902 -0.0151 -0.1181  0.0798
 5199SOL    HW127233   1.329   3.339   6.964 -1.8485 -0.7260 -0.7378
 5199SOL    HW227234   1.303   3.265   6.841 -0.5652 -0.9840  1.0032
 5200SOL     OW27235   2.537   0.793   8.655  0.2739  0.2723 -0.1660
 5200SOL    HW127236   2.447   0.774   8.679  0.1476 -0.3400 -1.1007
 5200SOL    HW227237   2.587   0.775   8.735 -2.0074 -3.2423  0.4480
 5201SOL     OW27238   4.054   4.001   8.410 -0.9247 -0.0220  0.4052
 5201SOL    HW127239   4.059   3.923   8.354 -0.5724  1.7139 -1.9781
 5201SOL    HW227240   3.971   3.980   8.452 -0.8084 -0.3949  0.4468
 5202SOL     OW27241   3.499   3.919   6.605 -0.1649 -0.0798  0.6728
 5202SOL    HW127242   3.427   3.856   6.615 -1.6575  1.2340 -1.7193
 5202SOL    HW227243   3.487   3.962   6.690 -0.8089 -1.1669  1.1327
 5203SOL     OW27244   0.238   4.153   0.626  0.0009  0.0276  0.3269
 5203SOL    HW127245   0.302   4.223   0.634 -0.8241  0.9581 -1.1757
 5203SOL    HW227246   0.165   4.204   0.591  0.6813  0.5568 -0.3078
 5204SOL     OW27247   1.809   1.639   2.892 -0.2009  0.1477  0.8911
 5204SOL    HW127248   1.775   1.629   2.981 -1.2725  0.4695  0.5198
 5204SOL    HW227249   1.739   1.604   2.836 -0.5017 -1.4791  2.2942
 5205SOL     OW27250   2.114   3.481   5.205  0.2823  0.2620 -0.4013
 5205SOL    HW127251   2.147   3.425   5.276  0.4758 -0.0725 -0.7556
 5205SOL    HW227252   2.121   3.567   5.246  0.5399 -0.0623  0.2508
 5206SOL     OW27253   0.028   2.498   8.899  0.0420 -0.6194 -0.4352
 5206SOL    HW127254   0.090   2.435   8.938  2.4863  1.3929 -1.0611
 5206SOL    HW227255   4.682   2.468   8.940  1.2408 -2.8262  0.3514
 5207SOL     OW27256   2.152   2.531   1.681  0.1468  0.0547  0.4498
 5207SOL    HW127257   2.168   2.625   1.677  2.0756 -0.2895 -0.0989
 5207SOL    HW227258   2.159   2.510   1.774 -1.5327  1.0436  0.7954
 5208SOL     OW27259   0.599   2.315   3.817  0.0160 -0.1712 -0.3771
 5208SOL    HW127260   0.601   2.225   3.851  0.6811 -0.8806 -2.2692
 5208SOL    HW227261   0.581   2.303   3.724 -0.9294  1.0015 -0.3288
 5209SOL     OW27262   0.900   3.290   9.335 -0.0071  0.3651 -0.1774
 5209SOL    HW127263   0.857   3.281   9.420  1.6307  1.9204  0.8220
 5209SOL    HW227264   0.907   3.386   9.329  1.4474  0.1985 -1.0792
 5210SOL     OW27265   2.951   0.267   4.852 -0.3155  0.1407  0.1762
 5210SOL    HW127266   2.908   0.340   4.898 -1.3930 -0.5148  0.2039
 5210SOL    HW227267   3.017   0.228   4.910  0.2120 -1.8614 -1.7830
 5211SOL     OW27268   2.136   4.071   6.536  0.5470  0.8149  0.4439
 5211SOL    HW127269   2.119   4.049   6.627  1.1770  0.0517  0.3748
 5211SOL    HW227270   2.048   4.066   6.498 -0.1276 -1.7523  2.3371
 5212SOL     OW27271   3.685   0.892   5.495  0.1911 -0.3038  0.2720
 5212SOL    HW127272   3.612   0.946   5.525  0.9526 -0.5177  2.5072
 5212SOL    HW227273   3.758   0.954   5.496 -0.6093  0.6898 -1.6106
 5213SOL     OW27274   0.241   0.341   6.565 -0.2564 -0.3374 -0.4258
 5213SOL    HW127275   0.243   0.436   6.582 -0.1188 -0.6783  1.4698
 5213SOL    HW227276   0.331   0.320   6.590 -0.7392 -1.4592  0.3475
 5214SOL     OW27277   1.684   2.892  10.338 -0.3061 -0.1346  0.4528
 5214SOL    HW127278   1.628   2.931  10.271  1.1821  1.0745 -0.0812
 5214SOL    HW227279   1.617   2.879  10.406  0.4964  0.9997  1.4539
 5215SOL     OW27280   2.465   4.474   4.872 -0.4243 -0.5984 -0.7734
 5215SOL    HW127281   2.418   4.403   4.917  0.8879 -0.2319  1.1972
 5215SOL    HW227282   2.391   4.532   4.854  1.4520  2.1706  0.5840
 5216SOL     OW27283   3.567   2.598   4.381  0.0907 -0.1819  0.0771
 5216SOL    HW127284   3.625   2.525   4.402  0.1710 -0.6020 -1.6092
 5216SOL    HW227285   3.587   2.665   4.446  0.3727  0.4512 -0.6725
 5217SOL     OW27286   0.357   2.535   2.408  0.5562  0.0325  0.0496
 5217SOL    HW127287   0.338   2.488   2.326 -2.0196  1.1662  0.0039
 5217SOL    HW227288   0.294   2.486   2.461 -0.2913  0.3653 -0.6480
 5218SOL     OW27289   1.913   3.338   5.096  0.3387 -0.1631  0.5183
 5218SOL    HW127290   1.990   3.395   5.101 -1.7891  2.8651 -0.9944
 5218SOL    HW227291   1.865   3.372   5.020 -1.0703 -0.6548  1.1839
 5219SOL     OW27292   1.030   0.559   5.719  0.4657 -0.0770 -0.1232
 5219SOL    HW127293   1.030   0.520   5.806  1.4654 -2.1507 -1.0253
 5219SOL    HW227294   0.994   0.643   5.744 -0.6021 -0.9095  1.1151
 5220SOL     OW27295   1.418   2.182  14.879 -0.3721  0.1158  0.2909
 5220SOL    HW127296   1.388   2.249  14.817  1.4005  2.7736  2.2747
 5220SOL    HW227297   1.351   2.185  14.947 -0.1996 -2.7646  0.5501
 5221SOL     OW27298   0.389   0.948   2.472  0.4881 -0.0473  0.3674
 5221SOL    HW127299   0.477   0.983   2.458  0.0277  0.2391 -1.9392
 5221SOL    HW227300   0.412   0.877   2.531 -2.4525 -0.7808  0.6506
 5222SOL     OW27301   4.038   0.379  11.426  0.2867 -0.0806 -0.0516
 5222SOL    HW127302   4.043   0.307  11.489 -0.7156  0.7770  1.0209
 5222SOL    HW227303   3.995   0.336  11.353  3.2783 -0.2413 -1.6760
 5223SOL     OW27304   3.919   0.515   9.539  0.0742 -0.5067  0.6184
 5223SOL    HW127305   3.990   0.535   9.600  1.4691 -0.3202 -1.0465
 5223SOL    HW227306   3.878   0.598   9.517  1.3453 -0.3247 -1.0904
 5224SOL     OW27307   4.658   4.668   3.283 -0.2716  0.5119  0.0149
 5224SOL    HW127308   4.724   4.624   3.337 -0.0665  0.1088 -0.5608
 5224SOL    HW227309   4.667   0.022   3.315 -2.2108  1.5362 -2.3064
 5225SOL     OW27310   4.499   2.983   7.652  0.5641 -0.4336 -0.0172
 5225SOL    HW127311   4.491   3.065   7.603  0.3485 -2.1560 -2.8916
 5225SOL    HW227312   4.407   2.956   7.654  0.3586  0.3948  1.5428
 5226SOL     OW27313   3.717   1.923   3.339 -0.2106 -0.0621 -0.0258
 5226SOL    HW127314   3.696   1.911   3.432  1.5018 -1.8757  0.1424
 5226SOL    HW227315   3.631   1.898   3.306 -0.1997  1.1348 -0.9319
 5227SOL     OW27316   1.437   1.313   4.364 -0.5916 -0.3155 -0.2203
 5227SOL    HW127317   1.413   1.385   4.306  0.9280 -0.1872 -0.6950
 5227SOL    HW227318   1.471   1.365   4.437  0.4719 -0.6419 -0.4825
 5228SOL     OW27319   4.512   2.675   3.162 -0.9418 -0.1589  0.2776
 5228SOL    HW127320   4.506   2.770   3.159  1.9179  0.0548  1.2580
 5228SOL    HW227321   4.494   2.653   3.071 -0.2448 -0.4711  0.2151
 5229SOL     OW27322   0.567   3.501   6.141  0.6811 -0.3720 -0.3925
 5229SOL    HW127323   0.653   3.530   6.110  1.2239  0.8193  2.1864
 5229SOL    HW227324   0.579   3.406   6.144 -3.2357 -0.8697  0.9479
 5230SOL     OW27325   3.883   2.114   1.894  0.4209  0.5996  0.1337
 5230SOL    HW127326   3.806   2.098   1.948 -1.3789  0.9092 -2.3510
 5230SOL    HW227327   3.938   2.040   1.920 -1.2751 -0.8744 -0.5241
 5231SOL     OW27328   1.921   2.299   0.108  0.1692 -0.2218 -0.7350
 5231SOL    HW127329   1.877   2.327   0.188  0.8818 -1.8625  0.2504
 5231SOL    HW227330   1.858   2.233   0.078  1.0633 -1.8395  0.8681
 5232SOL     OW27331   1.515   4.050   6.581 -0.0070  0.3202 -0.1176
 5232SOL    HW127332   1.585   4.005   6.629 -1.2979 -0.0004  1.4886
 5232SOL    HW227333   1.536   4.140   6.605 -0.3915  0.4785 -0.3808
 5233SOL     OW27334   3.281   0.434   4.762  0.4280  0.0109 -0.3112
 5233SOL    HW127335   3.216   0.503   4.753  0.9719  0.5672 -0.0123
 5233SOL    HW227336   3.348   0.466   4.702  1.3747 -1.7416 -0.1927
 5234SOL     OW27337   2.684   4.397   3.864 -0.4181  0.1485  0.4585
 5234SOL    HW127338   2.665   4.400   3.958  0.3311 -3.2869  0.7468
 5234SOL    HW227339   2.623   4.463   3.832 -1.1293 -0.4471  0.5716
 5235SOL     OW27340   2.158   4.732   4.437  0.3262  0.4417 -0.0517
 5235SOL    HW127341   2.163   4.655   4.493 -3.2963  1.2227  1.3638
 5235SOL    HW227342   2.202   4.703   4.357 -0.5180 -2.5298  0.5632
 5236SOL     OW27343   0.235   0.457   3.675 -0.3988  0.3763 -0.1933
 5236SOL    HW127344   0.178   0.397   3.626  0.1952 -0.2093 -0.1593
 5236SOL    HW227345   0.316   0.455   3.625 -1.4930  1.0053 -1.9873
 5237SOL     OW27346   4.270   0.801   7.894 -0.3907 -0.0196  0.3533
 5237SOL    HW127347   4.315   0.868   7.945 -0.9934  1.7197 -1.4109
 5237SOL    HW227348   4.331   0.795   7.820 -1.9707 -1.9174 -0.8158
 5238SOL     OW27349   1.762   2.373   2.116 -0.1364  0.6549  0.0086
 5238SOL    HW127350   1.832   2.311   2.137 -3.1149 -2.1357  1.7456
 5238SOL    HW227351   1.738   2.395   2.206  0.5700  1.0979  0.0897
 5239SOL     OW27352   3.223   1.091   8.387  0.1170 -0.2566  0.1145
 5239SOL    HW127353   3.194   1.182   8.381 -2.2434 -0.9661  0.8167
 5239SOL    HW227354   3.274   1.088   8.305 -0.6863  0.7709 -0.4186
 5240SOL     OW27355   3.528   4.371   5.908  0.0632  0.2407  0.1222
 5240SOL    HW127356   3.583   4.306   5.951  0.2757 -0.0648 -0.6207
 5240SOL    HW227357   3.441   4.336   5.926 -0.4361  1.7109  0.6411
 5241SOL     OW27358   0.268   1.369  16.305  0.5140 -0.7328  0.2511
 5241SOL    HW127359   0.188   1.410  16.337  0.4943 -1.2516  0.8812
 5241SOL    HW227360   0.278   1.296  16.366 -1.8408 -1.3968 -0.1647
 5242SOL     OW27361   3.725   3.808   3.920 -0.0564  0.2696  0.2807
 5242SOL    HW127362   3.655   3.743   3.923 -0.2918  0.4986 -0.2622
 5242SOL    HW227363   3.694   3.896   3.898  1.1633  0.6034 -0.1301
 5243SOL     OW27364   0.356   4.177   6.265 -0.3421 -0.1492 -0.2953
 5243SOL    HW127365   0.316   4.264   6.261  0.2427  0.2333  2.0256
 5243SOL    HW227366   0.437   4.202   6.311 -0.3432 -3.0665  1.2896
 5244SOL     OW27367   1.304   4.194   5.660  0.1901  0.1528 -0.1834
 5244SOL    HW127368   1.265   4.171   5.744  1.1414  2.4263  0.8965
 5244SOL    HW227369   1.234   4.237   5.612 -0.1893  0.4876  0.6679
 5245SOL     OW27370   0.698   3.085   9.717 -0.0417 -0.3341  0.1847
 5245SOL    HW127371   0.657   3.019   9.661  1.9114 -1.5872  0.2320
 5245SOL    HW227372   0.707   3.157   9.655  0.8543 -1.6712 -1.2468
 5246SOL     OW27373   2.582   2.780   8.105 -0.4347 -0.0342  0.0625
 5246SOL    HW127374   2.515   2.717   8.081 -1.5204  0.2047  2.4301
 5246SOL    HW227375   2.532   2.842   8.158 -0.7578  1.3220 -1.8434
 5247SOL     OW27376   4.337   0.781  15.257 -0.2483 -0.4106  0.0812
 5247SOL    HW127377   4.396   0.738  15.195 -0.3034 -0.8080  0.3103
 5247SOL    HW227378   4.300   0.858  15.213  0.9130 -0.4602 -1.0136
 5248SOL     OW27379   1.755   3.277   3.777  0.4904  0.3292  0.4792
 5248SOL    HW127380   1.753   3.261   3.682 -0.8779 -0.3217  0.6069
 5248SOL    HW227381   1.694   3.350   3.784  0.2018  0.3025 -1.5260
 5249SOL     OW27382   1.364   4.266   1.223  0.6501 -0.0007  0.3869
 5249SOL    HW127383   1.317   4.299   1.146 -2.1532 -1.0221  1.6600
 5249SOL    HW227384   1.314   4.191   1.254 -0.6477 -0.1898 -2.1421
 5250SOL     OW27385   2.879   2.357   5.683 -0.4659  0.1784 -0.7876
 5250SOL    HW127386   2.792   2.372   5.720  0.1682  0.1480  0.7495
 5250SOL    HW227387   2.863   2.372   5.590  0.2585 -3.5980 -1.5227
 5251SOL     OW27388   0.786   1.261   6.926  0.2675  0.5340  0.6313
 5251SOL    HW127389   0.809   1.189   6.985 -0.0888  1.4015  1.8237
 5251SOL    HW227390   0.850   1.249   6.856 -0.0254  0.9564  0.2901
 5252SOL     OW27391   0.104   2.812   6.930  0.5035 -0.5320 -0.0455
 5252SOL    HW127392   0.081   2.774   6.845 -1.2719 -1.4021  0.8164
 5252SOL    HW227393   0.015   2.831   6.959 -0.2209  1.8846 -3.7973
 5253SOL     OW27394   1.874   1.037   1.155 -0.0394 -0.3799 -0.2718
 5253SOL    HW127395   1.911   1.063   1.240  0.6398 -1.2511 -0.2999
 5253SOL    HW227396   1.906   0.947   1.144  1.8471  0.4156 -1.4038
 5254SOL     OW27397   0.982   0.043   8.898 -0.1694 -0.0572  0.5788
 5254SOL    HW127398   0.988   0.081   8.986 -0.8244  0.2776  0.4719
 5254SOL    HW227399   1.071   0.041   8.863  0.0157 -2.3861  1.1490
 5255SOL     OW27400   3.180   1.821   7.864 -0.0744 -0.1170 -0.5424
 5255SOL    HW127401   3.172   1.825   7.768  1.4225  0.4575 -0.6365
 5255SOL    HW227402   3.262   1.774   7.876 -0.7185 -0.7913  1.1561
 5256SOL     OW27403   1.252   0.572   7.446 -0.7202  0.6473 -0.0331
 5256SOL    HW127404   1.157   0.570   7.452 -0.6323 -0.2812  1.1143
 5256SOL    HW227405   1.272   0.497   7.390 -0.2675  1.7043 -1.3033
 5257SOL     OW27406   1.991   2.872  16.125  0.1261  0.1089 -0.1729
 5257SOL    HW127407   1.955   2.819  16.196  1.6883 -0.8233 -0.0804
 5257SOL    HW227408   2.041   2.816  16.067  0.0983 -1.0363  0.9037
 5258SOL     OW27409   1.348   1.790   1.273  0.1782  0.0725 -0.2434
 5258SOL    HW127410   1.330   1.873   1.229 -0.4896  0.8243  1.4544
 5258SOL    HW227411   1.443   1.800   1.284 -0.1795  2.5804  0.4825
 5259SOL     OW27412   0.601   4.002   5.960  0.3778 -0.0316 -0.2295
 5259SOL    HW127413   0.665   3.931   5.964  0.3245 -0.0884 -0.3859
 5259SOL    HW227414   0.649   4.067   6.011 -1.4647  1.4746 -0.3953
 5260SOL     OW27415   1.582   3.948   1.095 -0.4446 -0.5585  0.1504
 5260SOL    HW127416   1.613   4.038   1.099  0.6327 -0.9413  0.3842
 5260SOL    HW227417   1.560   3.929   1.186  2.9713 -2.0892  0.6570
 5261SOL     OW27418   1.100   3.196   5.677 -0.2516 -1.0040 -0.2772
 5261SOL    HW127419   1.175   3.169   5.729 -0.9768 -1.8811  0.3269
 5261SOL    HW227420   1.129   3.282   5.648 -1.5615 -0.2113  0.7569
 5262SOL     OW27421   4.551   3.450   4.817 -0.6005 -0.5982 -0.5338
 5262SOL    HW127422   4.488   3.383   4.845 -1.8682  1.6195  1.9866
 5262SOL    HW227423   4.506   3.492   4.744 -0.9309  0.5358  0.3197
 5263SOL     OW27424   0.818   3.461   4.826 -0.2204 -0.1168  0.0446
 5263SOL    HW127425   0.766   3.529   4.870 -1.3692 -2.6543  2.6938
 5263SOL    HW227426   0.749   3.423   4.771 -1.5065 -1.0077  2.2243
 5264SOL     OW27427   3.116   0.247  16.891  0.2251 -0.5705  0.6191
 5264SOL    HW127428   3.036   0.289  16.856 -0.2252 -0.9618  1.1812
 5264SOL    HW227429   3.171   0.325  16.878  0.1070 -0.6056 -0.0957
 5265SOL     OW27430   1.758   4.462   2.290  0.1403  0.3485 -1.1208
 5265SOL    HW127431   1.708   4.541   2.311 -0.3846  0.3523 -2.3816
 5265SOL    HW227432   1.811   4.460   2.370 -0.5027  3.1879 -0.6350
 5266SOL     OW27433   3.182   1.545   2.264 -0.7828  0.3397 -0.7259
 5266SOL    HW127434   3.237   1.619   2.289  0.5202 -0.3510 -1.5667
 5266SOL    HW227435   3.124   1.600   2.211 -0.4509 -0.4612 -1.9295
 5267SOL     OW27436   4.088   0.840  17.065 -0.1494 -0.8616  0.4016
 5267SOL    HW127437   4.110   0.804  17.151  2.9636  0.2016  0.0491
 5267SOL    HW227438   4.009   0.788  17.050 -0.3973 -0.2645 -0.3560
 5268SOL     OW27439   4.163   0.120   0.258 -0.0672 -0.7193  0.2721
 5268SOL    HW127440   4.086   0.171   0.231 -0.9185 -2.3322 -0.3634
 5268SOL    HW227441   4.125   0.032   0.256 -0.6644 -0.4456 -0.5373
 5269SOL     OW27442   2.618   4.116   4.237 -0.0433 -0.2370  0.5747
 5269SOL    HW127443   2.596   4.046   4.175  1.5968 -2.4072  2.4130
 5269SOL    HW227444   2.574   4.083   4.316  1.0238 -0.6136  1.0069
 5270SOL     OW27445   0.994   0.377   3.405 -0.6559 -0.0270 -0.4266
 5270SOL    HW127446   0.973   0.292   3.366  1.0346 -0.4320 -0.4547
 5270SOL    HW227447   1.088   0.370   3.387 -0.8729 -1.5509 -1.0448
 5271SOL     OW27448   3.277   0.921   6.739  0.3525 -0.3182  0.2492
 5271SOL    HW127449   3.216   0.990   6.713 -0.2643 -0.8180  0.3490
 5271SOL    HW227450   3.225   0.852   6.781  0.1580  0.2531  0.9360
 5272SOL     OW27451   2.704   3.680   5.434 -0.0530 -0.0767  0.3841
 5272SOL    HW127452   2.641   3.611   5.413 -1.7300  1.6832 -0.3389
 5272SOL    HW227453   2.678   3.697   5.524  1.5148 -0.6452  0.9377
 5273SOL     OW27454   3.572   0.081   7.998 -0.1717 -0.2194  0.2686
 5273SOL    HW127455   3.604   4.728   8.018  0.9261 -0.6074 -3.0517
 5273SOL    HW227456   3.659   0.119   8.010  0.2564 -0.9130 -0.6102
 5274SOL     OW27457   3.390   2.539   7.153  0.2471 -0.0294  0.2577
 5274SOL    HW127458   3.417   2.622   7.194 -0.5476 -0.0036  0.7407
 5274SOL    HW227459   3.349   2.516   7.237 -3.3587  3.3064 -0.5943
 5275SOL     OW27460   3.574   0.750   6.316 -0.2309  0.5088 -0.0406
 5275SOL    HW127461   3.609   0.839   6.322 -2.0423  1.0652  2.2494
 5275SOL    HW227462   3.614   0.712   6.394 -1.3468 -1.2704 -0.3353
 5276SOL     OW27463   1.055   0.716   5.208  0.1337  0.0015 -0.0564
 5276SOL    HW127464   1.117   0.706   5.135 -0.2981  0.0970 -0.4343
 5276SOL    HW227465   1.109   0.732   5.285  0.6884  0.0897 -0.4603
 5277SOL     OW27466   0.720   4.051   9.359  0.2302 -0.1270  0.3780
 5277SOL    HW127467   0.676   4.126   9.319  0.5065 -0.2721 -0.2090
 5277SOL    HW227468   0.793   4.032   9.300 -0.2386  0.0358 -0.2589
 5278SOL     OW27469   3.766   3.824   0.748  0.0475  0.7662 -0.0653
 5278SOL    HW127470   3.763   3.772   0.668 -0.4137 -0.3935  0.7081
 5278SOL    HW227471   3.856   3.855   0.760  0.2739 -0.4630  1.3989
 5279SOL     OW27472   4.468   1.541   8.486 -0.2001  0.0445  0.9788
 5279SOL    HW127473   4.481   1.630   8.520  0.9388  0.3052 -0.1147
 5279SOL    HW227474   4.408   1.561   8.415  1.5346  0.8333 -0.2842
 5280SOL     OW27475   4.426   2.325   0.513  0.9915  0.3032 -0.2743
 5280SOL    HW127476   4.403   2.263   0.443 -0.9334 -0.6931  1.2127
 5280SOL    HW227477   4.482   2.263   0.560  1.6454  1.5309  0.5750
 5281SOL     OW27478   2.121   3.231  17.510  0.6638  0.0586 -0.0800
 5281SOL    HW127479   2.155   3.176  17.440  0.5175 -0.4260  0.2288
 5281SOL    HW227480   2.079   3.294  17.452  0.8426 -0.9459 -1.2948
 5282SOL     OW27481   0.945   1.545  10.917 -0.0949  0.1856  0.2105
 5282SOL    HW127482   0.953   1.636  10.887  0.2598  0.5016  1.2726
 5282SOL    HW227483   0.901   1.510  10.840  1.7091 -0.0504 -0.7310
 5283SOL     OW27484   2.790   1.428   7.970  0.3687  0.4731 -0.2242
 5283SOL    HW127485   2.838   1.507   7.946  0.1426  0.5470 -0.4302
 5283SOL    HW227486   2.732   1.461   8.039 -0.3623 -0.2450 -0.5042
 5284SOL     OW27487   1.899   4.280  15.382  0.4835  0.3486 -0.0745
 5284SOL    HW127488   1.857   4.246  15.461 -1.3822  0.4715 -1.0149
 5284SOL    HW227489   1.930   4.203  15.335  2.7721  2.0718 -1.3699
 5285SOL     OW27490   1.880   0.335  16.999  0.0308  0.1730  0.8596
 5285SOL    HW127491   1.927   0.295  17.072  0.4495 -2.6949 -0.9941
 5285SOL    HW227492   1.867   0.428  17.019  1.8984  1.3596 -3.4726
 5286SOL     OW27493   3.120   4.603  12.287  0.4057 -0.7131 -0.4297
 5286SOL    HW127494   3.161   4.560  12.362 -1.0118 -2.5638 -0.7341
 5286SOL    HW227495   3.174   4.584  12.211  0.8725 -0.3188 -0.1970
 5287SOL     OW27496   2.238   0.212   9.277 -0.1904 -0.5981  0.5674
 5287SOL    HW127497   2.208   0.124   9.296 -1.5702 -0.8956 -2.9153
 5287SOL    HW227498   2.298   0.218   9.351 -1.3618  2.1115  1.3116
 5288SOL     OW27499   1.275   2.868   5.738  0.4276 -0.3203 -0.0576
 5288SOL    HW127500   1.294   2.952   5.780  3.6751  0.1359 -2.5150
 5288SOL    HW227501   1.337   2.815   5.789  1.0600 -0.2514 -0.7648
 5289SOL     OW27502   0.058   0.965   5.416  0.6575 -0.2386 -0.2928
 5289SOL    HW127503   4.716   1.016   5.393 -0.2309 -0.7272  1.6035
 5289SOL    HW227504   0.068   1.001   5.505  3.6933  0.3438 -0.8522
 5290SOL     OW27505   1.294   3.580   2.982 -0.0844 -0.6380  0.1995
 5290SOL    HW127506   1.389   3.575   2.987  0.0393 -0.6129 -2.1361
 5290SOL    HW227507   1.275   3.488   2.968  0.4458 -0.6645 -0.3532
 5291SOL     OW27508   4.306   3.509  17.392  0.0360 -0.0700  0.7952
 5291SOL    HW127509   4.331   3.449  17.462 -0.0724  1.1868  1.9049
 5291SOL    HW227510   4.230   3.547  17.436 -0.3013  0.6071 -0.3635
 5292SOL     OW27511   3.438   1.228   7.519 -0.1021 -0.4662 -0.0213
 5292SOL    HW127512   3.347   1.249   7.541  0.1953  0.8764 -0.1108
 5292SOL    HW227513   3.432   1.146   7.469  1.2497  0.2378 -1.3217
 5293SOL     OW27514   4.137   2.527   9.812  0.2539  0.4274  0.1317
 5293SOL    HW127515   4.057   2.482   9.784 -0.0688  1.2447 -0.2613
 5293SOL    HW227516   4.111   2.616   9.788 -2.1762 -0.4587 -0.5213
 5294SOL     OW27517   0.926   0.822   9.951 -0.6249 -0.0592 -0.0207
 5294SOL    HW127518   0.872   0.890   9.911  1.1981  0.8804 -0.8607
 5294SOL    HW227519   0.967   0.874  10.020 -1.3667  2.5887 -1.5647
 5295SOL     OW27520   4.617   2.551   0.373  0.2524 -0.0898  0.6061
 5295SOL    HW127521   4.556   2.506   0.314 -1.2101  0.9581  1.3145
 5295SOL    HW227522   4.589   2.641   0.356  1.3122 -0.0633 -0.9993
 5296SOL     OW27523   2.139   2.844   6.427  0.8675  0.1252  0.0841
 5296SOL    HW127524   2.230   2.817   6.438  1.2353  1.6724  0.8105
 5296SOL    HW227525   2.107   2.756   6.406 -0.5247  0.8169 -0.6980
 5297SOL     OW27526   2.401   4.258   8.995 -0.0322  0.6143 -0.3523
 5297SOL    HW127527   2.417   4.212   9.077  0.4021 -1.2471 -1.4776
 5297SOL    HW227528   2.307   4.272   9.004  0.3554  2.7355  0.3423
 5298SOL     OW27529   1.409   2.206   9.569  0.3616 -0.6636 -0.2609
 5298SOL    HW127530   1.408   2.227   9.663  0.4010  4.0587 -1.3555
 5298SOL    HW227531   1.413   2.110   9.573 -0.3549 -0.6547  0.6154
 5299SOL     OW27532   2.440   4.679   4.193 -0.4149  0.8271 -0.2806
 5299SOL    HW127533   2.459   4.622   4.267 -0.3000  1.6080  0.2891
 5299SOL    HW227534   2.350   4.654   4.169  0.3390 -1.2442 -0.9118
 5300SOL     OW27535   2.256   4.507   8.637 -0.1892  0.2084 -0.2181
 5300SOL    HW127536   2.319   4.566   8.678 -1.0177  0.2010  1.0727
 5300SOL    HW227537   2.283   4.514   8.545  0.8722 -3.1132 -0.1682
 5301SOL     OW27538   0.442   4.437   8.724 -0.4630  0.1953  0.5851
 5301SOL    HW127539   0.402   4.396   8.801 -2.5811  0.9816 -0.0786
 5301SOL    HW227540   0.482   4.362   8.681  1.0205 -0.4454  3.0870
 5302SOL     OW27541   4.500   0.907   4.180 -0.3634  0.3369  0.0396
 5302SOL    HW127542   4.538   0.991   4.205  2.3903 -1.3888  1.6032
 5302SOL    HW227543   4.551   0.882   4.104  0.4750  1.2048  0.3112
 5303SOL     OW27544   1.295   2.685  11.147 -0.1983 -0.0253  0.1637
 5303SOL    HW127545   1.237   2.637  11.206  2.1444  0.4051  2.7895
 5303SOL    HW227546   1.330   2.608  11.103 -1.0660  1.8299 -3.7430
 5304SOL     OW27547   2.203   1.726   2.294  0.5554  0.2497  0.8534
 5304SOL    HW127548   2.204   1.633   2.272  0.9604  0.4848 -0.1111
 5304SOL    HW227549   2.296   1.749   2.297  1.1435 -2.4617  3.3995
 5305SOL     OW27550   2.761   1.522   7.599  0.3384 -0.5852 -0.0468
 5305SOL    HW127551   2.705   1.476   7.661  0.3443 -1.0768 -0.4061
 5305SOL    HW227552   2.822   1.556   7.664 -0.6623 -0.0894  0.6423
 5306SOL     OW27553   0.540   3.573   5.498 -0.2192  0.3714 -0.0877
 5306SOL    HW127554   0.523   3.543   5.408 -0.6336  0.0916  0.0861
 5306SOL    HW227555   0.456   3.614   5.517  0.5307  0.6429  2.5894
 5307SOL     OW27556   4.224   3.607   6.075 -0.2901  0.4399  0.2050
 5307SOL    HW127557   4.305   3.575   6.115 -0.2057  0.2833 -0.0929
 5307SOL    HW227558   4.174   3.527   6.056  1.9895 -1.1806  1.0966
 5308SOL     OW27559   4.059   1.463   1.093  0.0004 -0.1099  0.0413
 5308SOL    HW127560   4.102   1.383   1.124  0.6043  0.3631  0.4294
 5308SOL    HW227561   4.081   1.455   1.000 -1.7245 -2.2364 -0.1966
 5309SOL     OW27562   2.877   1.197   2.498  0.3555  0.7508  0.8513
 5309SOL    HW127563   2.931   1.132   2.543 -2.5689 -2.4628 -0.2276
 5309SOL    HW227564   2.843   1.248   2.571  0.1330  2.3940 -0.4015
 5310SOL     OW27565   2.273   0.606   4.598  0.1210  0.0451 -0.5214
 5310SOL    HW127566   2.308   0.668   4.661  0.4973 -2.9532  2.2456
 5310SOL    HW227567   2.181   0.634   4.604 -0.2746 -1.4745  0.8009
 5311SOL     OW27568   2.433   1.884   9.493 -0.6127  0.4086  0.3929
 5311SOL    HW127569   2.366   1.851   9.433  1.4655 -1.8266 -0.6974
 5311SOL    HW227570   2.424   1.822   9.565  0.4961 -0.1406  0.0616
 5312SOL     OW27571   4.248   2.429   8.962  0.2654  0.1433  0.2868
 5312SOL    HW127572   4.185   2.383   9.017 -0.1205  0.2018 -0.1061
 5312SOL    HW227573   4.184   2.463   8.899 -1.8740 -0.0422  2.3619
 5313SOL     OW27574   4.689   1.867   7.999  0.1986  0.1533 -0.6486
 5313SOL    HW127575   0.044   1.885   8.024  0.3251  2.2995 -2.6328
 5313SOL    HW227576   4.657   1.835   8.083  0.9419 -0.7802 -0.7151
 5314SOL     OW27577   1.934   4.709   9.736 -0.0405  0.2100  0.5718
 5314SOL    HW127578   1.897   0.056   9.704 -2.0839 -0.2652  1.7409
 5314SOL    HW227579   1.854   4.660   9.755  0.8453 -0.7657  1.7873
 5315SOL     OW27580   2.116   3.887   2.178 -0.4727 -0.0923 -0.5120
 5315SOL    HW127581   2.202   3.847   2.188 -0.0674  0.3597 -2.1669
 5315SOL    HW227582   2.090   3.861   2.266  0.6541  1.5927  0.3142
 5316SOL     OW27583   1.074   1.241   3.475  0.1544 -1.2160  0.0907
 5316SOL    HW127584   1.086   1.181   3.401  0.8417 -1.9272  0.7748
 5316SOL    HW227585   1.131   1.210   3.546  1.1210 -2.9818 -1.4568
 5317SOL     OW27586   1.617   2.356   9.201 -0.4191  0.6386  0.2197
 5317SOL    HW127587   1.544   2.304   9.236 -1.5637 -0.1311 -3.2526
 5317SOL    HW227588   1.690   2.296   9.194 -1.3151 -0.6360  1.8286
 5318SOL     OW27589   0.570   0.190   6.349 -0.9182  0.0396 -0.2160
 5318SOL    HW127590   0.567   0.268   6.293  2.6496 -0.6573 -1.4166
 5318SOL    HW227591   0.614   0.223   6.427 -1.0112  1.9770 -0.9662
 5319SOL     OW27592   2.745   2.968   5.585  0.0826  0.1806  0.1167
 5319SOL    HW127593   2.840   2.970   5.595  0.0705 -0.7593  0.4068
 5319SOL    HW227594   2.719   2.958   5.676 -0.6084 -1.0799 -0.2124
 5320SOL     OW27595   2.947   4.385  13.137 -0.2841 -0.0578 -0.2707
 5320SOL    HW127596   2.977   4.375  13.227 -0.2683  0.8102 -0.1729
 5320SOL    HW227597   2.989   4.467  13.109 -0.6848  0.2622  0.0686
 5321SOL     OW27598   0.290   1.352   9.313  0.3808  0.9536  0.2706
 5321SOL    HW127599   0.254   1.377   9.399 -0.2704 -1.8598  0.8092
 5321SOL    HW227600   0.273   1.426   9.254 -0.5089  2.0349  1.8609
 5322SOL     OW27601   4.184   3.652   0.198  0.6363 -0.0782 -0.3091
 5322SOL    HW127602   4.227   3.610   0.272  1.0980 -0.2672 -0.6819
 5322SOL    HW227603   4.123   3.712   0.240  2.2889  0.7214  0.9292
 5323SOL     OW27604   3.346   2.811  11.594  0.3463  0.0801 -0.5869
 5323SOL    HW127605   3.441   2.820  11.600  0.2948  1.8116 -2.2388
 5323SOL    HW227606   3.327   2.902  11.573 -1.1792 -0.4569 -1.5248
 5324SOL     OW27607   1.040   1.240  15.225  0.0032 -0.0429 -0.2868
 5324SOL    HW127608   1.074   1.285  15.302 -0.0524 -0.3958 -0.0581
 5324SOL    HW227609   0.961   1.199  15.261 -0.2505  1.4348  0.8357
 5325SOL     OW27610   2.434   3.012   8.317  0.0630 -0.4346  0.4715
 5325SOL    HW127611   2.515   3.057   8.294 -0.2364 -0.4365 -0.5919
 5325SOL    HW227612   2.375   3.083   8.290  2.5596  1.0638 -1.0030
 5326SOL     OW27613   3.368   4.675  12.078 -0.0346 -0.8518 -0.8834
 5326SOL    HW127614   3.402   4.675  12.167  0.9925 -1.1780 -1.2705
 5326SOL    HW227615   3.408   4.597  12.038  2.2507  0.0014 -0.2393
 5327SOL     OW27616   2.583   0.152   5.084  0.2791  0.0507 -0.4666
 5327SOL    HW127617   2.678   0.167   5.076  0.1384  1.6945  0.8648
 5327SOL    HW227618   2.559   0.167   4.992  0.2477  0.1556 -0.4420
 5328SOL     OW27619   2.340   1.303   2.697  0.1137 -0.3754  0.3583
 5328SOL    HW127620   2.275   1.233   2.695 -0.3844  0.0392  1.7506
 5328SOL    HW227621   2.383   1.275   2.778  1.3606  0.4512 -0.0127
 5329SOL     OW27622   2.693   0.343   2.201 -0.1144  0.1472  0.3789
 5329SOL    HW127623   2.705   0.249   2.187  0.2494  0.4043 -1.0625
 5329SOL    HW227624   2.732   0.376   2.120  0.6143 -0.1443  0.6076
 5330SOL     OW27625   2.856   2.884   0.738 -0.4101 -0.8534  0.7121
 5330SOL    HW127626   2.876   2.974   0.764 -0.9068 -0.6555  0.4021
 5330SOL    HW227627   2.806   2.897   0.657 -1.3056  1.5027  1.6434
 5331SOL     OW27628   2.081   1.062   5.897 -0.7324  0.0737  0.2880
 5331SOL    HW127629   2.114   1.148   5.874 -1.5486 -0.2061 -1.9897
 5331SOL    HW227630   2.156   1.014   5.931 -0.4149 -0.2510 -0.8702
 5332SOL     OW27631   1.144   3.264  17.035 -0.1351 -0.1928 -0.3096
 5332SOL    HW127632   1.059   3.220  17.031 -0.4173  0.3395 -0.2945
 5332SOL    HW227633   1.203   3.191  17.018 -0.7542 -0.3310 -1.8359
 5333SOL     OW27634   3.554   3.454   8.077  0.1813 -0.0586  0.3887
 5333SOL    HW127635   3.507   3.499   8.007 -1.6985  0.9010  2.2427
 5333SOL    HW227636   3.576   3.526   8.136 -2.2597  1.4140 -0.5030
 5334SOL     OW27637   2.735   2.202   4.122 -0.1293 -0.1080 -0.1391
 5334SOL    HW127638   2.640   2.194   4.111  0.0320 -1.7153 -0.2747
 5334SOL    HW227639   2.752   2.133   4.186 -1.2238 -1.5127 -1.3710
 5335SOL     OW27640   2.937   1.738   3.560 -0.3627 -0.2527 -0.7226
 5335SOL    HW127641   2.879   1.699   3.495  2.2030 -1.2721 -2.4070
 5335SOL    HW227642   2.903   1.694   3.638 -0.2273 -0.7782 -0.9587
 5336SOL     OW27643   1.227   1.303  11.501 -0.5298  0.7911  0.7573
 5336SOL    HW127644   1.196   1.214  11.519  1.7511 -0.3753 -1.1169
 5336SOL    HW227645   1.301   1.312  11.562  0.3168 -0.9522 -0.0226
 5337SOL     OW27646   0.574   1.922   5.402  0.3532 -0.1064 -0.1054
 5337SOL    HW127647   0.658   1.945   5.362 -0.5370 -0.1508 -1.9781
 5337SOL    HW227648   0.567   1.827   5.393  0.4237 -0.1350  0.1433
 5338SOL     OW27649   4.566   3.155   0.402  0.1054  0.2567  0.0909
 5338SOL    HW127650   4.620   3.219   0.449 -1.0854  1.6610 -0.4398
 5338SOL    HW227651   4.577   3.077   0.456 -0.3748  0.8584  1.0579
 5339SOL     OW27652   3.747   4.192   0.818 -0.3826 -0.0897 -0.2392
 5339SOL    HW127653   3.825   4.160   0.862 -0.4176  0.5143  0.2601
 5339SOL    HW227654   3.684   4.131   0.856  1.7105 -2.2001 -0.1923
 5340SOL     OW27655   0.183   0.448   3.975 -0.2175 -0.2022 -0.1073
 5340SOL    HW127656   0.210   0.386   3.908  0.8870 -0.3422  0.4604
 5340SOL    HW227657   0.091   0.425   3.978 -0.4586  0.8870  1.1671
 5341SOL     OW27658   0.088   1.657   8.600 -1.0359 -0.1193  0.4438
 5341SOL    HW127659   0.143   1.691   8.671  1.1048  1.1202 -1.7865
 5341SOL    HW227660   0.107   1.565   8.618 -0.3149 -0.0774 -0.1130
 5342SOL     OW27661   2.258   4.686   5.085 -0.0106  0.4960  0.6002
 5342SOL    HW127662   2.208   0.002   5.149 -0.0450 -0.4429  1.3258
 5342SOL    HW227663   2.294   0.021   5.032 -0.8584 -0.1944 -0.8835
 5343SOL     OW27664   2.898   2.337   7.972 -0.6222 -0.2200  0.7617
 5343SOL    HW127665   2.852   2.291   8.042  0.6079  0.5629  2.1160
 5343SOL    HW227666   2.853   2.422   7.968  1.4921  0.7912 -2.0503
 5344SOL     OW27667   1.459   3.871   6.105  0.0982  0.0983  0.0229
 5344SOL    HW127668   1.540   3.821   6.094  1.0771  1.3985  1.2815
 5344SOL    HW227669   1.484   3.927   6.178 -1.3928  0.7596  0.0195
 5345SOL     OW27670   1.973   1.636   9.749  0.6268 -0.1125  0.4299
 5345SOL    HW127671   1.894   1.690   9.746  0.9529  0.4982  2.3789
 5345SOL    HW227672   1.936   1.576   9.684  0.1571 -0.9263  1.4505
 5346SOL     OW27673   3.261   0.024  13.248 -0.7595 -0.8193  0.1460
 5346SOL    HW127674   3.195   0.089  13.270  1.1631  0.8353  0.9203
 5346SOL    HW227675   3.325   0.074  13.197 -0.6875  0.5694  1.6263
 5347SOL     OW27676   3.365   1.273   3.044  0.1618  0.7637  0.5585
 5347SOL    HW127677   3.457   1.299   3.056  0.6564 -0.6039 -0.3104
 5347SOL    HW227678   3.356   1.205   3.111  1.6450  1.3112  1.3104
 5348SOL     OW27679   0.170   3.734   9.355  0.2269  0.3637  0.5085
 5348SOL    HW127680   0.201   3.695   9.437  1.1729  1.4044  0.6478
 5348SOL    HW227681   0.251   3.724   9.305  1.1698 -0.0629  2.1095
 5349SOL     OW27682   3.194   3.116   6.708 -0.4019  0.3186  0.4561
 5349SOL    HW127683   3.144   3.045   6.749  0.5092 -0.2373  0.6190
 5349SOL    HW227684   3.138   3.194   6.701  0.7772  1.3589  2.6511
 5350SOL     OW27685   1.082   2.436   4.712 -0.8008 -0.2673  0.2466
 5350SOL    HW127686   1.139   2.443   4.788 -1.3379 -1.5311  0.7648
 5350SOL    HW227687   1.110   2.502   4.648  0.8836  0.3650  1.6517
 5351SOL     OW27688   2.694   0.775   8.871 -0.0720  0.1015  0.2395
 5351SOL    HW127689   2.665   0.708   8.934 -1.4839 -1.8405 -2.4824
 5351SOL    HW227690   2.705   0.848   8.932  1.7194  0.0088  0.0241
 5352SOL     OW27691   2.695   1.584   9.092 -0.2732 -0.1551  0.5116
 5352SOL    HW127692   2.667   1.584   9.184  1.1660  0.5752  0.9505
 5352SOL    HW227693   2.703   1.679   9.079  0.3134 -0.1329  1.0614
 5353SOL     OW27694   2.933   0.189   6.504  0.1408  0.4152  0.3161
 5353SOL    HW127695   2.921   0.102   6.466  1.2223  0.8327 -0.9676
 5353SOL    HW227696   2.874   0.192   6.580 -1.5921 -1.9112 -0.9346
 5354SOL     OW27697   3.382   2.106   9.233  0.1879 -0.0081  0.1050
 5354SOL    HW127698   3.453   2.106   9.298  1.3652  0.7773 -1.1683
 5354SOL    HW227699   3.430   2.052   9.170 -0.1364  1.5486 -1.4821
 5355SOL     OW27700   4.716   3.735  11.806 -0.0910 -0.8835 -0.0965
 5355SOL    HW127701   0.019   3.667  11.861  0.4841 -2.0027 -1.9082
 5355SOL    HW227702   4.673   3.688  11.735  0.2137 -1.9558  0.4268
 5356SOL     OW27703   4.611   3.648   8.036  0.4487  0.3782  0.1780
 5356SOL    HW127704   4.536   3.694   7.998  0.6722 -0.2424 -1.0125
 5356SOL    HW227705   4.581   3.614   8.120  0.5509 -1.4839 -0.5414
 5357SOL     OW27706   2.733   2.954   3.098 -0.0832 -0.4404  0.0445
 5357SOL    HW127707   2.740   2.887   3.166  2.3765 -1.0985 -0.8174
 5357SOL    HW227708   2.824   2.983   3.088  0.2563 -1.2653  0.6984
 5358SOL     OW27709   0.647   0.055   7.545 -0.6440  0.4768 -0.1688
 5358SOL    HW127710   0.675   0.088   7.630 -0.9851  0.6341 -0.1164
 5358SOL    HW227711   0.563   0.014   7.566 -1.2972  1.5978 -0.5875
 5359SOL     OW27712   0.207   3.049  12.742 -0.1386 -0.5130  0.6470
 5359SOL    HW127713   0.198   2.960  12.708 -2.0816  0.1328 -0.4835
 5359SOL    HW227714   0.223   3.019  12.831 -0.3116  3.0770  1.8744
 5360SOL     OW27715   4.574   2.683   1.951  0.2560 -0.1671 -0.0851
 5360SOL    HW127716   4.651   2.633   1.978 -1.5031 -2.4221  0.7461
 5360SOL    HW227717   4.528   2.610   1.910  0.3219 -0.5236  0.4794
 5361SOL     OW27718   0.323   3.657  14.324 -0.3642  0.2529  0.3919
 5361SOL    HW127719   0.306   3.741  14.367  0.4960  0.2599  0.7237
 5361SOL    HW227720   0.416   3.668  14.304 -0.4857 -0.1929 -0.3858
 5362SOL     OW27721   4.446   0.744   7.665 -0.7584 -0.0720 -0.1753
 5362SOL    HW127722   4.489   0.678   7.719  1.1012  2.3112  1.2341
 5362SOL    HW227723   4.442   0.709   7.576  1.0311 -1.0204  0.1174
 5363SOL     OW27724   0.379   0.337   7.297  0.2647 -0.0293 -0.0133
 5363SOL    HW127725   0.396   0.261   7.240 -0.5346 -0.8844  0.8890
 5363SOL    HW227726   0.390   0.408   7.234 -1.4277  0.0626 -0.1796
 5364SOL     OW27727   3.460   1.281   1.150 -0.2808  0.4830  0.8346
 5364SOL    HW127728   3.546   1.294   1.190 -0.0993 -1.3423  1.0654
 5364SOL    HW227729   3.442   1.374   1.137 -3.3164  0.0821  2.2435
 5365SOL     OW27730   3.083   3.067  16.320 -0.0693 -0.4258 -0.2601
 5365SOL    HW127731   3.170   3.107  16.316 -1.9089  3.4496 -1.1674
 5365SOL    HW227732   3.054   3.084  16.231 -0.6206 -1.3808 -0.2596
 5366SOL     OW27733   0.465   4.107  17.380 -0.0222 -0.7838  0.0005
 5366SOL    HW127734   0.449   4.164  17.455 -1.6147  0.2262 -1.1153
 5366SOL    HW227735   0.451   4.168  17.308 -0.4771  0.1365  0.8843
 5367SOL     OW27736   0.415   0.988   4.538 -0.2471 -0.5087 -0.5840
 5367SOL    HW127737   0.487   0.951   4.589 -2.0201 -1.8146  0.9520
 5367SOL    HW227738   0.346   0.922   4.546 -0.3113 -0.1791  1.6489
 5368SOL     OW27739   4.168   2.413   1.139 -0.5942 -0.0539 -0.1779
 5368SOL    HW127740   4.145   2.462   1.060 -1.7853 -1.2579 -0.5792
 5368SOL    HW227741   4.094   2.353   1.148 -1.1273  0.6997  0.4551
 5369SOL     OW27742   1.254   2.479   4.946 -0.4216 -0.0485 -0.4119
 5369SOL    HW127743   1.293   2.508   5.028 -0.6755 -1.9290  0.3781
 5369SOL    HW227744   1.218   2.564   4.917  1.9086  0.9426 -0.3473
 5370SOL     OW27745   1.199   0.190  13.958  0.4759 -0.0712 -0.0888
 5370SOL    HW127746   1.258   0.139  14.014  0.2068 -1.2905 -0.9042
 5370SOL    HW227747   1.237   0.275  13.978 -1.1652 -0.0562  2.9655
 5371SOL     OW27748   2.565   2.927   1.621 -0.2125  0.2875  0.2276
 5371SOL    HW127749   2.647   2.877   1.625 -0.9548 -0.9415  0.0258
 5371SOL    HW227750   2.505   2.853   1.624 -0.7995  0.7917  0.7079
 5372SOL     OW27751   0.187   4.591  13.976 -0.3258 -0.3643  0.4308
 5372SOL    HW127752   0.107   4.625  13.936  0.1833 -0.6108 -0.8010
 5372SOL    HW227753   0.176   4.501  13.947 -3.0470  0.0027  0.3773
 5373SOL     OW27754   0.893   2.043   7.433  0.0630 -0.2756 -0.1138
 5373SOL    HW127755   0.900   1.949   7.447 -0.7026 -0.2506  0.4281
 5373SOL    HW227756   0.970   2.055   7.378 -0.0080 -0.7758 -0.3233
 5374SOL     OW27757   0.198   3.500   5.592  0.7113 -0.3220 -0.0884
 5374SOL    HW127758   0.166   3.488   5.503  1.1032 -1.1547 -0.1177
 5374SOL    HW227759   0.178   3.592   5.609 -1.1643 -0.6494 -0.5466
 5375SOL     OW27760   1.436   0.961   6.092  0.3469  0.8961 -0.2633
 5375SOL    HW127761   1.408   0.997   6.008 -3.8441  1.9216  1.5884
 5375SOL    HW227762   1.499   0.896   6.062 -0.7971 -0.5698  0.4721
 5376SOL     OW27763   1.153   2.729  16.092  0.3957  0.2141  0.4586
 5376SOL    HW127764   1.058   2.722  16.079  0.4128 -0.5119  0.6910
 5376SOL    HW227765   1.156   2.824  16.100 -1.2845  0.3710 -0.6900
 5377SOL     OW27766   0.506   2.535   5.797  0.7014  0.0508 -0.0332
 5377SOL    HW127767   0.527   2.576   5.881  0.9433 -1.2690  0.5532
 5377SOL    HW227768   0.436   2.591   5.766 -2.0149 -2.0664  2.2711
 5378SOL     OW27769   0.066   1.907   6.221 -0.3042 -0.4068  0.1676
 5378SOL    HW127770   0.040   1.987   6.174 -0.1663  0.1312  1.0081
 5378SOL    HW227771   0.159   1.923   6.234 -0.4146  1.6826 -1.4845
 5379SOL     OW27772   3.993   0.567  10.050  0.6247  0.0367 -0.4196
 5379SOL    HW127773   4.040   0.591  10.130  0.8411  0.6412 -0.7285
 5379SOL    HW227774   4.067   0.529  10.001  1.4793 -2.0769  2.5473
 5380SOL     OW27775   4.446   2.992   5.542  0.2306 -0.1277 -0.2902
 5380SOL    HW127776   4.510   2.924   5.526 -0.1125 -0.6942  0.7468
 5380SOL    HW227777   4.485   3.037   5.617  0.0548 -2.3806  1.1647
 5381SOL     OW27778   4.476   1.349   8.899  0.2830  0.1247  0.5221
 5381SOL    HW127779   4.520   1.434   8.897  0.0412  0.2103 -1.0919
 5381SOL    HW227780   4.442   1.358   8.988  0.4321 -0.1300  0.6049
 5382SOL     OW27781   3.555   3.534   1.911 -0.3416 -0.2443  0.3612
 5382SOL    HW127782   3.603   3.496   1.838 -0.7495 -0.3931  0.1736
 5382SOL    HW227783   3.545   3.626   1.887  0.5103 -0.1819  0.2476
 5383SOL     OW27784   1.684   3.865   4.658 -0.1082 -0.4246 -0.0278
 5383SOL    HW127785   1.708   3.849   4.567 -0.4510  0.9009 -0.3527
 5383SOL    HW227786   1.625   3.939   4.646  0.2546 -0.4349 -1.8115
 5384SOL     OW27787   3.443   4.555   8.358  0.1004 -0.5250 -0.3340
 5384SOL    HW127788   3.377   4.576   8.424 -1.4248  0.5078 -2.1882
 5384SOL    HW227789   3.482   4.471   8.382  0.5447  0.2584  1.6346
 5385SOL     OW27790   2.973   2.345   1.632 -0.1223  0.1798  0.2139
 5385SOL    HW127791   2.885   2.342   1.593  0.6705  0.5626 -1.6139
 5385SOL    HW227792   2.960   2.374   1.722 -1.3972 -1.9038  0.6851
 5386SOL     OW27793   2.978   2.456   5.921  0.4375 -0.5548  1.5624
 5386SOL    HW127794   2.927   2.533   5.899  3.3063  0.6125 -0.9708
 5386SOL    HW227795   2.959   2.405   5.842  0.1199  1.8098  0.1376
 5387SOL     OW27796   2.492   2.728  11.499  0.5494  0.3388 -0.2499
 5387SOL    HW127797   2.504   2.633  11.508  0.9987  0.3201 -1.1409
 5387SOL    HW227798   2.397   2.743  11.499  0.7886  1.8816  1.9728
 5388SOL     OW27799   3.892   2.529   9.030  0.3165 -0.3026  0.1722
 5388SOL    HW127800   3.964   2.517   9.091 -0.4589 -1.4529  0.8589
 5388SOL    HW227801   3.832   2.581   9.084  1.9287 -1.0161  2.6108
 5389SOL     OW27802   1.016   1.170   8.821  0.0699 -0.3135 -0.2302
 5389SOL    HW127803   0.977   1.216   8.896  0.6659  0.1498 -0.2044
 5389SOL    HW227804   0.964   1.090   8.821  3.1495 -2.3055 -0.4941
 5390SOL     OW27805   0.969   1.471   7.841 -0.1856  0.1697  1.1115
 5390SOL    HW127806   1.013   1.389   7.819  1.5885  1.3183  0.3374
 5390SOL    HW227807   0.879   1.459   7.811 -0.6063  1.7318  1.7409
 5391SOL     OW27808   3.525   3.682   0.463  0.0446 -0.2721  0.7665
 5391SOL    HW127809   3.537   3.657   0.371  1.5969  0.8123  0.6894
 5391SOL    HW227810   3.612   3.658   0.493  0.2519 -0.9292 -0.3637
 5392SOL     OW27811   1.581   3.624   2.777 -0.8146 -0.4364 -0.3738
 5392SOL    HW127812   1.580   3.531   2.758 -1.4479 -0.5750  0.3271
 5392SOL    HW227813   1.676   3.634   2.771 -0.4662 -3.7033 -0.1048
 5393SOL     OW27814   1.278   2.455   2.570  0.7658  0.0257  0.0700
 5393SOL    HW127815   1.364   2.472   2.607  0.9187 -1.2840  0.2943
 5393SOL    HW227816   1.313   2.408   2.495  2.2013 -1.5862  1.7836
 5394SOL     OW27817   3.986   1.579   6.863 -0.1390 -0.2576 -0.0713
 5394SOL    HW127818   4.066   1.598   6.813  1.5449 -0.9193  2.3574
 5394SOL    HW227819   4.018   1.607   6.948  0.9252  0.4172 -0.6803
 5395SOL     OW27820   4.670   4.093   5.963  0.5034  0.1322 -0.0944
 5395SOL    HW127821   4.580   4.118   5.941 -0.4906 -2.9985  0.3199
 5395SOL    HW227822   4.686   4.049   5.880 -1.3646 -1.5549  0.4266
 5396SOL     OW27823   1.374   1.771   6.190 -0.3952 -0.0090 -0.3374
 5396SOL    HW127824   1.288   1.806   6.211 -0.8824  0.6077 -3.2784
 5396SOL    HW227825   1.422   1.795   6.269 -0.9893 -2.0443  0.6455
 5397SOL     OW27826   3.455   4.086  13.815 -0.0675  0.2247  0.3388
 5397SOL    HW127827   3.537   4.039  13.827  1.0223  2.1602  0.5455
 5397SOL    HW227828   3.441   4.048  13.728 -2.6852  2.0121 -0.0269
 5398SOL     OW27829   2.808   2.370   0.578  0.1898 -0.2437  0.3028
 5398SOL    HW127830   2.818   2.465   0.571  0.7031 -0.3060  0.1368
 5398SOL    HW227831   2.850   2.337   0.499  0.4161  1.2665 -0.2193
 5399SOL     OW27832   3.887   4.211   6.257  0.0806 -0.2026  0.1803
 5399SOL    HW127833   3.954   4.164   6.307  1.6224 -0.6939 -2.3549
 5399SOL    HW227834   3.807   4.174   6.296  0.0829  1.1485  1.4800
 5400SOL     OW27835   1.801   2.643   6.734 -0.5389 -0.2441 -0.1217
 5400SOL    HW127836   1.779   2.592   6.656 -1.1308 -0.1538 -0.0147
 5400SOL    HW227837   1.784   2.731   6.700  0.0572 -0.2885 -0.5391
 5401SOL     OW27838   2.584   2.116   0.999 -0.3480  0.4912  0.0492
 5401SOL    HW127839   2.657   2.068   1.038  1.6759  2.8555 -0.8396
 5401SOL    HW227840   2.634   2.185   0.956 -1.4783  0.2405 -1.6743
 5402SOL     OW27841   0.943   0.528   2.181 -0.2850  0.6147  0.4343
 5402SOL    HW127842   1.017   0.471   2.162  0.1003  0.9735  0.8630
 5402SOL    HW227843   0.889   0.458   2.217  0.2922  0.0016  0.1035
 5403SOL     OW27844   1.065   4.266   4.064 -0.3513  0.5286 -0.1524
 5403SOL    HW127845   1.052   4.309   4.149 -0.2249 -1.2927  0.7834
 5403SOL    HW227846   1.022   4.183   4.082 -2.1553  1.4089 -0.2874
 5404SOL     OW27847   1.474   4.275   6.769  0.3017 -0.1112 -0.3985
 5404SOL    HW127848   1.542   4.342   6.782  0.9891 -0.3089 -2.9447
 5404SOL    HW227849   1.492   4.232   6.853 -3.3540 -2.6612 -0.9339
 5405SOL     OW27850   2.171   2.718   5.010 -0.0785  0.2420  0.3737
 5405SOL    HW127851   2.229   2.651   5.044 -1.1505  0.0108  1.7368
 5405SOL    HW227852   2.101   2.732   5.074 -2.9969 -0.2936 -2.6843
 5406SOL     OW27853   4.305   2.471  12.499  0.0290  0.1285  0.5202
 5406SOL    HW127854   4.350   2.507  12.576  0.8632 -1.4478  0.7980
 5406SOL    HW227855   4.308   2.375  12.509  3.2923  0.1016 -0.5261
 5407SOL     OW27856   3.972   1.618   0.158 -0.6185  0.2426 -0.3653
 5407SOL    HW127857   4.007   1.680   0.223 -0.3471  1.8707 -2.0672
 5407SOL    HW227858   3.902   1.583   0.213  0.3652 -1.4268 -0.1827
 5408SOL     OW27859   2.936   4.252   2.661  0.0266  0.2424  0.1124
 5408SOL    HW127860   3.007   4.311   2.683  2.1486 -2.4860  0.6079
 5408SOL    HW227861   2.975   4.166   2.677 -0.2427  0.3600  1.3527
 5409SOL     OW27862   4.549   2.743   7.540  0.3049  0.0990  0.2306
 5409SOL    HW127863   4.538   2.836   7.561  0.6742  0.2016 -0.0348
 5409SOL    HW227864   4.644   2.736   7.532  0.5772  2.3560  1.2179
 5410SOL     OW27865   0.857   0.440   6.931  0.1483 -0.6827  0.2435
 5410SOL    HW127866   0.895   0.372   6.987 -2.5894 -0.5903  2.2581
 5410SOL    HW227867   0.900   0.519   6.964 -0.8696 -0.5675  1.3110
 5411SOL     OW27868   4.437   3.794  10.925 -0.2391 -0.5053 -0.1865
 5411SOL    HW127869   4.397   3.881  10.932  1.3774  0.2772 -0.6994
 5411SOL    HW227870   4.417   3.756  10.839 -1.3017 -1.5763  0.5349
 5412SOL     OW27871   2.876   1.172   4.838 -0.5719 -0.3102 -0.0775
 5412SOL    HW127872   2.848   1.159   4.748 -1.2046  1.5143 -0.1402
 5412SOL    HW227873   2.838   1.257   4.861 -2.4283 -1.3418  0.6684
 5413SOL     OW27874   2.885   2.275   4.595 -0.1705 -0.9153 -0.4344
 5413SOL    HW127875   2.847   2.222   4.525  0.9514 -0.3783 -1.4344
 5413SOL    HW227876   2.807   2.293   4.647  0.9020 -0.8180  1.1612
 5414SOL     OW27877   1.572   0.552   5.737 -0.6436  0.5476 -0.2098
 5414SOL    HW127878   1.506   0.614   5.706 -1.3662  0.5905  1.3852
 5414SOL    HW227879   1.643   0.560   5.674 -0.4241  0.2533  0.0027
 5415SOL     OW27880   1.809   2.441   1.849  0.4542 -0.6827  0.0717
 5415SOL    HW127881   1.780   2.405   1.933 -1.8368 -1.4727 -1.0660
 5415SOL    HW227882   1.731   2.446   1.794  1.4389  0.5575 -1.2230
 5416SOL     OW27883   2.889   4.100   4.238  0.0359  0.2889 -0.2079
 5416SOL    HW127884   2.920   4.122   4.326  0.6326 -0.2874 -0.2724
 5416SOL    HW227885   2.795   4.092   4.253  0.4194 -1.0135  1.5292
 5417SOL     OW27886   1.242   0.612   4.689  0.2294  0.7173 -0.0642
 5417SOL    HW127887   1.282   0.654   4.613 -1.0813 -0.7102 -1.5453
 5417SOL    HW227888   1.147   0.625   4.679  0.2868  0.6005 -0.7047
 5418SOL     OW27889   3.793   1.168   3.303 -0.1374 -0.1071  0.1322
 5418SOL    HW127890   3.863   1.229   3.327 -0.5169  0.4008 -0.0562
 5418SOL    HW227891   3.721   1.216   3.343 -0.5580 -0.1498 -0.5623
 5419SOL     OW27892   2.502   2.949  11.683 -0.2203 -0.2079 -0.1820
 5419SOL    HW127893   2.510   2.878  11.620  1.2552 -1.5286  1.4921
 5419SOL    HW227894   2.436   3.000  11.637  0.0947 -0.5938 -1.0595
 5420SOL     OW27895   4.186   1.945   7.573  0.8538  0.1357 -0.6930
 5420SOL    HW127896   4.216   2.034   7.593  0.3900 -0.0362  0.7002
 5420SOL    HW227897   4.270   1.900   7.581  1.4721  1.1585 -1.3193
 5421SOL     OW27898   0.905   2.373   3.806 -0.5931 -0.0755 -0.3465
 5421SOL    HW127899   0.817   2.338   3.817 -0.1183 -0.7815  1.2221
 5421SOL    HW227900   0.930   2.417   3.888  0.2307  1.9662 -1.6691
 5422SOL     OW27901   1.547   3.915   7.517 -0.1012  0.0075 -0.0406
 5422SOL    HW127902   1.632   3.888   7.552 -0.8374 -1.2450  0.7743
 5422SOL    HW227903   1.488   3.866   7.573 -1.2906 -1.4419 -2.5394
 5423SOL     OW27904   2.360   1.188   3.439  0.6723  0.3847 -0.4436
 5423SOL    HW127905   2.305   1.233   3.503  1.1075 -0.2379  0.3623
 5423SOL    HW227906   2.290   1.177   3.373 -1.0004 -1.1608  1.6013
 5424SOL     OW27907   4.254   4.713  10.125  0.0077  0.1429  0.2181
 5424SOL    HW127908   4.231   0.070  10.121 -1.2719 -0.2201 -0.7110
 5424SOL    HW227909   4.337   4.709  10.078  1.1606 -1.2035  2.3723
 5425SOL     OW27910   2.271   2.952   9.128  0.1955 -0.5521 -0.0340
 5425SOL    HW127911   2.214   2.876   9.131 -0.8251  0.2380  0.2960
 5425SOL    HW227912   2.302   2.956   9.038 -0.4703  0.5839 -0.2140
 5426SOL     OW27913   0.843   1.596   1.083  0.4128  0.5093 -0.0437
 5426SOL    HW127914   0.831   1.586   1.178  0.6227  0.0253 -0.0708
 5426SOL    HW227915   0.841   1.502   1.067  1.7330 -0.0354  2.9338
 5427SOL     OW27916   3.192   2.796   2.897  0.0710  0.2270 -0.2768
 5427SOL    HW127917   3.265   2.833   2.946 -3.9829  4.1191  2.9435
 5427SOL    HW227918   3.235   2.723   2.853 -1.2172  0.2560 -1.5607
 5428SOL     OW27919   4.327   0.681   3.942  0.0753  0.1079  0.0768
 5428SOL    HW127920   4.287   0.606   3.899  0.2975  0.2621 -0.3993
 5428SOL    HW227921   4.255   0.727   3.985  0.4030 -0.4127  1.1864
 5429SOL     OW27922   2.416   1.612   5.650 -0.0681 -0.1232 -0.3878
 5429SOL    HW127923   2.430   1.625   5.744  2.2946 -1.9965 -0.4807
 5429SOL    HW227924   2.411   1.516   5.651 -1.4948 -0.0569  0.8583
 5430SOL     OW27925   3.157   2.396   0.697  0.1435  0.0539  0.2257
 5430SOL    HW127926   3.247   2.426   0.710 -0.7064  2.8239 -0.5013
 5430SOL    HW227927   3.115   2.481   0.683 -1.1831 -0.6784 -0.2504
 5431SOL     OW27928   2.253   1.771   6.593  0.2096  0.3654 -0.1647
 5431SOL    HW127929   2.304   1.790   6.514  1.8153  0.4005  0.8959
 5431SOL    HW227930   2.176   1.827   6.593 -0.3120 -0.3665  1.2841
 5432SOL     OW27931   3.745   4.365   0.161 -0.5909 -0.1087  0.2852
 5432SOL    HW127932   3.686   4.440   0.157  1.9123  1.9377  1.5530
 5432SOL    HW227933   3.728   4.339   0.252 -0.2334  0.0025  0.3843
 5433SOL     OW27934   2.177   1.015  10.962  0.2503 -0.3603  0.8186
 5433SOL    HW127935   2.178   1.083  11.029  0.2000  0.1962  0.2490
 5433SOL    HW227936   2.094   0.972  10.981  0.4307 -0.3711  1.6130
 5434SOL     OW27937   2.637   2.598   5.101 -0.2891 -0.0065 -0.1662
 5434SOL    HW127938   2.683   2.647   5.169  1.9494 -2.1123 -0.1749
 5434SOL    HW227939   2.660   2.635   5.015  0.0382  2.5712  1.0279
 5435SOL     OW27940   0.494   4.425   7.536 -0.3520 -0.7105  0.0357
 5435SOL    HW127941   0.493   4.510   7.580 -1.7223  0.1091 -1.5805
 5435SOL    HW227942   0.413   4.379   7.562  0.1517 -1.0877  0.9620
 5436SOL     OW27943   4.499   2.661   1.178 -0.0240  0.4546  0.2580
 5436SOL    HW127944   4.508   2.566   1.182  1.6211  0.5529 -0.8165
 5436SOL    HW227945   4.476   2.685   1.268  2.8752 -0.1933  1.1661
 5437SOL     OW27946   0.129   2.152   2.923 -0.1399 -0.0803  0.1415
 5437SOL    HW127947   0.128   2.135   3.017  0.7627  0.3528  0.2304
 5437SOL    HW227948   0.172   2.238   2.919 -0.4348  0.0337 -0.6350
 5438SOL     OW27949   3.445   4.042   3.650  0.5719  0.4324  0.0226
 5438SOL    HW127950   3.532   4.020   3.616  0.0259 -2.6064  0.6082
 5438SOL    HW227951   3.412   3.954   3.670  0.2531  0.0348 -2.2808
 5439SOL     OW27952   0.096   1.639  13.807 -0.3997  0.8153 -0.1937
 5439SOL    HW127953   0.165   1.705  13.815 -0.2359  0.5766  0.3358
 5439SOL    HW227954   0.126   1.565  13.860  4.0448  0.3922 -3.2533
 5440SOL     OW27955   4.015   2.918   1.757 -0.2985 -0.3512 -0.2706
 5440SOL    HW127956   4.027   2.941   1.850 -0.2031 -0.4060 -0.2696
 5440SOL    HW227957   3.979   3.001   1.724 -0.3199  0.5431  1.9480
 5441SOL     OW27958   3.822   2.040   5.710 -0.0443 -0.1354  0.0838
 5441SOL    HW127959   3.858   2.128   5.727  2.3296 -0.9432 -0.6358
 5441SOL    HW227960   3.738   2.064   5.670  0.4665 -0.0759 -0.9728
 5442SOL     OW27961   0.022   4.504   1.486 -0.7273  0.0266  0.2336
 5442SOL    HW127962   0.107   4.467   1.465 -0.0071  0.7253  1.8896
 5442SOL    HW227963   4.719   4.505   1.399 -0.8800  0.1555  0.3013
 5443SOL     OW27964   4.232   1.135   5.273 -0.4517  0.4786 -0.3690
 5443SOL    HW127965   4.151   1.091   5.299  0.8455  0.2008  3.1988
 5443SOL    HW227966   4.206   1.224   5.294  1.0299  0.7439  0.3258
 5444SOL     OW27967   0.524   1.282   6.990 -0.0582 -0.3578  0.8640
 5444SOL    HW127968   0.619   1.286   6.984 -0.1327 -0.9553 -0.6379
 5444SOL    HW227969   0.498   1.373   6.981  1.3249 -0.2527 -2.0659
 5445SOL     OW27970   1.897   1.690   0.762 -0.8062  0.5017  0.6315
 5445SOL    HW127971   1.940   1.776   0.762 -0.7737  0.4873  1.1410
 5445SOL    HW227972   1.809   1.718   0.788 -0.4686  0.9766  1.2855
 5446SOL     OW27973   3.957   3.684   1.457  0.4703 -0.0958  0.1485
 5446SOL    HW127974   3.873   3.706   1.417 -0.2635  0.8924  2.2154
 5446SOL    HW227975   3.990   3.655   1.372 -0.8135  1.6725 -0.9511
 5447SOL     OW27976   1.267   0.679  16.298 -0.6353 -0.4531 -0.3585
 5447SOL    HW127977   1.233   0.693  16.387 -1.1451 -1.1044 -0.4564
 5447SOL    HW227978   1.179   0.691  16.264 -0.7228  0.8717  0.3106
 5448SOL     OW27979   2.939   4.332   0.823 -0.2162  0.6879  0.2594
 5448SOL    HW127980   2.916   4.330   0.916 -0.0713  2.8125  0.3236
 5448SOL    HW227981   2.860   4.358   0.777 -0.4168 -1.3824 -0.5523
 5449SOL     OW27982   1.838   3.315  15.941 -0.5507  0.1370  0.3801
 5449SOL    HW127983   1.794   3.342  16.021 -0.3100  0.8243  0.2856
 5449SOL    HW227984   1.893   3.242  15.967 -0.1102  0.4290  0.2714
 5450SOL     OW27985   1.300   2.565   9.259 -0.2985 -0.1387 -0.5017
 5450SOL    HW127986   1.240   2.529   9.194  0.9462 -2.4023 -0.4046
 5450SOL    HW227987   1.264   2.521   9.336 -1.1280  1.8035  0.2257
 5451SOL     OW27988   0.438   1.958   4.913  0.6492  0.3767  0.5565
 5451SOL    HW127989   0.426   1.986   5.003 -0.4003 -0.8184  0.7838
 5451SOL    HW227990   0.450   2.041   4.867  1.0730 -0.6543 -1.1979
 5452SOL     OW27991   1.428   1.093   7.430 -0.2523 -0.5224  0.3474
 5452SOL    HW127992   1.401   1.002   7.414  0.7993 -0.5788 -1.0950
 5452SOL    HW227993   1.436   1.077   7.524  2.8315 -1.7804 -0.1179
 5453SOL     OW27994   1.031   0.926  16.347  0.1967 -0.1925  0.2504
 5453SOL    HW127995   1.043   1.021  16.339 -1.4940 -0.0895 -1.1467
 5453SOL    HW227996   0.975   0.916  16.270  1.4222  2.3514 -0.9840
 5454SOL     OW27997   4.401   3.308   9.060  0.2357  0.3612 -0.2289
 5454SOL    HW127998   4.477   3.286   9.114  1.3886 -0.8982 -2.3197
 5454SOL    HW227999   4.455   3.349   8.992  0.4430  1.2898  0.4986
 5455SOL     OW28000   3.580   1.335   6.724  0.0613  0.4886  0.7404
 5455SOL    HW128001   3.520   1.405   6.751 -0.8554 -0.0768  0.1631
 5455SOL    HW228002   3.527   1.258   6.746  1.1922 -0.1800  1.1129
 5456SOL     OW28003   4.635   0.592   0.581 -0.4868 -0.6155 -0.0392
 5456SOL    HW128004   4.650   0.504   0.548  0.6231 -0.1279 -0.8333
 5456SOL    HW228005   4.716   0.631   0.549 -0.0981 -1.4645 -0.0756
 5457SOL     OW28006   1.251   4.640   4.454 -0.5908  0.1248 -0.2875
 5457SOL    HW128007   1.271   4.702   4.523  2.0640 -0.1279 -0.8032
 5457SOL    HW228008   1.214   4.575   4.513  0.6201  0.0093  0.3525
 5458SOL     OW28009   2.758   0.561   0.265  0.1322 -0.1711 -0.2857
 5458SOL    HW128010   2.819   0.585   0.334  0.5968  0.9545 -1.0917
 5458SOL    HW228011   2.693   0.630   0.271 -0.6104 -0.8733 -0.2018
 5459SOL     OW28012   2.664   1.716  12.328  0.2984 -0.2343  0.1776
 5459SOL    HW128013   2.689   1.800  12.364 -2.2919  0.3412  0.6266
 5459SOL    HW228014   2.609   1.682  12.398  0.4909  0.3986  0.6294
 5460SOL     OW28015   1.858   4.193   2.817 -0.1073  0.4762  0.2116
 5460SOL    HW128016   1.945   4.232   2.831  0.1044  0.0653  0.0240
 5460SOL    HW228017   1.875   4.154   2.731 -0.5594 -2.2475  1.3674
 5461SOL     OW28018   0.779   2.063   4.913 -0.0272 -0.1778  0.0290
 5461SOL    HW128019   0.804   1.979   4.953 -1.0585 -0.6386 -0.3221
 5461SOL    HW228020   0.768   2.030   4.824  0.3809 -0.3153  0.0269
 5462SOL     OW28021   0.917   4.367   9.936  0.2503 -0.3135  0.1488
 5462SOL    HW128022   0.953   4.413   9.860 -0.9258  0.8190  0.2605
 5462SOL    HW228023   0.993   4.383   9.992  0.8197 -0.3789 -0.6096
 5463SOL     OW28024   3.668   0.607   2.720  0.5881 -0.4724 -0.6922
 5463SOL    HW128025   3.708   0.670   2.781 -0.0370  1.1158 -1.9146
 5463SOL    HW228026   3.595   0.576   2.774  1.5771  2.0881  2.1267
 5464SOL     OW28027   1.310   0.052   5.639 -0.2572  0.0958 -0.2893
 5464SOL    HW128028   1.299   0.130   5.693 -1.9224 -0.6555  0.4727
 5464SOL    HW228029   1.286   0.093   5.555  1.6288  1.6786 -0.0492
 5465SOL     OW28030   1.713   0.956  13.034 -0.5934 -0.0530 -0.3188
 5465SOL    HW128031   1.736   0.967  13.127 -2.0567 -0.6216  0.1065
 5465SOL    HW228032   1.760   1.036  13.011 -0.7741  0.0629 -0.2877
 5466SOL     OW28033   3.071   1.025   6.578 -0.0918 -0.7560 -0.3082
 5466SOL    HW128034   3.056   0.963   6.507 -0.3219 -1.9860  0.8304
 5466SOL    HW228035   3.028   1.105   6.548  1.0235 -0.8638 -2.2134
 5467SOL     OW28036   3.473   2.434   5.125 -0.1921  0.0323 -0.0647
 5467SOL    HW128037   3.410   2.487   5.076 -0.7700 -0.8271 -0.2433
 5467SOL    HW228038   3.429   2.349   5.126  0.3130 -0.2105  1.7606
 5468SOL     OW28039   0.263   2.399   2.874  0.1052  0.3805 -0.8686
 5468SOL    HW128040   0.288   2.469   2.934  2.6583 -0.8922 -0.4554
 5468SOL    HW228041   0.346   2.352   2.878  0.0328  0.5090  1.7525
 5469SOL     OW28042   0.367   1.980   2.337  0.0141 -0.1281  0.3525
 5469SOL    HW128043   0.291   2.008   2.286 -0.3989 -0.7888  0.5955
 5469SOL    HW228044   0.430   2.051   2.327  0.0551  0.2987  3.7563
 5470SOL     OW28045   2.248   3.368   9.251  0.3301  0.2785 -0.2534
 5470SOL    HW128046   2.312   3.330   9.191  0.0400  0.8193 -0.9007
 5470SOL    HW228047   2.178   3.338   9.193  1.4399  1.1395 -2.0199
 5471SOL     OW28048   1.219   2.425  15.587  0.0500 -0.4278  0.8331
 5471SOL    HW128049   1.268   2.387  15.660  0.4361  0.3236  0.9591
 5471SOL    HW228050   1.226   2.519  15.601  2.4854 -0.6426  1.0868
 5472SOL     OW28051   1.121   3.930  15.261 -0.0528  0.5400  0.4795
 5472SOL    HW128052   1.196   3.931  15.201 -0.0277 -0.8709  0.4989
 5472SOL    HW228053   1.174   3.917  15.339  1.9843  1.1507 -0.7912
 5473SOL     OW28054   1.418   4.340   8.150  0.0928  0.5389  0.3902
 5473SOL    HW128055   1.361   4.410   8.116 -0.9614 -1.4145 -1.8091
 5473SOL    HW228056   1.374   4.328   8.234 -0.8420 -0.5082 -0.2583
 5474SOL     OW28057   0.844   3.414   0.703  0.4880 -0.6293 -0.9686
 5474SOL    HW128058   0.861   3.386   0.613  0.6122 -0.2860 -1.0525
 5474SOL    HW228059   0.834   3.508   0.691  0.6393 -0.7686 -2.2112
 5475SOL     OW28060   4.202   2.933   0.380  0.6803  0.5103  0.5363
 5475SOL    HW128061   4.125   2.877   0.370 -0.1754  1.8984 -0.4855
 5475SOL    HW228062   4.192   2.955   0.473 -0.8905  3.2910 -0.2847
 5476SOL     OW28063   3.740   0.033   4.030  0.2949  0.0518 -0.0361
 5476SOL    HW128064   3.793   4.693   4.058 -0.3873  0.0438  1.2578
 5476SOL    HW228065   3.695   4.729   3.955 -0.6012  1.8831 -0.4524
 5477SOL     OW28066   3.703   3.794   7.871  0.2836 -0.6376 -0.2027
 5477SOL    HW128067   3.708   3.806   7.777  2.9530  4.2292  0.5945
 5477SOL    HW228068   3.780   3.832   7.912 -1.4574  2.3665  0.3105
 5478SOL     OW28069   3.529   0.562   7.373 -0.4393  0.1589 -0.0374
 5478SOL    HW128070   3.621   0.534   7.368 -0.9094 -1.1359 -1.3063
 5478SOL    HW228071   3.525   0.582   7.467  0.4397  1.7314 -0.3287
 5479SOL     OW28072   2.036   1.717  16.323  0.0616  0.1942  0.1539
 5479SOL    HW128073   2.112   1.660  16.337  1.2431  1.3678 -1.4759
 5479SOL    HW228074   2.010   1.732  16.414 -2.4626 -2.0449 -0.1899
 5480SOL     OW28075   2.655   3.230   3.153  0.2408 -0.4801 -0.5518
 5480SOL    HW128076   2.677   3.137   3.148  0.9035 -0.3957  0.8884
 5480SOL    HW228077   2.667   3.249   3.246  2.6527  1.3393 -1.2260
 5481SOL     OW28078   2.394   0.910   2.254  0.5108  0.6011 -0.1026
 5481SOL    HW128079   2.442   0.947   2.328  2.4312 -1.4055 -0.3440
 5481SOL    HW228080   2.353   0.988   2.217 -0.1836  1.2926  2.1786
 5482SOL     OW28081   2.022   1.280   7.506  0.2906 -0.0777  0.1070
 5482SOL    HW128082   2.098   1.236   7.468  0.2222  1.7298 -2.0922
 5482SOL    HW228083   1.950   1.219   7.490  1.8986 -1.5374 -1.6681
 5483SOL     OW28084   3.858   2.592   2.288 -0.5881 -0.3290 -0.6632
 5483SOL    HW128085   3.932   2.605   2.348 -0.7549 -0.7691 -0.3682
 5483SOL    HW228086   3.901   2.621   2.207  1.7438 -0.5630  0.4695
 5484SOL     OW28087   2.667   4.638  10.131 -0.2109 -0.5218  0.5227
 5484SOL    HW128088   2.584   4.682  10.153 -0.4225 -0.9582  0.6093
 5484SOL    HW228089   2.730   4.697  10.171 -1.0269  0.0410  0.9911
 5485SOL     OW28090   2.188   2.044   7.305  0.6082 -0.8263 -0.0615
 5485SOL    HW128091   2.192   2.111   7.236 -1.6490  0.1901  0.7918
 5485SOL    HW228092   2.209   1.965   7.254 -1.2366 -2.9000  2.4389
 5486SOL     OW28093   0.997   0.656   2.776 -0.1810 -0.2312  0.0680
 5486SOL    HW128094   0.933   0.585   2.772 -1.6827  1.1015  0.6209
 5486SOL    HW228095   1.036   0.631   2.860  2.0307  2.5829 -0.1270
 5487SOL     OW28096   2.432   1.103   4.847 -0.5391  0.3048 -0.6439
 5487SOL    HW128097   2.470   1.015   4.836 -0.3194  0.5585 -1.9893
 5487SOL    HW228098   2.482   1.156   4.785 -0.6723  2.7934  1.3886
 5488SOL     OW28099   0.861   4.575   6.193 -0.0042 -0.5488 -0.4848
 5488SOL    HW128100   0.784   4.549   6.143  1.6045 -1.7472 -2.3254
 5488SOL    HW228101   0.812   4.617   6.264  0.7325 -0.3623 -0.0823
 5489SOL     OW28102   1.456   1.564  12.767  0.6259  0.5130  0.1950
 5489SOL    HW128103   1.495   1.627  12.828 -0.7692  0.0971  1.5166
 5489SOL    HW228104   1.496   1.594  12.685  1.8381 -1.2334  0.1429
 5490SOL     OW28105   2.902   1.205  12.675  0.3052 -0.0158  0.5258
 5490SOL    HW128106   2.938   1.127  12.717  3.7695  1.1594 -0.3208
 5490SOL    HW228107   2.947   1.194  12.592 -0.4495 -1.6810  0.3400
 5491SOL     OW28108   3.286   1.246   3.553 -0.0616  0.0025  0.1292
 5491SOL    HW128109   3.355   1.250   3.620 -0.7196  1.6504  0.6975
 5491SOL    HW228110   3.247   1.159   3.562 -0.7292  0.3361  0.4698
 5492SOL     OW28111   2.358   2.801   3.858 -0.0810  0.3637  0.1756
 5492SOL    HW128112   2.307   2.746   3.797  0.5630  1.2779 -1.1779
 5492SOL    HW228113   2.311   2.883   3.847 -0.1707  0.6288  2.5612
 5493SOL     OW28114   0.735   1.641   6.765 -0.1792  0.4005  0.2132
 5493SOL    HW128115   0.738   1.602   6.852 -0.2630  0.2514  0.1505
 5493SOL    HW228116   0.808   1.703   6.765  2.0269 -2.1939  0.0759
 5494SOL     OW28117   3.627   2.291   4.663 -0.4180 -0.1487 -0.4305
 5494SOL    HW128118   3.635   2.384   4.686 -0.6892  0.1416 -1.5082
 5494SOL    HW228119   3.533   2.286   4.646  0.2021 -1.1337 -3.5135
 5495SOL     OW28120   1.986   0.658   9.456  0.4044 -0.2527 -0.7757
 5495SOL    HW128121   1.960   0.586   9.398 -0.9900 -0.4611  0.1211
 5495SOL    HW228122   2.080   0.667   9.442  0.6215  1.2811  1.6659
 5496SOL     OW28123   4.118   1.167   1.495  0.7762  0.2506  0.0174
 5496SOL    HW128124   4.206   1.134   1.511  1.0418  0.9772  0.0449
 5496SOL    HW228125   4.066   1.117   1.558  2.4263 -0.4523  0.8227
 5497SOL     OW28126   4.636   0.296   1.459 -0.3538  0.0090 -0.0049
 5497SOL    HW128127   4.627   0.349   1.539  0.0750 -0.3385  0.2775
 5497SOL    HW228128   4.731   0.281   1.456 -0.0828  1.3354  1.7517
 5498SOL     OW28129   3.745   2.351   4.346 -0.1270 -0.1902 -0.1627
 5498SOL    HW128130   3.679   2.282   4.339  0.7023 -1.3068  3.0873
 5498SOL    HW228131   3.804   2.320   4.415  1.6507  0.0185 -1.5946
 5499SOL     OW28132   4.214   1.640   9.363 -0.3554  0.1208  0.3254
 5499SOL    HW128133   4.226   1.704   9.433 -2.6595  1.8996 -0.9213
 5499SOL    HW228134   4.120   1.624   9.371 -1.0534  2.0496 -3.7539
 5500SOL     OW28135   3.066   1.376   7.582 -0.0951 -0.4858  0.4437
 5500SOL    HW128136   3.032   1.407   7.498 -0.1053 -1.7720 -0.0261
 5500SOL    HW228137   3.025   1.435   7.645 -1.0117  0.3754 -0.9588
 5501SOL     OW28138   3.903   2.382  17.391 -0.1768  0.8740 -0.3921
 5501SOL    HW128139   3.921   2.291  17.367  1.4105  1.6334 -2.0729
 5501SOL    HW228140   3.839   2.372  17.461  1.0459  3.3676  1.0803
 5502SOL     OW28141   1.685   4.044   8.245 -0.4358  0.2377 -0.2560
 5502SOL    HW128142   1.703   4.129   8.285  0.4403 -0.9605  1.8604
 5502SOL    HW228143   1.707   4.052   8.152 -0.1347 -0.7388 -0.2728
 5503SOL     OW28144   0.518   3.476   3.873  0.1030  0.2932 -0.3479
 5503SOL    HW128145   0.532   3.552   3.818 -0.8708  1.4494  1.0018
 5503SOL    HW228146   0.602   3.454   3.912  0.2328  2.6704  0.7224
 5504SOL     OW28147   4.021   0.158  17.161  0.1183  0.0621  0.1708
 5504SOL    HW128148   3.938   0.124  17.126 -1.0556  1.1633  1.8573
 5504SOL    HW228149   4.012   0.246  17.124  2.1641  0.1223 -0.1722
 5505SOL     OW28150   2.213   4.301   5.347 -0.4676  0.0932 -0.1945
 5505SOL    HW128151   2.165   4.356   5.409 -0.3368  0.4714 -0.4298
 5505SOL    HW228152   2.299   4.316   5.386 -0.3301 -0.4131 -0.3037
 5506SOL     OW28153   1.237   1.493   8.622  1.0059  0.3531  0.4470
 5506SOL    HW128154   1.321   1.451   8.642 -0.0260 -0.9570  2.0753
 5506SOL    HW228155   1.245   1.492   8.527  0.3067 -0.5908  0.3967
 5507SOL     OW28156   4.532   3.100   3.339 -0.2831  0.5556  0.4726
 5507SOL    HW128157   4.441   3.114   3.312 -0.3752  0.5070  0.7610
 5507SOL    HW228158   4.573   3.053   3.266 -1.8775 -0.5575  0.2798
 5508SOL     OW28159   4.102   4.413   3.465 -0.3265  0.4503  0.1125
 5508SOL    HW128160   4.083   4.462   3.545  1.1433  2.7861 -0.9812
 5508SOL    HW228161   4.107   4.321   3.493  0.1253 -0.2542 -2.3311
 5509SOL     OW28162   1.110   4.527   4.698  0.2268 -0.4338 -0.0687
 5509SOL    HW128163   1.105   4.622   4.711 -0.2374 -0.6799  1.5264
 5509SOL    HW228164   1.124   4.510   4.791 -2.4890 -1.2472  0.1892
 5510SOL     OW28165   1.637   0.596   2.334  0.3507 -0.2560  0.1118
 5510SOL    HW128166   1.582   0.626   2.406 -0.9918 -2.7797  0.1647
 5510SOL    HW228167   1.693   0.669   2.308  0.1773 -0.6686 -1.4075
 5511SOL     OW28168   3.826   4.711   7.068 -0.0418 -0.2315 -0.2219
 5511SOL    HW128169   3.856   4.725   7.158 -0.5648  0.2758 -0.1285
 5511SOL    HW228170   3.733   4.696   7.082 -0.2223 -0.3305 -1.5373
 5512SOL     OW28171   3.838   0.703  17.090 -0.0960  0.1614 -0.2292
 5512SOL    HW128172   3.761   0.760  17.085  0.0923  0.3723 -0.6951
 5512SOL    HW228173   3.812   0.611  17.093 -1.4253  0.4635 -2.2096
 5513SOL     OW28174   3.379   0.843   2.978 -0.0282 -0.0088  0.1091
 5513SOL    HW128175   3.407   0.866   3.067  2.7019  2.5699 -1.4332
 5513SOL    HW228176   3.284   0.839   2.984  0.1896 -1.2116  2.7865
 5514SOL     OW28177   0.874   2.625   0.265 -0.3360  0.2785  0.3462
 5514SOL    HW128178   0.933   2.573   0.210  0.3475  0.2720  1.0771
 5514SOL    HW228179   0.787   2.618   0.227  0.0044  1.0401 -0.5740
 5515SOL     OW28180   3.679   2.336   3.494 -0.1506  0.0932 -0.7806
 5515SOL    HW128181   3.616   2.302   3.430 -0.3958 -2.1720  0.6628
 5515SOL    HW228182   3.759   2.306   3.451  1.7193  2.4817  1.0294
 5516SOL     OW28183   4.452   0.524   2.044 -1.0890  0.1820 -0.1867
 5516SOL    HW128184   4.420   0.554   1.958  0.4069 -1.6228 -1.3862
 5516SOL    HW228185   4.394   0.455   2.076 -0.4913 -0.0623  0.3652
 5517SOL     OW28186   1.559   4.695   1.829  0.6107 -0.1873  0.3063
 5517SOL    HW128187   1.544   4.650   1.912  1.6306 -0.3712  0.3900
 5517SOL    HW228188   1.516   0.045   1.837  0.4088 -0.3066  0.4939
 5518SOL     OW28189   3.248   0.525   3.612 -0.1777  0.0332  0.3688
 5518SOL    HW128190   3.301   0.598   3.582  1.9601 -2.2307 -1.3637
 5518SOL    HW228191   3.204   0.490   3.535  1.0192  0.6706 -0.5837
 5519SOL     OW28192   3.885   0.404  10.236  0.1778  0.3765 -0.6023
 5519SOL    HW128193   3.800   0.398  10.193 -0.2840  0.5754  0.2934
 5519SOL    HW228194   3.929   0.459  10.171  2.3605 -1.5826 -0.7789
 5520SOL     OW28195   3.860   0.667  17.368  0.1598  0.1826  0.3138
 5520SOL    HW128196   3.855   0.657  17.273 -0.3049  1.6236  0.1962
 5520SOL    HW228197   3.925   0.737  17.372  0.4068 -0.0624  0.6076
 5521SOL     OW28198   1.125   1.625   1.296 -0.8386  0.4550 -0.0463
 5521SOL    HW128199   1.128   1.551   1.356  2.7944  0.1699 -0.6062
 5521SOL    HW228200   1.218   1.643   1.289 -0.7416 -2.1718 -5.0983
 5522SOL     OW28201   4.629   0.022   1.565 -0.6319 -0.7855  0.8362
 5522SOL    HW128202   4.600   0.053   1.480  1.7474  0.2878  0.4001
 5522SOL    HW228203   4.632   4.662   1.554  1.8509 -0.4986 -1.0598
 5523SOL     OW28204   1.447   0.052   6.907 -0.0038 -0.5805  0.3088
 5523SOL    HW128205   1.358   0.032   6.877  0.4269 -1.4582 -0.4032
 5523SOL    HW228206   1.442   0.147   6.899 -0.1089 -0.3451  2.9942
 5524SOL     OW28207   1.023   0.165   4.371  0.2905 -0.2921 -0.0852
 5524SOL    HW128208   1.112   0.162   4.337  1.3427  0.3206  2.6770
 5524SOL    HW228209   1.009   0.259   4.354  0.9329 -0.2584 -0.4186
 5525SOL     OW28210   4.576   4.458   0.556  0.0929 -0.4368 -0.4153
 5525SOL    HW128211   4.498   4.466   0.501  2.5898  2.2889 -3.4905
 5525SOL    HW228212   4.634   4.506   0.497  0.1230  0.4876  0.3513
 5526SOL     OW28213   3.443   1.691   5.218 -0.0793  0.1191  0.0137
 5526SOL    HW128214   3.388   1.614   5.201  0.1970 -0.0560 -0.0911
 5526SOL    HW228215   3.435   1.735   5.134 -0.5863  0.5586  0.2929
 5527SOL     OW28216   0.440   1.143  15.646 -0.7063 -0.1351 -0.1307
 5527SOL    HW128217   0.435   1.102  15.559  1.5030 -1.4282  0.3708
 5527SOL    HW228218   0.513   1.203  15.637  0.9741 -2.0159  1.0707
 5528SOL     OW28219   3.886   2.924  13.974  0.1009  0.2650 -0.4094
 5528SOL    HW128220   3.843   2.909  13.890  1.9543 -0.4807 -1.2186
 5528SOL    HW228221   3.843   2.856  14.026  0.3849 -0.7348 -1.4920
 5529SOL     OW28222   0.500   4.291  13.940  0.4441  0.4854 -0.4115
 5529SOL    HW128223   0.557   4.247  13.877 -1.8017 -0.9165 -1.4514
 5529SOL    HW228224   0.533   4.381  13.930 -0.5633  0.7253 -1.5143
 5530SOL     OW28225   1.994   2.754   5.196 -0.4733  0.3379 -0.2701
 5530SOL    HW128226   1.972   2.843   5.168 -3.1160 -0.2134 -0.0034
 5530SOL    HW228227   1.993   2.763   5.291  0.1067  0.8876 -0.3233
 5531SOL     OW28228   1.278   0.204   4.259 -0.1451  0.9632  0.2453
 5531SOL    HW128229   1.351   0.220   4.319  0.8821  0.0709 -0.7618
 5531SOL    HW228230   1.313   0.213   4.170 -0.1057  2.0976  0.3677
 5532SOL     OW28231   2.991   1.708   1.995 -0.0735  0.0509 -0.2600
 5532SOL    HW128232   2.907   1.664   2.011  1.7461 -2.6160  1.8819
 5532SOL    HW228233   2.968   1.767   1.923  1.3261 -0.1693 -0.8739
 5533SOL     OW28234   1.271   3.848  17.279 -0.0408  0.7452 -0.2080
 5533SOL    HW128235   1.217   3.773  17.303  2.3991 -0.2939  2.0296
 5533SOL    HW228236   1.194   3.905  17.287 -1.3500 -1.0138 -0.1043
 5534SOL     OW28237   2.616   3.874  15.106 -0.0868  0.1481  0.2110
 5534SOL    HW128238   2.549   3.942  15.112  0.4482  0.8075 -1.5171
 5534SOL    HW228239   2.693   3.916  15.068  0.3942 -1.1572 -0.2441
 5535SOL     OW28240   1.300   1.279   9.011  0.2731  0.2805 -0.3589
 5535SOL    HW128241   1.206   1.293   9.021  0.8207  0.8528  3.8342
 5535SOL    HW228242   1.342   1.364   8.995  2.9191 -0.8755  0.3092
 5536SOL     OW28243   1.064   3.008   2.824 -0.3380  0.6410  0.4747
 5536SOL    HW128244   0.987   3.046   2.781 -0.8847 -1.4049 -0.3680
 5536SOL    HW228245   1.035   2.954   2.897 -0.6511  0.3944  0.1721
 5537SOL     OW28246   2.470   0.344   8.605 -0.0334  0.2084  0.5584
 5537SOL    HW128247   2.394   0.293   8.634 -0.1236 -0.5648 -1.0087
 5537SOL    HW228248   2.538   0.300   8.655 -0.4828 -1.7464 -0.5495
 5538SOL     OW28249   0.137   3.797   8.010 -0.4951 -0.5004  0.5587
 5538SOL    HW128250   0.048   3.768   8.031  0.1403 -2.1174  1.0164
 5538SOL    HW228251   0.149   3.858   8.083 -2.5182 -0.1643  0.6010
 5539SOL     OW28252   2.660   1.895   7.737 -0.1029  1.0612  0.2609
 5539SOL    HW128253   2.642   1.986   7.761 -0.6062  0.5735  1.7385
 5539SOL    HW228254   2.571   1.870   7.714 -0.3925  1.3497  1.0886
 5540SOL     OW28255   3.373   3.555  14.066 -0.5508  0.4486  0.3394
 5540SOL    HW128256   3.307   3.520  14.126  1.5404 -1.6532  1.4402
 5540SOL    HW228257   3.395   3.483  14.007 -1.9716 -0.1940  0.5945
 5541SOL     OW28258   3.090   2.263   6.095 -0.4651 -0.1932 -0.4454
 5541SOL    HW128259   3.059   2.345   6.057  1.9818  0.5075 -0.9344
 5541SOL    HW228260   3.155   2.300   6.155  0.3365 -1.6011 -0.4578
 5542SOL     OW28261   2.578   0.721   6.088 -0.4315 -0.0947 -0.2007
 5542SOL    HW128262   2.624   0.780   6.148  0.1905 -2.2768  1.4695
 5542SOL    HW228263   2.627   0.751   6.011 -2.2915  0.9133 -0.9755
 5543SOL     OW28264   4.640   0.335   0.481 -0.1793 -0.0118  0.3087
 5543SOL    HW128265   4.640   0.270   0.551 -2.3238 -0.6848 -0.3307
 5543SOL    HW228266   4.557   0.317   0.437  1.2408 -0.7983 -2.0557
 5544SOL     OW28267   4.017   1.337   8.456  0.1677 -0.2185 -0.3681
 5544SOL    HW128268   4.007   1.369   8.546  1.4620  1.1170 -0.7037
 5544SOL    HW228269   4.033   1.246   8.479  1.7121  0.1777  0.1386
 5545SOL     OW28270   0.066   2.156   7.253  0.2411  0.2034 -0.1067
 5545SOL    HW128271   0.123   2.215   7.302 -2.0063  0.3194  2.3682
 5545SOL    HW228272   0.128   2.095   7.212 -0.3368 -1.3282  1.3099
 5546SOL     OW28273   3.016   3.448   5.793  1.1387 -0.4824 -0.5089
 5546SOL    HW128274   2.943   3.489   5.839  2.4952  0.8344  0.4474
 5546SOL    HW228275   3.066   3.521   5.759  1.0862 -1.1702 -2.0864
 5547SOL     OW28276   3.418   4.350   3.632  0.2368 -0.6278 -0.3251
 5547SOL    HW128277   3.498   4.298   3.637  1.8737  1.8373 -0.8135
 5547SOL    HW228278   3.353   4.281   3.645 -0.8373  0.6879  1.2110
 5548SOL     OW28279   3.174   1.438   4.642  0.2445  0.5429 -0.4633
 5548SOL    HW128280   3.127   1.497   4.701  0.4403 -0.2900  0.5191
 5548SOL    HW228281   3.263   1.474   4.640 -0.6910  2.7637 -2.3526
 5549SOL     OW28282   1.601   0.085   3.186  0.0849  0.9407  0.1766
 5549SOL    HW128283   1.556   0.165   3.160 -0.6619 -0.0605 -1.6539
 5549SOL    HW228284   1.526   0.031   3.213  1.0353 -1.3851 -1.9114
 5550SOL     OW28285   0.014   0.712  13.054  0.4990 -0.1028  0.4007
 5550SOL    HW128286   4.699   0.792  13.040  0.6505 -0.5418 -2.4962
 5550SOL    HW228287   4.688   0.645  13.025  1.2522 -0.9141  0.6389
 5551SOL     OW28288   4.679   4.088   8.294 -0.3172 -0.8438 -0.0347
 5551SOL    HW128289   0.032   4.064   8.266  0.5297  2.7422 -0.4335
 5551SOL    HW228290   4.697   4.160   8.355 -0.0547 -2.3280  1.6485
 5552SOL     OW28291   4.392   3.064   5.290  0.5789  0.2947 -0.3143
 5552SOL    HW128292   4.409   3.029   5.378  1.1120 -1.7304 -1.2365
 5552SOL    HW228293   4.296   3.062   5.289  0.5199  1.7648  1.0421
 5553SOL     OW28294   0.525   3.479   0.617  0.1443  0.1330  0.0254
 5553SOL    HW128295   0.502   3.571   0.612 -0.3678 -0.0089 -0.1646
 5553SOL    HW228296   0.506   3.462   0.709 -0.9569 -2.0473 -0.5913
 5554SOL     OW28297   3.842   2.935  13.141  0.2576 -0.4015  0.1124
 5554SOL    HW128298   3.808   2.963  13.226  3.2930  0.1177  1.1684
 5554SOL    HW228299   3.856   3.013  13.087  0.1273 -1.2201 -1.1018
 5555SOL     OW28300   3.758   3.078   9.702  0.1849  0.1829 -0.0121
 5555SOL    HW128301   3.745   3.028   9.622  2.9703  0.8601 -0.8956
 5555SOL    HW228302   3.773   3.010   9.768 -1.1442  2.5767  2.7568
 5556SOL     OW28303   2.671   3.072  10.612  0.1060  0.8503 -0.2481
 5556SOL    HW128304   2.670   3.130  10.688 -0.7823 -1.4553  1.4992
 5556SOL    HW228305   2.718   3.132  10.554  0.4305 -2.1042 -3.0316
 5557SOL     OW28306   2.591   1.267  16.567  0.4055  0.3694  0.0736
 5557SOL    HW128307   2.536   1.346  16.565 -0.2050 -0.0929 -1.2270
 5557SOL    HW228308   2.670   1.294  16.520  1.0794  1.1486  1.6598
 5558SOL     OW28309   4.018   1.834   9.487  0.2178  0.7226  0.0072
 5558SOL    HW128310   4.029   1.850   9.393  0.0801  1.2204  0.0756
 5558SOL    HW228311   4.063   1.911   9.521  1.5307  0.2700 -0.6729
 5559SOL     OW28312   0.651   3.201   8.404  0.4600  0.3578  0.2087
 5559SOL    HW128313   0.669   3.108   8.390 -1.0463 -0.0679  1.0452
 5559SOL    HW228314   0.598   3.201   8.483  0.1964 -0.4524  0.0337
 5560SOL     OW28315   4.218   1.762   6.729  0.0540  1.2299 -0.8985
 5560SOL    HW128316   4.258   1.679   6.704  1.6174  1.1835  1.6649
 5560SOL    HW228317   4.291   1.805   6.775  1.2862 -0.3846 -1.3261
 5561SOL     OW28318   3.891   0.250   7.023 -0.5604  0.1283  0.2125
 5561SOL    HW128319   3.982   0.264   7.048 -0.5846  0.8130 -0.1012
 5561SOL    HW228320   3.875   0.165   7.065 -1.0868 -0.3514 -0.9318
 5562SOL     OW28321   2.367   4.615   3.415  0.1067  0.2902  0.2230
 5562SOL    HW128322   2.353   4.581   3.326  0.5598 -2.1243  1.0951
 5562SOL    HW228323   2.286   4.659   3.440 -1.1678 -2.6241  1.1338
 5563SOL     OW28324   0.738   1.035   1.936 -0.1825  0.1158  0.4793
 5563SOL    HW128325   0.719   1.043   2.030  2.3618  0.6936  0.9500
 5563SOL    HW228326   0.816   0.980   1.924  0.4545  1.1411 -0.1304
 5564SOL     OW28327   3.670   4.599   1.246  0.6205 -0.0146  0.4125
 5564SOL    HW128328   3.636   4.665   1.185  1.8905 -0.0239 -0.2995
 5564SOL    HW228329   3.594   4.551   1.278  2.0222 -1.5771  1.3348
 5565SOL     OW28330   0.457   2.765   4.554 -0.1216  0.8133 -0.3339
 5565SOL    HW128331   0.475   2.857   4.573 -3.5329  1.7764 -1.7680
 5565SOL    HW228332   0.494   2.771   4.466 -0.3712 -1.3727 -0.6023
 5566SOL     OW28333   1.089   1.504   3.547  0.3342 -0.0722  0.6285
 5566SOL    HW128334   1.018   1.544   3.497 -1.5042 -0.7988  2.6344
 5566SOL    HW228335   1.094   1.415   3.512  0.2437  0.5961 -1.0795
 5567SOL     OW28336   0.072   4.014  13.569  0.2596  0.0435 -0.2296
 5567SOL    HW128337   0.158   3.985  13.539  0.8250  2.2641 -0.7677
 5567SOL    HW228338   0.098   4.054  13.652 -0.1690 -0.1534 -0.0033
 5568SOL     OW28339   0.942   3.581   4.116 -0.0189  0.9520  0.3779
 5568SOL    HW128340   1.023   3.569   4.066 -1.6448 -0.0033 -2.0469
 5568SOL    HW228341   0.968   3.548   4.202 -0.7056 -1.4215 -0.3214
 5569SOL     OW28342   1.617   4.420   6.080  0.2930  0.5591 -0.6548
 5569SOL    HW128343   1.688   4.467   6.123 -0.5083  1.0014  0.1918
 5569SOL    HW228344   1.670   4.370   6.018  0.4258  0.3176 -0.3446
 5570SOL     OW28345   4.304   2.197   7.549  0.7415  0.6512  0.1939
 5570SOL    HW128346   4.397   2.197   7.570  0.9076  0.5517 -0.5399
 5570SOL    HW228347   4.312   2.227   7.459  1.3440  3.0162  1.0267
 5571SOL     OW28348   2.538   4.063   7.723  0.2138  0.6688  0.0277
 5571SOL    HW128349   2.526   4.018   7.639 -1.6145 -0.4579  0.8830
 5571SOL    HW228350   2.619   4.027   7.757  0.5504  0.2307 -1.2181
 5572SOL     OW28351   0.344   2.714   9.467  0.0994  0.0951 -0.7572
 5572SOL    HW128352   0.276   2.765   9.424 -0.0244 -1.2666 -2.1580
 5572SOL    HW228353   0.338   2.739   9.560 -1.9401 -5.0997  0.4682
 5573SOL     OW28354   3.987   3.324  12.217 -0.1235 -0.1189  0.1201
 5573SOL    HW128355   3.892   3.331  12.209 -0.1159  1.2779  1.2406
 5573SOL    HW228356   4.020   3.351  12.131  0.7996 -1.4730  0.0503
 5574SOL     OW28357   3.295   4.492   3.450 -0.7990 -0.3389  0.0570
 5574SOL    HW128358   3.331   4.441   3.523 -0.4942 -0.2974 -0.0644
 5574SOL    HW228359   3.335   4.439   3.381  0.7267 -0.4922  1.0528
 5575SOL     OW28360   4.411   3.933  15.332  0.2109  0.5754  0.0600
 5575SOL    HW128361   4.372   3.937  15.244 -1.3118  0.2860  0.7232
 5575SOL    HW228362   4.380   3.846  15.356  0.0804 -0.0073 -2.1881
 5576SOL     OW28363   4.190   2.192   8.478 -0.2136  0.2294  0.1976
 5576SOL    HW128364   4.123   2.216   8.542 -0.5844  1.8730 -0.8107
 5576SOL    HW228365   4.134   2.210   8.402 -0.3138 -1.0856 -0.0457
 5577SOL     OW28366   0.034   1.391  10.962  0.0334  0.4628 -0.3100
 5577SOL    HW128367   0.069   1.327  10.900  1.0325  1.7331 -1.0446
 5577SOL    HW228368   4.730   1.327  11.022 -1.3913 -0.0236 -1.7265
 5578SOL     OW28369   1.583   0.741   6.023  0.1557  0.1586 -0.0425
 5578SOL    HW128370   1.522   0.684   5.978 -1.5641  0.0916  2.4087
 5578SOL    HW228371   1.654   0.751   5.959  0.8596 -2.0632  0.4146
 5579SOL     OW28372   2.601   3.784  16.806  0.0080  0.1426 -0.3550
 5579SOL    HW128373   2.519   3.736  16.793 -0.2295  0.5030 -0.1984
 5579SOL    HW228374   2.637   3.753  16.724  0.2952 -0.4495 -0.0083
 5580SOL     OW28375   1.235   3.598   7.594  0.6313 -0.1535  0.3309
 5580SOL    HW128376   1.303   3.582   7.529  0.5268  2.8855 -0.5306
 5580SOL    HW228377   1.293   3.632   7.662  1.9329 -3.3335  0.8043
 5581SOL     OW28378   1.781   2.149   9.105  0.3229 -0.1508  0.0989
 5581SOL    HW128379   1.849   2.082   9.095  0.3281 -0.1604  0.1936
 5581SOL    HW228380   1.712   2.113   9.050  0.3093  0.2348 -0.1320
 5582SOL     OW28381   2.384   2.977   4.612 -0.1206  0.8000 -0.7873
 5582SOL    HW128382   2.298   3.005   4.643 -0.0905  1.0022 -0.8878
 5582SOL    HW228383   2.439   3.030   4.670 -2.8514  0.0133  2.4940
 5583SOL     OW28384   0.459   0.337   9.831 -0.3836  0.0874  0.2622
 5583SOL    HW128385   0.522   0.331   9.759 -1.7365 -1.1119 -0.8054
 5583SOL    HW228386   0.403   0.392   9.777  0.2183  0.0415 -0.4014
 5584SOL     OW28387   4.456   4.175   3.557  0.3091  0.3048 -0.2017
 5584SOL    HW128388   4.388   4.162   3.491 -0.5059  0.2838  0.6474
 5584SOL    HW228389   4.418   4.114   3.620 -0.0300  1.3583  0.6204
 5585SOL     OW28390   3.914   2.520   3.403 -0.0112 -0.1607 -0.2180
 5585SOL    HW128391   3.993   2.503   3.351  0.7680  0.4981  0.7569
 5585SOL    HW228392   3.951   2.519   3.491  0.6231 -0.4751 -0.4849
 5586SOL     OW28393   2.644   4.030   6.492  0.1262 -0.1721 -0.3321
 5586SOL    HW128394   2.605   3.945   6.475 -2.7847  1.0441  0.2462
 5586SOL    HW228395   2.719   4.020   6.434  0.2088  1.0400 -0.4493
 5587SOL     OW28396   3.827   1.928   8.888 -0.0349  0.5154  0.8418
 5587SOL    HW128397   3.739   1.924   8.925  0.9871 -1.4967  3.0784
 5587SOL    HW228398   3.805   1.886   8.805  1.0822  0.5615  0.5306
 5588SOL     OW28399   0.310   0.606   6.597 -0.1564 -0.2969 -0.1683
 5588SOL    HW128400   0.288   0.688   6.552 -1.3118 -0.1011  0.7397
 5588SOL    HW228401   0.263   0.615   6.680  0.4184 -2.5996  0.4138
 5589SOL     OW28402   1.930   0.314   6.173  0.3452  0.2259 -0.2017
 5589SOL    HW128403   1.937   0.275   6.086 -1.4882  1.8019 -1.0435
 5589SOL    HW228404   1.975   0.251   6.229  1.6540  0.3108 -1.1547
 5590SOL     OW28405   0.949   4.404  13.172 -0.0637 -0.7744 -0.1275
 5590SOL    HW128406   0.986   4.464  13.237  1.3637 -1.2534 -0.4836
 5590SOL    HW228407   0.959   4.322  13.221  0.5440 -0.2577  0.6156
 5591SOL     OW28408   4.540   4.412   8.605 -0.0746  0.4792 -0.4816
 5591SOL    HW128409   4.465   4.382   8.555  0.2080  1.5428 -1.5537
 5591SOL    HW228410   4.532   4.356   8.683  0.7451  1.0926  0.0460
 5592SOL     OW28411   3.315   1.312   2.297  0.6854  0.6026  0.4936
 5592SOL    HW128412   3.288   1.306   2.389  0.0060  2.0812  0.3897
 5592SOL    HW228413   3.283   1.401   2.282 -2.3092 -0.5185  0.1373
 5593SOL     OW28414   0.412   0.390   5.503 -0.1633  0.4461  0.1280
 5593SOL    HW128415   0.424   0.296   5.499 -0.8663  0.3503  0.1640
 5593SOL    HW228416   0.355   0.408   5.578  2.9723  3.0763  1.8827
 5594SOL     OW28417   4.416   2.870  11.179  0.3446 -1.0354  0.3921
 5594SOL    HW128418   4.438   2.779  11.199  1.1723 -0.6325  1.3706
 5594SOL    HW228419   4.492   2.890  11.126  0.2530  0.6133  0.8740
 5595SOL     OW28420   4.008   0.857   1.401  0.1103 -0.3877  0.2281
 5595SOL    HW128421   3.985   0.939   1.445  0.7478  0.9918 -1.9884
 5595SOL    HW228422   4.103   0.853   1.402  0.1290 -0.1939 -0.6666
 5596SOL     OW28423   0.262   2.357  10.238 -0.3707 -0.4773 -0.0474
 5596SOL    HW128424   0.291   2.366  10.148 -2.1074 -0.3106 -0.5805
 5596SOL    HW228425   0.181   2.406  10.222 -0.7894 -0.8718  0.8131
 5597SOL     OW28426   2.882   4.633   6.720 -0.1522  0.4650  0.3987
 5597SOL    HW128427   2.811   4.571   6.737 -0.3786 -0.4793 -3.9686
 5597SOL    HW228428   2.886   4.639   6.624  0.6426  3.0663  0.6055
 5598SOL     OW28429   1.313   2.619   1.911 -0.3426  0.3694 -0.1615
 5598SOL    HW128430   1.265   2.607   1.993  0.8061 -2.0106  0.1652
 5598SOL    HW228431   1.317   2.527   1.886 -2.0651  0.6019 -1.2998
 5599SOL     OW28432   1.746   4.479   5.222  0.3438  0.2224  0.3119
 5599SOL    HW128433   1.824   4.527   5.250  1.1957 -0.9346 -0.0505
 5599SOL    HW228434   1.731   4.531   5.143  0.0546 -0.1227  0.1387
 5600SOL     OW28435   1.856   1.224   4.901 -0.3588 -0.6646  0.9627
 5600SOL    HW128436   1.923   1.230   4.833  0.1351  0.1732  1.5191
 5600SOL    HW228437   1.883   1.296   4.959  1.1086 -0.0226 -0.5254
 5601SOL     OW28438   2.329   1.790   3.571 -0.1763  0.4481 -0.4984
 5601SOL    HW128439   2.398   1.725   3.562 -2.5345 -2.0830 -0.2409
 5601SOL    HW228440   2.315   1.778   3.664  0.1437  0.4006 -0.4568
 5602SOL     OW28441   1.301   2.170  16.398 -0.1216  0.7337  0.7777
 5602SOL    HW128442   1.241   2.229  16.444  0.6378  0.5326  2.0402
 5602SOL    HW228443   1.364   2.238  16.378  1.2687 -0.9127 -0.4581
 5603SOL     OW28444   2.545   3.329  11.629 -0.2566 -0.1773  0.0381
 5603SOL    HW128445   2.482   3.313  11.699 -0.6227 -1.6922 -0.6463
 5603SOL    HW228446   2.621   3.277  11.657  0.2214 -0.5474 -1.9516
 5604SOL     OW28447   3.699   3.023   3.002  0.4487  0.4302  0.3725
 5604SOL    HW128448   3.746   2.970   2.937  3.4203  1.3970  1.7061
 5604SOL    HW228449   3.727   3.109   2.971  0.4507  0.2212 -0.2048
 5605SOL     OW28450   1.975   3.915   4.319  0.4080 -0.2076  0.3152
 5605SOL    HW128451   1.987   3.825   4.289 -0.4803 -0.4457  0.6809
 5605SOL    HW228452   2.051   3.944   4.369  0.3219 -0.6733  0.7120
 5606SOL     OW28453   1.992   1.179   0.679  0.0971  0.0203 -0.3181
 5606SOL    HW128454   2.007   1.137   0.763  3.2130 -0.5043 -1.1546
 5606SOL    HW228455   2.045   1.125   0.620 -3.0659 -0.8322 -2.4436
 5607SOL     OW28456   2.579   1.052   7.357 -0.3394 -0.2695  0.5620
 5607SOL    HW128457   2.626   1.010   7.286  0.2083  0.3380  0.5628
 5607SOL    HW228458   2.660   1.068   7.405  1.0906 -0.3813 -1.8352
 5608SOL     OW28459   1.397   3.557   2.114  0.1985  0.1509 -0.0653
 5608SOL    HW128460   1.486   3.561   2.151 -0.5623 -0.5842  1.8087
 5608SOL    HW228461   1.421   3.559   2.021  1.5728  0.4729  0.2963
 5609SOL     OW28462   0.304   2.021   7.167  0.0670  0.2875  0.0346
 5609SOL    HW128463   0.363   2.063   7.229  0.6757 -0.9903  0.3134
 5609SOL    HW228464   0.349   2.032   7.083  1.2311  0.8999  0.7474
 5610SOL     OW28465   1.126   4.040   0.041 -0.3284 -0.6019 -0.1912
 5610SOL    HW128466   1.076   3.973  17.736  0.6198 -0.1690 -1.8693
 5610SOL    HW228467   1.078   4.118   0.012  0.4708  0.6723  1.9185
 5611SOL     OW28468   3.979   2.404   6.523  0.2721 -0.7268 -0.1357
 5611SOL    HW128469   4.001   2.409   6.430  2.1940 -0.8568  0.3256
 5611SOL    HW228470   4.062   2.417   6.569 -1.5278  0.7338  2.6958
 5612SOL     OW28471   3.621   3.621   2.906 -0.1665 -0.2331 -0.4531
 5612SOL    HW128472   3.592   3.533   2.931 -0.8959  0.6526  1.8511
 5612SOL    HW228473   3.656   3.617   2.817 -0.2144 -1.7794 -0.3978
 5613SOL     OW28474   3.540   3.583  14.995  0.7953  0.4222  0.1362
 5613SOL    HW128475   3.515   3.636  14.919 -3.3842 -0.5475  0.8352
 5613SOL    HW228476   3.470   3.613  15.052 -0.3062 -1.5543 -0.1606
 5614SOL     OW28477   1.712   1.958   5.948 -0.5005 -0.1591  0.3307
 5614SOL    HW128478   1.762   1.915   5.879  0.4180  1.5364 -0.0727
 5614SOL    HW228479   1.662   2.024   5.900 -2.2867 -1.8329 -0.0768
 5615SOL     OW28480   0.006   0.983   3.438  0.1715 -0.0761 -0.3251
 5615SOL    HW128481   4.720   1.024   3.354  1.0550 -1.8153 -1.3686
 5615SOL    HW228482   0.066   0.913   3.415 -1.6061 -2.3063  1.7645
 5616SOL     OW28483   1.857   1.006   7.981 -0.4251  0.2604 -0.1570
 5616SOL    HW128484   1.826   0.955   7.906  2.0777 -1.7110  0.1706
 5616SOL    HW228485   1.783   1.034   8.035  0.4188 -3.5976  3.0116
 5617SOL     OW28486   2.746   1.291  15.015 -0.3253 -0.0056  0.0246
 5617SOL    HW128487   2.795   1.226  14.963 -1.6226 -0.5938 -0.4530
 5617SOL    HW228488   2.805   1.366  15.012  0.1735 -0.4612 -1.6945
 5618SOL     OW28489   4.491   0.634   7.315  0.8322  0.4874 -0.6384
 5618SOL    HW128490   4.423   0.691   7.350 -0.7391 -1.1766 -0.9655
 5618SOL    HW228491   4.464   0.547   7.343  0.8004  0.1647 -1.6508
 5619SOL     OW28492   2.190   0.600  15.586  0.1974  0.0174  0.6321
 5619SOL    HW128493   2.246   0.528  15.614  1.0469  0.6588  0.5803
 5619SOL    HW228494   2.108   0.557  15.564  0.8485 -0.3766 -1.0079
 5620SOL     OW28495   0.858   3.124   4.308  0.1791 -0.2104  0.0505
 5620SOL    HW128496   0.916   3.181   4.358  1.0225 -0.8129 -0.2484
 5620SOL    HW228497   0.769   3.156   4.320  0.0144 -0.9868  0.9188
 5621SOL     OW28498   2.057   0.624   9.769  0.3211 -0.2263  0.3503
 5621SOL    HW128499   2.139   0.578   9.752  0.7095  0.0139  1.6372
 5621SOL    HW228500   2.007   0.613   9.688 -0.5931 -0.4346  0.9456
 5622SOL     OW28501   1.708   0.652   3.345  0.3917 -0.1262  0.0676
 5622SOL    HW128502   1.686   0.586   3.411 -0.9954 -0.4059 -0.6794
 5622SOL    HW228503   1.776   0.700   3.391 -0.8245  0.6638  1.0361
 5623SOL     OW28504   0.208   1.377  16.838  0.3406 -0.0981 -0.3665
 5623SOL    HW128505   0.217   1.470  16.856 -1.5234 -0.2309  1.3527
 5623SOL    HW228506   0.243   1.349  16.923 -0.7861 -2.1182 -0.5667
 5624SOL     OW28507   1.668   4.372   9.176 -0.1954  0.1605 -0.9285
 5624SOL    HW128508   1.724   4.379   9.099  1.0927 -1.2414 -0.1243
 5624SOL    HW228509   1.672   4.276   9.179  0.1940  0.2558  1.2163
 5625SOL     OW28510   4.647   2.598   2.357 -0.3969  0.4961 -0.0203
 5625SOL    HW128511   4.695   2.579   2.277  0.5822  0.8508  0.4774
 5625SOL    HW228512   4.664   2.516   2.404 -1.7073  0.5043  0.4638
 5626SOL     OW28513   2.300   3.875   1.693 -0.3584 -0.2772 -0.7828
 5626SOL    HW128514   2.332   3.823   1.767  0.0995 -2.6172 -2.6639
 5626SOL    HW228515   2.266   3.800   1.646 -2.4973 -0.9894  1.8899
 5627SOL     OW28516   2.901   3.143   0.777  0.1613  0.4506 -0.3992
 5627SOL    HW128517   2.869   3.201   0.709  0.9666 -0.0893 -1.2318
 5627SOL    HW228518   2.918   3.202   0.851 -1.3849  0.8447 -0.3525
 5628SOL     OW28519   4.684   4.313  12.905 -0.0596 -0.3716 -0.1259
 5628SOL    HW128520   4.649   4.373  12.838  0.6995 -0.5837 -0.7132
 5628SOL    HW228521   0.033   4.301  12.863  0.0624 -0.2074  0.0715
 5629SOL     OW28522   2.591   2.258   3.030 -0.5193 -0.0885  0.1537
 5629SOL    HW128523   2.498   2.267   3.051 -1.3131  0.9921 -3.9459
 5629SOL    HW228524   2.601   2.317   2.955  1.2267  0.4289  0.7896
 5630SOL     OW28525   2.075   1.246   1.720 -0.3760 -0.1780  0.6554
 5630SOL    HW128526   2.050   1.327   1.765  2.1296  0.6036  0.6477
 5630SOL    HW228527   2.102   1.285   1.637  0.8710 -2.6937 -0.1540
 5631SOL     OW28528   1.809   1.455   4.289 -0.0537  0.3525 -0.2323
 5631SOL    HW128529   1.882   1.425   4.343 -2.0335  0.4055  2.4684
 5631SOL    HW228530   1.789   1.528   4.348  0.4042  0.1906  0.1260
 5632SOL     OW28531   2.260   4.440  11.197  0.5584  0.5071 -0.2754
 5632SOL    HW128532   2.352   4.440  11.171  0.1752 -1.8153 -1.5636
 5632SOL    HW228533   2.274   4.377  11.268 -2.0479  0.6879  0.4108
 5633SOL     OW28534   2.712   0.917   0.561  0.1450 -0.2322 -0.4131
 5633SOL    HW128535   2.734   0.836   0.606 -0.0277  1.5215  2.7877
 5633SOL    HW228536   2.654   0.959   0.624 -0.7234 -2.5331  0.3126
 5634SOL     OW28537   3.005   3.810   2.475  0.0941  0.1121 -0.6638
 5634SOL    HW128538   3.033   3.896   2.444  1.8556 -0.0311  0.5263
 5634SOL    HW228539   2.910   3.802   2.463 -0.2272 -2.0045  3.1977
 5635SOL     OW28540   0.558   1.397   2.634 -0.2530  0.4306 -0.2232
 5635SOL    HW128541   0.641   1.427   2.597 -0.9051  1.7561 -0.6159
 5635SOL    HW228542   0.522   1.479   2.667  1.2889  2.0220 -2.5149
 5636SOL     OW28543   4.504   4.214   9.488 -0.1170  0.1615  0.0691
 5636SOL    HW128544   4.556   4.271   9.544  1.0735 -1.5802  0.7124
 5636SOL    HW228545   4.423   4.188   9.531 -0.6603 -0.8812 -1.5467
 5637SOL     OW28546   1.234   0.415   3.640 -0.2148  0.6290 -0.0365
 5637SOL    HW128547   1.195   0.332   3.668  1.4757  0.5174  1.9899
 5637SOL    HW228548   1.254   0.459   3.723 -2.4350  1.6005 -0.0227
 5638SOL     OW28549   0.272   3.911  14.367 -0.7179  0.0292 -0.1224
 5638SOL    HW128550   0.186   3.949  14.387  1.1161  3.3280  1.5591
 5638SOL    HW228551   0.301   3.967  14.294  0.4164  0.6754  0.8225
 5639SOL     OW28552   2.161   4.677  11.306  0.1019 -0.1652  0.3081
 5639SOL    HW128553   2.153   4.617  11.380 -0.6688 -0.1433  0.2419
 5639SOL    HW228554   2.197   4.609  11.249  0.6758 -1.2121  1.8937
 5640SOL     OW28555   1.147   1.370  17.502 -0.0058  0.0395  0.3382
 5640SOL    HW128556   1.196   1.389  17.422 -0.0162  0.7184  0.4979
 5640SOL    HW228557   1.176   1.453  17.540  0.6714 -0.3151  0.5950
 5641SOL     OW28558   0.550   4.526  16.230 -0.0996 -0.1137 -0.0285
 5641SOL    HW128559   0.567   4.520  16.136  0.5559  0.1729  0.0683
 5641SOL    HW228560   0.489   4.599  16.231 -1.9657 -1.6963  1.2249
 5642SOL     OW28561   0.307   2.259   8.131  0.0028 -0.1456 -0.0953
 5642SOL    HW128562   0.225   2.307   8.121 -0.0703 -0.6326 -1.7976
 5642SOL    HW228563   0.355   2.318   8.190  0.5389 -0.5068 -0.1659
 5643SOL     OW28564   1.543   0.326   7.053  0.0674  0.0228 -1.1704
 5643SOL    HW128565   1.510   0.372   6.975  2.4611 -0.5099 -2.5335
 5643SOL    HW228566   1.461   0.320   7.100  2.9064  0.1261  3.7728
 5644SOL     OW28567   1.086   2.392   7.294  0.3216 -0.2122 -0.3412
 5644SOL    HW128568   1.087   2.487   7.307 -0.6188  0.1413 -2.9562
 5644SOL    HW228569   1.109   2.390   7.201  3.2758 -0.3260  0.3829
 5645SOL     OW28570   1.116   3.534   3.771  0.6171 -0.4326  0.2063
 5645SOL    HW128571   1.054   3.568   3.707 -2.1867 -3.2578  1.4185
 5645SOL    HW228572   1.126   3.445   3.737  0.5019  0.4698 -2.2282
 5646SOL     OW28573   2.575   4.387   2.928 -0.2334  0.1235 -0.6172
 5646SOL    HW128574   2.497   4.354   2.882 -1.5747  1.3267  0.7689
 5646SOL    HW228575   2.600   4.328   2.999  0.6410 -0.2825 -1.2628
 5647SOL     OW28576   4.028   3.277  17.473 -0.3874  0.3892  0.5277
 5647SOL    HW128577   4.083   3.250  17.547  0.1275 -2.9272 -1.0926
 5647SOL    HW228578   4.073   3.225  17.407  0.2747 -0.2123  1.4501
 5648SOL     OW28579   3.791   0.754   9.473  0.2090  0.0573  0.1223
 5648SOL    HW128580   3.832   0.838   9.494 -0.6856  1.1418 -2.4506
 5648SOL    HW228581   3.704   0.780   9.444  0.6990  0.2886 -1.1566
 5649SOL     OW28582   1.734   2.470  10.737  1.0691  0.2804 -0.6879
 5649SOL    HW128583   1.745   2.564  10.722 -0.5017  0.4500 -0.7388
 5649SOL    HW228584   1.698   2.468  10.826  2.4172  1.5617 -0.1141
 5650SOL     OW28585   1.214   3.738  13.524  0.4124 -0.5961 -0.2335
 5650SOL    HW128586   1.222   3.733  13.619  1.7369  1.2299 -0.2513
 5650SOL    HW228587   1.289   3.794  13.504 -0.0557  0.1030 -0.0290
 5651SOL     OW28588   0.848   1.431   4.631  0.1948 -0.4200  0.3875
 5651SOL    HW128589   0.880   1.341   4.630  0.1596 -0.4146 -2.9058
 5651SOL    HW228590   0.827   1.446   4.539 -2.4777 -0.6562  0.9564
 5652SOL     OW28591   0.517   4.250   4.198 -0.2201 -0.1124  0.1984
 5652SOL    HW128592   0.494   4.305   4.273 -1.2390 -1.6308  1.0171
 5652SOL    HW228593   0.507   4.312   4.126 -0.1496 -0.6552 -0.2818
 5653SOL     OW28594   0.427   0.871   4.803  0.2788  0.2247  0.8090
 5653SOL    HW128595   0.496   0.848   4.740 -2.5378  0.1289 -2.2239
 5653SOL    HW228596   0.360   0.814   4.766  1.7454 -2.0519  1.6399
 5654SOL     OW28597   0.890   4.604   4.956 -0.2307  0.1453 -0.8262
 5654SOL    HW128598   0.943   4.580   5.032 -1.7279 -1.1533 -0.1905
 5654SOL    HW228599   0.800   4.623   4.982 -0.1089 -0.6042  0.1022
 5655SOL     OW28600   2.087   3.420   6.746  0.3647  0.3851  0.2551
 5655SOL    HW128601   2.055   3.464   6.825  0.1962  1.3974 -0.3694
 5655SOL    HW228602   2.116   3.337   6.783 -0.5248  0.3973  0.9848
 5656SOL     OW28603   3.418   4.010   6.846  0.4230 -0.7376  0.9246
 5656SOL    HW128604   3.470   4.054   6.913 -0.8359  1.5297  0.4133
 5656SOL    HW228605   3.361   3.956   6.901 -0.2822 -0.6476  0.2859
 5657SOL     OW28606   0.984   1.826  10.882 -0.1549 -0.2338 -0.4650
 5657SOL    HW128607   0.969   1.823  10.788 -0.7246  0.5087 -0.3923
 5657SOL    HW228608   0.901   1.862  10.911  0.3581  1.2409 -0.8391
 5658SOL     OW28609   1.831   2.008   4.202 -0.3073 -0.1159 -0.2030
 5658SOL    HW128610   1.827   2.057   4.120 -0.7104  1.6545  0.8654
 5658SOL    HW228611   1.821   2.080   4.265  0.5842  0.0613 -0.2663
 5659SOL     OW28612   4.043   1.868   2.656 -0.4072  0.7339  0.0862
 5659SOL    HW128613   4.128   1.905   2.678  0.3365 -0.1003 -1.4234
 5659SOL    HW228614   4.028   1.816   2.736 -1.8196  0.7950 -0.1433
 5660SOL     OW28615   3.347   3.419   0.872 -0.3227  0.4243 -0.3365
 5660SOL    HW128616   3.326   3.364   0.797  1.3174 -1.4289  0.5760
 5660SOL    HW228617   3.431   3.379   0.895 -0.3851 -1.0003 -2.6013
 5661SOL     OW28618   3.661   0.144   6.819  0.5613 -0.3924 -0.3501
 5661SOL    HW128619   3.619   0.176   6.899 -1.1055  0.1921 -1.4570
 5661SOL    HW228620   3.754   0.155   6.836  0.0657  2.6454  0.3622
 5662SOL     OW28621   0.322   4.536   7.040  0.3815  0.4555 -0.1070
 5662SOL    HW128622   0.281   4.623   7.045 -0.4181  0.1600 -1.6486
 5662SOL    HW228623   0.413   4.553   7.017  0.4047 -0.4248 -0.6854
 5663SOL     OW28624   1.774   1.821   9.771 -0.2892  0.0586  0.1584
 5663SOL    HW128625   1.692   1.774   9.760  0.3886 -1.2990  0.9095
 5663SOL    HW228626   1.770   1.848   9.863 -0.1815 -2.4825  0.9037
 5664SOL     OW28627   3.458   4.435   2.725  0.3205 -0.2506  0.1071
 5664SOL    HW128628   3.524   4.470   2.665  1.6671 -0.5025  1.4375
 5664SOL    HW228629   3.438   4.346   2.694 -1.4090 -0.4028  1.6293
 5665SOL     OW28630   1.175   1.550  17.021 -0.1476 -0.3933 -0.4274
 5665SOL    HW128631   1.228   1.620  16.983  1.3175 -2.4821 -2.2920
 5665SOL    HW228632   1.194   1.478  16.961 -0.7899 -2.2658  1.6392
 5666SOL     OW28633   3.464   1.560   3.803  0.1815  0.1801  0.2206
 5666SOL    HW128634   3.391   1.547   3.862  0.1173 -1.3007 -0.2055
 5666SOL    HW228635   3.418   1.589   3.724  0.1935 -0.1269  0.1006
 5667SOL     OW28636   0.563   1.755   7.091 -0.0509 -0.3040  0.5351
 5667SOL    HW128637   0.505   1.796   7.026 -1.2880 -0.9548  1.2271
 5667SOL    HW228638   0.644   1.805   7.083 -1.9911  2.7337 -0.1709
 5668SOL     OW28639   2.641   0.921   7.090  0.3725  0.1815  0.2453
 5668SOL    HW128640   2.650   1.004   7.043  0.3036  0.7796  1.2741
 5668SOL    HW228641   2.552   0.893   7.069  1.2625 -1.0818 -1.8613
 5669SOL     OW28642   3.477   1.474   1.942  0.1969 -0.6691 -0.3412
 5669SOL    HW128643   3.429   1.413   1.998  1.0565  0.0090  1.1392
 5669SOL    HW228644   3.413   1.535   1.906 -0.7484 -0.8481  1.0642
 5670SOL     OW28645   2.382   2.061   3.598 -0.1733  0.5178 -0.5908
 5670SOL    HW128646   2.394   1.969   3.573  5.1341  1.2918 -0.9126
 5670SOL    HW228647   2.297   2.058   3.642  0.2741  3.7432  0.4390
 5671SOL     OW28648   0.955   4.264   5.980 -0.3903  0.0765  0.0784
 5671SOL    HW128649   0.883   4.247   6.042 -1.2511 -3.2485 -1.8429
 5671SOL    HW228650   0.913   4.286   5.897 -0.9432 -1.4953 -0.0624
 5672SOL     OW28651   3.495   4.632  15.960 -0.0451 -0.1379  0.3669
 5672SOL    HW128652   3.537   4.559  15.915  1.8673  2.1949 -1.6184
 5672SOL    HW228653   3.435   4.577  16.011  0.4718 -3.0936 -2.2719
 5673SOL     OW28654   2.656   1.315  12.371  0.1186 -0.2440  0.3704
 5673SOL    HW128655   2.644   1.253  12.299 -1.3930  1.3801 -0.7861
 5673SOL    HW228656   2.573   1.297  12.416  0.8271  1.5778  2.4370
 5674SOL     OW28657   1.326   1.076   5.848 -0.8943 -0.1681  0.1818
 5674SOL    HW128658   1.397   1.108   5.792 -1.0972  2.0163  1.1716
 5674SOL    HW228659   1.274   1.157   5.854  0.6226  0.8236 -0.1660
 5675SOL     OW28660   3.688   3.829   7.601  0.3974  0.1298  1.0246
 5675SOL    HW128661   3.610   3.774   7.609 -0.2548  0.6488 -2.0974
 5675SOL    HW228662   3.679   3.892   7.531  1.2928 -0.7324  0.1340
 5676SOL     OW28663   2.735   2.719   4.040 -0.4410  0.6298 -0.3438
 5676SOL    HW128664   2.709   2.722   4.132 -0.1805 -3.0362 -0.1476
 5676SOL    HW228665   2.822   2.680   4.046 -0.1828  1.0810 -1.1613
 5677SOL     OW28666   2.624   4.378   4.149  0.2031  0.3088  0.0845
 5677SOL    HW128667   2.698   4.423   4.188  2.6894 -1.1421 -2.9711
 5677SOL    HW228668   2.638   4.290   4.185  0.3911  0.0096 -0.7196
 5678SOL     OW28669   2.823   4.378   2.432  0.3654  0.5126 -0.5184
 5678SOL    HW128670   2.841   4.471   2.418 -0.8870  0.7338 -0.6648
 5678SOL    HW228671   2.881   4.354   2.504 -0.1930 -1.3323 -0.6864
 5679SOL     OW28672   0.395   1.336   3.518 -0.0377 -0.2981 -0.2116
 5679SOL    HW128673   0.360   1.415   3.558  1.5963 -0.6200  1.8344
 5679SOL    HW228674   0.328   1.268   3.532 -0.0373 -0.2083  0.2378
 5680SOL     OW28675   3.022   3.444   8.052 -0.1158  0.3253  0.2333
 5680SOL    HW128676   2.954   3.408   7.995 -0.8902  0.9246  0.7777
 5680SOL    HW228677   3.071   3.493   7.986  0.1049  1.6101  1.3579
 5681SOL     OW28678   0.487   2.830  17.394 -0.0531 -0.0416  0.1271
 5681SOL    HW128679   0.582   2.829  17.382 -0.0649 -0.5442  0.0732
 5681SOL    HW228680   0.472   2.923  17.379  0.1723  0.1059  0.7891
 5682SOL     OW28681   4.004   2.041   9.746 -0.2076 -0.1698 -0.1016
 5682SOL    HW128682   4.056   2.077   9.818 -1.7150 -1.5596  1.6871
 5682SOL    HW228683   3.962   1.971   9.797  0.9045 -1.0871 -0.4455
 5683SOL     OW28684   0.151   2.827   3.687 -0.1327 -0.1434  0.1452
 5683SOL    HW128685   0.187   2.915   3.692 -1.8963  0.7035 -1.4805
 5683SOL    HW228686   0.102   2.826   3.769  0.2684  0.5344  0.3853
 5684SOL     OW28687   4.240   1.830  13.449 -0.2468 -0.4109  0.2773
 5684SOL    HW128688   4.188   1.796  13.521 -0.0748  2.3832  1.7206
 5684SOL    HW228689   4.197   1.910  13.420 -2.1197 -1.0890  1.2141
 5685SOL     OW28690   1.548   2.020   9.752 -0.6163 -0.0065  0.5905
 5685SOL    HW128691   1.554   2.015   9.847  2.8899  0.0164  0.3729
 5685SOL    HW228692   1.461   1.983   9.739  0.6398 -2.4400 -0.8797
 5686SOL     OW28693   0.514   4.565   4.920 -0.8536  0.4784 -0.2971
 5686SOL    HW128694   0.558   4.623   4.981 -2.3467 -0.0824  1.3038
 5686SOL    HW228695   0.505   4.623   4.844  2.1387  0.3266 -0.7590
 5687SOL     OW28696   1.360   1.157   1.900  0.1413  0.2054  0.4822
 5687SOL    HW128697   1.407   1.078   1.925 -3.5391 -2.0576  0.2512
 5687SOL    HW228698   1.418   1.201   1.838 -0.6151 -0.1035 -0.4402
 5688SOL     OW28699   4.475   1.777  11.030 -0.4036  0.2205  0.2575
 5688SOL    HW128700   4.554   1.744  11.073 -1.1521 -1.7390  0.1162
 5688SOL    HW228701   4.402   1.723  11.060  0.1842 -1.3067 -1.0567
 5689SOL     OW28702   1.390   2.923   8.212 -0.0152  0.0217  0.0138
 5689SOL    HW128703   1.347   2.877   8.140  0.8906 -0.6206 -0.1218
 5689SOL    HW228704   1.373   2.856   8.278 -0.0900 -0.0599 -0.0882
 5690SOL     OW28705   2.140   4.631   2.770 -0.3250  0.2217  0.4661
 5690SOL    HW128706   2.178   4.712   2.806 -0.3700  1.6061 -2.5746
 5690SOL    HW228707   2.046   4.647   2.776 -0.6181 -0.7519 -1.6725
 5691SOL     OW28708   3.376   0.417  10.162 -0.0117  0.5821  0.5539
 5691SOL    HW128709   3.358   0.486  10.097  0.9693  2.9516  2.7822
 5691SOL    HW228710   3.442   0.463  10.215 -0.1992  0.0301  1.2596
 5692SOL     OW28711   4.675   4.657  14.739  0.4937 -0.7117  0.0588
 5692SOL    HW128712   4.726   4.607  14.803  1.7603 -1.4334 -1.5112
 5692SOL    HW228713   4.709   0.011  14.745 -0.5263 -0.3848  0.8516
 5693SOL     OW28714   2.722   2.921   2.154 -0.2641 -0.2907  0.4562
 5693SOL    HW128715   2.732   2.827   2.174  1.9504 -0.4491 -1.3987
 5693SOL    HW228716   2.797   2.945   2.099 -0.7184 -2.5998 -1.1578
 5694SOL     OW28717   0.663   3.367  13.346  0.3566  0.3913 -0.5418
 5694SOL    HW128718   0.591   3.404  13.396  1.1698  0.7653  0.3396
 5694SOL    HW228719   0.712   3.329  13.418  2.8759 -0.1450 -2.5525
 5695SOL     OW28720   2.946   0.258   7.786  0.5100  0.0160 -0.5957
 5695SOL    HW128721   2.964   0.261   7.880  0.2818  0.8347 -0.5743
 5695SOL    HW228722   2.990   0.333   7.746  1.3007  0.4559  1.0701
 5696SOL     OW28723   1.613   1.814   4.967 -0.4204  0.3154 -0.0278
 5696SOL    HW128724   1.567   1.761   4.902  0.2650 -1.9135  1.2974
 5696SOL    HW228725   1.542   1.843   5.024  2.0310  0.9887  2.6679
 5697SOL     OW28726   1.186   0.828   9.580 -0.1231 -0.1177 -0.6222
 5697SOL    HW128727   1.111   0.839   9.522 -2.0194 -3.6291  1.2380
 5697SOL    HW228728   1.248   0.890   9.540  0.1062 -0.6749 -1.1280
 5698SOL     OW28729   4.482   2.111   4.233  0.2980  0.2604 -0.1891
 5698SOL    HW128730   4.473   2.025   4.191  0.7443  0.6988 -1.1714
 5698SOL    HW228731   4.535   2.085   4.308  1.0377 -0.5659 -0.9910
 5699SOL     OW28732   3.205   2.977   2.254  0.8139 -0.3632 -0.1263
 5699SOL    HW128733   3.133   3.010   2.309  0.0921  0.9092 -1.8474
 5699SOL    HW228734   3.280   2.990   2.312 -1.0843  0.5430  2.1626
 5700SOL     OW28735   2.573   0.169   1.266 -0.0451 -0.3289 -0.4817
 5700SOL    HW128736   2.550   0.178   1.173  1.1090  0.7251 -0.6654
 5700SOL    HW228737   2.593   0.078   1.285 -1.5310 -0.1558  1.8231
 5701SOL     OW28738   1.290   0.080  14.199  1.0089 -1.1821 -0.2747
 5701SOL    HW128739   1.382   0.086  14.223  0.9722 -1.0417 -0.1703
 5701SOL    HW228740   1.242   0.082  14.282  1.2669 -2.2051 -0.1032
 5702SOL     OW28741   1.589   1.444   3.563  0.8897 -0.1712 -0.2798
 5702SOL    HW128742   1.518   1.458   3.501  1.3268 -1.7458 -1.1430
 5702SOL    HW228743   1.534   1.415   3.636  0.0223 -0.3173 -0.9952
 5703SOL     OW28744   2.703   3.182   8.281  0.3980  0.3860  0.2920
 5703SOL    HW128745   2.789   3.141   8.270  0.2498  0.0072  0.5532
 5703SOL    HW228746   2.709   3.246   8.210  1.4882  0.4775  0.4608
 5704SOL     OW28747   2.430   4.160   3.431 -0.1327  0.2712 -0.0406
 5704SOL    HW128748   2.464   4.080   3.473  1.6023  0.9948 -0.0947
 5704SOL    HW228749   2.433   4.223   3.503 -2.4853 -0.1602  0.4467
 5705SOL     OW28750   4.423   0.799   5.887  0.4608 -0.1093 -0.2005
 5705SOL    HW128751   4.410   0.894   5.889 -1.1082 -0.3317 -0.4822
 5705SOL    HW228752   4.348   0.761   5.842  1.5442 -1.8175 -0.5472
 5706SOL     OW28753   1.169   0.776  16.536  0.5772 -0.0086 -0.4430
 5706SOL    HW128754   1.101   0.747  16.596 -0.3351 -0.1741 -1.5501
 5706SOL    HW228755   1.121   0.826  16.470  0.5870  2.1050  1.1535
 5707SOL     OW28756   2.796   1.525  14.196  0.6205  0.1689  0.6259
 5707SOL    HW128757   2.773   1.607  14.241  0.8690 -0.5782  2.1340
 5707SOL    HW228758   2.792   1.464  14.270  1.9113  1.1615  1.5377
 5708SOL     OW28759   2.638   4.667   4.412  0.0931 -0.2685  0.0550
 5708SOL    HW128760   2.614   4.699   4.498  1.5680  0.8856  0.0372
 5708SOL    HW228761   2.687   4.588   4.434 -0.3496 -0.4550  0.3749
 5709SOL     OW28762   3.547   4.003   9.622  0.0971 -0.1080  0.5482
 5709SOL    HW128763   3.575   3.914   9.600  1.9756  1.1531 -2.1357
 5709SOL    HW228764   3.545   4.037   9.533  0.7076 -1.1126  0.1444
 5710SOL     OW28765   4.250   3.521   6.645  0.3770  0.2314  0.1608
 5710SOL    HW128766   4.201   3.567   6.713  0.7281 -0.5028  0.9177
 5710SOL    HW228767   4.204   3.561   6.571  0.9439 -0.2823 -0.4686
 5711SOL     OW28768   1.153   1.453   2.988 -0.0295 -0.3300 -0.5077
 5711SOL    HW128769   1.083   1.393   3.013 -1.4345  0.9247 -1.4170
 5711SOL    HW228770   1.153   1.447   2.892  1.5362 -0.7825 -0.4729
 5712SOL     OW28771   0.149   0.098   0.514  0.3447  0.3068 -0.2388
 5712SOL    HW128772   0.172   0.089   0.606 -3.5042  0.5713  0.7401
 5712SOL    HW228773   0.166   0.191   0.497 -1.0123  0.4661 -0.6869
 5713SOL     OW28774   1.384   2.033   6.057  0.0159  0.6703  0.1259
 5713SOL    HW128775   1.405   1.960   6.114  1.2710  1.1441  0.2611
 5713SOL    HW228776   1.289   2.038   6.069 -0.1976  2.6405 -2.2863
 5714SOL     OW28777   0.047   2.243   5.740 -0.2354  0.0533  0.1125
 5714SOL    HW128778   0.001   2.203   5.667  0.2405 -0.4057  0.0634
 5714SOL    HW228779   0.135   2.206   5.733 -0.5254 -1.0420  2.2257
 5715SOL     OW28780   4.666   2.254  15.174  0.6039  0.5346  0.5391
 5715SOL    HW128781   4.699   2.266  15.085  0.5951 -0.4236  0.4010
 5715SOL    HW228782   4.588   2.309  15.177  1.4396  1.7827 -1.1678
 5716SOL     OW28783   2.701   2.287   8.170 -0.2488  0.3087 -0.7833
 5716SOL    HW128784   2.611   2.259   8.152 -0.2544 -0.8472  1.1118
 5716SOL    HW228785   2.689   2.373   8.211  0.6580  0.7086 -1.3378
 5717SOL     OW28786   0.410   0.906  11.477  0.3226 -0.0157  0.6348
 5717SOL    HW128787   0.392   0.916  11.571  0.6066 -1.5201  0.8592
 5717SOL    HW228788   0.483   0.965  11.460 -2.1168  2.2501 -1.8158
 5718SOL     OW28789   0.407   2.547   8.733 -0.3925 -0.3692  0.1364
 5718SOL    HW128790   0.479   2.575   8.676 -0.6253 -1.7517 -0.8320
 5718SOL    HW228791   0.340   2.603   8.694 -1.1995 -0.9421  0.7023
 5719SOL     OW28792   2.232   3.313  10.818 -0.2636 -0.0264  0.1130
 5719SOL    HW128793   2.276   3.245  10.869  0.3727 -0.5318 -1.1144
 5719SOL    HW228794   2.215   3.269  10.735 -0.2752 -0.9309  0.5972
 5720SOL     OW28795   3.564   1.358   8.578 -0.5546 -0.0803 -0.2807
 5720SOL    HW128796   3.619   1.279   8.577  0.3080  0.5157  0.4665
 5720SOL    HW228797   3.516   1.353   8.660 -0.7098  0.8520 -0.3127
 5721SOL     OW28798   4.488   2.355  11.633  0.8135  0.1982  0.1232
 5721SOL    HW128799   4.446   2.384  11.715  1.0929  2.3282 -0.4852
 5721SOL    HW228800   4.551   2.294  11.670 -0.0368 -0.7038  0.0734
 5722SOL     OW28801   0.315   0.156   3.546  0.3287 -0.0763 -0.6501
 5722SOL    HW128802   0.376   0.155   3.471  1.7315 -1.8592  0.5315
 5722SOL    HW228803   0.273   0.070   3.545 -0.5775  0.3786 -1.6818
 5723SOL     OW28804   2.536   3.924  16.033 -1.1146  0.1678  0.1453
 5723SOL    HW128805   2.502   4.012  16.049 -1.0500  0.1740  0.2480
 5723SOL    HW228806   2.622   3.938  15.994 -1.2558  0.5479 -0.0286
 5724SOL     OW28807   2.077   3.631   4.882 -0.3610 -0.6749  0.4368
 5724SOL    HW128808   1.983   3.646   4.873 -0.5689  0.0684  3.5938
 5724SOL    HW228809   2.097   3.575   4.807 -1.8215 -0.7700  0.1201
 5725SOL     OW28810   4.002   4.370   8.893  0.1023  0.1546 -0.0354
 5725SOL    HW128811   4.043   4.369   8.980  1.5467 -3.2056 -0.7741
 5725SOL    HW228812   3.985   4.464   8.899  0.0416  0.1799 -0.6853
 5726SOL     OW28813   3.857   4.065   6.651  0.2045 -0.7396 -0.5338
 5726SOL    HW128814   3.840   4.002   6.721  2.5092  0.3371  0.9952
 5726SOL    HW228815   3.829   4.150   6.686  0.0145 -1.0699  0.1212
 5727SOL     OW28816   0.354   0.095   5.440 -0.3038  0.3495  0.3573
 5727SOL    HW128817   0.313   0.077   5.525 -0.4540 -0.8487  0.0215
 5727SOL    HW228818   0.387   0.008   5.418 -0.6269  0.3580 -0.1660
 5728SOL     OW28819   3.426   4.095  14.094 -0.1913  0.3876  0.0884
 5728SOL    HW128820   3.441   4.048  14.012  0.8614  0.7849  0.0656
 5728SOL    HW228821   3.331   4.081  14.102  0.2475 -0.4642  3.9435
 5729SOL     OW28822   2.519   1.075   6.592  0.7041 -0.2738 -0.1516
 5729SOL    HW128823   2.450   1.114   6.539  1.6519  2.4310  0.5742
 5729SOL    HW228824   2.476   1.103   6.672  0.2153  0.4362 -0.6649
 5730SOL     OW28825   4.091   3.085   4.136 -0.6887  0.2167  0.0524
 5730SOL    HW128826   4.066   3.069   4.045 -2.8714  1.1446  0.4867
 5730SOL    HW228827   4.126   2.999   4.161 -0.7305 -0.3014 -1.6675
 5731SOL     OW28828   3.192   1.656   0.485  0.2101  0.2466  0.5848
 5731SOL    HW128829   3.255   1.697   0.544 -1.1400 -0.7963  2.7426
 5731SOL    HW228830   3.119   1.711   0.512  1.1441  1.9075 -0.2500
 5732SOL     OW28831   0.547   3.156   6.729  0.1086  0.4056  0.0716
 5732SOL    HW128832   0.515   3.071   6.699 -0.4738  1.4872 -2.4378
 5732SOL    HW228833   0.522   3.145   6.820 -1.3368  0.6723 -0.2884
 5733SOL     OW28834   3.025   0.860   9.521  0.1850  0.2302 -0.2211
 5733SOL    HW128835   3.023   0.788   9.584  2.4249  1.1472  0.9185
 5733SOL    HW228836   3.034   0.938   9.575  1.5585 -1.1940  1.6546
 5734SOL     OW28837   0.931   2.971   1.775 -0.1650 -0.1044  0.3415
 5734SOL    HW128838   0.919   3.055   1.731 -1.9693 -0.5257  0.0189
 5734SOL    HW228839   1.025   2.953   1.785  0.2694  1.1890 -1.5836
 5735SOL     OW28840   1.906   3.083   3.569 -0.1000  0.0778  1.0306
 5735SOL    HW128841   1.810   3.075   3.576  0.0544 -1.5119  1.2613
 5735SOL    HW228842   1.923   3.032   3.648  1.0861  1.3859  1.5981
 5736SOL     OW28843   0.893   3.642   7.759 -0.5804  0.4379 -0.4626
 5736SOL    HW128844   0.888   3.600   7.844  0.9432  0.0936 -0.5586
 5736SOL    HW228845   0.931   3.574   7.704 -0.5137 -0.4155  0.6523
 5737SOL     OW28846   0.800   3.168   7.670 -0.0635 -0.4473 -0.7991
 5737SOL    HW128847   0.802   3.158   7.575 -1.9826 -1.9292 -0.6838
 5737SOL    HW228848   0.884   3.213   7.677 -0.6220  0.4700 -0.0699
 5738SOL     OW28849   1.571   0.677  17.008 -0.6215 -0.1760  0.0583
 5738SOL    HW128850   1.488   0.695  16.964 -0.8346  0.2531  0.6373
 5738SOL    HW228851   1.535   0.678  17.097  0.0895 -3.3780  0.3693
 5739SOL     OW28852   0.696   2.981   4.551 -0.6496 -0.0472 -0.5518
 5739SOL    HW128853   0.767   2.921   4.528  0.3448  0.9951 -0.2029
 5739SOL    HW228854   0.650   2.982   4.467 -1.3922 -2.0150 -0.1755
 5740SOL     OW28855   1.626   1.302   7.601  0.4569 -0.0485  0.7909
 5740SOL    HW128856   1.531   1.312   7.589  0.7025  1.4695  0.1285
 5740SOL    HW228857   1.626   1.265   7.689  1.0292 -1.4691  0.1965
 5741SOL     OW28858   2.830   4.093   1.077 -0.0180 -0.1338  0.1303
 5741SOL    HW128859   2.922   4.116   1.088  0.5075 -0.9776 -2.4584
 5741SOL    HW228860   2.800   4.157   1.012  0.1695  0.4768  0.6512
 5742SOL     OW28861   1.341   1.469   5.438 -0.3945  0.2621 -0.1622
 5742SOL    HW128862   1.364   1.406   5.506  2.1384  2.5127  1.0501
 5742SOL    HW228863   1.422   1.519   5.430 -0.2487  0.4373  2.2745
 5743SOL     OW28864   1.420   0.117   7.566  0.1638 -0.1778  0.0308
 5743SOL    HW128865   1.399   0.191   7.622 -2.6516 -0.1766 -1.0533
 5743SOL    HW228866   1.440   0.049   7.630  1.2750  0.3801  0.2731
 5744SOL     OW28867   0.916   3.839  17.183 -0.3036  0.0490  0.2510
 5744SOL    HW128868   0.945   3.757  17.223  2.5007  0.8972 -0.0005
 5744SOL    HW228869   0.989   3.843  17.121 -0.9073  0.6767 -0.4193
 5745SOL     OW28870   1.392   0.075   2.571 -0.0240  0.2781  0.2051
 5745SOL    HW128871   1.477   0.033   2.582 -0.9170 -1.4977  0.3607
 5745SOL    HW228872   1.363   0.087   2.662  0.8018 -3.1047  0.8990
 5746SOL     OW28873   2.570   3.299   7.625  0.3693 -0.0688  0.0912
 5746SOL    HW128874   2.573   3.323   7.532  1.7750  0.9110  0.3905
 5746SOL    HW228875   2.663   3.306   7.647  0.2643  0.9967  0.2202
 5747SOL     OW28876   1.125   0.221   7.624  0.5479  0.0922 -0.1692
 5747SOL    HW128877   1.099   0.148   7.568 -1.0765 -0.2680  1.0226
 5747SOL    HW228878   1.212   0.247   7.595  0.6958 -0.1039  0.0847
 5748SOL     OW28879   2.559   1.696   6.511 -0.6986  0.4526 -0.1928
 5748SOL    HW128880   2.554   1.740   6.596  1.8608  2.9352 -1.3352
 5748SOL    HW228881   2.641   1.648   6.521 -1.2140 -0.8959 -2.3951
 5749SOL     OW28882   4.122   2.208   9.153 -0.5545 -0.1734  0.5702
 5749SOL    HW128883   4.195   2.177   9.207 -1.0328  0.8790  1.8172
 5749SOL    HW228884   4.087   2.291   9.186 -1.4137  0.2908 -1.5587
 5750SOL     OW28885   2.120   2.691  15.977 -0.2345  0.5484  0.0618
 5750SOL    HW128886   2.190   2.652  16.028  1.7846  1.4699 -2.0122
 5750SOL    HW228887   2.147   2.667  15.889  0.7347  0.6763  0.3322
 5751SOL     OW28888   2.914   3.890   5.492  0.0151 -0.9861  0.4100
 5751SOL    HW128889   2.965   3.814   5.462 -0.1297 -1.1835  0.6680
 5751SOL    HW228890   2.961   3.964   5.453 -2.4216 -0.5664 -1.7358
 5752SOL     OW28891   4.363   3.690   7.870 -0.2149 -0.8857 -0.3842
 5752SOL    HW128892   4.272   3.665   7.884 -0.6448  0.9882  0.2142
 5752SOL    HW228893   4.350   3.784   7.859  0.5702 -0.5288  1.6469
 5753SOL     OW28894   2.362   4.716   3.734  0.1053 -0.2094 -0.4860
 5753SOL    HW128895   2.427   4.674   3.791 -0.9310 -0.3458  0.6126
 5753SOL    HW228896   2.395   0.071   3.733  0.6322 -0.4056 -0.7296
 5754SOL     OW28897   1.957   2.190   2.145  0.1369 -0.0266  0.5014
 5754SOL    HW128898   1.992   2.104   2.171 -0.5233  0.3212  2.5258
 5754SOL    HW228899   2.041   2.236   2.150  0.8423 -1.5469  2.4910
 5755SOL     OW28900   0.143   3.726   4.033 -0.0671 -0.1619 -0.1336
 5755SOL    HW128901   0.227   3.691   4.065 -0.4115 -1.7020 -0.9135
 5755SOL    HW228902   0.109   3.663   3.969  1.4684 -0.2948 -0.8111
 5756SOL     OW28903   4.018   3.384   2.215  0.9126 -0.0272 -0.6292
 5756SOL    HW128904   4.046   3.451   2.277  1.5674  0.1096 -1.0657
 5756SOL    HW228905   3.923   3.378   2.216  0.9396 -0.1941  0.6378
 5757SOL     OW28906   0.947   3.708   7.433  0.0768  0.9592  0.0711
 5757SOL    HW128907   0.959   3.801   7.412  0.0074  1.3035  1.5944
 5757SOL    HW228908   1.014   3.685   7.497 -3.0194 -0.1347  2.8988
 5758SOL     OW28909   4.181   4.346  11.884  0.9154 -0.3330 -0.0297
 5758SOL    HW128910   4.158   4.257  11.859  1.8208  0.1507 -2.5341
 5758SOL    HW228911   4.106   4.399  11.856  0.8652  0.0939  0.9025
 5759SOL     OW28912   4.711   2.757   5.051 -0.1570 -0.2890 -0.1202
 5759SOL    HW128913   4.653   2.754   4.975  0.1446  1.7333 -0.4431
 5759SOL    HW228914   4.655   2.810   5.108 -0.7979 -0.0670 -0.9496
 5760SOL     OW28915   2.359   3.312   8.739  0.6464  0.1373 -0.4827
 5760SOL    HW128916   2.281   3.336   8.689  1.8914 -1.4530 -3.1887
 5760SOL    HW228917   2.427   3.325   8.672  2.1972 -2.0237  0.6682
 5761SOL     OW28918   0.333   3.113   8.025 -0.5635  0.0567  0.1857
 5761SOL    HW128919   0.319   3.114   8.120  2.8837  1.1033  0.6874
 5761SOL    HW228920   0.247   3.147   8.001 -0.6855 -0.7571 -0.5390
 5762SOL     OW28921   2.564   1.641   3.890 -0.4002 -0.2026 -0.1720
 5762SOL    HW128922   2.495   1.593   3.844 -0.4660  1.0889 -1.4111
 5762SOL    HW228923   2.533   1.717   3.940 -0.1880 -0.6247  0.6072
 5763SOL     OW28924   3.869   2.383   8.811 -0.2482 -0.1833 -0.1707
 5763SOL    HW128925   3.873   2.445   8.884 -1.0994  0.4765 -0.6829
 5763SOL    HW228926   3.785   2.339   8.826  0.0161 -1.2519 -1.8659
 5764SOL     OW28927   3.343   3.833  10.461  0.7742  0.4171 -0.1748
 5764SOL    HW128928   3.275   3.794  10.516  1.4418  1.2046  1.2007
 5764SOL    HW228929   3.375   3.895  10.527  3.1015 -0.5282 -0.4077
 5765SOL     OW28930   1.534   1.406   8.690 -0.5968  0.0592 -0.3962
 5765SOL    HW128931   1.596   1.336   8.708  2.2068  2.6220 -0.0497
 5765SOL    HW228932   1.598   1.472   8.663 -1.5789  0.1778 -2.4622
 5766SOL     OW28933   3.788   3.213   7.154  0.2175 -0.0418  0.0028
 5766SOL    HW128934   3.826   3.185   7.237  0.7848 -1.7680 -0.8329
 5766SOL    HW228935   3.851   3.255   7.097 -0.5761 -0.1270 -0.9386
 5767SOL     OW28936   4.692   0.989   6.189  0.0421 -0.0340  0.3133
 5767SOL    HW128937   4.641   0.908   6.183  1.9494 -1.1672 -0.3241
 5767SOL    HW228938   4.639   1.051   6.138 -0.8161 -0.6750  0.4205
 5768SOL     OW28939   1.656   4.254   5.364 -0.1517  0.2182 -0.8898
 5768SOL    HW128940   1.602   4.299   5.429  1.8299 -0.0017  0.8954
 5768SOL    HW228941   1.674   4.331   5.309  1.3300  0.2278 -0.3805
 5769SOL     OW28942   0.752   3.123   3.073  0.2868 -0.1465  0.4334
 5769SOL    HW128943   0.738   3.054   3.007 -0.3705 -0.4875  0.9232
 5769SOL    HW228944   0.683   3.096   3.134  0.1166 -1.8579 -0.4810
 5770SOL     OW28945   2.040   0.260   1.690 -0.8000  0.4793  0.5213
 5770SOL    HW128946   1.995   0.277   1.773  0.0696  0.5937  0.9731
 5770SOL    HW228947   2.058   0.168   1.705 -0.1175  0.2796 -1.5232
 5771SOL     OW28948   3.041   3.454   8.624  0.4307  0.1097 -0.3406
 5771SOL    HW128949   3.057   3.361   8.608 -1.0184 -0.4689  1.4999
 5771SOL    HW228950   2.981   3.482   8.555 -0.3530 -0.5416  0.0645
 5772SOL     OW28951   0.446   3.950   2.223  0.1509  0.0783 -0.6049
 5772SOL    HW128952   0.510   3.974   2.157 -0.7910  1.0681 -1.1667
 5772SOL    HW228953   0.466   3.857   2.230 -2.5074 -0.4092  0.4845
 5773SOL     OW28954   1.332   1.786  11.940  0.0339 -0.4856  0.3105
 5773SOL    HW128955   1.257   1.830  11.900  0.2258 -0.8542 -0.4623
 5773SOL    HW228956   1.361   1.840  12.013  1.0608 -0.5186 -0.0673
 5774SOL     OW28957   1.450   1.034   3.635  0.0086 -0.3539  0.0205
 5774SOL    HW128958   1.421   1.067   3.550 -1.0558 -0.2401  0.4307
 5774SOL    HW228959   1.506   1.109   3.655 -1.1268  0.2612  0.9344
 5775SOL     OW28960   3.012   3.002   5.649 -0.2315 -0.3927  0.2684
 5775SOL    HW128961   3.030   3.093   5.624 -0.5550 -0.1961  0.7308
 5775SOL    HW228962   3.046   2.998   5.738  0.4781 -1.8018 -0.0703
 5776SOL     OW28963   3.129   4.022   8.077  0.4043  0.2847  0.5041
 5776SOL    HW128964   3.134   4.101   8.023 -0.7187  0.3215  0.4529
 5776SOL    HW228965   3.149   4.057   8.164  0.8006  1.3301 -0.0004
 5777SOL     OW28966   1.477   0.943   4.478 -0.7092  0.2594 -0.2352
 5777SOL    HW128967   1.454   0.851   4.492 -0.0906  0.2010  0.4091
 5777SOL    HW228968   1.486   0.942   4.383  0.9928 -0.6051 -0.0677
 5778SOL     OW28969   3.070   3.921   0.479  0.1784 -0.1708  0.1582
 5778SOL    HW128970   3.150   3.910   0.531 -0.5876  0.4684  1.4854
 5778SOL    HW228971   3.032   3.982   0.543  2.1328  1.4602 -0.2423
 5779SOL     OW28972   1.454   3.834  15.419 -0.0594  0.5210 -0.1667
 5779SOL    HW128973   1.441   3.761  15.480  1.7784 -0.9881 -1.6137
 5779SOL    HW228974   1.376   3.885  15.444 -1.1854 -1.3520  0.1212
 5780SOL     OW28975   3.880   0.799   2.491  0.7064 -0.3446  0.1880
 5780SOL    HW128976   3.792   0.821   2.524  0.8477  0.1041  0.2733
 5780SOL    HW228977   3.890   0.712   2.528  2.1141  0.7903  2.5225
 5781SOL     OW28978   3.746   2.182   9.854 -0.1282  0.3117  0.0348
 5781SOL    HW128979   3.837   2.154   9.843 -0.1480  0.5680 -0.7713
 5781SOL    HW228980   3.743   2.213   9.945  1.8052  0.6471 -0.0012
 5782SOL     OW28981   0.214   3.478   0.576 -0.0570  0.5779  0.3892
 5782SOL    HW128982   0.232   3.543   0.645  2.1356  0.6899 -0.3053
 5782SOL    HW228983   0.289   3.459   0.520 -0.4231 -0.3475  0.2108
 5783SOL     OW28984   2.222   3.176   8.315 -0.3873  0.5156 -0.2497
 5783SOL    HW128985   2.214   3.261   8.272 -3.4456  1.7492  2.6978
 5783SOL    HW228986   2.142   3.167   8.367  1.2733 -1.1156  2.0328
 5784SOL     OW28987   2.768   4.393  12.472 -0.8820  0.3599  0.3650
 5784SOL    HW128988   2.855   4.395  12.511 -0.9802 -3.0212  0.8110
 5784SOL    HW228989   2.789   4.384  12.378 -2.7917 -3.0863  0.2667
 5785SOL     OW28990   3.174   3.492   7.550 -0.4494  0.6511  0.0087
 5785SOL    HW128991   3.249   3.461   7.500 -1.9904 -0.9876 -1.2853
 5785SOL    HW228992   3.166   3.575   7.504 -0.6242 -0.0365 -1.1965
 5786SOL     OW28993   1.302   4.540   6.960 -0.7495  0.2220  0.2117
 5786SOL    HW128994   1.355   4.510   7.034 -0.3972  1.2208  0.3551
 5786SOL    HW228995   1.340   4.501   6.882  0.8479  0.6742  0.7527
 5787SOL     OW28996   2.928   4.563  11.625 -0.1774 -0.0867 -0.1065
 5787SOL    HW128997   2.893   4.626  11.687 -1.7641 -0.7852 -0.2854
 5787SOL    HW228998   2.954   4.630  11.562  3.4288 -0.4614  0.9794
 5788SOL     OW28999   2.587   3.473   9.395  0.5975 -0.0881 -0.0915
 5788SOL    HW129000   2.574   3.404   9.329 -1.4299 -1.1269  1.3963
 5788SOL    HW229001   2.639   3.531   9.340  0.3901  0.0747 -0.1105
 5789SOL     OW29002   4.546   1.404   2.280 -0.5517 -0.6787 -0.5482
 5789SOL    HW129003   4.466   1.422   2.229 -0.3157 -0.4339 -0.8319
 5789SOL    HW229004   4.578   1.494   2.287  1.2141 -1.4110  0.5845
 5790SOL     OW29005   4.479   3.738   8.699  0.1003  0.4344  0.0180
 5790SOL    HW129006   4.441   3.793   8.631  0.6492  1.5297  0.6060
 5790SOL    HW229007   4.573   3.757   8.699  0.4127 -1.1003 -1.6887
 5791SOL     OW29008   1.678   3.349   4.607 -0.0660  0.1861 -0.1060
 5791SOL    HW129009   1.652   3.288   4.675  3.2884 -0.1841  0.8483
 5791SOL    HW229010   1.595   3.382   4.573 -0.7289 -0.6437  0.7324
 5792SOL     OW29011   2.021   3.658  13.652 -0.3997  0.0022 -0.3065
 5792SOL    HW129012   1.999   3.693  13.739 -0.8681  1.0169 -0.8221
 5792SOL    HW229013   2.049   3.734  13.600 -0.1112 -0.4065 -0.7445
 5793SOL     OW29014   2.666   2.339   5.251 -0.6345  0.4432 -0.0133
 5793SOL    HW129015   2.585   2.332   5.302 -0.0483 -4.2924  0.2944
 5793SOL    HW229016   2.672   2.426   5.210 -0.3085  0.4297  0.0107
 5794SOL     OW29017   1.893   1.403   8.453  0.5371  0.3747  0.0842
 5794SOL    HW129018   1.948   1.325   8.445 -0.1928 -0.1340  0.0532
 5794SOL    HW229019   1.965   1.462   8.473  0.3894  1.3855 -2.4154
 5795SOL     OW29020   2.364   1.426   6.082  0.9797 -0.7628 -0.4362
 5795SOL    HW129021   2.391   1.513   6.053 -1.3678  0.4064  0.8698
 5795SOL    HW229022   2.449   1.390   6.109 -0.8409 -3.3124  1.9153
 5796SOL     OW29023   1.313   3.912   7.724  0.3070 -0.3146  0.4541
 5796SOL    HW129024   1.222   3.884   7.734 -0.3407  0.9801 -1.8731
 5796SOL    HW229025   1.355   3.830   7.752 -0.6560 -1.8147 -2.4124
 5797SOL     OW29026   2.109   1.182   9.634 -0.0328 -0.1993  0.2300
 5797SOL    HW129027   2.020   1.179   9.598  0.0425 -0.5933  0.0695
 5797SOL    HW229028   2.137   1.090   9.637  0.4857 -0.0258  0.6482
 5798SOL     OW29029   3.057   0.632   1.930 -0.9523 -0.0233  0.3472
 5798SOL    HW129030   3.129   0.611   1.870 -1.0028  2.2604 -0.5141
 5798SOL    HW229031   3.097   0.680   2.003 -1.3191  3.0915 -1.4947
 5799SOL     OW29032   4.228   1.170   7.234  0.0170  0.1714  0.3524
 5799SOL    HW129033   4.134   1.156   7.251  0.1424 -2.8257 -1.4111
 5799SOL    HW229034   4.222   1.264   7.216  4.4592  0.4330  0.3264
 5800SOL     OW29035   3.735   0.133   6.425  0.1809 -0.1356  0.3884
 5800SOL    HW129036   3.652   0.149   6.471  0.6599 -1.0426  1.5833
 5800SOL    HW229037   3.793   0.119   6.500  0.8548 -0.0718 -0.1238
 5801SOL     OW29038   0.811   3.855   4.502  0.4823 -0.2041 -0.4464
 5801SOL    HW129039   0.719   3.833   4.521  0.4937  1.0158  1.0669
 5801SOL    HW229040   0.795   3.898   4.418  1.5776  1.6067  0.2914
 5802SOL     OW29041   1.853   0.759   2.376 -0.0275 -0.3673 -0.5228
 5802SOL    HW129042   1.837   0.692   2.442  1.8044 -0.4766 -0.1864
 5802SOL    HW229043   1.942   0.738   2.348 -0.4159 -0.8697 -1.3704
 5803SOL     OW29044   1.020   2.086   1.070 -0.6447 -0.3999 -0.6603
 5803SOL    HW129045   0.959   2.157   1.052 -1.5625 -0.9073  0.4805
 5803SOL    HW229046   0.963   2.040   1.131  0.5126 -1.7726 -0.6074
 5804SOL     OW29047   3.074   2.150   0.624  0.0963 -0.6904  0.3479
 5804SOL    HW129048   2.983   2.179   0.638  0.9791  1.4916  1.5583
 5804SOL    HW229049   3.116   2.219   0.674 -0.9324  0.3262 -0.1665
 5805SOL     OW29050   0.696   0.168   5.988 -0.3748  0.1350  0.3308
 5805SOL    HW129051   0.646   0.087   5.998  1.0842 -1.0014 -1.7631
 5805SOL    HW229052   0.631   0.235   5.965  1.6725  1.9111 -0.2559
 5806SOL     OW29053   0.937   1.189   4.559 -0.2885 -0.4985 -0.0458
 5806SOL    HW129054   0.989   1.156   4.633 -1.4355 -1.9723  0.0894
 5806SOL    HW229055   0.932   1.115   4.498  2.1520 -1.2578  0.6728
 5807SOL     OW29056   3.088   1.310   7.144  0.4550  0.4784 -0.1033
 5807SOL    HW129057   3.109   1.297   7.052 -0.3728  0.3121 -0.2737
 5807SOL    HW229058   3.176   1.308   7.182  1.4371  0.9336 -2.3980
 5808SOL     OW29059   1.684   3.961   7.025 -0.0330 -0.0865  0.1871
 5808SOL    HW129060   1.641   3.916   7.098 -1.1915 -0.2262 -0.5754
 5808SOL    HW229061   1.639   4.045   7.025  1.0385  0.4798  0.2199
 5809SOL     OW29062   3.157   3.626   6.064 -0.3133 -0.0337  0.3825
 5809SOL    HW129063   3.140   3.559   6.130 -0.3380 -1.3464 -0.9482
 5809SOL    HW229064   3.175   3.566   5.992 -0.5189  0.6264 -0.2195
 5810SOL     OW29065   1.164   1.598  10.033 -0.7494  0.2578 -0.5539
 5810SOL    HW129066   1.165   1.606   9.938  0.3712  0.6339 -0.5012
 5810SOL    HW229067   1.105   1.524  10.047 -0.8469  0.4781  0.2222
 5811SOL     OW29068   2.753   0.580   3.061 -0.0075 -0.4257  0.2183
 5811SOL    HW129069   2.815   0.572   3.133  0.1775  0.4003  0.1519
 5811SOL    HW229070   2.767   0.669   3.029  0.4680 -0.2883  0.7997
 5812SOL     OW29071   2.242   4.175   2.345 -0.0897  0.3146  0.3144
 5812SOL    HW129072   2.332   4.196   2.369  0.1864 -0.3892 -0.0778
 5812SOL    HW229073   2.201   4.209   2.424  0.4701 -0.2789  0.8525
 5813SOL     OW29074   1.231   0.092   2.812  0.2043  0.1588  0.1990
 5813SOL    HW129075   1.189   0.051   2.887  0.2458  1.5806  1.0132
 5813SOL    HW229076   1.306   0.136   2.852 -0.8850  0.9827  1.3225
 5814SOL     OW29077   2.019   1.512   5.881 -0.6648  0.7418  0.0217
 5814SOL    HW129078   2.036   1.606   5.879 -1.0785  0.7588 -3.2792
 5814SOL    HW229079   1.937   1.528   5.833 -2.8860 -1.7816  3.0035
 5815SOL     OW29080   2.891   0.522   2.338  0.3461 -0.0755 -0.3551
 5815SOL    HW129081   2.805   0.493   2.308  0.0583 -0.2050  0.5881
 5815SOL    HW229082   2.951   0.471   2.284 -1.6961 -1.9780 -0.8697
 5816SOL     OW29083   1.585   0.000  14.732 -0.7566  0.0248  0.8645
 5816SOL    HW129084   1.652   4.726  14.664 -0.5578 -1.2850  1.2394
 5816SOL    HW229085   1.534   4.656  14.716 -3.1820  1.7476 -0.0464
 5817SOL     OW29086   2.707   2.389   4.774  0.1604 -0.7102  0.0620
 5817SOL    HW129087   2.634   2.380   4.834 -0.6241  0.2102 -0.7634
 5817SOL    HW229088   2.710   2.482   4.750  3.4333 -0.9259 -0.3282
 5818SOL     OW29089   3.804   4.289  11.645  0.0383 -0.6112  0.2471
 5818SOL    HW129090   3.837   4.256  11.729  1.2581  1.0910  0.4573
 5818SOL    HW229091   3.752   4.367  11.666  2.0253  0.0955  2.4772
 5819SOL     OW29092   1.703   4.306   8.457 -0.0645  0.0234  0.3861
 5819SOL    HW129093   1.625   4.260   8.487 -0.7924  0.1821 -1.3037
 5819SOL    HW229094   1.698   4.373   8.525 -0.8101  0.0205  0.3311
 5820SOL     OW29095   3.115   2.207   6.440 -0.2760  0.0982  0.4214
 5820SOL    HW129096   3.140   2.205   6.532  2.2832  0.9098 -0.2460
 5820SOL    HW229097   3.204   2.227   6.410  0.0479 -0.1851  1.1937
 5821SOL     OW29098   3.857   4.634  17.544  0.4673  0.1281  0.0866
 5821SOL    HW129099   3.945   4.659  17.571  0.6934 -1.0534  0.4305
 5821SOL    HW229100   3.820   4.722  17.536 -0.5426 -0.5158 -2.3624
 5822SOL     OW29101   2.110   1.285   4.766  0.2144 -0.0869  0.8951
 5822SOL    HW129102   2.185   1.332   4.802  0.2223 -0.2902  1.1432
 5822SOL    HW229103   2.157   1.256   4.688 -1.9782  0.1832 -0.5019
 5823SOL     OW29104   0.196   0.040   2.206  0.3548  0.1214  0.3599
 5823SOL    HW129105   0.111   4.735   2.222  0.3383 -0.0571 -0.1762
 5823SOL    HW229106   0.187   0.103   2.135  0.1763 -1.0983 -0.6903
 5824SOL     OW29107   2.564   0.417   5.369 -0.2490  0.5266 -0.4498
 5824SOL    HW129108   2.658   0.403   5.380 -0.4706 -0.8461 -0.2545
 5824SOL    HW229109   2.536   0.328   5.344  3.2090 -0.2944 -1.3926
 5825SOL     OW29110   0.513   1.111   7.211  0.2333 -0.6173  0.3540
 5825SOL    HW129111   0.590   1.119   7.267  1.1232  0.3699 -0.9939
 5825SOL    HW229112   0.507   1.187   7.153 -1.4297 -1.0000  0.0323
 5826SOL     OW29113   1.970   0.533  12.397  0.1769 -0.2805  0.3399
 5826SOL    HW129114   1.931   0.545  12.310  2.6165 -0.4252 -0.7565
 5826SOL    HW229115   2.029   0.461  12.376 -0.8454 -0.4512 -1.9458
 5827SOL     OW29116   0.861   0.845   6.315  0.4132 -0.1176  0.1270
 5827SOL    HW129117   0.885   0.830   6.224  3.0084  0.2889  0.7478
 5827SOL    HW229118   0.797   0.916   6.307  0.6521  0.1053  0.1721
 5828SOL     OW29119   1.190   4.040   2.858  0.2881  0.2143 -0.2235
 5828SOL    HW129120   1.174   3.951   2.892 -0.6802  0.8332  0.9488
 5828SOL    HW229121   1.154   4.100   2.923 -3.1375  0.4346 -2.3492
 5829SOL     OW29122   1.832   1.110   7.467 -0.3464  0.0130 -0.1855
 5829SOL    HW129123   1.755   1.157   7.497 -0.1258 -1.0329  2.0173
 5829SOL    HW229124   1.799   1.071   7.386  0.5027  2.4066 -1.6509
 5830SOL     OW29125   4.142   3.018   6.243  0.4826 -0.0300 -0.2149
 5830SOL    HW129126   4.097   3.002   6.160 -0.0448 -2.2073  0.5002
 5830SOL    HW229127   4.180   3.104   6.224 -2.4963  1.1644 -0.7044
 5831SOL     OW29128   2.380   3.607  16.786  0.8002 -0.0107  0.3097
 5831SOL    HW129129   2.333   3.535  16.744  3.4366 -1.8610  0.5509
 5831SOL    HW229130   2.340   3.688  16.754  2.2817  0.3062 -0.7235
 5832SOL     OW29131   1.612   1.230  10.751  0.2248  0.1185  0.2409
 5832SOL    HW129132   1.702   1.197  10.741  0.9038  2.5376 -1.5852
 5832SOL    HW229133   1.596   1.209  10.843 -0.0119 -2.1717 -0.3185
 5833SOL     OW29134   4.141   4.297  12.335  0.0790 -0.3055 -0.6000
 5833SOL    HW129135   4.196   4.309  12.413 -0.1223  0.1878 -0.5337
 5833SOL    HW229136   4.168   4.373  12.283  0.1278 -0.1315 -0.3237
 5834SOL     OW29137   2.354   2.760   8.266  0.3373 -0.1416  0.4883
 5834SOL    HW129138   2.271   2.789   8.227  1.2303  2.2336  0.3279
 5834SOL    HW229139   2.382   2.847   8.295 -0.2095 -0.3899  1.7336
 5835SOL     OW29140   0.757   1.806   2.248  0.1394  0.1294 -0.3214
 5835SOL    HW129141   0.754   1.865   2.173 -3.2430  1.0258  0.5701
 5835SOL    HW229142   0.768   1.868   2.320 -1.9918 -0.6513  0.6845
 5836SOL     OW29143   0.356   0.888  11.792  1.0276 -0.0374  0.1926
 5836SOL    HW129144   0.354   0.926  11.880  3.0168  1.7060 -0.5324
 5836SOL    HW229145   0.369   0.795  11.809 -1.3678 -0.3388  0.3727
 5837SOL     OW29146   0.986   4.657   7.548  0.2429 -0.1819  0.1020
 5837SOL    HW129147   0.999   4.717   7.475  0.8002  0.3257  0.6244
 5837SOL    HW229148   0.959   4.580   7.497  0.3541  1.1178 -1.9059
 5838SOL     OW29149   1.025   3.982   4.837 -0.4741 -0.3714  0.6860
 5838SOL    HW129150   1.064   4.058   4.881 -0.3706 -0.8076  1.3363
 5838SOL    HW229151   0.984   4.020   4.759  2.6337 -0.6163 -1.0666
 5839SOL     OW29152   3.444   3.585   4.208 -0.6466 -0.0320 -0.1216
 5839SOL    HW129153   3.490   3.502   4.201 -0.2950  0.2862 -1.5740
 5839SOL    HW229154   3.350   3.572   4.202 -0.7363  0.2329  0.6959
 5840SOL     OW29155   2.550   3.620  11.566 -0.1687  0.3473 -0.1585
 5840SOL    HW129156   2.538   3.525  11.576 -1.7169  0.7314  1.6710
 5840SOL    HW229157   2.590   3.641  11.650 -1.2993  0.4081  0.3735
 5841SOL     OW29158   0.931   3.716   6.442 -0.6420 -0.4595 -0.1426
 5841SOL    HW129159   0.927   3.707   6.538 -1.2707 -0.7568 -0.1996
 5841SOL    HW229160   0.917   3.627   6.409 -2.5857 -0.1049 -0.2572
 5842SOL     OW29161   3.903   3.168   1.636  0.2976  0.1344  0.2881
 5842SOL    HW129162   3.833   3.173   1.701  0.6450  1.4243  0.5817
 5842SOL    HW229163   3.960   3.237   1.670  1.6226 -0.5756 -0.5017
 5843SOL     OW29164   0.119   1.395   7.318 -0.4507  0.0272 -0.8541
 5843SOL    HW129165   0.169   1.439   7.248 -0.3681  2.8080  0.9558
 5843SOL    HW229166   0.042   1.361   7.273 -0.6322 -1.7100  0.7699
 5844SOL     OW29167   0.160   1.706  15.469 -0.4897  0.0999 -0.5018
 5844SOL    HW129168   0.225   1.635  15.470 -0.4087  0.1617 -1.1108
 5844SOL    HW229169   0.097   1.652  15.421  1.1596 -0.2515 -2.2689
 5845SOL     OW29170   4.700   1.174  11.143  0.1778 -0.2041  0.3376
 5845SOL    HW129171   4.630   1.175  11.208 -0.9041 -1.9175 -0.8043
 5845SOL    HW229172   4.726   1.082  11.156  0.7166  0.0766  1.3068
 5846SOL     OW29173   1.838   4.683   3.095  0.1602  0.4498 -0.4957
 5846SOL    HW129174   1.892   4.644   3.163 -0.6919  0.5191  0.2085
 5846SOL    HW229175   1.776   0.001   3.144 -1.3923 -1.1718 -0.6957
 5847SOL     OW29176   2.389   0.083  12.954  0.5704 -0.5176 -0.1977
 5847SOL    HW129177   2.406   0.152  13.018  1.5062  0.1672 -1.1847
 5847SOL    HW229178   2.433   0.129  12.882 -3.0514  3.0348 -0.1424
 5848SOL     OW29179   0.544   3.662   3.505 -0.7012 -1.0625  0.1413
 5848SOL    HW129180   0.453   3.633   3.507 -1.1478  0.2683 -1.0193
 5848SOL    HW229181   0.555   3.709   3.587  1.4596  0.8334 -1.2224
 5849SOL     OW29182   2.443   0.077   7.022 -0.3840 -0.6350  0.0005
 5849SOL    HW129183   2.502   0.130   7.076 -0.9774 -1.9899  1.9605
 5849SOL    HW229184   2.511   0.031   6.972 -0.6250 -0.6764 -0.2874
 5850SOL     OW29185   2.725   1.088   1.548 -0.5583 -0.0130  0.0568
 5850SOL    HW129186   2.718   1.016   1.611  1.7511  1.4770  1.9970
 5850SOL    HW229187   2.680   1.046   1.474  1.2357 -2.2486  0.2257
 5851SOL     OW29188   2.946   4.553  10.004  0.1075  0.3067 -0.5291
 5851SOL    HW129189   2.957   4.544  10.099  2.3217 -0.5459 -0.8573
 5851SOL    HW229190   2.929   4.460   9.992  0.6948  0.0328  0.7395
 5852SOL     OW29191   3.801   0.002   4.343 -0.3162  0.2343 -0.2307
 5852SOL    HW129192   3.832   0.091   4.330  1.9809 -0.3850  1.0378
 5852SOL    HW229193   3.788   4.703   4.255 -1.6432 -0.7747  0.3523
 5853SOL     OW29194   4.530   4.208   1.481 -0.1505  1.1614 -0.0415
 5853SOL    HW129195   4.536   4.178   1.390 -0.1823 -0.0111  0.3425
 5853SOL    HW229196   4.605   4.168   1.524 -1.8055 -0.9711  0.8465
 5854SOL     OW29197   1.989   0.128   6.608 -0.3151  0.3928 -0.1762
 5854SOL    HW129198   1.923   0.061   6.593 -0.3509  0.7731 -1.6859
 5854SOL    HW229199   1.937   0.201   6.641 -1.0721 -0.5759  0.7939
 5855SOL     OW29200   4.573   3.562  16.148 -0.1135 -0.2337 -0.6475
 5855SOL    HW129201   4.603   3.593  16.234 -0.1146 -1.3964 -0.2278
 5855SOL    HW229202   4.617   3.628  16.096 -0.5423  0.9984  0.5633
 5856SOL     OW29203   0.922   1.094  14.901 -0.1859  0.2319 -0.0208
 5856SOL    HW129204   0.859   1.166  14.901 -0.0062  0.3960  1.2820
 5856SOL    HW229205   0.857   1.024  14.904  0.0960 -0.0660 -0.9384
 5857SOL     OW29206   0.777   3.421  15.511 -0.1164  0.0368 -0.5403
 5857SOL    HW129207   0.812   3.457  15.430  1.8485  0.6192  0.5424
 5857SOL    HW229208   0.712   3.358  15.480  1.2128 -1.4662 -0.2622
 5858SOL     OW29209   2.099   3.389  13.646  0.0274  0.0939  0.4520
 5858SOL    HW129210   2.063   3.384  13.734  1.5088  0.7934  1.0980
 5858SOL    HW229211   2.074   3.475  13.611 -2.5686 -0.6876  0.4549
 5859SOL     OW29212   0.911   2.951  12.145 -0.1105 -0.7013  0.3934
 5859SOL    HW129213   0.849   2.880  12.157  0.2785 -0.8710  1.4077
 5859SOL    HW229214   0.883   3.015  12.211  1.3392 -0.6835  1.0022
 5860SOL     OW29215   1.668   3.374   6.508 -0.0912  0.0290  0.6444
 5860SOL    HW129216   1.749   3.396   6.554 -0.4907  0.7104  1.0346
 5860SOL    HW229217   1.701   3.316   6.440 -0.2478 -0.5317  1.0512
 5861SOL     OW29218   3.910   2.216   1.639  0.4991  0.0439  0.0023
 5861SOL    HW129219   3.851   2.162   1.586  1.5144  1.2669 -2.3888
 5861SOL    HW229220   3.890   2.187   1.727  0.3246  0.0673 -0.0310
 5862SOL     OW29221   3.507   3.015  13.582  0.2197 -0.4157  0.8718
 5862SOL    HW129222   3.588   3.025  13.631  0.8614 -2.0083  0.1288
 5862SOL    HW229223   3.468   2.937  13.621  2.6900 -2.8300 -1.4742
 5863SOL     OW29224   1.551   3.200   4.813 -0.1768 -0.2039 -0.3811
 5863SOL    HW129225   1.484   3.267   4.801  0.6029  0.6649  0.0719
 5863SOL    HW229226   1.574   3.219   4.904 -1.0787 -1.7709  0.1755
 5864SOL     OW29227   2.071   0.999   3.022  0.1795 -0.3602 -0.3633
 5864SOL    HW129228   2.086   0.904   3.014 -1.6037 -0.6649 -0.2208
 5864SOL    HW229229   1.975   0.996   3.026  0.1504 -0.6331 -1.3205
 5865SOL     OW29230   2.225   1.983   6.278 -0.0206  0.0120  0.0207
 5865SOL    HW129231   2.284   1.912   6.304  1.2572  0.5740 -1.3751
 5865SOL    HW229232   2.140   1.963   6.318 -0.3047 -0.6709 -0.9334
 5866SOL     OW29233   0.017   3.599   2.197 -0.0383 -0.1968  0.0140
 5866SOL    HW129234   0.068   3.608   2.117  1.0755  3.1345  1.1250
 5866SOL    HW229235   4.708   3.684   2.193 -2.0402 -1.1518  1.5272
 5867SOL     OW29236   3.775   1.942  13.225  0.3062 -0.0377 -0.1192
 5867SOL    HW129237   3.855   1.890  13.215 -0.2800 -0.3006 -3.4948
 5867SOL    HW229238   3.778   1.969  13.317 -2.4367 -1.9547  0.5578
 5868SOL     OW29239   3.397   0.035   6.086 -0.0674  0.0452  0.3441
 5868SOL    HW129240   3.305   0.013   6.103 -0.1801  0.2707  0.0342
 5868SOL    HW229241   3.400   0.088   6.006  2.3464  0.1931  0.5392
 5869SOL     OW29242   4.294   3.799  10.008 -0.0682 -0.8267 -0.3229
 5869SOL    HW129243   4.360   3.824  10.073  0.6433 -0.2253 -1.2837
 5869SOL    HW229244   4.319   3.850   9.931  2.6712 -2.8761 -0.7685
 5870SOL     OW29245   1.050   1.472   8.127 -0.1103  0.8675 -0.0049
 5870SOL    HW129246   1.037   1.561   8.161 -0.1563 -0.1194  2.5350
 5870SOL    HW229247   1.024   1.479   8.035 -0.5259 -1.4550 -0.0567
 5871SOL     OW29248   3.729   2.058  10.579  0.3541 -1.0932  0.6179
 5871SOL    HW129249   3.732   2.138  10.630  0.2681  0.3211 -1.6156
 5871SOL    HW229250   3.636   2.037  10.592  0.0416 -0.1216 -0.0688
 5872SOL     OW29251   0.406   4.442   4.655  0.4220 -0.0544 -0.3073
 5872SOL    HW129252   0.363   4.524   4.630 -1.2852 -1.2754 -1.3571
 5872SOL    HW229253   0.406   4.401   4.569 -1.5390  0.8163 -0.7295
 5873SOL     OW29254   1.300   3.904  10.953  0.3331  0.8395 -0.0558
 5873SOL    HW129255   1.366   3.897  11.022 -0.1939  0.2008  0.3856
 5873SOL    HW229256   1.337   3.853  10.880 -1.4902 -1.7617  0.8417
 5874SOL     OW29257   3.468   3.710   0.927 -0.0186 -0.0866  0.3293
 5874SOL    HW129258   3.443   3.705   1.020 -3.0235  1.3530 -0.4059
 5874SOL    HW229259   3.385   3.697   0.881  0.5142 -1.8093 -0.1747
 5875SOL     OW29260   2.600   2.798  11.248  0.1214 -0.4053 -0.8193
 5875SOL    HW129261   2.549   2.786  11.329 -1.6580 -0.7441 -1.9871
 5875SOL    HW229262   2.624   2.890  11.244 -2.1616  0.2041 -0.8570
 5876SOL     OW29263   2.976   2.602   4.118  0.4859  0.3051  0.0267
 5876SOL    HW129264   3.064   2.587   4.152  0.8191 -1.3397 -1.5798
 5876SOL    HW229265   2.952   2.512   4.097  2.0831 -0.5695  1.9046
 5877SOL     OW29266   4.224   3.189   2.538 -0.5741 -0.0241 -0.1464
 5877SOL    HW129267   4.175   3.219   2.462 -0.8519 -1.9085 -0.6999
 5877SOL    HW229268   4.169   3.120   2.577 -1.3886  0.3800 -0.5760
 5878SOL     OW29269   2.151   2.899   6.699  0.7487  0.2585  0.3819
 5878SOL    HW129270   2.223   2.840   6.721  0.5579 -0.3323 -0.5925
 5878SOL    HW229271   2.130   2.884   6.607  1.0793  0.5133  0.2683
 5879SOL     OW29272   1.806   3.622   0.791 -0.0147  0.7982  0.4820
 5879SOL    HW129273   1.758   3.678   0.853  1.7146  1.7963  0.9303
 5879SOL    HW229274   1.791   3.535   0.829 -0.7414  1.1057  0.9121
 5880SOL     OW29275   3.575   3.859   4.771 -0.5310  0.2719 -0.4978
 5880SOL    HW129276   3.647   3.916   4.743 -0.4700  0.3425 -0.1892
 5880SOL    HW229277   3.493   3.903   4.749 -1.9182 -2.1206 -0.0518
 5881SOL     OW29278   4.022   4.586   3.648 -0.5250 -0.2163  0.3325
 5881SOL    HW129279   3.968   4.564   3.724 -2.2889  2.0084 -0.2917
 5881SOL    HW229280   4.015   4.680   3.661  1.2084  0.1254 -1.2909
 5882SOL     OW29281   0.219   2.136  11.828  0.4493  0.1626 -0.1176
 5882SOL    HW129282   0.169   2.185  11.893  2.2546 -1.1902  2.2358
 5882SOL    HW229283   0.216   2.042  11.843  1.4459  0.6509  3.1529
 5883SOL     OW29284   2.570   1.595   2.597 -0.7574 -0.0355  0.1656
 5883SOL    HW129285   2.485   1.630   2.623 -0.6776 -0.7617  1.4484
 5883SOL    HW229286   2.629   1.641   2.658 -2.1336  0.7500  0.8928
 5884SOL     OW29287   3.389   2.495   3.575 -0.0581 -0.1066 -0.9246
 5884SOL    HW129288   3.414   2.568   3.518  1.9461  1.4307  1.9086
 5884SOL    HW229289   3.456   2.488   3.643 -1.3898 -0.9548  0.3259
 5885SOL     OW29290   1.273   4.652   0.604 -0.5595  0.3355 -0.8580
 5885SOL    HW129291   1.180   4.661   0.588 -0.6340  2.0053  0.4901
 5885SOL    HW229292   1.278   4.602   0.685 -1.3549 -0.3728 -1.2436
 5886SOL     OW29293   0.006   3.763  13.483  0.0787 -0.6199 -0.0197
 5886SOL    HW129294   0.027   3.856  13.495 -0.3643 -0.2948 -1.8559
 5886SOL    HW229295   4.651   3.755  13.513 -1.1898 -1.3298 -3.9904
 5887SOL     OW29296   0.132   1.997   2.700 -0.6888  0.4608  0.4545
 5887SOL    HW129297   0.225   2.018   2.689 -0.7953  0.7776  0.1341
 5887SOL    HW229298   0.121   2.044   2.783  0.2818  0.8237  0.3803
 5888SOL     OW29299   3.624   3.980   0.935 -0.0412 -0.0324  0.3552
 5888SOL    HW129300   3.549   3.922   0.922  0.9887 -1.3584  0.3384
 5888SOL    HW229301   3.695   3.938   0.887  0.1338 -1.2999  1.7505
 5889SOL     OW29302   0.142   2.769  11.551  0.1727  0.5111  0.2886
 5889SOL    HW129303   0.223   2.719  11.540 -0.1578  0.1229 -0.4275
 5889SOL    HW229304   0.152   2.806  11.639 -1.3439  0.4875  0.4642
 5890SOL     OW29305   3.040   3.258   1.657 -0.5158 -0.0848 -0.1485
 5890SOL    HW129306   3.056   3.350   1.678  2.1311 -0.4936 -0.3614
 5890SOL    HW229307   2.949   3.241   1.679 -0.0818 -0.2885  1.4912
 5891SOL     OW29308   4.376   2.894   2.914 -0.4958 -0.0389  0.1789
 5891SOL    HW129309   4.424   2.911   2.833  0.0762 -1.8983  0.1271
 5891SOL    HW229310   4.372   2.799   2.904  0.1130  0.0936 -1.3790
 5892SOL     OW29311   2.894   0.123   7.133  0.0710  0.0070 -0.4154
 5892SOL    HW129312   2.981   0.162   7.125 -0.0184  0.5263  1.1451
 5892SOL    HW229313   2.901   0.052   7.069  1.4181  0.8952 -1.2470
 5893SOL     OW29314   2.693   3.700   4.943  0.0718  0.0460 -0.1282
 5893SOL    HW129315   2.706   3.778   4.889 -0.2885 -0.3644 -0.8048
 5893SOL    HW229316   2.732   3.738   5.022 -0.1252  1.1803 -0.5725
 5894SOL     OW29317   3.688   0.807  15.915  0.0334  0.4814  0.0716
 5894SOL    HW129318   3.639   0.833  15.993 -0.0737 -1.5127  0.6768
 5894SOL    HW229319   3.716   0.716  15.928 -0.6643  0.0342 -1.5720
 5895SOL     OW29320   4.009   0.600   2.644 -0.5960 -0.3096  0.0250
 5895SOL    HW129321   3.938   0.558   2.693 -1.4733 -0.5050 -1.4060
 5895SOL    HW229322   4.065   0.525   2.628 -1.4660 -0.7043 -1.1966
 5896SOL     OW29323   2.782   1.885   3.980  0.1833  0.1625  0.6767
 5896SOL    HW129324   2.791   1.977   4.007  0.2111  0.5050 -0.5107
 5896SOL    HW229325   2.745   1.897   3.893 -2.4544 -2.5331  1.4359
 5897SOL     OW29326   3.368   3.732   8.596  0.6029  0.5060 -0.5460
 5897SOL    HW129327   3.391   3.644   8.566 -0.3794  0.1138 -0.1526
 5897SOL    HW229328   3.449   3.752   8.643  1.4388 -2.7657 -0.5820
 5898SOL     OW29329   1.571   0.895   6.856  0.0127  0.1997 -0.1760
 5898SOL    HW129330   1.559   0.844   6.936  1.2770  0.0477 -0.0698
 5898SOL    HW229331   1.648   0.950   6.869  1.2091 -1.5726  0.2745
 5899SOL     OW29332   1.684   3.427   7.873 -0.5600 -0.4353  0.0236
 5899SOL    HW129333   1.716   3.398   7.958 -0.8145 -2.4336 -0.5642
 5899SOL    HW229334   1.600   3.383   7.880 -0.8363  0.2867  1.1821
 5900SOL     OW29335   4.120   2.009   4.535  0.1066  0.4493  0.2235
 5900SOL    HW129336   4.186   1.973   4.476 -1.7617  2.1818 -2.8591
 5900SOL    HW229337   4.171   2.079   4.574  2.7627 -2.4141  1.8961
 5901SOL     OW29338   1.565   1.221  14.263 -0.0276 -0.1644  0.1967
 5901SOL    HW129339   1.559   1.192  14.354 -0.7958 -2.5385 -0.6091
 5901SOL    HW229340   1.479   1.262  14.260  0.4220  0.8575  1.3198
 5902SOL     OW29341   0.974   4.709   3.573 -0.2663  0.7749 -0.3258
 5902SOL    HW129342   0.991   4.635   3.515 -0.8041  0.0699  0.4335
 5902SOL    HW229343   1.058   0.020   3.580 -0.4079  0.9384  0.3071
 5903SOL     OW29344   4.714   0.725   9.399 -0.5852  0.5224 -0.0756
 5903SOL    HW129345   4.620   0.741   9.404 -0.3762  1.9696 -0.7597
 5903SOL    HW229346   4.729   0.682   9.314 -0.3394 -0.3046  0.3921
 5904SOL     OW29347   4.321   0.557   6.271  0.2616  0.3716 -0.4375
 5904SOL    HW129348   4.365   0.620   6.329  0.1409 -1.1323  1.3027
 5904SOL    HW229349   4.393   0.537   6.211 -0.5886 -1.0730 -0.9516
 5905SOL     OW29350   1.816   1.372   9.068  0.0368  0.4428 -0.5133
 5905SOL    HW129351   1.876   1.313   9.022 -2.3762 -2.2542 -0.1731
 5905SOL    HW229352   1.866   1.388   9.148  0.1842 -0.9309 -0.3255
 5906SOL     OW29353   0.066   3.440  14.306 -0.5667  0.2652  0.4531
 5906SOL    HW129354   0.093   3.409  14.393  2.1349  4.6856  1.1733
 5906SOL    HW229355   4.717   3.398  14.295 -1.2566  2.1953 -1.6172
 5907SOL     OW29356   0.516   3.819   6.836  0.1706 -0.6100 -0.1689
 5907SOL    HW129357   0.502   3.899   6.886 -0.3458  0.1792 -1.5698
 5907SOL    HW229358   0.437   3.830   6.783 -0.6979 -1.2908  0.9670
 5908SOL     OW29359   1.767   4.085   5.182  0.1253  0.3006  0.1567
 5908SOL    HW129360   1.714   4.115   5.107 -1.6260 -0.7348  0.9863
 5908SOL    HW229361   1.727   4.137   5.252 -2.0084 -0.9048 -0.1545
 5909SOL     OW29362   1.256   3.186   7.337  0.1296 -0.0875 -0.1876
 5909SOL    HW129363   1.315   3.175   7.412 -1.7864  0.9277  1.4706
 5909SOL    HW229364   1.254   3.091   7.328 -0.2827 -0.1101  0.1533
 5910SOL     OW29365   0.087   1.225   9.994  0.2281  0.0541  0.3351
 5910SOL    HW129366   0.169   1.232  10.043  0.9948 -1.2169 -0.7758
 5910SOL    HW229367   0.035   1.158  10.038 -2.1538  2.2884  0.9000
 5911SOL     OW29368   0.862   0.945   0.022 -0.2530 -0.2152 -0.8917
 5911SOL    HW129369   0.872   0.970   0.114  0.4990  0.3845 -1.1404
 5911SOL    HW229370   0.771   0.915   0.030  0.4198 -1.3688  2.6819
 5912SOL     OW29371   2.783   2.608   7.965  0.0380 -0.1834  0.0743
 5912SOL    HW129372   2.730   2.682   7.994  0.3170  0.5265 -1.2444
 5912SOL    HW229373   2.849   2.617   8.033  0.2699  0.2609 -0.2140
 5913SOL     OW29374   2.018   1.364   4.441 -0.1545  0.0776 -0.2765
 5913SOL    HW129375   1.973   1.307   4.503 -0.7879 -1.9256 -2.5352
 5913SOL    HW229376   2.088   1.303   4.418  1.8064  1.9810  0.7939
 5914SOL     OW29377   1.905   0.773   4.402 -0.1564  0.0357  0.1318
 5914SOL    HW129378   1.906   0.852   4.348  0.0933  0.4499  0.7366
 5914SOL    HW229379   1.927   0.703   4.340 -0.1391  0.3591 -0.2239
 5915SOL     OW29380   2.474   1.512   4.294  0.2493 -0.0960 -0.3393
 5915SOL    HW129381   2.435   1.589   4.335 -1.6866 -0.0030 -2.3498
 5915SOL    HW229382   2.540   1.557   4.240  1.2184 -0.3090  0.6691
 5916SOL     OW29383   4.393   1.003   9.449  0.0461  0.1991 -0.7506
 5916SOL    HW129384   4.347   1.066   9.392  1.8438  1.9514 -0.2818
 5916SOL    HW229385   4.324   0.938   9.454  0.2717 -0.0034 -0.3278
 5917SOL     OW29386   2.788   0.657   1.292 -0.1889  0.4904  0.2445
 5917SOL    HW129387   2.750   0.579   1.333 -0.1777 -0.2457 -1.1562
 5917SOL    HW229388   2.881   0.655   1.316  0.0218  1.4384 -0.4987
 5918SOL     OW29389   3.302   4.235   4.202  0.4487  0.4302  0.0352
 5918SOL    HW129390   3.372   4.170   4.197  0.3393  0.3352 -0.3225
 5918SOL    HW229391   3.284   4.252   4.109 -1.1688  0.5992  0.3865
 5919SOL     OW29392   3.611   3.962  17.334  0.7210 -0.5489 -0.0163
 5919SOL    HW129393   3.578   4.051  17.322  0.6061 -0.5790  0.0751
 5919SOL    HW229394   3.593   3.926  17.247 -1.0706  1.8056 -0.6506
 5920SOL     OW29395   3.640   0.893   2.563 -0.2452 -0.2365 -0.0485
 5920SOL    HW129396   3.618   0.922   2.652  1.8471  0.0708  0.3502
 5920SOL    HW229397   3.606   0.970   2.518  1.4627  0.0174 -0.8999
 5921SOL     OW29398   2.150   0.889  11.391 -0.7723  0.2451 -0.0732
 5921SOL    HW129399   2.065   0.899  11.348 -0.1605 -0.3779 -1.4572
 5921SOL    HW229400   2.182   0.805  11.358 -0.2291  0.9294 -1.3066
 5922SOL     OW29401   0.531   3.648  10.260 -0.0212  0.1764  0.0557
 5922SOL    HW129402   0.608   3.703  10.247 -0.0916  0.1707 -0.3556
 5922SOL    HW229403   0.490   3.657  10.175  0.7899  0.9791 -0.2473
 5923SOL     OW29404   0.453   1.866   3.102  0.5703 -0.3736  0.1835
 5923SOL    HW129405   0.459   1.780   3.143  0.0860 -0.1695  0.6840
 5923SOL    HW229406   0.432   1.836   3.013 -0.0511  0.7938 -0.0685
 5924SOL     OW29407   2.545   3.711   7.869 -0.1494 -0.0578 -0.9018
 5924SOL    HW129408   2.489   3.697   7.792 -0.3320  1.4013 -1.0357
 5924SOL    HW229409   2.495   3.675   7.942  0.7158 -2.1330 -1.3295
 5925SOL     OW29410   2.319   1.160  10.331 -0.0271  0.0251 -0.2430
 5925SOL    HW129411   2.351   1.071  10.316  1.7287  0.4325  1.1550
 5925SOL    HW229412   2.251   1.168  10.264 -1.2433  0.2899  1.0089
 5926SOL     OW29413   3.520   1.882  13.415 -0.2355  0.6315 -0.2288
 5926SOL    HW129414   3.538   1.881  13.321  0.9715  2.1710 -0.0132
 5926SOL    HW229415   3.600   1.927  13.440 -0.8422  1.4388  0.2560
 5927SOL     OW29416   4.397   1.533   1.922  0.0192  0.4564 -0.1464
 5927SOL    HW129417   4.311   1.501   1.893 -0.2415  0.0497  1.0816
 5927SOL    HW229418   4.444   1.453   1.902  0.8062  1.3175 -1.7254
 5928SOL     OW29419   3.923   3.811   2.880  0.3642  0.6550 -0.0886
 5928SOL    HW129420   3.935   3.787   2.789 -0.2915  1.8047 -0.4842
 5928SOL    HW229421   3.918   3.723   2.916 -2.2241  0.6473 -0.4850
 5929SOL     OW29422   0.514   1.422   1.810 -0.5251 -0.5588  0.1410
 5929SOL    HW129423   0.605   1.450   1.819 -1.9636  3.5277  1.6750
 5929SOL    HW229424   0.473   1.508   1.809  0.6855 -0.0093 -2.1299
 5930SOL     OW29425   1.826   0.594   3.734  0.0261  0.8981 -0.8670
 5930SOL    HW129426   1.895   0.529   3.721 -0.8917 -0.2110 -0.1798
 5930SOL    HW229427   1.748   0.548   3.702 -0.5116  1.7252 -0.7596
 5931SOL     OW29428   0.094   4.260   9.039  0.3726 -0.0024  0.3964
 5931SOL    HW129429   0.008   4.297   9.021 -0.4239 -2.4851 -0.8778
 5931SOL    HW229430   0.075   4.169   9.017 -1.4444  0.3603  0.4857
 5932SOL     OW29431   1.897   3.239  11.435  0.0340 -0.3808 -0.2780
 5932SOL    HW129432   1.927   3.211  11.349 -0.3497 -0.8586 -0.2541
 5932SOL    HW229433   1.840   3.165  11.456  0.1650 -0.2363  0.5929
 5933SOL     OW29434   3.328   2.549   4.921 -0.1746  0.3222 -0.2948
 5933SOL    HW129435   3.285   2.629   4.892  2.0344  1.0419 -1.6329
 5933SOL    HW229436   3.266   2.494   4.968 -0.0181  1.7309  1.5468
 5934SOL     OW29437   3.570   2.954   3.430 -0.1271  0.0249 -0.7138
 5934SOL    HW129438   3.494   2.933   3.376 -0.4474  0.6119 -0.4924
 5934SOL    HW229439   3.597   2.862   3.438 -0.6854 -0.0365  0.4171
 5935SOL     OW29440   2.407   4.347   6.619 -0.3654 -0.0417 -0.0232
 5935SOL    HW129441   2.479   4.382   6.568  1.2267 -0.1598  2.1287
 5935SOL    HW229442   2.342   4.341   6.549 -0.1858  1.5525 -0.3145
 5936SOL     OW29443   1.433   3.842   0.141 -0.1543  0.1816 -0.0916
 5936SOL    HW129444   1.446   3.769   0.202 -0.5657  1.4380  1.4987
 5936SOL    HW229445   1.362   3.888   0.188  0.3821 -1.4659  2.3508
 5937SOL     OW29446   3.571   2.557  11.764  0.0957 -0.0333  0.2180
 5937SOL    HW129447   3.586   2.616  11.690  0.0995  0.2640  0.4581
 5937SOL    HW229448   3.652   2.570  11.813 -0.3944  1.0588  0.7162
 5938SOL     OW29449   1.560   2.875   7.815  0.2666 -0.2309 -0.6327
 5938SOL    HW129450   1.593   2.963   7.797 -0.8841  0.1441 -0.9136
 5938SOL    HW229451   1.630   2.838   7.870  0.3117  0.1125 -0.4580
 5939SOL     OW29452   3.401   3.049   8.962  0.0716 -0.9206  0.1406
 5939SOL    HW129453   3.348   3.123   8.931  0.4345 -0.2040  1.2222
 5939SOL    HW229454   3.469   3.098   9.008 -1.8214  3.6292 -1.9420
 5940SOL     OW29455   3.674   0.679   6.540  0.6781 -0.2396 -0.2605
 5940SOL    HW129456   3.640   0.745   6.601  0.0933  0.4283 -1.2956
 5940SOL    HW229457   3.631   0.603   6.580 -1.6990  1.3583  0.2265
 5941SOL     OW29458   3.843   3.668   2.078 -0.0965 -0.3482  0.9930
 5941SOL    HW129459   3.883   3.639   1.996  1.3921  1.9008  0.9227
 5941SOL    HW229460   3.801   3.585   2.103  0.0156 -0.9902 -0.9711
 5942SOL     OW29461   0.768   1.135   9.031  0.0123 -0.0699 -0.1077
 5942SOL    HW129462   0.842   1.083   9.065 -0.1317 -0.4851 -0.4223
 5942SOL    HW229463   0.698   1.093   9.081  0.7265 -1.5739 -0.3764
 5943SOL     OW29464   2.343   3.730   2.180 -0.6262  0.0978 -0.0629
 5943SOL    HW129465   2.343   3.644   2.223  0.2848  0.7524  1.2208
 5943SOL    HW229466   2.406   3.775   2.235 -0.5063  1.2624 -1.1722
 5944SOL     OW29467   1.286   2.942   3.528  0.0376 -0.1477  0.5874
 5944SOL    HW129468   1.358   2.933   3.466  0.6682  1.3012  1.1163
 5944SOL    HW229469   1.319   2.876   3.589  1.1389 -0.4949 -0.3859
 5945SOL     OW29470   1.114   4.391   7.543  0.0381  0.2347 -0.0956
 5945SOL    HW129471   1.093   4.321   7.481 -0.8881  1.3305 -1.0114
 5945SOL    HW229472   1.032   4.412   7.588 -0.2002  1.4969 -1.1220
 5946SOL     OW29473   2.802   3.802   0.956 -0.1232 -0.5033 -0.5329
 5946SOL    HW129474   2.824   3.892   0.981 -1.0128 -1.0631  2.2339
 5946SOL    HW229475   2.791   3.810   0.861  0.5293 -3.1320 -0.8206
 5947SOL     OW29476   3.754   1.085   9.917  0.2760 -0.5798  0.4783
 5947SOL    HW129477   3.689   1.145   9.954  1.8833  2.3366 -1.4245
 5947SOL    HW229478   3.767   1.012   9.977 -1.1263  0.1277  1.6325
 5948SOL     OW29479   1.728   1.685   4.426 -0.0646 -0.1094  0.5308
 5948SOL    HW129480   1.744   1.755   4.490  0.3997 -0.3044  0.6293
 5948SOL    HW229481   1.718   1.726   4.340  1.9056  0.8552  0.7554
 5949SOL     OW29482   4.501   3.872  17.522  0.0632  0.6462  0.3244
 5949SOL    HW129483   4.453   3.804  17.570  1.3785  0.5590  1.5164
 5949SOL    HW229484   4.568   3.895  17.586 -0.7119 -2.2906  2.1542
 5950SOL     OW29485   1.063   3.205  12.294 -0.0483  0.0608  0.9248
 5950SOL    HW129486   1.063   3.300  12.307  1.1544  0.0371  1.1320
 5950SOL    HW229487   0.995   3.174  12.354 -1.4661  0.9671 -0.2364
 5951SOL     OW29488   1.120   3.030  16.451  0.8580  0.3104 -0.6379
 5951SOL    HW129489   1.143   3.123  16.441  1.8513  0.2671  1.2618
 5951SOL    HW229490   1.124   3.023  16.546 -2.0125  3.0627 -0.3392
 5952SOL     OW29491   1.089   0.996   8.476 -0.2332  0.4576 -0.0166
 5952SOL    HW129492   1.031   0.967   8.547 -1.1493  0.1240 -0.9042
 5952SOL    HW229493   1.157   0.930   8.465 -0.4871  0.1564  0.2231
 5953SOL     OW29494   1.765   3.261   6.982  0.3946 -0.1761  0.4952
 5953SOL    HW129495   1.772   3.208   6.903 -3.1705  1.9139 -1.2578
 5953SOL    HW229496   1.759   3.349   6.943 -2.3490 -0.3642  0.5296
 5954SOL     OW29497   3.171   3.496  17.416  0.1120 -0.1193  0.1901
 5954SOL    HW129498   3.131   3.557  17.477 -2.3935  0.2245 -1.8080
 5954SOL    HW229499   3.260   3.531  17.418 -0.0976  0.4815 -0.9141
 5955SOL     OW29500   2.854   0.102   7.390  0.0530 -0.0345 -0.1183
 5955SOL    HW129501   2.768   0.064   7.408 -0.5153  1.9697  1.3349
 5955SOL    HW229502   2.842   0.140   7.303 -0.5267  1.1430  0.4867
 5956SOL     OW29503   3.920   1.096   8.920 -0.5911  0.0648 -0.1819
 5956SOL    HW129504   3.922   1.068   9.012 -1.4518  0.1136 -0.1545
 5956SOL    HW229505   3.986   1.035   8.886  0.8120  2.4253 -1.6685
 5957SOL     OW29506   3.945   2.782  15.310  0.2124  0.0446 -0.5077
 5957SOL    HW129507   3.902   2.864  15.335  1.1527  0.8729 -1.5985
 5957SOL    HW229508   4.036   2.810  15.321  0.5340 -1.4802  0.6414
 5958SOL     OW29509   4.508   0.153  16.155 -0.5275 -0.0093  0.3245
 5958SOL    HW129510   4.537   0.236  16.117 -2.9315 -0.2394 -2.0036
 5958SOL    HW229511   4.415   0.150  16.132 -0.1919 -1.2306 -0.8519
 5959SOL     OW29512   2.883   0.887   2.102  0.3108  0.5465 -0.3600
 5959SOL    HW129513   2.858   0.795   2.089  1.6089  0.3298 -1.3132
 5959SOL    HW229514   2.874   0.882   2.197  1.3347 -0.9639 -0.3306
 5960SOL     OW29515   4.670   2.743   2.633  0.4931  0.0319 -0.1709
 5960SOL    HW129516   0.005   2.757   2.570  0.4997 -0.5266 -0.2933
 5960SOL    HW229517   4.704   2.670   2.685 -2.9338 -1.2955  0.1964
 5961SOL     OW29518   2.949   2.965   8.512 -0.0225 -0.2094 -0.1925
 5961SOL    HW129519   2.904   2.964   8.428 -0.3482  0.4294 -0.0231
 5961SOL    HW229520   2.882   2.929   8.569  0.5707 -2.4613 -0.9278
 5962SOL     OW29521   0.239   3.027   2.086 -0.3712 -0.8739 -0.3193
 5962SOL    HW129522   0.252   3.064   2.173  0.4065 -1.9107 -0.0029
 5962SOL    HW229523   0.208   2.938   2.104 -1.1598 -0.6173 -0.3937
 5963SOL     OW29524   0.691   1.642   7.296 -0.2929 -0.0499  0.0184
 5963SOL    HW129525   0.698   1.726   7.342 -0.1282 -0.1146  0.1133
 5963SOL    HW229526   0.626   1.653   7.227 -1.4290 -0.0277  1.0968
 5964SOL     OW29527   2.284   3.354   5.383  0.9688 -0.4673 -0.0534
 5964SOL    HW129528   2.363   3.393   5.419 -0.0673  3.0490 -1.6000
 5964SOL    HW229529   2.253   3.308   5.461 -2.3858  1.6895 -0.1285
 5965SOL     OW29530   4.001   3.880   7.066 -0.6315  0.5034 -0.6807
 5965SOL    HW129531   3.930   3.936   7.034 -2.1272 -0.7291  0.4633
 5965SOL    HW229532   4.074   3.938   7.086  1.7103 -1.9161 -2.2063
 5966SOL     OW29533   4.267   1.152  12.042 -0.3717  0.1939 -0.1149
 5966SOL    HW129534   4.194   1.094  12.062  0.0624 -0.8342 -1.5388
 5966SOL    HW229535   4.286   1.146  11.948 -2.4071 -2.2154 -0.3596
 5967SOL     OW29536   4.457   4.712   7.859 -0.2606  0.4539  0.1106
 5967SOL    HW129537   4.482   0.055   7.810 -0.7723  0.5515  0.0094
 5967SOL    HW229538   4.489   4.638   7.806  0.7704  2.4833 -2.1010
 5968SOL     OW29539   0.126   2.193   3.876 -0.7301 -0.1703 -0.0573
 5968SOL    HW129540   0.146   2.233   3.791 -1.8560  0.6148  0.0541
 5968SOL    HW229541   0.116   2.102   3.847 -0.3146 -0.5367  0.9412
 5969SOL     OW29542   2.235   1.550  16.369 -0.4414  0.1652  0.4047
 5969SOL    HW129543   2.282   1.572  16.289 -2.4481 -1.1097 -1.1087
 5969SOL    HW229544   2.304   1.524  16.431  0.9669  0.2517 -1.1277
 5970SOL     OW29545   4.212   0.829   1.642  0.1700 -0.3255 -0.2791
 5970SOL    HW129546   4.122   0.847   1.669  0.1097  1.0193 -1.3727
 5970SOL    HW229547   4.213   0.739   1.677 -2.3415  0.1310  0.8999
 5971SOL     OW29548   1.170   0.413  17.077 -0.4516  0.6268  0.2579
 5971SOL    HW129549   1.091   0.437  17.125  0.0298  2.4402  0.1331
 5971SOL    HW229550   1.143   0.330  17.037 -0.0970 -0.0600  1.4267
 5972SOL     OW29551   2.383   3.442  10.009 -0.3282 -0.5288  0.4693
 5972SOL    HW129552   2.364   3.425   9.916  0.0400 -1.1664  0.5093
 5972SOL    HW229553   2.298   3.474  10.038 -1.3362 -1.8597 -1.0302
 5973SOL     OW29554   2.687   0.020   2.128  0.0346 -0.4447  0.2102
 5973SOL    HW129555   2.643   0.002   2.211 -1.7852 -3.8338 -1.4877
 5973SOL    HW229556   2.751   4.684   2.132  0.8510  0.3593  1.6643
 5974SOL     OW29557   3.677   0.348  10.051  0.3146 -0.2494  0.0709
 5974SOL    HW129558   3.750   0.320   9.997 -0.3999  1.6778 -1.9167
 5974SOL    HW229559   3.594   0.338  10.004  0.2094 -0.7787  0.3696
 5975SOL     OW29560   2.304   4.617  15.993 -0.0230 -0.8264  0.3387
 5975SOL    HW129561   2.253   4.667  16.057 -1.2042 -1.3683 -0.1732
 5975SOL    HW229562   2.233   4.581  15.939 -0.5997  3.4891 -1.8578
 5976SOL     OW29563   2.148   3.115   1.914 -0.8073  0.6942 -0.2112
 5976SOL    HW129564   2.121   3.167   1.838 -1.4707  3.5324  1.9900
 5976SOL    HW229565   2.111   3.030   1.891 -1.1616  0.5754  0.8295
 5977SOL     OW29566   1.074   0.761   3.671 -0.2343 -0.3043  0.0632
 5977SOL    HW129567   1.031   0.680   3.642 -0.1677  0.0434 -1.0110
 5977SOL    HW229568   1.103   0.800   3.588 -1.0179 -0.2834 -0.1992
 5978SOL     OW29569   0.391   2.079   7.915 -0.4813  0.1659 -0.3370
 5978SOL    HW129570   0.420   2.069   8.006 -0.3224 -3.5677 -0.7859
 5978SOL    HW229571   0.315   2.135   7.929 -0.8193 -0.8922  2.1086
 5979SOL     OW29572   3.762   1.526   5.759  0.6529 -0.0388 -0.0429
 5979SOL    HW129573   3.752   1.617   5.731 -1.0228 -0.5984 -1.2535
 5979SOL    HW229574   3.671   1.499   5.773 -0.0842  3.8179  2.7339
 5980SOL     OW29575   3.899   3.541  11.555 -0.2225 -0.3550  0.3659
 5980SOL    HW129576   3.821   3.544  11.500 -1.1736  2.0498  1.8956
 5980SOL    HW229577   3.965   3.560  11.488 -0.2996 -1.9512 -0.1695
 5981SOL     OW29578   4.252   1.788   5.227  0.5117  0.5199  0.8229
 5981SOL    HW129579   4.336   1.756   5.195 -0.2380  0.3032 -0.9797
 5981SOL    HW229580   4.206   1.782   5.143  0.0108  1.6791  1.0050
 5982SOL     OW29581   0.085   4.684  11.834 -0.4998  0.4044  0.0475
 5982SOL    HW129582   0.071   4.596  11.868  0.0851  0.1887 -0.2736
 5982SOL    HW229583   0.069   4.734  11.915 -0.4956  1.2387 -0.4700
 5983SOL     OW29584   2.263   2.872   9.378  0.6464 -0.1070 -0.1475
 5983SOL    HW129585   2.291   2.784   9.351 -4.3356 -1.3981 -1.0395
 5983SOL    HW229586   2.278   2.909   9.291 -4.2742 -0.5946 -1.1888
 5984SOL     OW29587   0.314   2.210  16.759 -0.4745 -0.1308  0.1112
 5984SOL    HW129588   0.341   2.241  16.673 -0.2787 -1.2097 -0.2227
 5984SOL    HW229589   0.328   2.116  16.746  2.2303  0.2293  0.4578
 5985SOL     OW29590   2.651   4.074  15.371 -0.0242 -0.7065  0.0873
 5985SOL    HW129591   2.648   4.170  15.370  0.2881 -0.6580  2.3971
 5985SOL    HW229592   2.576   4.041  15.323 -0.8228  0.5153  0.4848
 5986SOL     OW29593   1.155   4.144  12.203  0.1440 -0.6774 -0.5805
 5986SOL    HW129594   1.123   4.227  12.239 -0.5077 -0.5011 -1.5667
 5986SOL    HW229595   1.233   4.172  12.155  0.7375  1.1375  1.4393
 5987SOL     OW29596   2.332   1.170   1.330  0.1552 -0.2614 -0.3046
 5987SOL    HW129597   2.402   1.203   1.386 -1.6174 -0.9433  2.3310
 5987SOL    HW229598   2.378   1.182   1.248  0.1156 -1.8218 -0.5582
 5988SOL     OW29599   2.527   2.641   3.621  0.5431  0.4401 -0.3783
 5988SOL    HW129600   2.594   2.688   3.669  0.6514 -0.2470  0.1432
 5988SOL    HW229601   2.468   2.711   3.593  0.9523  0.9324  0.0074
 5989SOL     OW29602   1.704   1.580   5.082  0.1303  0.0313  0.9219
 5989SOL    HW129603   1.798   1.571   5.101  0.3364 -0.5841 -0.3760
 5989SOL    HW229604   1.694   1.653   5.021  1.3873 -0.2659  0.3601
 5990SOL     OW29605   1.528   2.438  12.348 -0.1905  0.0536  0.2146
 5990SOL    HW129606   1.528   2.508  12.413  1.4161  3.7116 -3.7384
 5990SOL    HW229607   1.486   2.477  12.272 -1.1971 -4.1569 -1.4207
 5991SOL     OW29608   0.482   0.998   8.426 -0.0945  0.0452  0.0189
 5991SOL    HW129609   0.459   1.032   8.512  2.0027 -0.1560  0.6470
 5991SOL    HW229610   0.401   0.960   8.392  0.0810 -0.2913 -0.0186
 5992SOL     OW29611   3.326   2.998   4.231  0.1727 -0.1968 -0.2400
 5992SOL    HW129612   3.323   3.092   4.248  1.1477 -0.1877 -0.1148
 5992SOL    HW229613   3.391   3.004   4.161  0.2176  1.2314 -0.0728
 5993SOL     OW29614   2.110   0.945   8.883 -0.2385  0.1512 -0.5101
 5993SOL    HW129615   2.036   0.998   8.912 -0.7741  0.0269 -1.6653
 5993SOL    HW229616   2.053   0.870   8.870 -0.8291  0.3240  1.1051
 5994SOL     OW29617   1.559   4.692  16.654  0.5062 -0.3376 -0.3814
 5994SOL    HW129618   1.649   4.661  16.659  0.8969  1.2118  2.1010
 5994SOL    HW229619   1.585   0.025  16.592 -2.0370 -1.2757 -2.4827
 5995SOL     OW29620   1.678   2.610  11.509  0.6012 -0.0622 -0.3674
 5995SOL    HW129621   1.754   2.631  11.455  2.0603 -0.3672  1.5650
 5995SOL    HW229622   1.704   2.525  11.544  1.3330 -0.7277 -2.5338
 5996SOL     OW29623   4.660   4.634   8.953  0.2676 -0.2279  0.0895
 5996SOL    HW129624   0.018   4.621   8.972  0.4527  0.1686 -0.5646
 5996SOL    HW229625   4.621   4.584   9.025 -2.1136  0.5439 -0.6785
 5997SOL     OW29626   3.205   4.002   7.708  0.3264  0.8738 -0.7218
 5997SOL    HW129627   3.220   4.053   7.628  1.8326  1.6536  0.0530
 5997SOL    HW229628   3.295   3.985   7.738 -0.9906 -1.6208  1.7927
 5998SOL     OW29629   2.284   3.402   2.005 -0.4108  0.7994  0.0722
 5998SOL    HW129630   2.198   3.410   1.965 -0.0819  0.5844 -0.6641
 5998SOL    HW229631   2.295   3.307   2.014  0.0695  0.9167  0.7796
 5999SOL     OW29632   0.269   4.638  14.878 -0.0952  0.3093 -0.0236
 5999SOL    HW129633   0.198   4.575  14.890 -0.1770  0.2778 -0.6437
 5999SOL    HW229634   0.268   4.639  14.782 -0.0714 -1.3811 -0.0367
 6000SOL     OW29635   1.123   3.761  13.262  0.0036 -0.0628  0.0785
 6000SOL    HW129636   1.140   3.775  13.355  1.9692 -1.0650 -0.1051
 6000SOL    HW229637   1.199   3.702  13.258  1.1696  1.6035 -2.2933
 6001SOL     OW29638   0.145   4.575  11.493  0.6400 -1.0040 -0.0857
 6001SOL    HW129639   0.223   4.585  11.547  0.0812  0.0996  0.5048
 6001SOL    HW229640   0.113   4.491  11.526 -2.7634  0.2715 -0.0552
 6002SOL     OW29641   1.152   2.572   2.121  0.8778 -0.2664 -0.1546
 6002SOL    HW129642   1.117   2.492   2.083  1.0406 -2.1450  3.6341
 6002SOL    HW229643   1.071   2.621   2.112  1.1696  0.0517 -1.0629
 6003SOL     OW29644   0.080   0.225   2.514  0.1599 -0.0172  0.4426
 6003SOL    HW129645   0.035   0.190   2.437 -0.4917 -1.4194  1.4520
 6003SOL    HW229646   0.160   0.173   2.522  0.0515 -0.3504 -0.6887
 6004SOL     OW29647   0.664   0.639   1.814  0.1892  0.5285  0.1911
 6004SOL    HW129648   0.720   0.598   1.748  1.8037 -0.9476  2.5039
 6004SOL    HW229649   0.725   0.663   1.883 -0.1491  2.8629 -0.3368
 6005SOL     OW29650   1.827   1.183   9.711  0.1991  0.1242 -0.1602
 6005SOL    HW129651   1.745   1.222   9.742 -0.1087 -1.3042  0.7977
 6005SOL    HW229652   1.801   1.093   9.694 -2.6813  0.5837  1.8426
 6006SOL     OW29653   2.535   1.234   9.854 -0.6981 -0.2277  0.0987
 6006SOL    HW129654   2.520   1.326   9.877 -2.4982  0.2823 -3.2175
 6006SOL    HW229655   2.538   1.209   9.947 -0.7847  1.5040  0.5764
 6007SOL     OW29656   4.141   1.663   5.461  0.6727 -0.0272 -0.3594
 6007SOL    HW129657   4.221   1.690   5.507 -0.5968  1.0453  1.2265
 6007SOL    HW229658   4.169   1.715   5.385  0.7220  0.0824 -0.2675
 6008SOL     OW29659   2.146   1.711  10.299 -0.3589  0.1767 -0.2588
 6008SOL    HW129660   2.194   1.793  10.295  0.2400 -0.0698  2.4452
 6008SOL    HW229661   2.176   1.670  10.380  0.5142 -2.2907 -1.8181
 6009SOL     OW29662   3.134   1.889   1.720 -0.0296  0.1027  0.6158
 6009SOL    HW129663   3.067   1.903   1.653 -1.7212  0.6543  2.4006
 6009SOL    HW229664   3.097   1.946   1.788 -1.5846 -2.4479  1.9493
 6010SOL     OW29665   2.634   1.331   1.130 -0.4446  0.1624  0.1886
 6010SOL    HW129666   2.588   1.282   1.063  2.1246 -0.8125 -0.8721
 6010SOL    HW229667   2.569   1.400   1.145 -0.1403  0.0968  1.8356
 6011SOL     OW29668   0.378   1.464   4.897  0.0600  0.4262 -0.0004
 6011SOL    HW129669   0.467   1.451   4.863  0.5303  0.7035  1.1316
 6011SOL    HW229670   0.404   1.529   4.961 -0.3986  1.0316 -0.4345
 6012SOL     OW29671   2.887   0.496   3.307  0.4578  0.0458 -0.3775
 6012SOL    HW129672   2.832   0.424   3.337  0.3888  0.1831 -0.1772
 6012SOL    HW229673   2.904   0.547   3.386 -0.7248  0.4824 -0.4060
 6013SOL     OW29674   0.557   2.904   4.333  0.5721  0.2586  0.1233
 6013SOL    HW129675   0.564   2.828   4.276 -0.3028  0.2934 -0.0358
 6013SOL    HW229676   0.534   2.966   4.264 -0.9780  1.4851  1.7296
 6014SOL     OW29677   3.438   0.276  11.103 -0.4831  0.6867 -0.3342
 6014SOL    HW129678   3.464   0.248  11.190  0.4592  0.8266 -0.5606
 6014SOL    HW229679   3.449   0.371  11.095  2.8070  0.2569 -1.2729
 6015SOL     OW29680   4.461   2.984  16.647 -0.3883 -0.5703  0.0177
 6015SOL    HW129681   4.447   2.890  16.653  0.7608 -0.7727 -0.4235
 6015SOL    HW229682   4.431   2.991  16.556  0.1349  2.1894  0.0370
 6016SOL     OW29683   0.847   4.187   3.819 -0.2353  0.0009  0.5034
 6016SOL    HW129684   0.776   4.123   3.810  0.1653 -0.2209 -1.0867
 6016SOL    HW229685   0.821   4.237   3.896  3.1523  0.2393  1.4595
 6017SOL     OW29686   0.114   0.463   7.888 -0.3607  0.4209 -0.1077
 6017SOL    HW129687   0.126   0.372   7.916  0.7420  0.7032  0.3286
 6017SOL    HW229688   0.133   0.506   7.971 -0.5626  1.6900 -0.7225
 6018SOL     OW29689   2.028   0.038  17.603  0.5361  0.0708 -0.2875
 6018SOL    HW129690   2.101   4.717  17.578 -0.4016 -1.8811  1.3772
 6018SOL    HW229691   1.982   4.714  17.662  1.8430  1.1915  1.8666
 6019SOL     OW29692   3.673   1.742   6.137 -1.2163  0.3059 -0.1438
 6019SOL    HW129693   3.690   1.818   6.082  0.1062  2.3857  3.1533
 6019SOL    HW229694   3.706   1.770   6.223 -1.9241 -1.5984  0.7689
 6020SOL     OW29695   4.346   0.494  15.057 -0.4552 -0.5455  0.1687
 6020SOL    HW129696   4.416   0.558  15.066 -0.9508  0.0406 -0.1886
 6020SOL    HW229697   4.324   0.492  14.964  0.8497 -2.6439 -0.0971
 6021SOL     OW29698   0.502   3.665   7.058  0.3255  0.6721  0.1831
 6021SOL    HW129699   0.516   3.705   6.973  1.8534  0.7255  0.4608
 6021SOL    HW229700   0.408   3.677   7.073  0.0822 -3.6502  2.0659
 6022SOL     OW29701   3.052   3.366   9.225  0.1137 -0.0132 -0.1281
 6022SOL    HW129702   3.086   3.437   9.279  0.5015  0.6772 -1.2843
 6022SOL    HW229703   2.993   3.416   9.169 -0.2564 -0.1046  0.1838
 6023SOL     OW29704   3.073   3.661   7.106  0.6486  0.0699  0.0683
 6023SOL    HW129705   3.120   3.608   7.170 -2.1438 -2.8901 -0.2722
 6023SOL    HW229706   3.000   3.688   7.161  0.3989 -1.8693  0.6895
 6024SOL     OW29707   1.631   2.685   3.216  0.0501 -0.5707  0.2871
 6024SOL    HW129708   1.613   2.612   3.276  0.5265 -0.7287  0.2386
 6024SOL    HW229709   1.579   2.647   3.146 -1.8276  0.1900  1.2832
 6025SOL     OW29710   3.660   3.222   9.317  0.1647 -0.0069 -0.0105
 6025SOL    HW129711   3.567   3.197   9.323  0.3374 -0.8200 -0.5761
 6025SOL    HW229712   3.662   3.261   9.230  1.2258  1.0019  0.4722
 6026SOL     OW29713   2.684   1.728  15.607 -0.1739 -0.0214  0.0499
 6026SOL    HW129714   2.713   1.652  15.555 -1.2628 -0.7450  0.4840
 6026SOL    HW229715   2.745   1.744  15.678  0.1466 -1.1084  0.0192
 6027SOL     OW29716   1.952   1.677   8.311  0.5515 -0.4298  0.1953
 6027SOL    HW129717   1.970   1.701   8.401 -1.3817  1.3429  0.1146
 6027SOL    HW229718   2.030   1.632   8.279  0.6582  1.4035 -2.1773
 6028SOL     OW29719   4.123   0.584   5.900  0.2237 -0.1086 -0.4413
 6028SOL    HW129720   4.100   0.663   5.851  1.4882 -0.0601 -0.9422
 6028SOL    HW229721   4.157   0.529   5.830  1.0821 -0.6292  0.3815
 6029SOL     OW29722   0.516   2.579   3.016  0.2622 -0.5580 -0.6242
 6029SOL    HW129723   0.546   2.527   2.941  0.3771 -0.3846 -0.6988
 6029SOL    HW229724   0.473   2.650   2.968 -1.5267 -0.0425  1.7731
 6030SOL     OW29725   0.458   4.363   9.127 -0.4053 -0.3742 -0.2628
 6030SOL    HW129726   0.548   4.371   9.096 -0.2825  2.8330  0.9519
 6030SOL    HW229727   0.472   4.369   9.221  0.4460 -0.0765 -0.4142
 6031SOL     OW29728   2.334   2.738   1.649  0.6937  0.6301 -0.2047
 6031SOL    HW129729   2.374   2.700   1.728 -1.4010  0.0200  0.5554
 6031SOL    HW229730   2.261   2.787   1.686 -0.3494 -0.6890 -0.5349
 6032SOL     OW29731   4.190   0.768   2.866  0.1895  0.3506 -0.0285
 6032SOL    HW129732   4.123   0.745   2.801 -0.0548  0.6568  0.1137
 6032SOL    HW229733   4.273   0.757   2.821  0.4996  3.2872 -0.1283
 6033SOL     OW29734   2.925   1.486   1.655  0.4278 -0.1440  0.1122
 6033SOL    HW129735   2.897   1.444   1.737  0.0026 -1.2336 -0.6053
 6033SOL    HW229736   2.925   1.579   1.678  0.5482 -0.4344  1.2893
 6034SOL     OW29737   4.698   1.025   7.415 -0.0970  0.0158 -0.0800
 6034SOL    HW129738   4.684   0.932   7.393 -2.3338  0.1778  0.6613
 6034SOL    HW229739   4.632   1.065   7.359  0.7383  0.0228 -1.0550
 6035SOL     OW29740   4.257   3.871   9.502 -0.1074 -0.5102 -0.4609
 6035SOL    HW129741   4.175   3.920   9.491  1.2195  1.8264 -0.0283
 6035SOL    HW229742   4.288   3.872   9.411 -0.3685  1.5493 -0.5393
 6036SOL     OW29743   1.378   3.767  10.724 -0.4527 -0.7882 -0.2922
 6036SOL    HW129744   1.351   3.707  10.655 -1.7477 -0.7955  0.2178
 6036SOL    HW229745   1.386   3.700  10.792 -0.7453  2.0893  2.5755
 6037SOL     OW29746   1.209   2.194   4.057 -0.8205 -0.2519  0.0857
 6037SOL    HW129747   1.298   2.202   4.022 -0.8706  1.0549  0.2821
 6037SOL    HW229748   1.229   2.201   4.150  3.0837  1.1507 -0.8675
 6038SOL     OW29749   2.382   2.103   7.892 -0.5466 -0.3378  0.2217
 6038SOL    HW129750   2.368   2.069   7.804  1.8964 -0.3235 -0.1779
 6038SOL    HW229751   2.294   2.081   7.924 -1.1306 -1.0395 -1.8716
 6039SOL     OW29752   2.564   2.377  10.518 -0.1397  0.0113  0.3149
 6039SOL    HW129753   2.496   2.427  10.561  1.1569  1.5201  0.6048
 6039SOL    HW229754   2.628   2.375  10.589  0.3969 -0.6758 -0.1803
 6040SOL     OW29755   1.745   4.233   3.637 -0.5305  0.6964 -0.2724
 6040SOL    HW129756   1.820   4.200   3.687  0.5190  1.9537 -1.0223
 6040SOL    HW229757   1.679   4.242   3.706  2.6743 -1.8472  3.1379
 6041SOL     OW29758   1.820   0.832  17.307 -0.0300  0.0231 -0.2446
 6041SOL    HW129759   1.808   0.827  17.213  1.1425  0.3848 -0.4097
 6041SOL    HW229760   1.742   0.877  17.340  0.2847 -0.0414  0.6016
 6042SOL     OW29761   2.903   1.631   9.501  0.0881  0.5070  0.0096
 6042SOL    HW129762   2.874   1.548   9.464  2.2497 -0.4740  0.4993
 6042SOL    HW229763   2.857   1.635   9.585  1.0004  0.5321  0.5101
 6043SOL     OW29764   3.276   0.410   7.437  0.0123  0.6385  0.1038
 6043SOL    HW129765   3.241   0.428   7.524  1.4748  3.7313  0.0529
 6043SOL    HW229766   3.223   0.477   7.393 -0.2171 -1.2751 -2.5975
 6044SOL     OW29767   4.194   0.719  17.263 -0.2911  0.0532 -0.4772
 6044SOL    HW129768   4.174   0.743  17.353 -0.8487 -3.6279  0.3634
 6044SOL    HW229769   4.256   0.647  17.276  0.8961  1.2625  0.6639
 6045SOL     OW29770   0.463   2.260  11.506  0.2247 -0.0543 -0.1417
 6045SOL    HW129771   0.489   2.211  11.584 -2.4908 -1.0108  0.1462
 6045SOL    HW229772   0.369   2.270  11.525  0.2122 -1.8891  0.7306
 6046SOL     OW29773   2.239   0.456   6.046 -0.4178  0.6012 -0.3519
 6046SOL    HW129774   2.152   0.475   6.080 -0.5987 -2.2752  0.7391
 6046SOL    HW229775   2.297   0.488   6.116 -1.6885  0.1044  0.9338
 6047SOL     OW29776   2.230   1.652   9.250  0.1484  0.2187 -0.3002
 6047SOL    HW129777   2.220   1.693   9.335  1.3568 -0.2071  0.0512
 6047SOL    HW229778   2.268   1.570   9.280  0.8835 -0.8118 -4.0022
 6048SOL     OW29779   3.068   1.229   4.286 -0.1572 -0.1674 -0.1107
 6048SOL    HW129780   3.099   1.202   4.372 -0.9831  0.6949  0.4686
 6048SOL    HW229781   3.122   1.307   4.268 -2.3183  1.0518 -1.3609
 6049SOL     OW29782   2.524   1.641  12.577 -0.1094 -0.0227 -0.7962
 6049SOL    HW129783   2.539   1.567  12.636 -1.0467  1.2574  1.0505
 6049SOL    HW229784   2.525   1.714  12.640 -1.9424 -0.2631 -0.5039
 6050SOL     OW29785   0.285   1.093   3.152  0.2446 -0.1348 -0.4895
 6050SOL    HW129786   0.304   1.052   3.068 -3.0423 -0.7693 -0.9208
 6050SOL    HW229787   0.345   1.050   3.212 -0.5987  1.5587  1.5651
 6051SOL     OW29788   2.919   3.751  10.927  0.0207 -0.1869 -0.5809
 6051SOL    HW129789   2.993   3.694  10.904 -0.8059 -1.5315  0.1045
 6051SOL    HW229790   2.879   3.780  10.846 -1.9974 -1.6084 -0.0913
 6052SOL     OW29791   3.756   2.772   2.527 -0.2114 -0.1671  0.1638
 6052SOL    HW129792   3.708   2.846   2.490  0.1367 -0.3168 -0.5686
 6052SOL    HW229793   3.760   2.719   2.448  2.2386 -3.9672  2.8214
 6053SOL     OW29794   3.208   1.628   8.807 -0.2771 -0.0971 -0.2746
 6053SOL    HW129795   3.125   1.583   8.826 -0.2035 -0.8537 -1.7966
 6053SOL    HW229796   3.191   1.714   8.846 -1.5257 -0.0801 -0.8465
 6054SOL     OW29797   4.144   0.717   6.146 -0.3895 -0.2007 -0.2664
 6054SOL    HW129798   4.125   0.681   6.059  0.8757  2.7969 -1.7592
 6054SOL    HW229799   4.193   0.652   6.196  0.3789  1.3462  1.0005
 6055SOL     OW29800   3.797   2.164   3.665  0.3079 -0.4290  0.7560
 6055SOL    HW129801   3.742   2.232   3.628  1.7276  0.1672 -0.2621
 6055SOL    HW229802   3.806   2.114   3.583 -1.7383 -0.5081  0.5759
 6056SOL     OW29803   3.995   2.180   9.507 -0.1040  0.7087  0.0270
 6056SOL    HW129804   3.995   2.122   9.583 -0.5368  0.0636 -0.4698
 6056SOL    HW229805   4.086   2.164   9.482 -0.0265 -0.7376  1.1877
 6057SOL     OW29806   0.846   2.828   5.986 -0.4535  0.3553  0.0512
 6057SOL    HW129807   0.898   2.861   5.913 -0.1469  0.2214  0.2125
 6057SOL    HW229808   0.841   2.909   6.037 -2.2395 -0.6329  1.4670
 6058SOL     OW29809   0.789   4.534   6.607 -0.3056  0.4822 -0.1280
 6058SOL    HW129810   0.869   4.481   6.613 -0.6660 -0.1303 -0.6681
 6058SOL    HW229811   0.821   4.606   6.553  0.0189 -0.0815 -0.6871
 6059SOL     OW29812   4.645   4.349   8.102 -0.2801 -0.1550 -0.2209
 6059SOL    HW129813   4.641   4.383   8.013  2.2525  3.7519  1.1797
 6059SOL    HW229814   4.720   4.290   8.093  0.7755  1.1073  0.4225
 6060SOL     OW29815   4.726   4.116   3.945  0.0077 -0.1704 -0.6352
 6060SOL    HW129816   4.669   4.039   3.937  0.6932 -0.9305  1.9239
 6060SOL    HW229817   0.069   4.076   3.908 -0.4318  0.0022 -1.7727
 6061SOL     OW29818   2.932   1.879   4.944  0.8134  0.1155 -0.7159
 6061SOL    HW129819   2.898   1.834   5.021  1.4044 -3.5261 -2.5506
 6061SOL    HW229820   2.914   1.969   4.971 -2.4628 -0.5714 -0.6100
 6062SOL     OW29821   1.776   0.155   9.596  0.2379 -0.4208  0.4559
 6062SOL    HW129822   1.752   0.218   9.528  0.9826  0.0675  0.6387
 6062SOL    HW229823   1.735   0.191   9.675  1.0130  1.2135  0.1159
 6063SOL     OW29824   2.135   3.414   8.162  0.4045 -0.0035 -0.0521
 6063SOL    HW129825   2.166   3.503   8.177  2.8326 -0.4781 -2.1626
 6063SOL    HW229826   2.048   3.437   8.132 -0.3778 -2.6667  0.1811
 6064SOL     OW29827   0.168   1.693   7.615 -0.5239  0.1515  0.4662
 6064SOL    HW129828   0.081   1.716   7.649  0.1069  0.4810  1.8239
 6064SOL    HW229829   0.185   1.741   7.534  1.2535 -2.2416 -0.5694
 6065SOL     OW29830   2.594   0.320  15.723 -1.1802 -0.1659 -0.5827
 6065SOL    HW129831   2.678   0.310  15.678 -0.5921 -1.1959  0.7771
 6065SOL    HW229832   2.578   0.412  15.704  1.2031  0.1655 -1.0063
 6066SOL     OW29833   0.588   2.105   2.780 -0.5289 -0.3341  0.9917
 6066SOL    HW129834   0.649   2.178   2.768  0.3246 -1.2359 -0.1228
 6066SOL    HW229835   0.640   2.053   2.841  0.1499 -1.1021 -0.2376
 6067SOL     OW29836   2.506   0.109   4.654  0.0434 -0.2714  0.1288
 6067SOL    HW129837   2.560   0.156   4.717  0.4155 -0.4091 -0.0923
 6067SOL    HW229838   2.488   0.181   4.593 -0.4346  1.2775  2.1006
 6068SOL     OW29839   4.326   1.009   3.156 -0.0080  0.3068  0.0292
 6068SOL    HW129840   4.376   0.969   3.085 -0.7975  1.1771 -1.0193
 6068SOL    HW229841   4.295   1.091   3.118 -1.4741 -1.1152 -1.8721
 6069SOL     OW29842   2.251   3.833  16.737 -0.2001 -0.3298  0.4034
 6069SOL    HW129843   2.196   3.898  16.780 -0.9583 -0.7587  0.0881
 6069SOL    HW229844   2.254   3.883  16.655 -0.7444 -1.9880 -0.6374
 6070SOL     OW29845   1.815   3.282   5.367 -0.2914 -0.2049 -0.1493
 6070SOL    HW129846   1.851   3.295   5.280  0.8262 -0.3642  0.2789
 6070SOL    HW229847   1.811   3.375   5.388 -0.9395 -0.3933  0.5672
 6071SOL     OW29848   2.391   3.457   8.387 -0.5769  0.4712 -0.3022
 6071SOL    HW129849   2.307   3.446   8.433 -1.3758 -3.1681 -2.7126
 6071SOL    HW229850   2.449   3.416   8.451  0.1125  1.3834 -0.3401
 6072SOL     OW29851   2.120   0.093   2.023 -0.8929 -0.2049  0.0903
 6072SOL    HW129852   2.193   0.150   2.048 -2.7440  1.7698  1.0619
 6072SOL    HW229853   2.068   0.087   2.103  0.2453 -0.7192  0.7861
 6073SOL     OW29854   3.199   4.406   5.093 -0.5946 -0.3735 -0.6680
 6073SOL    HW129855   3.209   4.436   5.002  2.0810  2.3590  0.5273
 6073SOL    HW229856   3.106   4.423   5.107 -1.0601 -2.7240 -0.9191
 6074SOL     OW29857   4.306   0.688  11.154 -0.2885 -0.4044 -0.0030
 6074SOL    HW129858   4.300   0.775  11.115  1.6283  0.8975  2.5671
 6074SOL    HW229859   4.218   0.653  11.165 -0.2847 -0.5012 -0.2869
 6075SOL     OW29860   3.582   2.081   1.050 -0.0521 -0.2584  0.0442
 6075SOL    HW129861   3.653   2.057   1.110  0.8649  2.7235  0.1476
 6075SOL    HW229862   3.594   2.176   1.058 -0.2621 -0.3242  1.1044
 6076SOL     OW29863   3.156   3.159   7.948  0.2529  0.4104  0.7132
 6076SOL    HW129864   3.071   3.201   7.939 -0.6497 -1.7397 -0.7476
 6076SOL    HW229865   3.177   3.173   7.856  0.0844 -0.6656  0.5166
 6077SOL     OW29866   3.964   0.110   3.666  0.8493  0.2058 -0.2761
 6077SOL    HW129867   3.986   0.170   3.595 -2.4602  2.0356  0.2524
 6077SOL    HW229868   3.925   0.172   3.727  0.9001 -0.2471  0.2138
 6078SOL     OW29869   2.962   0.168  10.113  0.4679  0.0013 -0.3992
 6078SOL    HW129870   2.950   0.119  10.195  3.5483  2.7954  1.7193
 6078SOL    HW229871   3.057   0.182  10.107  0.4556  0.4240  0.3226
 6079SOL     OW29872   1.580   1.727   3.918 -0.0179  0.1182 -0.1382
 6079SOL    HW129873   1.540   1.767   3.840  3.3919 -0.3555 -2.1144
 6079SOL    HW229874   1.560   1.634   3.911  0.7874 -0.0163 -0.6054
 6080SOL     OW29875   4.548   3.029   8.738  0.1595 -0.3890  0.6235
 6080SOL    HW129876   4.497   3.100   8.699  0.2822 -0.4816  0.3012
 6080SOL    HW229877   4.485   2.963   8.766  0.1153 -1.5628 -2.3156
 6081SOL     OW29878   2.446   4.012   2.763 -0.0375  0.1685 -0.2777
 6081SOL    HW129879   2.522   4.055   2.725  0.2582 -3.4914 -3.8240
 6081SOL    HW229880   2.404   3.954   2.699 -1.1854 -1.5472  2.0265
 6082SOL     OW29881   4.423   2.172   4.744 -0.0932 -0.5956  0.2823
 6082SOL    HW129882   4.445   2.191   4.653 -0.4022 -0.6311  0.1974
 6082SOL    HW229883   4.490   2.110   4.773  0.2799 -0.1754  0.3090
 6083SOL     OW29884   4.247   2.697   3.273  0.4438 -0.2460 -0.1125
 6083SOL    HW129885   4.335   2.734   3.260  1.2965 -3.0364 -2.3582
 6083SOL    HW229886   4.190   2.773   3.268 -2.5127 -2.4935 -0.1836
 6084SOL     OW29887   3.250   4.349   3.909  0.3445  0.0513  0.0573
 6084SOL    HW129888   3.285   4.430   3.946  0.9696  0.1663 -0.7887
 6084SOL    HW229889   3.157   4.366   3.892  0.3240 -0.3898 -0.2478
 6085SOL     OW29890   2.568   2.669  10.741  0.6820 -0.0813  0.2900
 6085SOL    HW129891   2.520   2.598  10.699  2.6425 -1.0963 -0.2673
 6085SOL    HW229892   2.577   2.633  10.829 -1.2026  0.2099  0.6058
 6086SOL     OW29893   4.474   1.435  10.052 -0.0504  0.2969 -0.0874
 6086SOL    HW129894   4.477   1.392   9.966 -2.5470 -0.3442  0.1421
 6086SOL    HW229895   4.440   1.363  10.106 -2.2333  1.7092  0.4122
 6087SOL     OW29896   0.527   3.899   3.172  0.1458  0.0478  0.6791
 6087SOL    HW129897   0.457   3.888   3.237  0.1479 -0.1146  0.6549
 6087SOL    HW229898   0.490   3.963   3.111  0.1493  1.4910  2.1842
 6088SOL     OW29899   1.676   2.443  14.734 -0.1935 -0.5060 -0.1772
 6088SOL    HW129900   1.700   2.371  14.794  0.4010 -0.4236 -0.3157
 6088SOL    HW229901   1.680   2.520  14.790  0.4316 -0.6275 -0.0475
 6089SOL     OW29902   3.712   0.374  13.480  0.1349 -0.1505  0.2119
 6089SOL    HW129903   3.640   0.400  13.423  0.2413  2.5882  1.2998
 6089SOL    HW229904   3.685   0.420  13.560 -0.7177 -0.7296  0.2552
 6090SOL     OW29905   4.318   3.518   8.799  0.0905 -0.3224  0.0985
 6090SOL    HW129906   4.307   3.572   8.721  0.3818  0.5025  0.6178
 6090SOL    HW229907   4.271   3.568   8.866  0.2281 -2.2789  1.6718
 6091SOL     OW29908   0.365   1.962   6.561  0.1588  0.4416  0.4695
 6091SOL    HW129909   0.370   1.944   6.467 -1.6055 -0.7938  0.6100
 6091SOL    HW229910   0.456   1.978   6.588  0.3301  0.7833 -0.3265
 6092SOL     OW29911   4.221   0.300   5.202  0.0097  0.1920  0.0640
 6092SOL    HW129912   4.272   0.220   5.190  0.2600  0.2340  0.8320
 6092SOL    HW229913   4.202   0.325   5.112 -0.7486  1.9232  0.7140
 6093SOL     OW29914   3.901   2.164   6.275 -0.3312  0.2311  0.0108
 6093SOL    HW129915   3.817   2.134   6.239 -1.1016  2.2025  0.1803
 6093SOL    HW229916   3.904   2.254   6.242 -0.4819  0.0134 -0.6065
 6094SOL     OW29917   1.330   2.250   5.756  0.0723 -0.0286 -0.5705
 6094SOL    HW129918   1.310   2.338   5.790  1.9698 -1.1293  3.4948
 6094SOL    HW229919   1.252   2.227   5.706  0.6219 -1.5841 -0.7054
 6095SOL     OW29920   0.700   1.694   2.801  0.0209 -0.4494 -0.4376
 6095SOL    HW129921   0.646   1.631   2.850  0.0361 -0.4065 -0.3654
 6095SOL    HW229922   0.715   1.763   2.865  0.2073 -1.5779  0.7447
 6096SOL     OW29923   0.025   2.624  14.735  0.1151 -0.3279  0.2869
 6096SOL    HW129924   4.711   2.559  14.686 -0.1030  1.4391 -1.8689
 6096SOL    HW229925   0.114   2.596  14.714  0.3906 -1.1077  2.5071
 6097SOL     OW29926   3.148   0.145   5.873  0.2820 -0.2741  0.0571
 6097SOL    HW129927   3.127   0.210   5.806 -0.6044  3.3736  3.8349
 6097SOL    HW229928   3.239   0.171   5.882  0.8665 -1.8921 -1.2423
 6098SOL     OW29929   1.636   1.085   8.120 -0.1694  0.5884  0.1830
 6098SOL    HW129930   1.543   1.063   8.113 -0.2707  1.1558 -0.2251
 6098SOL    HW229931   1.623   1.143   8.196 -0.2460  1.5790 -0.5856
 6099SOL     OW29932   2.098   4.231   7.963  0.5688  0.1867 -0.2386
 6099SOL    HW129933   2.048   4.288   7.905 -2.8076 -1.0770  1.4261
 6099SOL    HW229934   2.183   4.274   7.953  1.2056 -1.1916 -0.7896
 6100SOL     OW29935   0.250   3.631   4.783  0.6755 -0.2145 -0.5819
 6100SOL    HW129936   0.157   3.630   4.763  0.4117 -0.1931  0.6146
 6100SOL    HW229937   0.271   3.721   4.755  0.3248  0.8534  2.5881
 6101SOL     OW29938   2.387   2.840   5.496  0.6352  0.0109 -0.3770
 6101SOL    HW129939   2.346   2.904   5.438 -0.5010  0.3005  0.7422
 6101SOL    HW229940   2.463   2.815   5.444  0.9195  0.0341  0.0314
 6102SOL     OW29941   1.657   3.870   1.922 -0.2938 -0.1799  0.6555
 6102SOL    HW129942   1.610   3.838   1.845 -0.3282 -0.9982  1.0144
 6102SOL    HW229943   1.670   3.962   1.901 -2.8399  0.4175  1.7007
 6103SOL     OW29944   4.464   4.671   5.741  0.3842  0.4319  0.7745
 6103SOL    HW129945   4.415   4.732   5.796  1.7648  0.7236  1.6826
 6103SOL    HW229946   4.463   4.603   5.808  0.5048 -0.3933 -0.0475
 6104SOL     OW29947   3.373   3.773   3.633 -0.3101  0.3984  0.3825
 6104SOL    HW129948   3.466   3.770   3.608 -1.0439  1.2477 -2.4082
 6104SOL    HW229949   3.334   3.746   3.550  0.0997 -2.9965  1.2938
 6105SOL     OW29950   1.925   3.772   3.458 -0.8352  0.1495 -0.5014
 6105SOL    HW129951   2.011   3.732   3.447 -0.9660 -0.5980  1.3048
 6105SOL    HW229952   1.871   3.700   3.426 -0.5089 -1.3891  2.4879
 6106SOL     OW29953   3.382   4.016   8.918  0.1652  0.0677  0.3259
 6106SOL    HW129954   3.444   3.970   8.862 -0.0732  1.7379 -1.3077
 6106SOL    HW229955   3.350   3.942   8.969 -0.0075 -1.3152 -1.8082
 6107SOL     OW29956   0.242   3.554   1.064  0.5001  0.6561 -0.0354
 6107SOL    HW129957   0.187   3.630   1.080 -2.7753 -1.6091 -0.7131
 6107SOL    HW229958   0.293   3.561   1.145 -1.6218 -1.6387  1.5093
 6108SOL     OW29959   1.772   1.535  13.367  0.3306 -0.0299  0.2735
 6108SOL    HW129960   1.732   1.582  13.441 -1.4010 -0.7394 -0.1987
 6108SOL    HW229961   1.743   1.447  13.392 -0.4102  0.1467  0.0565
 6109SOL     OW29962   4.162   4.697   6.253  0.4181  0.2003  0.9965
 6109SOL    HW129963   4.067   4.693   6.242  0.5466  0.7988 -0.3132
 6109SOL    HW229964   4.170   0.032   6.317  1.3871  1.6461 -0.7389
 6110SOL     OW29965   4.072   0.653  11.435  0.4364  0.1737  0.6818
 6110SOL    HW129966   4.047   0.561  11.438 -1.2180  0.5757 -0.3522
 6110SOL    HW229967   4.002   0.687  11.490 -1.0553 -1.9943  0.1363
 6111SOL     OW29968   1.365   4.589   2.137 -0.2683  0.0254 -0.0850
 6111SOL    HW129969   1.367   4.554   2.225 -1.5934  1.4817  0.5168
 6111SOL    HW229970   1.356   4.684   2.143 -0.5768 -0.1471  2.1010
 6112SOL     OW29971   4.158   4.145  12.118 -0.1214 -0.3923 -0.1372
 6112SOL    HW129972   4.227   4.204  12.089 -0.1084 -0.1155  0.4583
 6112SOL    HW229973   4.129   4.193  12.196 -1.5203 -1.9311  0.2808
 6113SOL     OW29974   0.964   1.670   6.460  0.0989  0.1789 -0.0485
 6113SOL    HW129975   0.904   1.596   6.455  0.3410 -0.0668  0.7420
 6113SOL    HW229976   1.016   1.655   6.539  1.2009  1.8335 -0.4470
 6114SOL     OW29977   1.839   4.663   4.681  0.6849  1.0577 -0.3545
 6114SOL    HW129978   1.923   4.629   4.651  1.7315  1.0175  2.6911
 6114SOL    HW229979   1.788   4.594   4.639 -0.4439  2.2353 -0.9194
 6115SOL     OW29980   2.103   4.274  13.180 -0.5237  0.0670 -0.0511
 6115SOL    HW129981   2.138   4.185  13.184  3.2895  1.5386 -0.1499
 6115SOL    HW229982   2.083   4.273  13.086  1.3170  0.9010 -0.4701
 6116SOL     OW29983   0.916   3.284   8.025 -0.6513 -0.1135  0.7243
 6116SOL    HW129984   0.823   3.296   8.009 -0.2796  0.1257 -1.1862
 6116SOL    HW229985   0.927   3.194   7.996 -2.7048  0.2274 -1.0845
 6117SOL     OW29986   3.990   4.172   7.222 -0.6735  0.6158  0.2401
 6117SOL    HW129987   3.992   4.267   7.214 -0.8592  0.6487  0.5587
 6117SOL    HW229988   4.082   4.154   7.242 -0.4377  0.1651 -1.2889
 6118SOL     OW29989   4.234   2.338   6.867 -0.2321 -0.2981 -0.7395
 6118SOL    HW129990   4.301   2.317   6.802  0.2300 -0.8459 -0.0939
 6118SOL    HW229991   4.196   2.415   6.825  0.2342 -0.2506 -1.0719
 6119SOL     OW29992   1.725   1.493   6.076  0.1055 -0.1773  0.1683
 6119SOL    HW129993   1.729   1.405   6.113 -0.8546 -0.3329 -0.0842
 6119SOL    HW229994   1.807   1.527   6.111  0.0259  0.7823 -0.5582
 6120SOL     OW29995   3.432   0.083  11.488 -0.0220 -0.0389  0.8020
 6120SOL    HW129996   3.522   0.060  11.465 -0.0038  0.5208  0.3177
 6120SOL    HW229997   3.399   4.729  11.478  0.8649 -0.1803 -0.9347
 6121SOL     OW29998   1.238   0.106   3.452 -0.2801  0.0781  0.6472
 6121SOL    HW129999   1.254   0.012   3.448 -0.3481  0.1214 -0.4559
 6121SOL    HW230000   1.149   0.107   3.415  0.6247  1.2715 -1.4467
 6122SOL     OW30001   3.581   4.560   8.108  0.4634  0.3686  0.1041
 6122SOL    HW130002   3.554   4.560   8.200  1.5401 -3.3199  0.3977
 6122SOL    HW230003   3.661   4.508   8.113  1.8467  2.6289  1.5087
 6123SOL     OW30004   1.276   3.514  11.761  0.1662  0.5060  0.3928
 6123SOL    HW130005   1.332   3.555  11.694 -3.3194  2.6820 -1.1985
 6123SOL    HW230006   1.187   3.544  11.743  0.8497  2.6170  0.5117
 6124SOL     OW30007   4.572   2.588   3.498 -0.4991  0.1384  0.1148
 6124SOL    HW130008   4.478   2.575   3.505 -0.4263  0.2388  1.2930
 6124SOL    HW230009   4.567   2.684   3.504  0.5884  0.3173 -1.7668
 6125SOL     OW30010   0.765   3.136   4.044  0.2108 -0.4188  0.5769
 6125SOL    HW130011   0.696   3.070   4.036 -0.1423 -0.1123  1.0457
 6125SOL    HW230012   0.796   3.126   4.134 -4.2927  2.5211  2.4968
 6126SOL     OW30013   1.430   2.227   3.916  0.2589  0.0500 -0.0144
 6126SOL    HW130014   1.370   2.274   3.858  1.0370 -0.0157 -0.8768
 6126SOL    HW230015   1.512   2.277   3.920  1.4728 -1.9804  0.3588
 6127SOL     OW30016   4.281   0.018   6.745 -0.1017 -0.1434 -0.1830
 6127SOL    HW130017   4.376   0.014   6.738 -0.1079 -1.8308  0.6558
 6127SOL    HW230018   4.267   0.096   6.692  1.2376 -0.0161 -0.3448
 6128SOL     OW30019   3.461   0.212   2.173 -0.8942 -0.4031 -0.3471
 6128SOL    HW130020   3.432   0.283   2.231  1.6171 -0.3221  0.7982
 6128SOL    HW230021   3.531   0.169   2.222 -0.9149  0.6186  0.5766
 6129SOL     OW30022   4.211   2.559  17.697  0.5285 -0.3528 -0.3205
 6129SOL    HW130023   4.280   2.493  17.707  0.8688  0.2696  1.4414
 6129SOL    HW230024   4.204   2.562  17.602  0.0233 -2.6792 -0.3550
 6130SOL     OW30025   0.785   0.344   6.175  0.6187 -0.9743 -0.5897
 6130SOL    HW130026   0.707   0.388   6.207 -1.0524 -3.2343 -1.5522
 6130SOL    HW230027   0.750   0.271   6.125  1.2124 -1.5870 -0.1055
 6131SOL     OW30028   0.166   0.839   5.869  0.6414  0.2009  0.3045
 6131SOL    HW130029   0.172   0.762   5.926  0.0782  0.2456  0.4323
 6131SOL    HW230030   0.229   0.804   5.807  0.3905 -0.1897  0.2659
 6132SOL     OW30031   2.069   2.077   9.062  0.5224  0.6316  0.6430
 6132SOL    HW130032   2.121   2.157   9.069 -0.0379  1.0888 -0.3596
 6132SOL    HW230033   2.083   2.051   8.971  1.2049 -1.4952  1.3723
 6133SOL     OW30034   0.909   0.870   9.534 -0.0730  0.0598  0.2001
 6133SOL    HW130035   0.943   0.784   9.561  0.6703  0.6770  1.2092
 6133SOL    HW230036   0.922   0.926   9.611 -3.8039 -1.5275  2.0184
 6134SOL     OW30037   4.001   4.312  17.522 -0.3694  0.3286  0.4094
 6134SOL    HW130038   3.967   4.271  17.601 -2.0963  1.8390  0.4499
 6134SOL    HW230039   4.035   4.391  17.564  0.5284 -0.2328  0.7387
 6135SOL     OW30040   0.804   2.592   3.665  0.0679  0.3317  0.4127
 6135SOL    HW130041   0.724   2.548   3.637 -0.6018  1.0222  1.2538
 6135SOL    HW230042   0.857   2.513   3.680 -3.5085 -1.9213  1.1485
 6136SOL     OW30043   3.933   4.156   2.133  0.1156  0.1113  0.4411
 6136SOL    HW130044   3.926   4.121   2.045  0.2460 -1.3485  1.0061
 6136SOL    HW230045   3.879   4.235   2.135  1.4030  0.9964  0.3944
 6137SOL     OW30046   1.427   2.560   2.223 -0.3719 -0.3589 -0.3825
 6137SOL    HW130047   1.392   2.482   2.267  0.2991  0.2401  1.2472
 6137SOL    HW230048   1.349   2.594   2.180 -1.0098  0.1396  1.1463
 6138SOL     OW30049   2.721   4.630   2.824 -0.4081 -0.0854 -0.2225
 6138SOL    HW130050   2.696   4.540   2.846  0.4678 -0.7282 -1.7943
 6138SOL    HW230051   2.655   4.649   2.757 -0.2512 -2.9289 -1.1983
 6139SOL     OW30052   0.540   0.090   4.739  0.1799  0.4624 -0.3134
 6139SOL    HW130053   0.574   0.053   4.658 -0.5377  0.0785 -0.4292
 6139SOL    HW230054   0.452   0.063   4.713 -0.2121  0.7444  0.7229
 6140SOL     OW30055   1.605   0.490   6.538  0.1326  0.0820 -0.3812
 6140SOL    HW130056   1.585   0.575   6.577 -0.8228 -0.3046 -0.0257
 6140SOL    HW230057   1.635   0.521   6.453  1.1681  1.0923  0.3580
 6141SOL     OW30058   4.475   0.910   2.146 -0.3671 -0.2673 -0.2103
 6141SOL    HW130059   4.513   0.853   2.079 -0.8735  0.2320 -0.9212
 6141SOL    HW230060   4.505   0.999   2.131  3.4950 -1.2703  1.4587
 6142SOL     OW30061   2.700   1.989   9.531  0.6328 -0.0256 -0.9269
 6142SOL    HW130062   2.610   1.959   9.519  0.3134  0.3376  0.5411
 6142SOL    HW230063   2.710   1.973   9.625  2.3797  2.7700 -0.6482
 6143SOL     OW30064   3.206   4.168   2.354  0.2378  0.4543  0.2386
 6143SOL    HW130065   3.256   4.105   2.302  0.0234 -0.4677  1.1484
 6143SOL    HW230066   3.119   4.128   2.353 -1.1927  3.3744  3.6536
 6144SOL     OW30067   1.887   2.338   4.571 -0.5713  0.4790  0.1174
 6144SOL    HW130068   1.966   2.385   4.597  1.1574 -1.3971 -1.6780
 6144SOL    HW230069   1.886   2.346   4.476  1.3677  0.9771  0.1424
 6145SOL     OW30070   0.772   4.441   2.430 -0.0477  0.3032 -0.3009
 6145SOL    HW130071   0.745   4.429   2.338 -1.6163 -0.8469  0.3136
 6145SOL    HW230072   0.846   4.500   2.413  0.7378 -0.2358  1.3476
 6146SOL     OW30073   0.930   1.199  17.453 -0.1846  0.8173 -0.6656
 6146SOL    HW130074   0.991   1.261  17.494  0.4836 -0.0825 -0.3066
 6146SOL    HW230075   0.847   1.234  17.486 -1.1321 -1.6021 -0.4545
 6147SOL     OW30076   1.309   0.513   6.706 -0.6464 -0.1858 -0.2010
 6147SOL    HW130077   1.264   0.538   6.626 -1.0998  2.1795  0.7923
 6147SOL    HW230078   1.385   0.572   6.710 -1.1617  0.2523  3.4766
 6148SOL     OW30079   2.006   2.282   8.721  0.5009  0.1076 -0.4055
 6148SOL    HW130080   1.972   2.272   8.633 -0.5604  0.0698  0.0118
 6148SOL    HW230081   2.088   2.328   8.700  0.0450  1.2655  0.3400
 6149SOL     OW30082   3.339   3.222   6.899  0.1825 -0.3676 -0.1561
 6149SOL    HW130083   3.297   3.185   6.821 -0.9711  1.5775 -0.4513
 6149SOL    HW230084   3.429   3.188   6.891  0.4559 -0.2314  2.2480
 6150SOL     OW30085   0.671   3.993   7.459 -0.3613  0.4799  0.1709
 6150SOL    HW130086   0.755   4.026   7.490  0.1087  0.8174 -1.4867
 6150SOL    HW230087   0.659   3.933   7.533  0.6746 -0.1601 -0.1770
 6151SOL     OW30088   1.861   0.202   5.474  0.1268 -0.3860  0.7006
 6151SOL    HW130089   1.916   0.271   5.437  2.9791 -3.3129 -0.5408
 6151SOL    HW230090   1.832   0.241   5.556 -1.0770  3.1722 -1.4403
 6152SOL     OW30091   3.871   0.020   2.484  0.1444  0.3278  0.0990
 6152SOL    HW130092   3.954   4.710   2.493  0.8014  1.5766  0.4810
 6152SOL    HW230093   3.848   0.012   2.577 -0.0555  1.3665  0.1493
 6153SOL     OW30094   3.706   0.708   8.647  0.0469 -0.4737 -0.9255
 6153SOL    HW130095   3.642   0.664   8.703  2.1032  0.9740  2.5381
 6153SOL    HW230096   3.686   0.800   8.666 -1.7509 -0.9622 -0.4260
 6154SOL     OW30097   1.587   4.463   0.749 -0.5292  0.0601  0.4435
 6154SOL    HW130098   1.586   4.556   0.772  1.4356  0.7192 -2.1626
 6154SOL    HW230099   1.590   4.454   0.654 -0.0807 -3.1109  0.7469
 6155SOL     OW30100   3.164   1.602   5.355 -0.0950  0.0740 -0.2563
 6155SOL    HW130101   3.191   1.565   5.271 -0.8155 -0.6448 -0.1747
 6155SOL    HW230102   3.166   1.521   5.406  1.0459  0.1892 -0.1070
 6156SOL     OW30103   4.537   3.430   2.979 -0.2194  0.0170  0.7446
 6156SOL    HW130104   4.584   3.493   3.034  0.8205  0.5391 -0.7283
 6156SOL    HW230105   4.601   3.359   2.975 -2.4538 -2.0679  1.7395
 6157SOL     OW30106   2.166   3.596   6.482  0.3096  0.4488  0.6950
 6157SOL    HW130107   2.176   3.629   6.392 -1.0107  1.2653  0.8355
 6157SOL    HW230108   2.257   3.569   6.491 -0.0658 -1.7689 -2.2041
 6158SOL     OW30109   2.383   3.696  13.443  0.0744  0.4052 -0.0149
 6158SOL    HW130110   2.472   3.695  13.478 -0.4215  1.2091  1.2842
 6158SOL    HW230111   2.367   3.603  13.425 -1.8069  0.6184  0.5592
 6159SOL     OW30112   2.552   1.774   8.318  0.1120 -0.5527 -0.0952
 6159SOL    HW130113   2.514   1.848   8.270  2.3586 -0.3190 -1.5555
 6159SOL    HW230114   2.555   1.802   8.409 -0.2018 -2.3082  0.4629
 6160SOL     OW30115   1.153   3.401   8.427 -0.1553  0.2395  0.5383
 6160SOL    HW130116   1.059   3.417   8.427  0.2169  2.4667  0.3646
 6160SOL    HW230117   1.163   3.321   8.376 -1.2489 -0.8066  1.9867
 6161SOL     OW30118   1.546   2.719   5.760  0.5767 -0.1194 -0.3005
 6161SOL    HW130119   1.619   2.767   5.799  0.2676  0.1392 -0.0384
 6161SOL    HW230120   1.535   2.651   5.827 -3.0112  0.3153 -0.4348
 6162SOL     OW30121   4.529   0.620   3.407 -0.5156 -0.6113 -1.0610
 6162SOL    HW130122   4.551   0.691   3.346  1.3477  1.0708  1.5273
 6162SOL    HW230123   4.538   0.547   3.346 -1.2436 -1.2876 -0.3478
 6163SOL     OW30124   4.474   2.080   2.871  0.1738 -0.5114  0.8621
 6163SOL    HW130125   4.515   1.994   2.871  1.9700  0.3426  1.8154
 6163SOL    HW230126   4.423   2.091   2.951 -1.8946 -0.7489 -0.4192
 6164SOL     OW30127   0.699   2.782  16.245 -0.1300 -0.2687 -0.1239
 6164SOL    HW130128   0.730   2.849  16.305 -1.1281  0.0199  0.0769
 6164SOL    HW230129   0.612   2.764  16.283 -0.7204 -2.4794 -2.5662
 6165SOL     OW30130   1.639   3.176   1.114 -0.1918  0.1870  0.3639
 6165SOL    HW130131   1.573   3.173   1.183  1.1381  0.1255  1.6327
 6165SOL    HW230132   1.580   3.149   1.043 -2.1240 -2.0283  2.8192
 6166SOL     OW30133   3.950   1.373   2.016  0.6198 -0.2286  0.4902
 6166SOL    HW130134   3.864   1.414   2.015  0.2814 -0.9556 -0.2689
 6166SOL    HW230135   3.982   1.407   2.099 -0.7386  1.2835  0.3876
 6167SOL     OW30136   3.551   2.113   6.229 -0.2697 -0.4879 -0.0052
 6167SOL    HW130137   3.514   2.061   6.158  1.0086  1.0590 -1.7926
 6167SOL    HW230138   3.555   2.199   6.188  0.4150  0.3185  1.7804
 6168SOL     OW30139   0.663   3.517   8.075  0.1068 -0.1131  0.1433
 6168SOL    HW130140   0.635   3.425   8.071  2.1286 -0.6434 -1.5295
 6168SOL    HW230141   0.588   3.562   8.037  0.7324 -0.9736 -2.0970
 6169SOL     OW30142   4.080   0.507  11.128 -0.6203 -0.3874 -0.4467
 6169SOL    HW130143   4.019   0.482  11.197 -2.0438 -2.1566 -2.3371
 6169SOL    HW230144   4.092   0.429  11.074 -0.5208 -1.8480  1.6764
 6170SOL     OW30145   0.005   1.011  12.988  0.4292 -0.1884  0.0975
 6170SOL    HW130146   0.027   1.061  12.910 -1.6322  1.6472  0.7027
 6170SOL    HW230147   4.689   1.070  13.042  1.2950 -0.5644  1.3456
 6171SOL     OW30148   3.494   0.581   5.565 -0.0177  0.0625  0.3158
 6171SOL    HW130149   3.576   0.533   5.557 -1.1519 -1.3813 -2.6321
 6171SOL    HW230150   3.453   0.554   5.647  0.6692 -4.0396 -0.7113
 6172SOL     OW30151   2.556   3.818   5.672  0.2158  0.7635  0.7256
 6172SOL    HW130152   2.634   3.846   5.720  0.2481 -0.5422  1.4171
 6172SOL    HW230153   2.573   3.869   5.593 -3.9458  2.4641  0.9314
 6173SOL     OW30154   2.583   2.103   2.038 -0.7501  0.0521 -0.9510
 6173SOL    HW130155   2.541   2.179   1.997 -0.9007 -0.0061 -0.9043
 6173SOL    HW230156   2.572   2.135   2.128 -2.9133 -1.8909 -0.5314
 6174SOL     OW30157   2.713   0.083   4.201 -0.3208  0.1623 -0.3708
 6174SOL    HW130158   2.769   0.067   4.276  1.9601 -0.7938 -2.2765
 6174SOL    HW230159   2.636   0.037   4.234 -0.4088  0.7627  0.2547
 6175SOL     OW30160   1.719   4.199   6.393 -0.1252 -0.1229 -0.3400
 6175SOL    HW130161   1.648   4.143   6.361 -0.5876 -1.9560  3.8509
 6175SOL    HW230162   1.678   4.283   6.414 -0.5435 -0.2330 -0.7117
 6176SOL     OW30163   3.995   3.116   3.878 -0.2514 -0.6124  0.5223
 6176SOL    HW130164   3.930   3.185   3.879 -0.6731 -1.0188  1.5875
 6176SOL    HW230165   4.069   3.150   3.828 -0.1464 -0.2029  0.9584
 6177SOL     OW30166   2.978   2.680   4.834  0.2686 -0.1754 -0.2641
 6177SOL    HW130167   2.917   2.674   4.907  0.6077  1.6769  0.1797
 6177SOL    HW230168   2.948   2.608   4.780 -0.2678 -1.5137  1.8051
 6178SOL     OW30169   2.568   3.074   0.930  0.0739 -0.3644  0.0688
 6178SOL    HW130170   2.636   3.132   0.896  0.4786 -0.6846  0.3366
 6178SOL    HW230171   2.518   3.082   0.848  0.2269  1.7444  0.1812
 6179SOL     OW30172   1.552   3.687   2.405 -0.0558  0.3671  0.0035
 6179SOL    HW130173   1.558   3.748   2.331 -0.3754 -1.9469 -1.9189
 6179SOL    HW230174   1.635   3.640   2.402  0.0143  0.5049 -0.2763
 6180SOL     OW30175   2.736   1.570  10.215  0.4442 -0.2291 -0.5086
 6180SOL    HW130176   2.673   1.640  10.199  1.6712  1.0785  0.4079
 6180SOL    HW230177   2.679   1.496  10.235 -2.2664  2.2928  1.0698
 6181SOL     OW30178   4.156   4.594   8.240 -0.2259  0.1324 -0.8442
 6181SOL    HW130179   4.217   4.623   8.307  0.1686 -0.0348 -1.1262
 6181SOL    HW230180   4.123   4.680   8.213  0.8883  1.6206  2.5789
 6182SOL     OW30181   4.041   2.510  13.761 -0.1635 -0.0913  0.3271
 6182SOL    HW130182   3.946   2.525  13.767  0.0126  0.8878  0.5711
 6182SOL    HW230183   4.057   2.461  13.841  1.0321  0.0533  0.1639
 6183SOL     OW30184   4.462   1.066   1.814  0.0069  0.2656 -0.0748
 6183SOL    HW130185   4.492   1.150   1.849  1.7027  0.1422 -1.2287
 6183SOL    HW230186   4.377   1.057   1.856  1.1113 -0.4979  2.0268
 6184SOL     OW30187   2.042   0.385   3.150 -0.0747 -0.3849  0.5530
 6184SOL    HW130188   2.050   0.321   3.221 -1.8572 -1.1798  0.0217
 6184SOL    HW230189   1.993   0.326   3.093 -1.0292  1.4109 -0.4843
 6185SOL     OW30190   4.434   4.143   3.011 -0.2087 -0.2683 -0.4551
 6185SOL    HW130191   4.507   4.139   2.949 -1.5950 -1.0320 -2.0494
 6185SOL    HW230192   4.411   4.236   3.011 -1.5065 -0.5840 -1.4488
 6186SOL     OW30193   3.108   1.289   1.634  0.0652 -0.5110  0.1652
 6186SOL    HW130194   3.050   1.363   1.616 -1.4728 -1.8003 -0.1631
 6186SOL    HW230195   3.053   1.235   1.690 -1.1554 -0.0729 -0.5885
 6187SOL     OW30196   0.484   4.457   7.889 -0.2060  0.8300 -0.2108
 6187SOL    HW130197   0.481   4.369   7.926 -1.5683 -0.0246 -2.3309
 6187SOL    HW230198   0.407   4.450   7.833 -0.1295 -0.3324 -0.1619
 6188SOL     OW30199   1.597   2.487  10.353 -0.2753  0.3295  0.4904
 6188SOL    HW130200   1.517   2.532  10.327 -0.9425 -0.5589  1.0359
 6188SOL    HW230201   1.645   2.508  10.273 -1.7263 -0.1594 -0.5000
 6189SOL     OW30202   2.439   3.454  14.344 -0.5278  0.3226  0.0982
 6189SOL    HW130203   2.354   3.410  14.351  0.3518 -1.2152  1.0395
 6189SOL    HW230204   2.492   3.374  14.343 -0.1058  0.6099  0.0467
 6190SOL     OW30205   2.700   0.635   0.689  0.0375 -0.3052 -0.1696
 6190SOL    HW130206   2.650   0.585   0.625 -2.2681  0.2000  1.2149
 6190SOL    HW230207   2.787   0.598   0.687 -0.6620 -1.9246 -0.3822
 6191SOL     OW30208   2.972   0.526   7.681 -0.1652 -0.1866  0.2672
 6191SOL    HW130209   3.002   0.559   7.765 -0.9391  0.4498  0.2937
 6191SOL    HW230210   2.947   0.604   7.631  0.0945 -1.9535 -2.6439
 6192SOL     OW30211   0.078   3.648  12.652  0.4986 -0.0910 -0.2294
 6192SOL    HW130212   0.100   3.628  12.561 -1.6336  1.1555 -1.0000
 6192SOL    HW230213   0.149   3.702  12.687  0.5826  0.0308 -0.5936
 6193SOL     OW30214   2.184   1.073   2.739  0.2026  0.5060 -0.2498
 6193SOL    HW130215   2.136   1.088   2.820 -0.0698 -1.0357 -0.1336
 6193SOL    HW230216   2.255   1.017   2.771 -0.5914 -1.2085 -1.5137
 6194SOL     OW30217   4.525   0.781   6.142 -0.2881 -0.7759 -0.2929
 6194SOL    HW130218   4.473   0.777   6.062 -0.5068  0.2906 -0.2022
 6194SOL    HW230219   4.561   0.693   6.154 -0.2890 -0.2624  3.4091
 6195SOL     OW30220   2.325   4.231   7.640 -0.4172 -0.1676  0.5470
 6195SOL    HW130221   2.307   4.283   7.718 -1.2301  0.5014 -0.0935
 6195SOL    HW230222   2.387   4.167   7.677  1.4469  1.0636 -0.4761
 6196SOL     OW30223   3.622   1.058   8.921 -0.4239 -0.1089  0.8030
 6196SOL    HW130224   3.716   1.067   8.905 -1.1103 -0.9374 -3.6230
 6196SOL    HW230225   3.618   0.995   8.992  0.0546 -0.7952  0.2162
 6197SOL     OW30226   1.002   3.255   4.521 -0.9523  0.2683  0.0607
 6197SOL    HW130227   1.042   3.174   4.552 -3.4577 -1.1751 -0.5244
 6197SOL    HW230228   0.994   3.303   4.604 -2.0194 -0.0281  0.1338
 6198SOL     OW30229   1.408   3.792  17.605 -0.0335 -0.4181 -0.1950
 6198SOL    HW130230   1.316   3.783  17.578  0.2227  0.2159 -1.2742
 6198SOL    HW230231   1.402   3.774  17.699 -0.3973 -1.3445 -0.3890
 6199SOL     OW30232   0.792   2.707  13.308 -0.2905 -0.1880  0.4909
 6199SOL    HW130233   0.729   2.779  13.315 -1.0083 -0.8089  0.4140
 6199SOL    HW230234   0.867   2.740  13.356 -1.9180  2.1995  1.3815
 6200SOL     OW30235   0.027   3.589   9.033 -0.1420  0.0324 -0.3803
 6200SOL    HW130236   4.709   3.547   8.966  2.0133 -1.8999 -0.8517
 6200SOL    HW230237   4.727   3.565   9.119 -0.0830  0.3086 -0.2779
 6201SOL     OW30238   1.129   3.652   2.126  0.7661  0.2096  0.1108
 6201SOL    HW130239   1.142   3.595   2.202 -3.2264 -0.8716 -0.0269
 6201SOL    HW230240   1.212   3.630   2.083  2.4883  1.7447  2.5771
 6202SOL     OW30241   4.367   0.282   4.787  0.4065  0.2239 -0.2949
 6202SOL    HW130242   4.387   0.328   4.868 -1.5857  1.3588 -0.4599
 6202SOL    HW230243   4.349   0.196   4.826  0.6187  1.7598  3.1984
 6203SOL     OW30244   1.784   2.509  15.977  0.0024 -0.3062 -0.4039
 6203SOL    HW130245   1.804   2.446  15.907 -1.9644 -4.2443  2.6139
 6203SOL    HW230246   1.859   2.498  16.035 -0.9177 -1.1427  0.6178
 6204SOL     OW30247   2.249   0.187   8.710 -0.4962  0.0375  0.3354
 6204SOL    HW130248   2.196   0.145   8.642 -1.5492 -2.4489  2.7204
 6204SOL    HW230249   2.187   0.254   8.740 -0.6148  0.2878 -0.4522
 6205SOL     OW30250   2.671   3.567   0.733  0.3991 -0.6907  0.5878
 6205SOL    HW130251   2.756   3.549   0.694  1.6338  2.1931  1.9343
 6205SOL    HW230252   2.621   3.506   0.679 -0.3910  1.3389 -0.9570
 6206SOL     OW30253   1.607   0.488   0.633  0.0552  0.4547  0.0084
 6206SOL    HW130254   1.581   0.490   0.725  1.7563 -1.7293  0.5372
 6206SOL    HW230255   1.702   0.475   0.639  0.1372  1.5089  0.9207
 6207SOL     OW30256   3.820   0.004  14.512  0.3055 -0.4026  0.1547
 6207SOL    HW130257   3.758   0.009  14.439 -0.4921 -0.4520  0.8262
 6207SOL    HW230258   3.868   0.086  14.503  0.5361 -0.7084 -1.3594
 6208SOL     OW30259   0.583   1.426   6.599 -0.0030  0.3457 -0.0398
 6208SOL    HW130260   0.584   1.472   6.516  0.6752 -0.2903 -0.3842
 6208SOL    HW230261   0.647   1.473   6.653 -0.1408  0.8123 -0.2868
 6209SOL     OW30262   1.698   2.942   5.871  0.2867 -0.2856  0.6008
 6209SOL    HW130263   1.636   3.016   5.875 -0.9833 -1.4020  1.5706
 6209SOL    HW230264   1.750   2.962   5.949  0.0499  0.9694  0.4342
 6210SOL     OW30265   2.592   1.620   9.337  0.6390  0.1580 -0.0660
 6210SOL    HW130266   2.654   1.613   9.410 -0.6408 -0.9539  0.9266
 6210SOL    HW230267   2.511   1.586   9.377  1.6900 -0.9341  1.1314
 6211SOL     OW30268   0.556   2.305   6.622  0.5235 -0.3041 -0.5305
 6211SOL    HW130269   0.599   2.220   6.614  1.1324  0.0542 -1.1263
 6211SOL    HW230270   0.468   2.290   6.588  0.8599 -1.2993 -0.9529
 6212SOL     OW30271   3.563   4.219   2.177  0.1175  0.0970  0.2858
 6212SOL    HW130272   3.510   4.140   2.189  1.5185 -1.4108 -3.5211
 6212SOL    HW230273   3.520   4.258   2.101 -2.1330  0.4818  1.7477
 6213SOL     OW30274   0.072   1.960   6.606  0.1303 -0.4207  0.0913
 6213SOL    HW130275   0.058   2.020   6.678 -1.9718  0.6209 -1.1920
 6213SOL    HW230276   0.167   1.963   6.620 -0.2068 -2.0025  2.8318
 6214SOL     OW30277   0.011   1.728   3.974 -0.4655 -0.4739  0.2285
 6214SOL    HW130278   4.720   1.758   4.061  0.5388 -0.6218  0.5883
 6214SOL    HW230279   0.058   1.650   4.002  0.5317  0.2366  0.5520
 6215SOL     OW30280   4.284   2.793   0.096  0.3280 -0.3470 -0.7204
 6215SOL    HW130281   4.258   2.722   0.036  1.5668  1.8167 -3.7911
 6215SOL    HW230282   4.324   2.740   0.166 -1.9337 -0.3729  0.5595
 6216SOL     OW30283   3.212   0.997  11.677 -0.3042  0.4863 -0.7376
 6216SOL    HW130284   3.122   1.005  11.710 -0.2429 -3.3116  0.3445
 6216SOL    HW230285   3.209   0.922  11.618  0.7523  2.7358 -3.6162
 6217SOL     OW30286   1.447   1.001   9.765 -0.5350 -0.2329  0.2180
 6217SOL    HW130287   1.427   0.990   9.672 -0.1717 -4.0697  0.5945
 6217SOL    HW230288   1.369   1.048   9.796 -0.2860 -0.5217  1.2992
 6218SOL     OW30289   2.885   0.675   6.367  0.0502  0.2120  0.1861
 6218SOL    HW130290   2.912   0.663   6.458 -0.6781  0.2574  0.4069
 6218SOL    HW230291   2.792   0.679   6.386 -0.3228 -0.6635 -1.4070
 6219SOL     OW30292   3.695   2.263   3.068 -0.0676 -0.2641  0.2320
 6219SOL    HW130293   3.747   2.182   3.066  2.5709  1.3666  3.4287
 6219SOL    HW230294   3.634   2.254   2.994  1.4408  0.8633 -1.1415
 6220SOL     OW30295   0.689   3.039  10.566  0.6272 -0.3060 -0.0590
 6220SOL    HW130296   0.605   2.999  10.591  1.3954 -1.9296 -0.0503
 6220SOL    HW230297   0.713   3.105  10.630  0.9514 -0.1636 -0.3309
 6221SOL     OW30298   4.191   1.022   1.962 -0.0060 -0.7627  0.4919
 6221SOL    HW130299   4.098   1.044   1.954  0.5133  0.9049 -0.9635
 6221SOL    HW230300   4.189   0.943   2.017  0.2646 -2.5892 -2.1022
 6222SOL     OW30301   2.443   3.795  10.788 -0.1561 -0.4169  0.0892
 6222SOL    HW130302   2.428   3.763  10.877  2.2883 -3.2665 -0.5107
 6222SOL    HW230303   2.474   3.884  10.802 -4.0208  1.2163 -1.7409
 6223SOL     OW30304   0.184   0.215   8.401  0.5064 -0.0923  0.0757
 6223SOL    HW130305   0.102   0.167   8.415  0.7220 -0.5999 -0.3947
 6223SOL    HW230306   0.194   0.277   8.474  2.8927 -0.9758  0.4987
 6224SOL     OW30307   0.027   3.719   1.063  0.4479 -0.3537 -0.0727
 6224SOL    HW130308   4.693   3.668   1.105 -0.0809  0.4485  0.0155
 6224SOL    HW230309   4.721   3.732   0.978  0.8221  1.2357 -0.0141
 6225SOL     OW30310   1.624   4.431   7.547 -0.4069  0.2192  0.2718
 6225SOL    HW130311   1.601   4.351   7.500  0.3749  0.0635  0.1536
 6225SOL    HW230312   1.542   4.447   7.594 -1.3559  0.1275 -1.3477
 6226SOL     OW30313   0.755   0.160   8.601 -0.1953  0.0419 -0.1540
 6226SOL    HW130314   0.673   0.209   8.598 -0.5273 -0.4118  1.2572
 6226SOL    HW230315   0.795   0.196   8.522  1.2769 -0.4063  0.3932
 6227SOL     OW30316   0.019   4.315  12.468 -0.6722 -0.3401 -0.3793
 6227SOL    HW130317   0.055   4.383  12.412 -1.5341 -1.1231 -1.8935
 6227SOL    HW230318   0.080   4.318  12.542 -1.4734 -2.0178  0.3708
 6228SOL     OW30319   0.975   1.777  17.527  0.6901 -0.2854  0.7809
 6228SOL    HW130320   0.938   1.852  17.479  0.1048 -1.6623 -0.8929
 6228SOL    HW230321   1.013   1.741  17.448  2.7698 -1.1303  2.1688
 6229SOL     OW30322   4.337   1.335  17.607 -0.1228  0.2267  0.0039
 6229SOL    HW130323   4.333   1.406  17.543  0.9830  0.1971 -0.1050
 6229SOL    HW230324   4.411   1.281  17.577 -0.7988 -0.2620 -0.7853
 6230SOL     OW30325   4.247   0.460   3.773  0.6119 -0.5452 -0.8506
 6230SOL    HW130326   4.185   0.403   3.728  0.6583 -0.2633 -1.2709
 6230SOL    HW230327   4.275   0.517   3.701 -0.9361  1.7798  0.4079
 6231SOL     OW30328   0.819   0.581   1.370 -1.0604 -0.4364  0.4395
 6231SOL    HW130329   0.775   0.499   1.347  0.8414 -1.1771 -0.5954
 6231SOL    HW230330   0.886   0.584   1.302 -1.1692 -0.3980  0.3328
 6232SOL     OW30331   0.817   3.606   2.917  0.1455  0.3871  0.2369
 6232SOL    HW130332   0.787   3.675   2.857 -1.4762 -0.2968  0.2659
 6232SOL    HW230333   0.825   3.653   3.000 -2.2954  0.7745  0.2501
 6233SOL     OW30334   2.171   0.350   5.670  0.3175  0.3965 -0.4792
 6233SOL    HW130335   2.203   0.323   5.584  0.2293 -2.1483  0.2781
 6233SOL    HW230336   2.247   0.332   5.724  0.9798 -0.0283 -1.5375
 6234SOL     OW30337   1.409   4.242  16.270  0.1253  0.2866 -0.1621
 6234SOL    HW130338   1.380   4.158  16.234  0.6033  0.8115 -1.7514
 6234SOL    HW230339   1.392   4.215  16.360  1.3467 -3.6435 -1.1151
 6235SOL     OW30340   4.289   0.118   3.613 -0.0682 -0.0829 -0.2731
 6235SOL    HW130341   4.272   0.057   3.541 -1.9857 -1.4669  1.3401
 6235SOL    HW230342   4.254   0.199   3.575  1.5519  0.9573  0.4529
 6236SOL     OW30343   2.284   0.574   2.697 -0.0038  0.4256 -0.0265
 6236SOL    HW130344   2.358   0.534   2.743  0.2596 -0.5142 -1.2857
 6236SOL    HW230345   2.258   0.500   2.642  2.3440 -0.9706  0.7635
 6237SOL     OW30346   0.864   3.364  14.140  0.2787  0.3884 -0.5229
 6237SOL    HW130347   0.786   3.360  14.085 -0.3274  0.2567  0.3546
 6237SOL    HW230348   0.847   3.435  14.202 -1.4532  0.6299 -1.2937
 6238SOL     OW30349   0.240   2.084   5.974  0.0993  0.4436  0.0484
 6238SOL    HW130350   0.321   2.081   6.026 -0.6927  0.1702  1.2667
 6238SOL    HW230351   0.251   2.135   5.894 -0.8951  0.4709 -0.0653
 6239SOL     OW30352   1.037   1.498  13.918  0.4506  0.0194 -0.0988
 6239SOL    HW130353   0.998   1.471  14.002 -0.6253  0.8221 -0.3434
 6239SOL    HW230354   1.054   1.590  13.940  0.7868  0.4385 -2.1279
 6240SOL     OW30355   1.971   3.028   5.137  0.5371 -0.6475  0.2036
 6240SOL    HW130356   1.886   2.998   5.107  0.8502 -1.7452  0.4198
 6240SOL    HW230357   1.943   3.119   5.148  2.6590  0.1320 -0.8363
 6241SOL     OW30358   2.569   2.008  14.695 -0.0476 -0.1610  0.6597
 6241SOL    HW130359   2.665   2.008  14.693 -0.0926  0.7250 -1.6280
 6241SOL    HW230360   2.559   2.093  14.738  2.0158  0.0630  0.7348
 6242SOL     OW30361   4.090   0.851   5.820 -0.4742 -0.1540 -0.0914
 6242SOL    HW130362   3.995   0.856   5.809 -0.6080 -2.9335 -0.1963
 6242SOL    HW230363   4.115   0.932   5.863  1.9579 -0.7893 -0.3116
 6243SOL     OW30364   4.612   0.451   3.204 -0.2529 -0.0264 -0.7434
 6243SOL    HW130365   4.653   0.386   3.147 -1.6625  0.2662 -2.0986
 6243SOL    HW230366   4.575   0.506   3.134 -3.1741 -2.0814 -0.8301
 6244SOL     OW30367   1.768   3.376   1.242  1.0590 -0.0861  0.5808
 6244SOL    HW130368   1.726   3.299   1.203 -0.4701  0.0645  1.9090
 6244SOL    HW230369   1.855   3.343   1.263  1.0576  0.4356  1.3953
 6245SOL     OW30370   0.598   1.914   8.549 -0.0602 -0.3003 -0.7076
 6245SOL    HW130371   0.551   1.853   8.494  1.2574 -0.3719 -1.7585
 6245SOL    HW230372   0.562   1.992   8.506 -0.3204  0.4300  0.8176
 6246SOL     OW30373   1.564   4.467  16.237 -0.1686 -0.4237 -0.0920
 6246SOL    HW130374   1.505   4.392  16.228  0.3230 -0.7012 -1.0224
 6246SOL    HW230375   1.582   4.444  16.328 -0.8797  0.8861  0.3891
 6247SOL     OW30376   3.400   2.860   6.247 -0.5887 -0.1724 -0.2892
 6247SOL    HW130377   3.442   2.932   6.294  1.5043 -2.4810  1.3963
 6247SOL    HW230378   3.391   2.793   6.315 -0.0701 -2.7467 -2.7749
 6248SOL     OW30379   1.704   2.677  16.508 -0.3250 -0.2881  0.2113
 6248SOL    HW130380   1.710   2.706  16.599  1.2044 -2.9907  0.9642
 6248SOL    HW230381   1.614   2.646  16.502  0.3282 -1.8637 -1.5287
 6249SOL     OW30382   4.023   0.845   3.055 -0.1532 -0.0658  0.1425
 6249SOL    HW130383   4.101   0.810   3.013  0.0756 -1.9607  2.1275
 6249SOL    HW230384   4.032   0.936   3.027 -0.1527 -0.2057 -0.3073
 6250SOL     OW30385   3.414   1.602   4.751 -0.0935 -0.0054  0.7945
 6250SOL    HW130386   3.479   1.544   4.789  2.6447  1.7936 -1.1987
 6250SOL    HW230387   3.399   1.680   4.804  1.1105  2.5469 -2.5852
 6251SOL     OW30388   1.790   2.378  17.572 -0.1896  0.2131 -0.5256
 6251SOL    HW130389   1.793   2.470  17.596 -0.1699  0.1849 -0.4200
 6251SOL    HW230390   1.792   2.337  17.658  1.8743  1.5289  0.0539
 6252SOL     OW30391   1.246   2.542   5.825 -0.4265 -0.1716 -0.3034
 6252SOL    HW130392   1.208   2.583   5.747 -0.7726  2.6177  1.3124
 6252SOL    HW230393   1.173   2.566   5.881  0.2117 -0.5884  0.7013
 6253SOL     OW30394   1.890   2.756   3.126  0.0403  0.6013  0.3106
 6253SOL    HW130395   1.798   2.755   3.153  1.3318  1.1823  4.8318
 6253SOL    HW230396   1.894   2.685   3.062  1.7175 -0.9593  2.1596
 6254SOL     OW30397   2.414   1.351   3.705 -0.3831  0.3377 -1.0024
 6254SOL    HW130398   2.384   1.330   3.794  3.2246 -2.7725 -0.5628
 6254SOL    HW230399   2.509   1.346   3.704 -0.4961 -1.6811  0.3641
 6255SOL     OW30400   3.311   1.710  17.721  0.4674  0.5136 -0.3480
 6255SOL    HW130401   3.215   1.701  17.721  0.5513 -0.3835 -1.0831
 6255SOL    HW230402   3.324   1.717   0.075 -2.0227  0.2325  0.0325
 6256SOL     OW30403   4.084   1.298   8.054 -0.4865  0.1635  0.0870
 6256SOL    HW130404   4.094   1.393   8.057 -1.7648  0.3456 -1.5205
 6256SOL    HW230405   4.001   1.288   8.008  1.0131 -0.2189 -2.5397
 6257SOL     OW30406   4.406   1.858  10.676 -0.1067 -0.1723 -1.0230
 6257SOL    HW130407   4.423   1.764  10.670 -0.9253 -0.5355  2.3653
 6257SOL    HW230408   4.372   1.861  10.765  1.7185  1.0872 -0.3633
 6258SOL     OW30409   0.261   1.231  13.238  0.5362 -0.4293  0.4126
 6258SOL    HW130410   0.304   1.146  13.245  0.8726 -0.0937  2.6621
 6258SOL    HW230411   0.326   1.286  13.282 -1.5021  3.2001 -1.1264
 6259SOL     OW30412   0.799   1.585   9.542  0.7115 -0.2667 -0.7079
 6259SOL    HW130413   0.871   1.604   9.601 -0.7610  0.0023  0.9824
 6259SOL    HW230414   0.765   1.505   9.582 -0.1350  0.6150  0.3305
 6260SOL     OW30415   4.474   0.351  14.628 -0.8606  0.2561 -0.0577
 6260SOL    HW130416   4.450   0.429  14.677  0.6932  0.6458  0.1023
 6260SOL    HW230417   4.483   0.393  14.543 -0.2353 -0.6485 -0.4513
 6261SOL     OW30418   1.175   3.021   8.854  0.4139 -0.1200 -0.7210
 6261SOL    HW130419   1.212   2.935   8.837 -2.4362 -1.1354 -1.6880
 6261SOL    HW230420   1.123   2.996   8.931 -0.8574  0.8367 -1.2827
 6262SOL     OW30421   1.070   2.639   5.622  0.1840  0.7412 -0.3717
 6262SOL    HW130422   1.006   2.598   5.680 -1.1744  1.7873 -1.1189
 6262SOL    HW230423   1.060   2.572   5.554 -1.2939  1.1869 -0.5792
 6263SOL     OW30424   1.395   1.974   0.696 -0.2457 -0.0055 -0.0156
 6263SOL    HW130425   1.351   1.907   0.750  2.2210 -0.9901  0.7594
 6263SOL    HW230426   1.439   2.027   0.763  0.5309  0.3620 -0.8213
 6264SOL     OW30427   2.374   3.297   4.792  0.3210  0.2469 -0.2641
 6264SOL    HW130428   2.306   3.362   4.778  0.4018  0.9237  2.5140
 6264SOL    HW230429   2.364   3.282   4.886 -1.9279  0.1213 -0.5412
 6265SOL     OW30430   4.360   4.248   5.013 -0.2706  0.8504  0.1864
 6265SOL    HW130431   4.449   4.213   5.023 -0.4166  0.6305  0.6766
 6265SOL    HW230432   4.367   4.340   5.039 -1.3034  0.7168  0.9233
 6266SOL     OW30433   1.738   4.415  14.722  0.1579 -0.0268  0.6908
 6266SOL    HW130434   1.650   4.428  14.687  0.3962 -1.2324 -0.3477
 6266SOL    HW230435   1.790   4.474  14.668  0.5477 -0.7409  0.2773
 6267SOL     OW30436   4.176   0.166   6.450 -0.2494  0.2172 -0.0072
 6267SOL    HW130437   4.121   0.240   6.426 -0.3635  0.3113  0.5449
 6267SOL    HW230438   4.223   0.203   6.525  0.3562  0.7897 -0.6765
 6268SOL     OW30439   3.550   2.250   2.843 -0.2438  0.0526  0.0648
 6268SOL    HW130440   3.516   2.313   2.780 -0.5428  0.5380  0.7103
 6268SOL    HW230441   3.491   2.176   2.824  0.0165 -0.1357 -0.0102
 6269SOL     OW30442   3.326   3.022   0.087 -0.2815  0.1531 -0.5348
 6269SOL    HW130443   3.408   3.032   0.038  0.5305 -0.1980  0.7741
 6269SOL    HW230444   3.332   3.104   0.136  0.0411 -0.1909 -0.0078
 6270SOL     OW30445   1.136   3.900   8.404 -0.2090 -0.2510  0.1120
 6270SOL    HW130446   1.216   3.942   8.373  0.4654 -1.5280  0.1077
 6270SOL    HW230447   1.138   3.806   8.383  0.5416 -0.4681  1.1530
 6271SOL     OW30448   3.807   3.898   3.398  0.0854 -0.1619  0.1986
 6271SOL    HW130449   3.892   3.863   3.423 -0.6167 -2.3507 -0.4737
 6271SOL    HW230450   3.814   3.903   3.302  2.9287  2.1105  0.5474
 6272SOL     OW30451   1.037   3.499   4.377 -0.4162 -1.1601 -0.3279
 6272SOL    HW130452   1.132   3.502   4.370 -0.6056 -0.9053 -2.8433
 6272SOL    HW230453   1.027   3.414   4.419 -0.2104 -0.5247  1.0164
 6273SOL     OW30454   3.660   3.150   2.174  0.4755 -0.2439 -0.0415
 6273SOL    HW130455   3.726   3.130   2.108  0.4184 -3.8705  0.9613
 6273SOL    HW230456   3.600   3.213   2.133  1.4445 -0.2809 -1.5152
 6274SOL     OW30457   0.380   2.012   5.177  0.3006  0.4744 -0.1939
 6274SOL    HW130458   0.342   2.098   5.193  0.2572  0.7621 -1.8632
 6274SOL    HW230459   0.405   1.995   5.268 -2.3188  0.0583  0.4442
 6275SOL     OW30460   2.693   0.460   3.625 -0.1764  0.1118 -0.2764
 6275SOL    HW130461   2.697   0.433   3.533  0.5062 -0.8635  0.0283
 6275SOL    HW230462   2.608   0.423   3.646 -0.6568  0.6398 -1.2810
 6276SOL     OW30463   2.072   2.194   6.024  0.2506 -0.4856 -0.1380
 6276SOL    HW130464   2.031   2.118   6.065 -0.5988  1.0591  1.8656
 6276SOL    HW230465   1.999   2.257   6.025 -0.0229 -0.7712 -1.5742
 6277SOL     OW30466   3.612   2.536   7.984  0.2849 -0.2709 -0.0731
 6277SOL    HW130467   3.523   2.570   7.988  0.3657 -0.2488  1.6142
 6277SOL    HW230468   3.602   2.441   7.976 -0.5673 -0.2090  0.2892
 6278SOL     OW30469   0.650   2.456  11.003  0.3813 -0.2305 -0.3679
 6278SOL    HW130470   0.663   2.543  11.040  2.2549 -0.8274  0.3735
 6278SOL    HW230471   0.602   2.475  10.922 -0.1314  0.8942  0.1988
 6279SOL     OW30472   0.268   0.228   2.022  0.3415 -0.0495 -0.0190
 6279SOL    HW130473   0.261   0.308   1.970  2.3005 -0.3895 -0.8011
 6279SOL    HW230474   0.263   0.157   1.959 -1.0824  0.6205 -0.6613
 6280SOL     OW30475   1.578   3.845  16.869 -0.3513  0.5717  0.3359
 6280SOL    HW130476   1.613   3.859  16.957  1.2816  0.3288 -0.2710
 6280SOL    HW230477   1.536   3.929  16.852 -2.0398 -0.4348 -0.4737
 6281SOL     OW30478   3.233   4.582   8.596  0.4654  0.3325 -0.3068
 6281SOL    HW130479   3.177   4.651   8.560  1.3750  1.1854 -0.0668
 6281SOL    HW230480   3.207   4.573   8.688 -0.1569  0.5470 -0.4553
 6282SOL     OW30481   3.070   1.854   2.458  0.6017 -0.4761 -0.4412
 6282SOL    HW130482   3.116   1.792   2.516  0.1013 -0.6988 -0.2864
 6282SOL    HW230483   3.127   1.841   2.382  1.3633  1.8887 -0.2508
 6283SOL     OW30484   1.740   3.038   2.159 -0.6801 -0.0294  0.2153
 6283SOL    HW130485   1.728   2.986   2.080 -0.6806 -0.2237  0.3442
 6283SOL    HW230486   1.821   3.084   2.138 -2.6946  2.6741 -1.7788
 6284SOL     OW30487   0.035   3.643  12.109  0.0874 -0.2796 -0.7370
 6284SOL    HW130488   0.068   3.583  12.042 -1.6469 -1.0424 -0.9175
 6284SOL    HW230489   4.676   3.654  12.096  0.3140 -0.1703 -2.3773
 6285SOL     OW30490   3.964   0.297   1.295  0.1395 -0.7891 -0.2431
 6285SOL    HW130491   3.924   0.292   1.381 -2.8902  0.5764 -1.5647
 6285SOL    HW230492   4.026   0.369   1.309  1.3276 -1.9993  0.6808
 6286SOL     OW30493   1.219   3.889   6.942  0.4348 -0.3801 -0.2053
 6286SOL    HW130494   1.144   3.897   6.883  0.2529  0.1358  0.1019
 6286SOL    HW230495   1.211   3.978   6.975  0.8448 -0.4943  0.1988
 6287SOL     OW30496   1.039   1.958   3.948  0.4022 -0.2809  0.4525
 6287SOL    HW130497   1.124   1.938   3.909 -0.4065  0.3894 -1.6240
 6287SOL    HW230498   1.061   1.960   4.042  0.5937  0.2400  0.3965
 6288SOL     OW30499   1.343   4.224   5.217  0.2467  0.3102  0.1133
 6288SOL    HW130500   1.426   4.177   5.208 -1.1877 -1.9914 -0.8595
 6288SOL    HW230501   1.281   4.154   5.237  0.3479 -0.4883 -2.4255
 6289SOL     OW30502   2.913   0.641   8.594  0.0141 -0.4708 -0.0328
 6289SOL    HW130503   2.953   0.615   8.511 -2.3149 -0.3582 -1.1888
 6289SOL    HW230504   2.980   0.690   8.641 -0.4641 -0.3519  0.5302
 6290SOL     OW30505   0.090   0.425   1.688  0.7703 -0.1470 -0.2302
 6290SOL    HW130506   0.168   0.443   1.742  0.9421  1.5433 -1.0471
 6290SOL    HW230507   0.038   0.489   1.735  0.2634 -0.2801 -0.6128
 6291SOL     OW30508   0.847   3.276  12.598  0.2669 -0.4962  0.0214
 6291SOL    HW130509   0.932   3.259  12.639 -0.4707 -1.4994  1.1380
 6291SOL    HW230510   0.806   3.321  12.672 -0.9461 -2.3009  0.4500
 6292SOL     OW30511   4.407   4.490   5.140  0.0689  0.1258 -0.1296
 6292SOL    HW130512   4.474   4.543   5.096  1.1594 -0.4780  0.8176
 6292SOL    HW230513   4.380   4.541   5.217  1.4054  0.3670  0.1709
 6293SOL     OW30514   2.265   1.895   7.114 -0.5270  0.2348  0.5533
 6293SOL    HW130515   2.333   1.850   7.164 -0.2325  0.5738  0.4530
 6293SOL    HW230516   2.266   1.865   7.023  0.2741  1.1677  0.2648
 6294SOL     OW30517   0.574   2.928   8.213 -0.4573  0.5998  0.2366
 6294SOL    HW130518   0.630   2.906   8.287 -1.6305  0.2336  1.0172
 6294SOL    HW230519   0.498   2.975   8.246 -0.1880 -0.0454  1.7711
 6295SOL     OW30520   0.757   3.314   2.894 -0.5173 -0.9010 -0.1058
 6295SOL    HW130521   0.754   3.408   2.914 -2.8612 -1.2621  1.2336
 6295SOL    HW230522   0.771   3.275   2.980  1.8114 -0.1511 -0.1325
 6296SOL     OW30523   2.258   0.243   7.706  0.1110 -0.6229  0.3923
 6296SOL    HW130524   2.326   0.178   7.726  1.5149  0.6547 -0.2434
 6296SOL    HW230525   2.311   0.321   7.719 -1.0118  0.2688 -0.3703
 6297SOL     OW30526   2.557   3.942   3.632  0.4865  0.2534 -0.0083
 6297SOL    HW130527   2.597   3.957   3.718 -0.3471  2.2094  0.0426
 6297SOL    HW230528   2.631   3.901   3.589  1.4916 -0.2297  2.1959
 6298SOL     OW30529   4.661   0.397   3.943  0.6458  0.2661  0.7508
 6298SOL    HW130530   4.648   0.446   3.861  0.0224 -0.4871  0.3972
 6298SOL    HW230531   4.602   0.439   4.005  0.9930  1.1731  0.4788
 6299SOL     OW30532   1.535   2.963   2.343  0.1924  0.5096  0.4708
 6299SOL    HW130533   1.450   2.976   2.299  1.2704 -0.0764 -1.7611
 6299SOL    HW230534   1.596   2.980   2.271  1.1744 -1.5973  0.8253
 6300SOL     OW30535   1.823   4.419   8.227 -0.5625 -0.6175  0.3822
 6300SOL    HW130536   1.759   4.383   8.288  2.0738 -1.2126  2.7487
 6300SOL    HW230537   1.864   4.487   8.280 -1.9478  3.1818 -3.3471
 6301SOL     OW30538   4.110   3.555   7.866 -0.3957 -0.0114  0.2972
 6301SOL    HW130539   4.075   3.560   7.777 -0.7646  0.2828  0.4557
 6301SOL    HW230540   4.031   3.514   7.900 -0.7336 -0.0064 -0.4772
 6302SOL     OW30541   0.249   3.136   6.010  0.6824  0.5389  0.1804
 6302SOL    HW130542   0.340   3.164   6.024  1.3241 -1.4156 -0.1765
 6302SOL    HW230543   0.239   3.160   5.917  2.8139 -0.0908 -0.2141
 6303SOL     OW30544   1.290   3.925  14.354  0.1825 -0.1796 -0.0837
 6303SOL    HW130545   1.236   3.993  14.396  1.0826  0.9168 -0.7093
 6303SOL    HW230546   1.380   3.955  14.361  0.8517 -2.3371  0.6071
 6304SOL     OW30547   1.866   2.379  10.441 -0.6806  0.1212 -0.2767
 6304SOL    HW130548   1.884   2.470  10.467  0.6817 -0.9278  2.4744
 6304SOL    HW230549   1.771   2.387  10.444 -0.7929 -1.4275 -0.0923
 6305SOL     OW30550   0.183   0.990   3.781  0.5075  0.7015  0.1268
 6305SOL    HW130551   0.253   1.054   3.766 -0.6331  1.7366 -0.7835
 6305SOL    HW230552   0.206   0.920   3.720 -1.1205  0.2587  0.0173
 6306SOL     OW30553   1.057   2.187   5.696  0.4540 -0.5926  0.5430
 6306SOL    HW130554   1.037   2.228   5.780  0.0682  0.0598  0.1319
 6306SOL    HW230555   0.972   2.170   5.654 -0.0616  0.2464  1.2642
 6307SOL     OW30556   2.855   4.655   9.192 -0.0443 -0.1130  0.3665
 6307SOL    HW130557   2.924   4.712   9.224  0.4124  0.0649 -0.9498
 6307SOL    HW230558   2.785   4.718   9.207 -1.9350 -1.7623 -1.4252
 6308SOL     OW30559   0.318   4.055   4.989 -0.2990 -0.3375  0.4043
 6308SOL    HW130560   0.359   4.132   4.949  1.0140 -0.8332  0.8286
 6308SOL    HW230561   0.237   4.098   5.019 -0.9210 -0.9526 -0.3662
 6309SOL     OW30562   0.032   4.515  14.970  0.3253  0.2696 -0.1823
 6309SOL    HW130563   0.008   4.423  14.980  1.3387  0.0482  0.1616
 6309SOL    HW230564   4.711   4.560  15.033  0.3816  0.0791  0.0008
 6310SOL     OW30565   1.341   2.585  12.225 -0.0856  0.4879 -0.4132
 6310SOL    HW130566   1.336   2.670  12.269 -2.5065 -0.9106  1.9952
 6310SOL    HW230567   1.313   2.604  12.135  0.5160 -2.0527 -1.1590
 6311SOL     OW30568   2.231   0.554   0.928  0.2395 -0.0485 -0.3060
 6311SOL    HW130569   2.226   0.644   0.895 -0.9110  0.3752  1.0443
 6311SOL    HW230570   2.304   0.575   0.987 -0.5085  3.0965 -0.5523
 6312SOL     OW30571   3.525   3.861   9.262  0.5453 -0.2478 -0.2099
 6312SOL    HW130572   3.462   3.816   9.318  0.5385 -2.2637 -1.8522
 6312SOL    HW230573   3.528   3.952   9.290  1.4469 -0.7504  1.3414
 6313SOL     OW30574   4.633   2.367   6.517  0.1354  0.4120 -0.3870
 6313SOL    HW130575   4.545   2.395   6.492  0.4521  1.9808  0.2748
 6313SOL    HW230576   4.615   2.374   6.611  1.9562 -0.3697  0.0130
 6314SOL     OW30577   3.663   2.908  14.268  0.1082 -0.0560 -0.2600
 6314SOL    HW130578   3.712   2.826  14.258 -1.7048 -1.1105 -0.5529
 6314SOL    HW230579   3.724   2.981  14.277  2.3350 -1.9712  0.1413
 6315SOL     OW30580   3.249   0.673  16.352  0.1890  0.5420  0.1690
 6315SOL    HW130581   3.335   0.643  16.383  0.9258  0.6617 -1.7348
 6315SOL    HW230582   3.245   0.625  16.269 -0.8095  1.8643 -0.5376
 6316SOL     OW30583   0.471   3.580   7.436  0.5012  0.8050  0.5406
 6316SOL    HW130584   0.564   3.559   7.443  0.9266  1.5435 -2.6020
 6316SOL    HW230585   0.458   3.611   7.526  1.0514  0.5982  0.6904
 6317SOL     OW30586   0.188   3.555   8.734  0.2878  0.2030  0.0036
 6317SOL    HW130587   0.167   3.540   8.642 -0.5666 -0.2905  0.2864
 6317SOL    HW230588   0.142   3.638   8.750 -0.2269 -0.2072  0.6149
 6318SOL     OW30589   1.854   3.537   5.736 -0.0009 -0.2972  0.4813
 6318SOL    HW130590   1.841   3.626   5.705 -3.5963 -1.7059 -2.0804
 6318SOL    HW230591   1.805   3.544   5.818  3.0511  0.0550  2.2448
 6319SOL     OW30592   3.764   2.882  10.825  0.4734 -0.6314  0.8841
 6319SOL    HW130593   3.815   2.949  10.872 -0.9709  1.3035 -0.3070
 6319SOL    HW230594   3.672   2.907  10.832  0.6736 -0.0844  1.5447
 6320SOL     OW30595   3.747   4.637   9.256  0.0514  0.3457 -0.2991
 6320SOL    HW130596   3.779   4.719   9.219  1.4361 -0.0640  0.0176
 6320SOL    HW230597   3.702   4.599   9.180 -1.8646  1.4092  0.3086
 6321SOL     OW30598   1.484   0.868   6.392  0.6134 -0.1555 -0.0948
 6321SOL    HW130599   1.559   0.885   6.336  1.0041  1.2106  0.8517
 6321SOL    HW230600   1.414   0.833   6.336  0.7886  0.8955 -0.9685
 6322SOL     OW30601   3.703   4.501   3.682 -0.5635  0.1090 -0.1000
 6322SOL    HW130602   3.700   4.450   3.601  2.1746 -0.3739  0.1233
 6322SOL    HW230603   3.619   4.472   3.719 -1.7937  0.3622 -2.6605
 6323SOL     OW30604   2.404   3.768   6.886 -0.2798  0.0382  0.2154
 6323SOL    HW130605   2.496   3.774   6.864 -0.0352 -1.4311  0.8576
 6323SOL    HW230606   2.360   3.828   6.825  3.1127  2.3009  0.0020
 6324SOL     OW30607   2.216   3.294  12.631 -0.0974 -1.1251 -0.1653
 6324SOL    HW130608   2.228   3.366  12.693 -1.2252 -0.6736 -0.4794
 6324SOL    HW230609   2.304   3.259  12.622  0.9116  1.6073 -0.7749
 6325SOL     OW30610   0.438   1.608   8.650  0.1265  0.0710  0.5697
 6325SOL    HW130611   0.532   1.603   8.635  0.5246  1.0759  2.7245
 6325SOL    HW230612   0.407   1.527   8.609 -1.7806  2.0268 -1.8469
 6326SOL     OW30613   0.281   3.887   5.293 -0.4546 -0.4604 -0.2632
 6326SOL    HW130614   0.307   3.969   5.251 -0.1489 -0.6307 -0.4143
 6326SOL    HW230615   0.187   3.894   5.305 -0.4990 -1.3455 -0.0676
 6327SOL     OW30616   1.261   1.189   8.725  0.3989 -0.7311 -0.5433
 6327SOL    HW130617   1.296   1.227   8.806 -1.5231  0.5134 -0.3055
 6327SOL    HW230618   1.168   1.191   8.743  0.8518  2.8461  1.2422
 6328SOL     OW30619   1.275   0.002  14.987 -0.4631 -0.3597  0.1098
 6328SOL    HW130620   1.270   4.642  14.982  2.4854 -0.6953  2.9090
 6328SOL    HW230621   1.290   0.012  15.081  1.0918  1.5253 -0.3504
 6329SOL     OW30622   1.430   3.549   5.708  0.4312  0.2454  0.4040
 6329SOL    HW130623   1.496   3.594   5.762  1.6854  1.0013 -1.7322
 6329SOL    HW230624   1.456   3.597   5.629 -1.0687  1.7868  0.8385
 6330SOL     OW30625   0.163   3.999   7.713 -0.5397 -0.1127  0.2256
 6330SOL    HW130626   0.250   4.013   7.676 -0.7999 -0.1514 -0.3953
 6330SOL    HW230627   0.128   3.930   7.657 -0.5872  0.1333 -0.0486
 6331SOL     OW30628   4.375   3.493   2.199  0.1151  0.3587 -0.3980
 6331SOL    HW130629   4.317   3.455   2.133 -1.7410  0.9831  0.8726
 6331SOL    HW230630   4.438   3.422   2.209 -0.5922 -0.3515 -1.0012
 6332SOL     OW30631   4.144   1.401   5.405  0.6668  0.6880  0.0119
 6332SOL    HW130632   4.125   1.492   5.430  2.7418  1.2547 -0.4574
 6332SOL    HW230633   4.093   1.392   5.324 -1.0784 -2.6011  1.5126
 6333SOL     OW30634   3.393   1.245   5.718 -0.3498  0.1096 -0.0748
 6333SOL    HW130635   3.395   1.336   5.689  1.3359 -0.1302 -0.6705
 6333SOL    HW230636   3.442   1.253   5.800 -0.5286  0.9756 -0.0555
 6334SOL     OW30637   2.385   2.241   9.433 -0.2115  0.0985  0.0371
 6334SOL    HW130638   2.391   2.310   9.499 -1.7539  0.3740 -0.1113
 6334SOL    HW230639   2.357   2.171   9.492  0.2781 -0.5271 -0.4810
 6335SOL     OW30640   2.679   1.896   3.731 -0.9467  0.0740  0.0897
 6335SOL    HW130641   2.747   1.872   3.668 -0.6646 -2.1917  1.2881
 6335SOL    HW230642   2.644   1.980   3.699 -1.6504 -0.5508 -0.7612
 6336SOL     OW30643   3.799   1.944  12.181 -0.0020  0.2966 -0.2406
 6336SOL    HW130644   3.893   1.937  12.191  0.1201  1.0326 -0.8296
 6336SOL    HW230645   3.795   2.039  12.169  2.7506  0.3164 -0.8927
 6337SOL     OW30646   3.131   3.172   4.085 -0.0429 -0.3002 -0.9260
 6337SOL    HW130647   3.156   3.189   4.176 -0.1225  0.7744 -1.1150
 6337SOL    HW230648   3.047   3.131   4.105 -0.4586  1.8364  1.7934
 6338SOL     OW30649   0.004   1.049  16.196  0.2214 -0.1282 -0.0123
 6338SOL    HW130650   0.027   1.046  16.103  0.9661  0.8438  0.1398
 6338SOL    HW230651   4.734   0.955  16.209 -0.4856  0.0997  1.3302
 6339SOL     OW30652   3.914   1.087   5.870 -0.0905 -0.0999 -0.4641
 6339SOL    HW130653   3.913   1.151   5.799  0.0547 -0.1365 -0.4981
 6339SOL    HW230654   3.888   1.124   5.955 -1.7812 -0.7323 -0.6974
 6340SOL     OW30655   1.308   3.851   9.045 -0.5880 -0.2461 -0.0667
 6340SOL    HW130656   1.227   3.841   8.995 -0.2936  0.5719 -0.7234
 6340SOL    HW230657   1.323   3.763   9.080  2.7840  0.3155 -0.0572
 6341SOL     OW30658   3.919   0.901   8.192 -0.6349 -0.0835 -0.9988
 6341SOL    HW130659   3.976   0.833   8.154  0.5493  0.2990  0.0938
 6341SOL    HW230660   3.982   0.971   8.208 -1.3662  0.0904  1.1054
 6342SOL     OW30661   2.911   0.832   6.012 -0.1050  0.2726  0.0838
 6342SOL    HW130662   2.949   0.920   6.011  2.4492 -0.8361  3.7252
 6342SOL    HW230663   2.935   0.800   5.925 -0.8697  0.4045 -0.1795
 6343SOL     OW30664   3.915   3.044   4.615 -0.7472 -0.0015 -0.3494
 6343SOL    HW130665   3.915   3.032   4.520 -1.0690 -0.4259 -0.2905
 6343SOL    HW230666   3.898   2.954   4.640 -0.3250 -0.6409 -2.3632
 6344SOL     OW30667   0.692   4.398  16.600 -0.2633 -1.1800 -0.1129
 6344SOL    HW130668   0.773   4.353  16.578  0.0893 -0.5921 -0.0207
 6344SOL    HW230669   0.705   4.422  16.692 -0.1389 -2.6084  0.2358
 6345SOL     OW30670   3.015   3.020   4.789 -0.3194  0.3480 -0.1012
 6345SOL    HW130671   3.013   2.951   4.724  4.3899 -0.7992  0.9826
 6345SOL    HW230672   2.944   3.074   4.753 -0.7385  0.2247  0.5404
 6346SOL     OW30673   1.848   4.605   7.620 -0.2784 -0.7673  1.0847
 6346SOL    HW130674   1.794   4.535   7.583 -1.1470 -0.0150  0.9059
 6346SOL    HW230675   1.802   4.683   7.589  0.4458 -0.2657  1.2689
 6347SOL     OW30676   2.122   0.751   2.545 -0.6122 -0.0306 -0.5600
 6347SOL    HW130677   2.141   0.693   2.619 -2.1173 -0.9422 -0.8934
 6347SOL    HW230678   2.148   0.690   2.475 -1.4449 -2.0522  0.8862
 6348SOL     OW30679   0.465   4.275  17.125  0.2305  0.0059  0.1161
 6348SOL    HW130680   0.484   4.304  17.035 -1.1259  1.8464  0.4346
 6348SOL    HW230681   0.400   4.208  17.102 -1.3876  1.2848  0.9681
 6349SOL     OW30682   2.020   3.968   5.428  0.1687 -0.2562  0.3999
 6349SOL    HW130683   2.039   3.980   5.335  0.4336  2.9792  0.8425
 6349SOL    HW230684   1.995   4.056   5.459  1.0773 -0.4089  1.5777
 6350SOL     OW30685   0.546   0.312  11.203 -0.0048  0.0629 -0.1778
 6350SOL    HW130686   0.507   0.251  11.140 -1.6081 -1.4028  2.2202
 6350SOL    HW230687   0.488   0.316  11.279 -1.1578  0.1821 -1.0546
 6351SOL     OW30688   2.911   1.171  14.779  0.3809  0.2541  0.3186
 6351SOL    HW130689   2.958   1.093  14.749 -2.2478 -1.5232  0.9396
 6351SOL    HW230690   2.955   1.247  14.739 -1.4728  0.8391 -0.6027
 6352SOL     OW30691   2.817   4.258  17.284  0.1328 -0.1341  0.4789
 6352SOL    HW130692   2.905   4.265  17.321  0.4274  4.7930 -1.2130
 6352SOL    HW230693   2.802   4.164  17.300 -2.0182  0.2959  1.0997
 6353SOL     OW30694   3.392   4.372   8.723  0.3188 -0.6070 -0.5071
 6353SOL    HW130695   3.355   4.444   8.672  0.4804  0.1751  0.4856
 6353SOL    HW230696   3.354   4.307   8.665  1.3559 -1.0963 -0.6320
 6354SOL     OW30697   1.283   1.115  17.550 -0.2737  0.1368  0.8608
 6354SOL    HW130698   1.215   1.159  17.500  0.9105 -0.5638 -1.3448
 6354SOL    HW230699   1.224   1.058  17.600  0.3137 -1.2545 -0.0255
 6355SOL     OW30700   1.603   4.507   2.063 -0.4328 -0.3339 -0.2819
 6355SOL    HW130701   1.513   4.503   2.094 -0.0967 -0.8080  0.6534
 6355SOL    HW230702   1.653   4.475   2.138 -0.7610  0.3837  0.2404
 6356SOL     OW30703   4.000   0.369  16.595  0.5163  0.3356 -0.1613
 6356SOL    HW130704   4.056   0.312  16.542  2.3834  1.3979  0.6549
 6356SOL    HW230705   4.043   0.454  16.605  0.2692  0.3926  0.4107
 6357SOL     OW30706   3.332   2.069   2.720 -0.4520  0.3076 -0.1275
 6357SOL    HW130707   3.238   2.072   2.741 -0.0259  0.2020  1.8525
 6357SOL    HW230708   3.338   2.102   2.631 -1.2514  1.0120  0.0768
 6358SOL     OW30709   1.844   4.170   3.105 -0.3717  0.4857 -0.1582
 6358SOL    HW130710   1.808   4.233   3.042  1.3483  0.3407 -1.2849
 6358SOL    HW230711   1.922   4.141   3.057 -2.6187  0.7302 -3.9493
 6359SOL     OW30712   3.878   0.939   2.273  0.2557 -0.5293  0.3991
 6359SOL    HW130713   3.873   0.866   2.336  1.3261 -1.7633 -0.9577
 6359SOL    HW230714   3.877   1.016   2.330  2.0861 -0.5454  0.4796
 6360SOL     OW30715   2.875   3.575  17.740 -0.2065 -0.8182 -0.1521
 6360SOL    HW130716   2.859   3.493  17.694 -0.2006 -0.7043 -0.3602
 6360SOL    HW230717   2.850   3.551   0.088 -0.9800 -1.9315 -0.6720
 6361SOL     OW30718   0.725   3.845  14.311 -0.0625  0.3236  0.6605
 6361SOL    HW130719   0.777   3.855  14.231 -0.9146  1.6852  0.2641
 6361SOL    HW230720   0.636   3.856  14.277 -0.4074 -1.7838  0.8997
 6362SOL     OW30721   2.684   0.532   1.045  0.2994  0.1809 -0.2319
 6362SOL    HW130722   2.708   0.590   1.118 -0.2691 -1.1901  1.0466
 6362SOL    HW230723   2.597   0.507   1.078  1.5165 -1.7867  1.4646
 6363SOL     OW30724   2.584   2.437   7.886  0.2266  0.0683  0.1041
 6363SOL    HW130725   2.644   2.478   7.948 -0.8496  0.1784  1.0912
 6363SOL    HW230726   2.504   2.465   7.931 -0.1487 -0.5022 -0.2171
 6364SOL     OW30727   3.533   3.757  11.241 -0.1915 -0.1592  0.0896
 6364SOL    HW130728   3.607   3.769  11.182 -0.6195 -0.8991 -0.6022
 6364SOL    HW230729   3.461   3.801  11.198  0.5544  0.4349 -0.5512
 6365SOL     OW30730   0.328   0.574  14.698 -0.0841 -0.0658  0.9899
 6365SOL    HW130731   0.274   0.610  14.767 -2.2809 -2.1895  0.3653
 6365SOL    HW230732   0.350   0.652  14.646  1.5136 -0.3665  1.2148
 6366SOL     OW30733   1.270   2.798  12.420 -0.1066  0.6920 -0.2795
 6366SOL    HW130734   1.332   2.865  12.390  2.6636 -1.2330  1.1131
 6366SOL    HW230735   1.198   2.848  12.457 -0.9347 -0.2914 -0.5580
 6367SOL     OW30736   3.476   1.870   3.164  0.5712 -0.2092 -0.0527
 6367SOL    HW130737   3.419   1.865   3.088  2.3061  0.3971 -1.3845
 6367SOL    HW230738   3.436   1.801   3.217  0.2740 -0.9098 -1.1885
 6368SOL     OW30739   4.231   0.020   9.246  0.1396 -0.2923 -0.1484
 6368SOL    HW130740   4.283   0.022   9.326  3.0743 -1.9223 -2.0244
 6368SOL    HW230741   4.168   4.688   9.273 -1.6465  0.7592 -1.6286
 6369SOL     OW30742   3.054   4.700   5.682 -0.1138 -0.4444  0.4871
 6369SOL    HW130743   3.049   4.623   5.738  0.7366 -1.0840 -0.3287
 6369SOL    HW230744   3.039   0.029   5.751  2.4371  0.9287 -0.2384
 6370SOL     OW30745   2.664   4.639   7.409  0.1744  0.3667 -0.7575
 6370SOL    HW130746   2.569   4.639   7.424  0.2519 -0.3134 -0.2519
 6370SOL    HW230747   2.653   4.636   7.314  0.8745 -1.2339 -0.7857
 6371SOL     OW30748   2.319   3.472   3.528  0.0396  0.0615 -0.8020
 6371SOL    HW130749   2.326   3.406   3.596  1.4259  1.7586  0.6836
 6371SOL    HW230750   2.411   3.498   3.529  0.7461 -2.5324  1.7156
 6372SOL     OW30751   3.098   3.748   4.353 -0.5278  0.5137  0.4857
 6372SOL    HW130752   3.117   3.840   4.333 -0.9189  0.0988 -1.7604
 6372SOL    HW230753   3.147   3.698   4.288 -2.7527  0.8222 -1.4243
 6373SOL     OW30754   1.429   2.111  14.248 -0.0315  0.6482  0.3817
 6373SOL    HW130755   1.500   2.125  14.186 -1.0024  0.0405 -0.8546
 6373SOL    HW230756   1.354   2.138  14.194 -0.8101 -0.4926  0.8880
 6374SOL     OW30757   4.283   0.455  17.332 -0.2606  0.3748 -0.0553
 6374SOL    HW130758   4.300   0.413  17.247 -3.0009  0.1547 -0.5027
 6374SOL    HW230759   4.293   0.385  17.396  3.1312  0.1366 -0.8380
 6375SOL     OW30760   1.497   4.043  11.276  0.2481  0.2154 -0.0187
 6375SOL    HW130761   1.505   3.996  11.193  0.6632  0.2414  0.0088
 6375SOL    HW230762   1.576   4.097  11.272 -0.4309  1.2101  0.1087
 6376SOL     OW30763   1.640   3.361   2.739  0.2914  0.1415  0.1793
 6376SOL    HW130764   1.581   3.296   2.700 -2.5378  3.3439 -0.7905
 6376SOL    HW230765   1.665   3.302   2.811 -1.9894 -0.1332  0.7420
 6377SOL     OW30766   0.969   0.358   6.687 -0.3298 -0.5158 -0.7474
 6377SOL    HW130767   1.044   0.319   6.732 -1.4611  1.1809  2.6048
 6377SOL    HW230768   0.893   0.357   6.747 -1.5734 -3.2713 -2.3563
 6378SOL     OW30769   0.738   0.847   7.852 -0.6489  0.2081  0.6688
 6378SOL    HW130770   0.751   0.763   7.895 -1.7962 -0.5500 -0.4724
 6378SOL    HW230771   0.777   0.908   7.915 -0.1806 -0.7613  1.3184
 6379SOL     OW30772   1.798   0.520   8.943  0.7971  0.0207  0.8777
 6379SOL    HW130773   1.885   0.486   8.967  1.1637  0.6068  0.3746
 6379SOL    HW230774   1.791   0.475   8.859 -1.7593  0.7329  0.7153
 6380SOL     OW30775   0.361   2.228   3.337  0.2237 -0.4291 -0.4570
 6380SOL    HW130776   0.318   2.174   3.270  1.4459 -0.3962 -1.2670
 6380SOL    HW230777   0.385   2.165   3.406  1.7910 -0.3015 -0.8841
 6381SOL     OW30778   0.021   0.688   7.343 -0.3664  0.2077 -0.2830
 6381SOL    HW130779   0.065   0.608   7.369 -1.7801 -0.8146 -1.0191
 6381SOL    HW230780   4.690   0.640   7.293 -0.7158  0.2961  0.0925
 6382SOL     OW30781   4.039   0.770   6.652  0.0723 -0.0517 -0.5959
 6382SOL    HW130782   3.971   0.793   6.715  1.1314 -0.8888  0.8537
 6382SOL    HW230783   4.076   0.851   6.616  3.0909 -1.5984 -0.9594
 6383SOL     OW30784   0.474   2.874   5.141 -0.9446  0.0925  0.1733
 6383SOL    HW130785   0.510   2.891   5.228 -2.4555 -0.9873  1.0094
 6383SOL    HW230786   0.531   2.801   5.117  0.4526  1.4346 -0.5836
 6384SOL     OW30787   1.437   2.466  17.622  0.4044  0.0567  0.2918
 6384SOL    HW130788   1.380   2.540  17.604  0.7533 -0.1608 -1.6459
 6384SOL    HW230789   1.381   2.390  17.638 -0.6671  0.3818 -1.9631
 6385SOL     OW30790   2.768   1.828   5.157  0.1703  0.0776  0.0099
 6385SOL    HW130791   2.821   1.808   5.234 -1.0377 -2.7219  0.1278
 6385SOL    HW230792   2.698   1.888   5.185  0.7343  1.0038 -0.5519
 6386SOL     OW30793   1.328   4.682  12.333  0.4170  0.2868 -0.7916
 6386SOL    HW130794   1.270   4.611  12.305  0.0908 -0.1998  1.1137
 6386SOL    HW230795   1.305   4.682  12.426  2.4728  0.9861 -0.3007
 6387SOL     OW30796   1.335   3.248   9.409  0.2088  0.2776  0.0647
 6387SOL    HW130797   1.325   3.162   9.449  1.3979  0.0488 -0.1184
 6387SOL    HW230798   1.364   3.231   9.319  1.4957 -0.1326  0.5515
 6388SOL     OW30799   2.694   4.647   8.622 -0.1281 -0.4882  0.6753
 6388SOL    HW130800   2.693   4.596   8.703 -0.7051  1.0162  1.6114
 6388SOL    HW230801   2.608   4.685   8.639  0.1085 -0.3111  1.4840
 6389SOL     OW30802   1.036   0.392   8.685  0.3742  0.1652  0.3015
 6389SOL    HW130803   1.105   0.392   8.751  0.4093 -1.6091  0.2491
 6389SOL    HW230804   0.967   0.358   8.742  0.6747 -1.2988 -0.2203
 6390SOL     OW30805   2.690   2.423  11.887  0.2069 -0.1090  0.2421
 6390SOL    HW130806   2.730   2.339  11.866  0.4615  0.1076 -0.1501
 6390SOL    HW230807   2.601   2.395  11.863 -0.6832  4.3805 -1.5931
 6391SOL     OW30808   2.077   3.409   0.962 -0.2547  0.6171 -0.1828
 6391SOL    HW130809   1.983   3.427   0.968 -0.1031  1.5661 -0.7453
 6391SOL    HW230810   2.107   3.443   1.046 -0.9074  0.8208 -0.0370
 6392SOL     OW30811   4.063   2.244   3.509 -0.5967  0.3117  0.0632
 6392SOL    HW130812   4.139   2.197   3.475 -0.7266 -0.7847  1.3225
 6392SOL    HW230813   3.993   2.221   3.447  0.5528  0.4790 -1.3121
 6393SOL     OW30814   4.284   3.668   1.143  0.2522  0.2275  0.1252
 6393SOL    HW130815   4.356   3.730   1.148  0.4890  0.0712 -1.4585
 6393SOL    HW230816   4.335   3.594   1.110  0.6145 -0.2573  1.7709
 6394SOL     OW30817   4.203   4.466  12.135 -0.5816  0.3109  0.7085
 6394SOL    HW130818   4.230   4.418  12.057 -0.1907  4.1089 -1.4746
 6394SOL    HW230819   4.210   4.549  12.089 -1.5737 -0.0466 -0.0860
 6395SOL     OW30820   0.135   4.192   4.176 -0.7399  0.1407 -0.4659
 6395SOL    HW130821   0.078   4.179   4.100  0.1301 -0.0634 -1.0802
 6395SOL    HW230822   0.064   4.221   4.233  1.4475  2.2195  1.1932
 6396SOL     OW30823   4.482   1.027   3.537  0.2248 -0.0727  0.1284
 6396SOL    HW130824   4.558   0.979   3.503 -0.5834 -0.7565 -0.7032
 6396SOL    HW230825   4.506   1.043   3.628  1.3624  1.7775 -0.4998
 6397SOL     OW30826   2.469   3.983  16.939  0.7256  0.0174 -0.1038
 6397SOL    HW130827   2.485   3.924  17.013  0.5779  0.4246  0.2527
 6397SOL    HW230828   2.529   3.935  16.882 -0.2038 -0.2907 -0.8031
 6398SOL     OW30829   3.432   1.795   5.864 -0.0275  0.4281  0.3381
 6398SOL    HW130830   3.508   1.780   5.808  0.5375  1.8373  0.7359
 6398SOL    HW230831   3.356   1.787   5.805  0.2775  1.7855 -0.2463
 6399SOL     OW30832   2.475   1.605  15.203  0.5141 -0.1791  0.2878
 6399SOL    HW130833   2.499   1.516  15.230  1.9140 -0.3633 -1.5512
 6399SOL    HW230834   2.381   1.612  15.217  0.0800 -2.0652 -1.6113
 6400SOL     OW30835   0.071   3.356   6.604 -0.0594 -0.3544 -0.2406
 6400SOL    HW130836   0.161   3.323   6.597  0.0893 -0.1524  0.7857
 6400SOL    HW230837   0.093   3.442   6.640  0.1772  0.1696 -1.6585
 6401SOL     OW30838   0.146   3.494   7.582  0.3148  0.3410  0.0039
 6401SOL    HW130839   0.215   3.445   7.537  0.8481 -0.0306  1.2016
 6401SOL    HW230840   0.085   3.427   7.612  0.6864  0.4066  0.9310
 6402SOL     OW30841   1.745   3.784   4.402  0.3779  0.0070 -0.3940
 6402SOL    HW130842   1.754   3.868   4.358  1.8482 -0.4297 -0.9306
 6402SOL    HW230843   1.806   3.732   4.351  2.4204  1.2922  0.7518
 6403SOL     OW30844   0.197   1.444   7.066 -0.3162 -0.3138 -0.2226
 6403SOL    HW130845   0.288   1.472   7.060 -0.2648 -0.0525  1.9612
 6403SOL    HW230846   0.171   1.467   6.977  0.3115 -1.4194 -0.7050
 6404SOL     OW30847   0.639   0.475   4.236 -0.2411  0.6701 -0.5484
 6404SOL    HW130848   0.587   0.424   4.298  0.6784 -0.4644 -0.7142
 6404SOL    HW230849   0.571   0.518   4.184 -1.0815  0.9001  0.7511
 6405SOL     OW30850   1.367   4.206  12.025 -0.4663  0.5252 -0.0365
 6405SOL    HW130851   1.424   4.133  11.999  1.7617  1.1712  3.0602
 6405SOL    HW230852   1.424   4.283  12.032  1.5657 -0.9755 -0.0441
 6406SOL     OW30853   4.416   0.662   7.054  0.2020  0.0485 -0.2728
 6406SOL    HW130854   4.362   0.739   7.075 -1.2588 -1.1783  0.4152
 6406SOL    HW230855   4.457   0.642   7.138  0.3743 -2.0689 -0.8599
 6407SOL     OW30856   1.668   3.723   8.609 -0.3191  0.3465 -0.0264
 6407SOL    HW130857   1.728   3.761   8.545  2.7147 -1.7045  1.5809
 6407SOL    HW230858   1.613   3.672   8.549 -0.1391  1.2968 -1.0034
 6408SOL     OW30859   3.850   1.213   6.197  0.2173 -0.1456 -0.6084
 6408SOL    HW130860   3.897   1.287   6.235 -0.9214 -0.0178  0.5276
 6408SOL    HW230861   3.772   1.260   6.168  0.3058  0.1210 -0.4085
 6409SOL     OW30862   3.570   3.246   0.289 -0.7946 -0.3452  0.4485
 6409SOL    HW130863   3.624   3.226   0.212 -0.1788 -0.5775  0.9395
 6409SOL    HW230864   3.637   3.260   0.356 -0.7412 -0.4985  0.4266
 6410SOL     OW30865   0.803   2.635   8.317 -0.3352  0.0912 -0.3901
 6410SOL    HW130866   0.855   2.582   8.377  0.3593 -0.8664 -1.8332
 6410SOL    HW230867   0.807   2.567   8.249 -1.8594 -0.2863 -0.1052
 6411SOL     OW30868   1.466   2.984  10.190 -0.0753  0.0477 -0.3458
 6411SOL    HW130869   1.385   3.035  10.190  0.2903  0.6438 -1.3637
 6411SOL    HW230870   1.468   2.935  10.108  0.5769 -0.4573 -0.0340
 6412SOL     OW30871   3.753   2.678   9.216  0.2593 -0.2250  0.0664
 6412SOL    HW130872   3.747   2.765   9.178 -0.8830 -1.4457 -2.5195
 6412SOL    HW230873   3.676   2.667   9.272 -0.0574 -1.2868 -0.5794
 6413SOL     OW30874   0.789   2.199   4.546 -0.5056  0.3078  0.2339
 6413SOL    HW130875   0.758   2.290   4.547  0.7117  0.6977  1.4962
 6413SOL    HW230876   0.708   2.157   4.516  0.4498 -1.5220  0.2338
 6414SOL     OW30877   2.543   3.019  13.465  0.1828  0.0964  0.3074
 6414SOL    HW130878   2.475   3.062  13.414  1.9037  0.3906 -1.7028
 6414SOL    HW230879   2.567   3.090  13.525  1.2037 -1.7370  2.0897
 6415SOL     OW30880   0.260   2.895   4.188 -0.1833  0.7891 -0.3390
 6415SOL    HW130881   0.190   2.915   4.127 -0.3570  0.7257 -0.1600
 6415SOL    HW230882   0.212   2.834   4.244  2.1303  0.3302  1.1768
 6416SOL     OW30883   1.620   0.185   9.065  0.3652 -0.4358  0.1347
 6416SOL    HW130884   1.553   0.166   9.130  2.0182 -1.8627  1.4346
 6416SOL    HW230885   1.701   0.174   9.116  0.5732  0.7435  0.0729
 6417SOL     OW30886   0.368   4.077  15.582  0.0422  1.0220  0.6160
 6417SOL    HW130887   0.321   3.996  15.601 -0.7643  0.9990 -1.5688
 6417SOL    HW230888   0.446   4.050  15.534 -0.2776 -2.7190  2.1954
 6418SOL     OW30889   3.137   4.515   5.877 -0.3316  0.1529  0.1628
 6418SOL    HW130890   3.112   4.425   5.898  2.7865 -0.4075  1.3309
 6418SOL    HW230891   3.111   4.555   5.960  0.1252  0.2551  0.2526
 6419SOL     OW30892   2.600   1.628   7.403  0.8343  0.1621 -0.0401
 6419SOL    HW130893   2.627   1.603   7.315  1.1462 -0.4101  0.2149
 6419SOL    HW230894   2.655   1.577   7.464  1.8185 -1.1830 -2.0534
 6420SOL     OW30895   3.762   1.972   5.990 -0.0381 -0.4825  0.4675
 6420SOL    HW130896   3.685   2.027   5.979  0.1237  0.1593  2.5867
 6420SOL    HW230897   3.803   1.990   5.906  1.5421 -1.8073  0.9659
 6421SOL     OW30898   4.352   4.609  17.620  0.2319  0.0066 -0.2146
 6421SOL    HW130899   4.430   4.594  17.566  0.1233  0.6774 -0.5660
 6421SOL    HW230900   4.307   4.525  17.619  0.4311 -0.0989 -0.1312
 6422SOL     OW30901   2.650   2.784  13.411  0.1202 -0.1296  0.0502
 6422SOL    HW130902   2.633   2.742  13.495  0.9310 -0.6552 -0.0535
 6422SOL    HW230903   2.630   2.877  13.427  1.5573  0.1788  0.0034
 6423SOL     OW30904   3.882   2.493   0.942 -0.5723  0.7530 -0.1044
 6423SOL    HW130905   3.851   2.410   0.905  2.3198  0.4435 -1.8858
 6423SOL    HW230906   3.975   2.478   0.922 -0.0116  1.9867  1.5596
 6424SOL     OW30907   4.043   1.818   8.100 -0.1761  0.3758 -0.1716
 6424SOL    HW130908   3.988   1.890   8.069 -0.8939  0.4415  1.2510
 6424SOL    HW230909   4.026   1.821   8.194  0.8822 -0.8888  0.0554
 6425SOL     OW30910   0.643   0.525  11.080 -0.3073  0.3501 -0.8862
 6425SOL    HW130911   0.619   0.447  11.130  0.8462 -0.3670 -1.4530
 6425SOL    HW230912   0.736   0.522  11.099 -0.1667 -2.2166 -1.9549
 6426SOL     OW30913   3.045   2.751  11.743  0.4300 -0.7028 -0.3310
 6426SOL    HW130914   3.123   2.695  11.746 -1.1649 -2.9900 -2.2675
 6426SOL    HW230915   2.990   2.678  11.770 -1.5089  0.7232 -0.4720
 6427SOL     OW30916   4.059   4.175   6.896 -0.0437 -0.0275 -0.0988
 6427SOL    HW130917   4.043   4.230   6.819  0.9352 -1.3709 -1.2534
 6427SOL    HW230918   3.966   4.174   6.921 -0.1248 -1.0447 -0.4617
 6428SOL     OW30919   3.217   2.906   9.317  0.3021 -0.6643  0.0779
 6428SOL    HW130920   3.196   2.894   9.224  1.9948 -3.6658  0.0924
 6428SOL    HW230921   3.139   2.952   9.348  0.1265 -0.1808 -1.0754
 6429SOL     OW30922   4.593   1.831   8.260 -0.4215  0.4240 -0.1267
 6429SOL    HW130923   4.564   1.775   8.332 -1.2089  1.3574  0.2860
 6429SOL    HW230924   4.610   1.912   8.309  0.5091  0.4609 -0.5094
 6430SOL     OW30925   1.038   2.733   3.791 -0.0599  0.1785 -0.2925
 6430SOL    HW130926   0.957   2.759   3.748 -0.2292 -1.4128 -0.9229
 6430SOL    HW230927   1.065   2.682   3.714  1.4850  0.1381  0.2775
 6431SOL     OW30928   2.845   1.508  12.438  0.0800  0.1684  0.0642
 6431SOL    HW130929   2.801   1.584  12.400  0.8761 -0.2646 -1.7080
 6431SOL    HW230930   2.768   1.452  12.434  0.8138 -0.7591 -1.1168
 6432SOL     OW30931   2.016   2.605   6.206  0.6168  0.3544  0.5048
 6432SOL    HW130932   2.035   2.579   6.296  0.3259 -1.3203  0.0820
 6432SOL    HW230933   2.080   2.563   6.149 -2.2267 -0.4464 -2.1317
 6433SOL     OW30934   1.346   3.670   4.821  0.2504  0.0300 -0.0771
 6433SOL    HW130935   1.322   3.740   4.760 -0.9084 -0.5466 -0.2808
 6433SOL    HW230936   1.380   3.723   4.893 -0.0371  0.1866 -0.0612
 6434SOL     OW30937   3.403   2.283   6.397 -0.4343 -0.3219 -0.4873
 6434SOL    HW130938   3.414   2.240   6.482 -0.4734  1.1007  0.2326
 6434SOL    HW230939   3.438   2.215   6.340 -2.6370 -0.0681 -2.1483
 6435SOL     OW30940   2.198   1.867   4.229  0.7578 -0.2489 -0.2948
 6435SOL    HW130941   2.177   1.788   4.279 -0.6271 -0.5911 -1.4290
 6435SOL    HW230942   2.289   1.890   4.246  1.2038 -1.0855 -1.4569
 6436SOL     OW30943   3.796   3.598   6.805 -0.4627 -0.2656 -0.1815
 6436SOL    HW130944   3.745   3.583   6.885  0.0825  0.3829  0.2876
 6436SOL    HW230945   3.808   3.512   6.764  0.5572 -0.4823  0.5671
 6437SOL     OW30946   4.574   4.560   8.256 -0.6578 -0.0308 -0.0287
 6437SOL    HW130947   4.595   4.476   8.216 -2.1396  0.8279 -2.6239
 6437SOL    HW230948   4.487   4.580   8.222 -2.1618 -3.0718  2.0345
 6438SOL     OW30949   4.107   0.241   7.446 -0.4796  0.1499 -0.1729
 6438SOL    HW130950   4.105   0.304   7.373 -0.4525  0.1425 -0.1800
 6438SOL    HW230951   4.174   0.285   7.499 -2.4066  1.7083  0.9669
 6439SOL     OW30952   2.247   4.102  11.448 -0.2591  0.3080  0.1449
 6439SOL    HW130953   2.309   4.154  11.397 -1.0228 -0.9519 -2.0549
 6439SOL    HW230954   2.251   4.016  11.406 -1.2701 -0.1107  0.8781
 6440SOL     OW30955   0.790   3.336   8.655  0.3142  0.7149 -0.1491
 6440SOL    HW130956   0.840   3.254   8.656 -0.7435  0.0469 -2.6091
 6440SOL    HW230957   0.826   3.373   8.574  1.7060 -0.4311 -0.0448
 6441SOL     OW30958   1.874   2.263   5.726  0.4409 -0.0934  0.5620
 6441SOL    HW130959   1.885   2.351   5.691  0.4293 -0.4370 -0.3082
 6441SOL    HW230960   1.967   2.242   5.736  0.1358 -0.7005  2.0743
 6442SOL     OW30961   4.671   4.128   1.191 -0.0029 -0.5319 -0.3935
 6442SOL    HW130962   0.011   4.169   1.235 -1.1798  2.4525 -1.1605
 6442SOL    HW230963   4.714   4.108   1.107 -0.2622 -0.5395 -0.5227
 6443SOL     OW30964   2.761   2.111  11.845  0.2954 -0.2207 -0.4275
 6443SOL    HW130965   2.701   2.076  11.910  0.4697 -1.1953 -0.8001
 6443SOL    HW230966   2.825   2.042  11.835  0.0206 -0.3028 -1.5903
 6444SOL     OW30967   0.382   3.865   0.964 -0.2578 -0.0741  0.6377
 6444SOL    HW130968   0.366   3.924   0.891  0.0556 -0.3892  0.3098
 6444SOL    HW230969   0.319   3.888   1.032 -1.6756 -0.0774 -0.6809
 6445SOL     OW30970   1.852   3.822   4.852 -0.0856  0.2282  0.4987
 6445SOL    HW130971   1.794   3.833   4.778  2.3568  0.9492 -1.3222
 6445SOL    HW230972   1.896   3.907   4.856  1.8645 -0.7508 -0.0560
 6446SOL     OW30973   2.404   3.331   3.040  0.2792 -0.5497  0.0348
 6446SOL    HW130974   2.352   3.334   3.121 -0.4525  0.3102 -0.4693
 6446SOL    HW230975   2.482   3.292   3.080  0.6117  0.1986  0.1226
 6447SOL     OW30976   0.663   4.171  13.769 -0.1010 -0.3252  0.4588
 6447SOL    HW130977   0.688   4.188  13.678 -0.7179 -1.6331  0.0464
 6447SOL    HW230978   0.591   4.111  13.749 -1.4425  1.0750  1.1202
 6448SOL     OW30979   1.966   1.664  13.216  0.2488 -0.2408 -0.2927
 6448SOL    HW130980   1.912   1.604  13.267  0.5493 -0.0440  0.2495
 6448SOL    HW230981   1.919   1.747  13.218 -0.3804 -0.6291  0.9212
 6449SOL     OW30982   3.156   3.202   8.886  0.1088 -0.1032 -0.0010
 6449SOL    HW130983   3.156   3.175   8.794 -1.1677 -1.4326  0.3827
 6449SOL    HW230984   3.120   3.121   8.924  1.7105 -1.1200 -0.6883
 6450SOL     OW30985   1.033   2.908   9.087  0.7166 -0.3343 -0.4544
 6450SOL    HW130986   1.011   2.868   9.171 -2.8454 -0.2522 -1.3388
 6450SOL    HW230987   0.960   2.881   9.032  0.7328  0.9346 -1.0933
 6451SOL     OW30988   1.275   0.907   3.915 -0.0418  0.3985  0.5460
 6451SOL    HW130989   1.199   0.917   3.973 -1.3538 -0.6468 -0.9886
 6451SOL    HW230990   1.288   0.813   3.900 -0.4438 -0.0144  2.8091
 6452SOL     OW30991   3.461   1.433   8.069 -0.2473 -0.1096  0.0603
 6452SOL    HW130992   3.477   1.357   8.126  2.0621 -1.1016 -1.8835
 6452SOL    HW230993   3.462   1.497   8.140  0.1330 -0.8139  0.6974
 6453SOL     OW30994   0.996   2.927   5.777 -0.3812  1.2669 -0.4731
 6453SOL    HW130995   1.002   3.020   5.754  0.4471  0.9534 -1.5452
 6453SOL    HW230996   1.085   2.895   5.760 -1.4183 -0.6198 -2.3757
 6454SOL     OW30997   3.592   2.334   1.094  0.1358 -0.3853 -0.3448
 6454SOL    HW130998   3.592   2.424   1.128 -1.9262 -0.6660  0.3754
 6454SOL    HW230999   3.638   2.355   1.013  0.7903  0.4315  0.2344
 6455SOL     OW31000   2.980   3.222   3.377 -0.1395 -0.2577  0.0740
 6455SOL    HW131001   3.049   3.155   3.385 -1.1660 -1.4487 -1.1729
 6455SOL    HW231002   2.936   3.203   3.460  1.5842  1.6248  1.4164
 6456SOL     OW31003   3.740   3.633   0.958  0.0203  0.6095 -0.1678
 6456SOL    HW131004   3.654   3.659   0.925 -1.5968 -1.4976  2.4569
 6456SOL    HW231005   3.784   3.668   0.880  0.6614 -1.5360 -0.7470
 6457SOL     OW31006   3.903   2.800   8.135  0.2177 -0.0378 -0.2525
 6457SOL    HW131007   3.878   2.772   8.047 -1.7677 -0.6503  0.5179
 6457SOL    HW231008   3.948   2.722   8.168 -1.4868 -0.5730  0.7508
 6458SOL     OW31009   2.734   4.440   4.917  0.3793  0.3674  0.1994
 6458SOL    HW131010   2.641   4.455   4.935 -0.3380 -1.1994 -2.1321
 6458SOL    HW231011   2.752   4.501   4.846 -1.5506 -1.2572 -1.7215
 6459SOL     OW31012   1.217   3.185  15.121 -0.0704 -0.4254  0.2923
 6459SOL    HW131013   1.236   3.261  15.066 -0.8666 -0.2625  0.2408
 6459SOL    HW231014   1.138   3.211  15.168  0.4248 -1.2481  1.5800
 6460SOL     OW31015   4.480   2.783  12.490  0.2431  0.1474  0.0296
 6460SOL    HW131016   4.553   2.835  12.522  0.0650  0.8809 -0.7591
 6460SOL    HW231017   4.447   2.734  12.565  0.4149  0.2287  0.1593
 6461SOL     OW31018   1.947   0.558   6.919  0.1576  0.2324  0.0692
 6461SOL    HW131019   1.999   0.534   6.842  0.2927 -1.1550  0.5975
 6461SOL    HW231020   1.958   0.483   6.978 -2.2498 -0.4930 -0.4232
 6462SOL     OW31021   4.617   2.989   5.785 -0.2462  0.4806 -0.0434
 6462SOL    HW131022   4.591   2.898   5.799  1.6332 -0.0465  0.0047
 6462SOL    HW231023   4.675   2.994   5.861 -0.8294 -1.2486  0.5063
 6463SOL     OW31024   3.834   0.872   6.822  0.0393  0.2887  0.6452
 6463SOL    HW131025   3.742   0.850   6.835 -0.5042  1.8249 -0.5702
 6463SOL    HW231026   3.825   0.912   6.735 -3.8154  0.0502  0.9325
 6464SOL     OW31027   2.901   4.176  15.192 -0.0269  0.3839  0.2529
 6464SOL    HW131028   2.951   4.126  15.128  0.0344  1.0927 -0.2504
 6464SOL    HW231029   2.812   4.156  15.165 -0.1197 -0.2930  1.0414
 6465SOL     OW31030   0.922   0.085   2.011 -0.0927  0.3249  0.0530
 6465SOL    HW131031   0.951   0.066   2.100 -0.2335  1.6174  0.3780
 6465SOL    HW231032   0.991   0.145   1.982  1.3572 -1.8802 -1.0210
 6466SOL     OW31033   1.771   4.390   8.917 -0.0439  0.3769  1.1984
 6466SOL    HW131034   1.811   4.450   8.853  0.7070  0.7189  1.9985
 6466SOL    HW231035   1.824   4.312   8.928 -0.5018  0.2442  2.4294
 6467SOL     OW31036   2.179   3.006   6.140 -0.1032  0.1777 -0.9040
 6467SOL    HW131037   2.242   3.050   6.197 -0.3124 -1.6874  0.7709
 6467SOL    HW231038   2.142   3.083   6.097  0.0183  0.5476 -0.3402
 6468SOL     OW31039   1.134   2.224   3.783 -0.3406 -0.1859  0.0114
 6468SOL    HW131040   1.065   2.291   3.783  0.7620  0.9523  0.8621
 6468SOL    HW231041   1.148   2.214   3.877  0.0296 -0.6817 -0.0986
 6469SOL     OW31042   0.703   2.958  13.350 -0.5103 -0.1985  0.7478
 6469SOL    HW131043   0.675   3.003  13.429  0.4209 -0.9621  1.5155
 6469SOL    HW231044   0.642   2.999  13.289  1.8188  0.4324 -1.1550
 6470SOL     OW31045   1.312   4.486   6.665  0.2858 -0.1988  0.9496
 6470SOL    HW131046   1.368   4.563   6.672  0.8407 -0.6098  1.0498
 6470SOL    HW231047   1.379   4.425   6.634  1.7181  0.5544  2.5503
 6471SOL     OW31048   2.479   0.198   3.230 -0.5304  0.0522 -0.4638
 6471SOL    HW131049   2.479   0.120   3.175 -2.1188 -0.6188  0.5009
 6471SOL    HW231050   2.430   0.260   3.176 -1.2106  0.4653  0.6361
 6472SOL     OW31051   3.681   3.790   9.559  0.8379 -0.6224 -0.2898
 6472SOL    HW131052   3.656   3.698   9.573  0.7260 -1.0143 -2.9638
 6472SOL    HW231053   3.769   3.775   9.524  0.8233  2.9716 -1.7924
 6473SOL     OW31054   3.336   2.345   4.695 -0.3508  0.5008  0.4226
 6473SOL    HW131055   3.312   2.409   4.628 -1.2380 -1.2745 -0.9328
 6473SOL    HW231056   3.357   2.405   4.768 -0.1102 -0.4815  1.1590
 6474SOL     OW31057   0.321   4.484   5.559 -0.2683  0.2178 -0.2196
 6474SOL    HW131058   0.360   4.435   5.631 -0.1829 -0.7614 -0.9245
 6474SOL    HW231059   0.228   4.459   5.552  0.2045 -1.4181 -0.8045
 6475SOL     OW31060   4.112   4.311   6.655 -0.6109  0.1597  0.7060
 6475SOL    HW131061   4.128   4.243   6.591 -2.2994  1.4758 -1.1063
 6475SOL    HW231062   4.140   4.390   6.609 -1.1877 -0.4917 -0.7293
 6476SOL     OW31063   2.959   3.421   4.825  0.6354  0.2318 -0.4590
 6476SOL    HW131064   2.938   3.364   4.751 -0.2720  0.9942 -0.7834
 6476SOL    HW231065   2.883   3.402   4.879  2.6085 -0.2598  2.1057
 6477SOL     OW31066   3.171   3.063   0.749  0.3233  0.4688  0.9306
 6477SOL    HW131067   3.089   3.103   0.719 -0.9609 -1.4038  1.9478
 6477SOL    HW231068   3.232   3.133   0.726  1.5125 -0.5967  0.8508
 6478SOL     OW31069   0.465   2.470   3.291  0.3490 -0.0153 -0.0534
 6478SOL    HW131070   0.508   2.482   3.207 -0.2127 -0.0394 -0.3402
 6478SOL    HW231071   0.439   2.378   3.295  1.2008 -0.3142 -1.2888
 6479SOL     OW31072   1.735   4.069   7.973 -0.1939  0.1747  0.2072
 6479SOL    HW131073   1.686   4.150   7.955  1.3673  1.1958  0.5760
 6479SOL    HW231074   1.808   4.084   7.914 -1.0681  4.0862  0.1220
 6480SOL     OW31075   0.363   3.932   3.668  0.4906  0.0936  0.0357
 6480SOL    HW131076   0.396   3.977   3.590  0.8655 -2.3757 -1.2185
 6480SOL    HW231077   0.307   4.001   3.704 -0.6833 -0.5480 -0.5582
 6481SOL     OW31078   3.959   2.800   0.329 -0.3228 -0.1516 -0.3589
 6481SOL    HW131079   3.899   2.794   0.403  0.7360  0.3478  0.5437
 6481SOL    HW231080   3.976   2.707   0.316 -0.9629 -0.3355  0.1349
 6482SOL     OW31081   2.515   4.443   6.997  0.0730  0.1265  1.2046
 6482SOL    HW131082   2.499   4.361   7.043 -1.9239  1.6423  3.2250
 6482SOL    HW231083   2.445   4.440   6.932  0.0927 -0.4229  1.2116
 6483SOL     OW31084   1.574   3.072   9.809 -0.3586  0.2405 -0.0797
 6483SOL    HW131085   1.552   3.159   9.841 -0.7923 -0.4094  1.3877
 6483SOL    HW231086   1.536   3.017   9.878  1.6493 -2.3413 -1.0260
 6484SOL     OW31087   4.605   1.354   4.659 -0.3564 -0.1238  1.0305
 6484SOL    HW131088   4.650   1.311   4.731  2.9164  0.1264 -0.8818
 6484SOL    HW231089   4.558   1.427   4.701  2.1048  2.2675 -0.3367
 6485SOL     OW31090   3.065   0.804   5.762  0.1486 -0.3550  0.2354
 6485SOL    HW131091   3.138   0.780   5.705  1.7512  2.1811  1.2133
 6485SOL    HW231092   3.008   0.853   5.702  3.5246  0.7284 -2.0905
 6486SOL     OW31093   0.745   3.873  11.999  0.5964  0.6870  0.2106
 6486SOL    HW131094   0.771   3.946  12.055  0.0371  0.1332  1.1926
 6486SOL    HW231095   0.814   3.812  12.025  0.2111 -0.6603 -1.9088
 6487SOL     OW31096   1.800   0.335   3.341 -0.3513  0.6412 -0.0192
 6487SOL    HW131097   1.773   0.371   3.426  0.9165  1.0762  0.1883
 6487SOL    HW231098   1.788   0.241   3.357  0.4728  0.6430  0.5726
 6488SOL     OW31099   0.546   2.078  13.857  0.5619 -0.4076  0.1442
 6488SOL    HW131100   0.512   2.151  13.805 -0.9115 -0.4891  0.9862
 6488SOL    HW231101   0.577   2.131  13.930 -1.2543  2.8326 -1.4239
 6489SOL     OW31102   2.491   1.064  15.675  0.0840 -0.1217 -0.7937
 6489SOL    HW131103   2.522   0.993  15.618  2.4024  0.4745 -0.2846
 6489SOL    HW231104   2.397   1.056  15.661 -0.0984  0.4141  0.1823
 6490SOL     OW31105   2.609   2.756   2.522  0.4559  0.1617  0.3428
 6490SOL    HW131106   2.528   2.738   2.474  1.7614  0.5193 -1.9806
 6490SOL    HW231107   2.571   2.786   2.605  1.4839  1.4399  0.3478
 6491SOL     OW31108   2.143   4.670   3.576 -0.2532  0.0055  0.2843
 6491SOL    HW131109   2.093   4.606   3.627  1.4300 -1.0647  0.6107
 6491SOL    HW231110   2.209   4.696   3.640  1.1054  0.7594 -1.4285
 6492SOL     OW31111   2.504   1.064   2.461  0.2574 -0.4540 -0.2463
 6492SOL    HW131112   2.480   0.997   2.524  1.7531 -0.5109  0.2397
 6492SOL    HW231113   2.478   1.148   2.499 -1.8641 -2.6589  3.1949
 6493SOL     OW31114   3.780   0.168  15.670 -0.5971 -0.0840  0.3950
 6493SOL    HW131115   3.730   0.217  15.605  0.1723 -2.3619 -1.9250
 6493SOL    HW231116   3.709   0.164  15.734  1.2579 -0.1713  2.4318
 6494SOL     OW31117   3.622   3.822   7.094  0.2146 -0.2376  0.3176
 6494SOL    HW131118   3.655   3.805   7.006 -0.8499  2.9063 -0.6906
 6494SOL    HW231119   3.673   3.756   7.142 -0.2014  0.9972  2.4316
 6495SOL     OW31120   4.440   0.797   2.387 -0.4515 -0.3186  0.7606
 6495SOL    HW131121   4.501   0.837   2.325 -1.9915  0.3098 -0.3486
 6495SOL    HW231122   4.358   0.837   2.359 -1.1537 -2.0431  0.3304
 6496SOL     OW31123   0.145   3.636  12.363 -0.2923 -0.1592  0.2281
 6496SOL    HW131124   0.108   3.618  12.277 -1.9283  0.5050  0.7935
 6496SOL    HW231125   0.222   3.688  12.341  0.1772 -0.0940  1.9667
 6497SOL     OW31126   2.632   0.861  10.137 -0.3889  0.6636 -0.2411
 6497SOL    HW131127   2.698   0.877  10.205 -0.3126 -3.4011  0.6725
 6497SOL    HW231128   2.679   0.811  10.070  1.3912  1.0984  0.6908
 6498SOL     OW31129   0.297   0.354   8.197  0.5596 -0.5836 -0.5239
 6498SOL    HW131130   0.256   0.317   8.276  1.0076  0.3121  0.1255
 6498SOL    HW231131   0.372   0.295   8.195  1.8449  1.0295  0.3531
 6499SOL     OW31132   0.355   3.140   5.519  0.2114  0.1714 -0.1736
 6499SOL    HW131133   0.312   3.173   5.440 -0.4170 -0.9066 -0.2730
 6499SOL    HW231134   0.423   3.208   5.528  0.2352  0.0424  0.5871
 6500SOL     OW31135   2.222   1.236   3.015 -0.1291  0.5964  0.2004
 6500SOL    HW131136   2.295   1.276   3.064  1.4140 -0.7148 -1.0284
 6500SOL    HW231137   2.241   1.142   3.020 -3.4592 -0.1087 -0.3576
 6501SOL     OW31138   2.213   1.200   6.200 -0.6112 -0.3120  0.6326
 6501SOL    HW131139   2.221   1.289   6.166  0.0045 -0.0772  1.3814
 6501SOL    HW231140   2.286   1.170   6.255  0.7881  1.8793 -0.0258
 6502SOL     OW31141   2.134   1.017   6.907  0.2854 -0.1054 -0.3458
 6502SOL    HW131142   2.058   1.043   6.854  0.7221  0.8070 -0.5305
 6502SOL    HW231143   2.096   0.937   6.942  0.4433 -1.0068 -2.2477
 6503SOL     OW31144   1.923   3.099   1.124  0.7307 -0.3368  0.0256
 6503SOL    HW131145   1.950   3.135   1.209 -0.2256 -1.8036  0.9335
 6503SOL    HW231146   1.830   3.117   1.128  0.9376  1.0961 -1.5467
 6504SOL     OW31147   2.709   3.692   2.428 -0.6016 -0.2064 -0.2731
 6504SOL    HW131148   2.627   3.739   2.420 -0.2363  0.3359 -0.8715
 6504SOL    HW231149   2.719   3.631   2.355  0.2569  3.2100 -3.0208
 6505SOL     OW31150   3.698   4.465   7.548 -0.1888  0.1116 -0.1420
 6505SOL    HW131151   3.666   4.375   7.554  0.5931 -0.1694 -0.1614
 6505SOL    HW231152   3.743   4.451   7.465 -2.4519  1.9746 -1.6562
 6506SOL     OW31153   2.126   2.824   1.780  0.3005 -0.1571  0.0157
 6506SOL    HW131154   2.132   2.748   1.837  1.5682 -0.8528 -1.0376
 6506SOL    HW231155   2.031   2.828   1.772  0.1150  0.3867  2.7478
 6507SOL     OW31156   2.416   0.544   8.425  0.4942  0.1529  0.2808
 6507SOL    HW131157   2.447   0.478   8.486 -1.2780 -1.3286 -0.4349
 6507SOL    HW231158   2.390   0.619   8.479  1.4457  1.0127 -0.4543
 6508SOL     OW31159   0.923   4.014   4.055  0.3732 -0.2688  0.5645
 6508SOL    HW131160   0.913   3.946   3.988  0.8259  3.0103 -2.8455
 6508SOL    HW231161   0.845   4.001   4.109  0.2697 -1.9367  0.0198
 6509SOL     OW31162   2.781   4.133  12.559  0.0849 -0.4609 -0.4088
 6509SOL    HW131163   2.736   4.215  12.539 -2.8842 -2.0972 -0.4845
 6509SOL    HW231164   2.795   4.123  12.653  1.3016  0.0552 -0.5343
 6510SOL     OW31165   4.162   2.275   2.067  0.4505  0.0422  0.0478
 6510SOL    HW131166   4.119   2.203   2.113  1.0508 -0.9065 -0.8773
 6510SOL    HW231167   4.144   2.258   1.974  1.1443 -1.3716  0.1706
 6511SOL     OW31168   4.598   1.350   3.740 -0.2037  0.2446 -0.2896
 6511SOL    HW131169   4.663   1.315   3.801 -0.7675  0.3526  0.3695
 6511SOL    HW231170   4.546   1.408   3.796 -1.2820 -1.2503  0.2346
 6512SOL     OW31171   3.946   0.563   8.614  0.2966  0.5282  0.0006
 6512SOL    HW131172   3.936   0.506   8.690  1.8286  0.1082 -0.1069
 6512SOL    HW231173   3.862   0.608   8.607  0.3595  1.0310  2.3876
 6513SOL     OW31174   2.090   4.475   5.531  0.2542  0.2879 -0.6967
 6513SOL    HW131175   2.086   4.566   5.500 -1.0309 -0.2671 -2.1740
 6513SOL    HW231176   2.103   4.485   5.625 -2.9263 -1.6416 -0.0490
 6514SOL     OW31177   4.279   0.690   0.383  0.1147 -0.6225  0.0016
 6514SOL    HW131178   4.257   0.603   0.415  2.4161 -1.3867 -0.5078
 6514SOL    HW231179   4.241   0.748   0.450  1.7934 -1.7708  1.9303
 6515SOL     OW31180   1.600   0.602   8.633  0.0106 -0.3722 -0.0915
 6515SOL    HW131181   1.606   0.575   8.541 -0.1270  0.8326 -0.4480
 6515SOL    HW231182   1.661   0.674   8.645  0.9793 -1.2582  0.3260
 6516SOL     OW31183   2.952   4.107  12.326  0.7082 -0.0016  0.5035
 6516SOL    HW131184   2.897   4.090  12.403  0.1103 -1.8941 -0.3313
 6516SOL    HW231185   2.971   4.198  12.347 -0.0689 -0.0412  1.3848
 6517SOL     OW31186   2.794   0.808   2.612 -0.2425 -0.3792  0.2689
 6517SOL    HW131187   2.713   0.849   2.580  2.1741  1.0622 -3.9087
 6517SOL    HW231188   2.788   0.824   2.707 -2.3312  1.9290 -0.2487
 6518SOL     OW31189   0.991   1.632   9.739  0.7591  0.1171 -0.5082
 6518SOL    HW131190   1.057   1.684   9.786  1.0389  0.9275 -1.7757
 6518SOL    HW231191   0.931   1.609   9.809 -0.3600  2.5903 -0.6675
 6519SOL     OW31192   4.166   1.932   5.888 -0.4425  0.2416 -0.2731
 6519SOL    HW131193   4.097   1.872   5.918  0.0353 -1.3792 -2.3721
 6519SOL    HW231194   4.151   2.001   5.952  1.9796  1.1325 -0.6811
 6520SOL     OW31195   1.208   0.181   5.424 -0.2889  0.1448  0.0893
 6520SOL    HW131196   1.251   0.189   5.339  0.7514  0.2972  0.6293
 6520SOL    HW231197   1.214   0.273   5.450  0.6877  0.7211 -2.2463
 6521SOL     OW31198   2.347   2.490   8.063  0.4333 -0.3315 -0.2082
 6521SOL    HW131199   2.311   2.570   8.024  3.4988  1.2458  0.1927
 6521SOL    HW231200   2.282   2.483   8.133  1.9527  1.6987  1.4198
 6522SOL     OW31201   4.692   3.076   5.016 -0.4873 -0.1634  0.1121
 6522SOL    HW131202   0.028   3.012   5.026  0.0744  0.5859  0.9567
 6522SOL    HW231203   4.614   3.027   4.992 -0.8617 -0.0066  1.0069
 6523SOL     OW31204   0.501   1.519   2.927  0.2909 -0.4989  0.2370
 6523SOL    HW131205   0.421   1.479   2.895  0.6725  0.5287 -2.0101
 6523SOL    HW231206   0.462   1.534   3.013 -1.4134  0.5290 -0.7362
 6524SOL     OW31207   3.595   4.337   4.357  0.5204 -0.1146 -0.3700
 6524SOL    HW131208   3.612   4.252   4.400 -0.0278  0.4244  0.9296
 6524SOL    HW231209   3.629   4.398   4.423 -1.3045  1.4276 -0.8600
 6525SOL     OW31210   1.888   2.692   9.304  0.1547 -0.0395 -0.3848
 6525SOL    HW131211   1.804   2.693   9.351  0.3219 -1.3496 -0.0505
 6525SOL    HW231212   1.915   2.782   9.322 -1.1889  0.2886 -0.0248
 6526SOL     OW31213   0.683   3.780   2.205 -0.4151 -0.1008 -0.5019
 6526SOL    HW131214   0.661   3.775   2.298  0.2055  0.4723 -0.3261
 6526SOL    HW231215   0.732   3.699   2.191 -1.0627 -0.6561  0.4374
 6527SOL     OW31216   1.598   3.559  16.817 -0.3227  0.5503  0.0515
 6527SOL    HW131217   1.624   3.556  16.910  1.9832  0.0370 -0.6031
 6527SOL    HW231218   1.589   3.653  16.804  0.5114  0.2729 -2.5509
 6528SOL     OW31219   1.084   4.634   5.405 -0.1914  0.2829 -0.3622
 6528SOL    HW131220   1.018   4.625   5.475  1.3416 -3.1822  0.6132
 6528SOL    HW231221   1.104   4.728   5.408  0.2204  0.0447  4.0645
 6529SOL     OW31222   4.111   1.833  14.245 -0.0465 -0.0762 -0.7709
 6529SOL    HW131223   4.179   1.900  14.239  1.2531 -1.3512 -0.1203
 6529SOL    HW231224   4.160   1.754  14.269 -1.3077 -0.7716 -0.5137
 6530SOL     OW31225   0.245   3.961   7.079  0.3976  0.1946  0.3311
 6530SOL    HW131226   0.260   4.045   7.037  1.2177 -1.7563 -3.3100
 6530SOL    HW231227   0.336   3.950   7.109  0.4231  1.1745  0.5909
 6531SOL     OW31228   1.039   0.558   9.996 -0.0658 -0.6771 -0.3446
 6531SOL    HW131229   0.969   0.618   9.974  0.6665  0.2743 -0.1025
 6531SOL    HW231230   1.113   0.618   9.994 -0.1617 -0.5528 -0.1461
 6532SOL     OW31231   1.777   2.726   8.205  0.9099  0.2508 -0.6564
 6532SOL    HW131232   1.807   2.799   8.259  3.0664  0.7346 -2.5111
 6532SOL    HW231233   1.769   2.775   8.123  1.5538  2.0046  0.3304
 6533SOL     OW31234   2.990   4.022   3.662 -0.1753 -0.5721 -0.1875
 6533SOL    HW131235   3.005   3.989   3.573  0.1577  0.5441 -0.5482
 6533SOL    HW231236   3.028   4.109   3.654  1.1930 -1.4004 -2.6735
 6534SOL     OW31237   3.710   3.610   4.711 -0.1738  0.0621  0.5714
 6534SOL    HW131238   3.661   3.614   4.793 -2.4910  4.0082 -0.9885
 6534SOL    HW231239   3.714   3.703   4.688  0.1080 -0.5356 -1.7976
 6535SOL     OW31240   4.192   1.957   4.058  0.1463  0.3257  0.0293
 6535SOL    HW131241   4.228   2.037   4.098  0.7907  1.0476 -2.0251
 6535SOL    HW231242   4.274   1.944   4.010  0.1224  0.4620 -0.0481
 6536SOL     OW31243   3.585   0.071   3.417  0.2069  0.1169  0.1027
 6536SOL    HW131244   3.500   0.063   3.374  0.3476 -0.3182 -0.0926
 6536SOL    HW231245   3.585   4.722   3.463  1.5038 -0.0074 -0.1192
 6537SOL     OW31246   3.444   4.280   8.968 -0.5536  0.2971  0.5009
 6537SOL    HW131247   3.404   4.313   8.888 -0.0942  1.2114  0.6434
 6537SOL    HW231248   3.434   4.186   8.950 -0.5342  0.6993 -1.5765
 6538SOL     OW31249   0.772   4.086  17.430 -0.2443 -0.4049  0.4141
 6538SOL    HW131250   0.689   4.115  17.392  0.9232  1.9386 -0.3340
 6538SOL    HW231251   0.748   4.105  17.521  0.1730  0.3813  0.3577
 6539SOL     OW31252   1.862   0.040   6.302  0.1066 -0.0658 -0.8294
 6539SOL    HW131253   1.873   4.681   6.290  1.5945 -0.4221  3.5867
 6539SOL    HW231254   1.767   0.043   6.314 -0.0879  1.2156 -2.6227
 6540SOL     OW31255   1.678   2.625   6.995  0.0005 -0.2444 -0.0131
 6540SOL    HW131256   1.714   2.710   7.021 -0.0576 -1.3168  3.4958
 6540SOL    HW231257   1.694   2.625   6.900 -2.8108 -2.4789 -0.4915
 6541SOL     OW31258   1.762   4.545  12.779  0.4103 -0.0214 -0.6444
 6541SOL    HW131259   1.763   4.504  12.866  0.0922  2.9556  0.7715
 6541SOL    HW231260   1.828   4.615  12.779 -0.7959  1.1222 -0.6681
 6542SOL     OW31261   4.565   0.885   2.631 -0.1616  0.0053 -0.0568
 6542SOL    HW131262   4.650   0.905   2.593  0.1255 -2.5220 -0.7268
 6542SOL    HW231263   4.506   0.869   2.557  3.5031  2.5436 -3.4876
 6543SOL     OW31264   3.008   3.462   3.935 -0.2561 -0.1561 -0.4116
 6543SOL    HW131265   3.060   3.503   3.866 -1.9530 -0.3154 -1.7803
 6543SOL    HW231266   2.964   3.388   3.893  1.5798 -1.6352  0.3237
 6544SOL     OW31267   0.238   0.757   4.612 -0.2472 -0.2497  0.1662
 6544SOL    HW131268   0.171   0.805   4.563  1.5385  3.1434  0.9913
 6544SOL    HW231269   0.239   0.676   4.561 -0.8713 -0.1475 -0.0084
 6545SOL     OW31270   0.531   4.025  13.005 -0.0971 -0.4487  0.2996
 6545SOL    HW131271   0.519   3.931  13.014  2.2931 -0.7384  0.5115
 6545SOL    HW231272   0.550   4.035  12.912  1.5346  0.5120  0.7441
 6546SOL     OW31273   0.551   3.117   6.223 -0.4777  0.3481 -0.3792
 6546SOL    HW131274   0.526   3.135   6.132 -0.5207 -0.1348 -0.4592
 6546SOL    HW231275   0.491   3.179   6.266  0.2693  2.2998 -2.1637
 6547SOL     OW31276   3.296   1.489   4.060 -0.7167 -0.5339 -0.4588
 6547SOL    HW131277   3.270   1.554   4.125  1.4658 -0.6260  0.5339
 6547SOL    HW231278   3.310   1.407   4.108 -1.7736  0.0947  0.9114
 6548SOL     OW31279   3.012   4.383   6.966  0.2068 -0.5044 -0.0300
 6548SOL    HW131280   3.096   4.345   6.941 -0.8424 -2.7834 -0.0550
 6548SOL    HW231281   2.956   4.347   6.897  1.2846  1.3696 -1.8852
 6549SOL     OW31282   0.359   3.297  15.555  0.3935 -0.4560 -0.1324
 6549SOL    HW131283   0.343   3.311  15.648  0.1207 -1.5609 -0.0125
 6549SOL    HW231284   0.300   3.223  15.542 -0.5707  0.0623  1.2531
 6550SOL     OW31285   4.305   1.023  17.068 -0.2587 -0.5121 -0.3714
 6550SOL    HW131286   4.343   0.990  17.150 -4.2962  1.4374  2.2631
 6550SOL    HW231287   4.237   0.959  17.048 -1.2910  0.5266 -0.1732
 6551SOL     OW31288   0.050   3.066   4.019  0.2876  0.2745  0.1162
 6551SOL    HW131289   0.052   2.972   4.001  1.1371  0.2433  0.3877
 6551SOL    HW231290   0.054   3.117   3.938  2.7657  0.2535  0.2182
 6552SOL     OW31291   4.643   0.646   8.240 -0.1829  0.6211  0.1623
 6552SOL    HW131292   4.643   0.669   8.333 -0.0721  0.1876  0.2650
 6552SOL    HW231293   4.611   0.733   8.215 -0.5504  0.5269  0.3123
 6553SOL     OW31294   1.522   2.042   4.380 -0.5348 -0.7588  0.1402
 6553SOL    HW131295   1.573   2.009   4.305 -1.1850  0.2682 -0.7648
 6553SOL    HW231296   1.487   1.957   4.404 -1.0238 -0.1390  1.6239
 6554SOL     OW31297   1.185   0.860   8.918  0.4416 -0.6409 -0.4691
 6554SOL    HW131298   1.256   0.803   8.888  0.0333 -1.7562  0.6942
 6554SOL    HW231299   1.165   0.813   8.999  2.7643 -0.5780  0.1595
 6555SOL     OW31300   1.372   1.308  12.034  0.1539  0.0859  0.9146
 6555SOL    HW131301   1.328   1.245  11.976  2.3382  0.8539 -1.5689
 6555SOL    HW231302   1.319   1.386  12.019 -0.5688  0.1265  3.7643
 6556SOL     OW31303   0.494   1.188  11.558 -0.6387  0.1935  0.3420
 6556SOL    HW131304   0.484   1.232  11.642 -0.6254  1.6305 -0.4088
 6556SOL    HW231305   0.496   1.257  11.492 -0.5531 -0.1568 -0.0292
 6557SOL     OW31306   3.109   0.463   9.479 -0.6108  0.2409 -0.4175
 6557SOL    HW131307   3.088   0.466   9.386 -0.8803 -0.3385 -0.3802
 6557SOL    HW231308   3.166   0.386   9.487  0.5632  1.2447  1.0255
 6558SOL     OW31309   2.277   0.700   8.676  0.0404 -0.0600  0.4875
 6558SOL    HW131310   2.207   0.666   8.619  1.5715 -0.9412 -0.8667
 6558SOL    HW231311   2.244   0.790   8.680 -0.6990 -0.3543  1.1111
 6559SOL     OW31312   1.672   4.303   4.654  0.2654 -0.7181 -0.2435
 6559SOL    HW131313   1.698   4.385   4.612 -0.4847 -0.0869  0.5326
 6559SOL    HW231314   1.590   4.340   4.686  1.0796  1.0672 -0.2115
 6560SOL     OW31315   1.097   1.899  12.123 -0.4265  0.1554  0.0579
 6560SOL    HW131316   1.130   1.986  12.146 -1.3289  0.3874  0.4767
 6560SOL    HW231317   1.151   1.839  12.176  1.2493  0.5690 -1.1658
 6561SOL     OW31318   3.258   3.846   5.531  0.2425  0.0096 -0.3473
 6561SOL    HW131319   3.252   3.763   5.578  0.7652  0.8112  1.1374
 6561SOL    HW231320   3.266   3.905   5.606  1.0926 -0.5781  0.0330
 6562SOL     OW31321   4.220   1.371   6.995  0.0496 -0.3400  0.1659
 6562SOL    HW131322   4.204   1.278   6.977 -2.6037  0.1279  0.0781
 6562SOL    HW231323   4.140   1.389   7.044 -1.5388 -2.1873 -1.7146
 6563SOL     OW31324   0.888   2.304   7.498  0.0438 -0.2265 -0.1246
 6563SOL    HW131325   0.964   2.321   7.443 -0.4666  2.8184  0.1276
 6563SOL    HW231326   0.872   2.211   7.479 -0.6137 -0.2278  0.4233
 6564SOL     OW31327   1.749   2.150   6.772  0.1477  0.3216  0.1111
 6564SOL    HW131328   1.809   2.224   6.784 -0.6927  0.9096  0.7318
 6564SOL    HW231329   1.817   2.088   6.748 -0.7246 -0.6439  0.1286
 6565SOL     OW31330   2.274   3.531   0.812  0.1969  0.3342  0.2818
 6565SOL    HW131331   2.233   3.499   0.732 -0.8924 -0.7620  1.2829
 6565SOL    HW231332   2.219   3.489   0.878  0.1035  0.5132  0.3163
 6566SOL     OW31333   1.379   4.081   2.683 -0.0504  0.0128  0.3912
 6566SOL    HW131334   1.450   4.021   2.706 -0.7790 -1.0161 -0.0285
 6566SOL    HW231335   1.319   4.047   2.749 -3.4031  2.9407 -1.1426
 6567SOL     OW31336   4.709   0.548   4.674  0.1372  0.0132 -0.1461
 6567SOL    HW131337   4.659   0.593   4.743 -0.6644  0.3356 -0.9372
 6567SOL    HW231338   4.639   0.516   4.617 -0.4437 -0.8449  1.0412
 6568SOL     OW31339   3.016   4.471   7.659 -0.1233 -0.2364 -0.3194
 6568SOL    HW131340   3.028   4.566   7.660  0.8485 -0.3591  1.3756
 6568SOL    HW231341   2.957   4.465   7.584  0.4754  1.8747 -0.9506
 6569SOL     OW31342   3.178   2.853  17.631  0.0239 -0.0866  0.1888
 6569SOL    HW131343   3.194   2.933  17.682  0.9213  1.0198 -1.8500
 6569SOL    HW231344   3.218   2.785  17.686 -3.4550 -1.3766  1.1563
 6570SOL     OW31345   4.579   1.368  13.072  0.3617 -0.1846  0.3332
 6570SOL    HW131346   4.565   1.290  13.127 -2.1215 -1.2530 -1.8096
 6570SOL    HW231347   4.668   1.388  13.101 -0.6186  1.4823  2.1359
 6571SOL     OW31348   3.005   4.469  12.582 -0.4481  0.1948  0.1124
 6571SOL    HW131349   2.994   4.445  12.674  0.3175 -1.5027 -0.2241
 6571SOL    HW231350   3.094   4.437  12.563 -1.2134 -2.7581  1.4873
 6572SOL     OW31351   1.508   3.087  16.739 -0.3009  0.0506  0.3704
 6572SOL    HW131352   1.575   3.154  16.750 -1.1433  0.9854 -0.1725
 6572SOL    HW231353   1.464   3.104  16.656 -1.3335 -1.0902  0.6760
 6573SOL     OW31354   3.915   3.859   5.967  0.6051 -0.3960 -0.1030
 6573SOL    HW131355   3.976   3.863   5.892  0.0350  0.2063 -0.5347
 6573SOL    HW231356   3.842   3.907   5.928  0.6548 -0.1192  0.1470
 6574SOL     OW31357   3.729   2.942   6.844 -0.6990  0.1913 -0.4086
 6574SOL    HW131358   3.743   3.024   6.796  1.6199  0.0063 -0.0632
 6574SOL    HW231359   3.767   2.889   6.774 -0.8398  0.0283 -0.3603
 6575SOL     OW31360   0.004   2.521   9.271 -0.1731 -0.3671 -0.7960
 6575SOL    HW131361   0.084   2.522   9.219  0.6830 -1.0638  0.5128
 6575SOL    HW231362   0.016   2.600   9.324  2.3424 -0.1312 -1.7018
 6576SOL     OW31363   4.261   2.488   0.297  0.4201 -0.4559  0.2188
 6576SOL    HW131364   4.344   2.498   0.251  0.5361 -1.4965  0.2061
 6576SOL    HW231365   4.283   2.427   0.367  1.6255  0.7216  0.8809
 6577SOL     OW31366   4.147   3.858   6.147  0.2132  0.2393 -0.1274
 6577SOL    HW131367   4.176   3.771   6.118  1.6924  1.0993 -1.2659
 6577SOL    HW231368   4.077   3.883   6.087 -1.2897 -1.9077  0.7047
 6578SOL     OW31369   3.801   1.549   0.371  0.4604 -0.2661  0.2048
 6578SOL    HW131370   3.816   1.603   0.448 -0.2970  0.8832 -0.4513
 6578SOL    HW231371   3.864   1.478   0.384 -0.7568 -1.4991 -0.5401
 6579SOL     OW31372   1.323   3.173  12.187  0.5013  0.5434 -0.2402
 6579SOL    HW131373   1.301   3.186  12.094 -3.6500 -1.3073  0.4905
 6579SOL    HW231374   1.236   3.177  12.226  0.0802  0.0201 -1.1236
 6580SOL     OW31375   0.156   3.353   6.173 -0.5402  0.1479 -0.0319
 6580SOL    HW131376   0.103   3.432   6.159 -0.2274  0.7261  2.1115
 6580SOL    HW231377   0.185   3.321   6.088  1.0940  2.0074 -0.1703
 6581SOL     OW31378   4.470   1.932   3.980 -0.1440 -0.0279 -0.1860
 6581SOL    HW131379   4.495   1.848   4.018 -1.2786 -0.6939 -0.8908
 6581SOL    HW231380   4.535   1.932   3.910 -0.5331 -0.2349 -0.5466
 6582SOL     OW31381   0.867   0.972   8.070 -0.3639  0.3057  0.3780
 6582SOL    HW131382   0.852   0.936   8.158  0.9450 -0.6561  0.1908
 6582SOL    HW231383   0.857   1.067   8.082 -1.6614  0.2425 -0.2119
 6583SOL     OW31384   2.594   1.419  12.755 -0.1029  0.0345  0.2319
 6583SOL    HW131385   2.621   1.334  12.720  0.9892  0.4841 -0.0093
 6583SOL    HW231386   2.680   1.460  12.757 -0.0729 -0.0423  0.4812
 6584SOL     OW31387   3.054   3.876   3.438 -0.2353 -0.0839 -0.3982
 6584SOL    HW131388   3.112   3.800   3.433 -1.6469 -1.0797 -1.6574
 6584SOL    HW231389   3.039   3.886   3.344  2.1861 -0.9324 -0.8688
 6585SOL     OW31390   1.283   4.302   8.411  0.5356 -0.0337 -0.3383
 6585SOL    HW131391   1.275   4.382   8.463 -1.9100 -0.5075  0.0591
 6585SOL    HW231392   1.209   4.252   8.447 -0.1712  1.7364  0.6617
 6586SOL     OW31393   2.108   3.184   7.674 -0.0609  0.1721 -0.1184
 6586SOL    HW131394   2.083   3.250   7.609  0.9448  1.0221  0.3525
 6586SOL    HW231395   2.188   3.224   7.708  1.3402  0.3791 -3.7048
 6587SOL     OW31396   0.202   4.040   2.041  0.1449 -0.2572  0.2250
 6587SOL    HW131397   0.290   4.017   2.069  0.2209  0.2741  0.4310
 6587SOL    HW231398   0.225   4.057   1.950 -3.3331  1.6459 -0.3001
 6588SOL     OW31399   2.167   2.628   2.835 -0.2756  0.0573  0.8588
 6588SOL    HW131400   2.215   2.611   2.753 -0.5929  0.6850  0.5385
 6588SOL    HW231401   2.093   2.676   2.799 -0.0593 -0.9414 -0.9453
 6589SOL     OW31402   3.374   4.655   2.894  0.4982 -0.0582  0.0599
 6589SOL    HW131403   3.447   4.664   2.955  0.2256  0.6248  0.2726
 6589SOL    HW231404   3.405   4.585   2.836 -1.6187  0.1383 -1.2887
 6590SOL     OW31405   2.662   1.067   7.773 -0.0835 -0.2964 -0.5974
 6590SOL    HW131406   2.747   1.074   7.816  0.1606 -1.6238 -0.8661
 6590SOL    HW231407   2.656   1.159   7.748 -2.7363  0.1488  1.7226
 6591SOL     OW31408   3.451   4.675   7.569 -0.3375 -0.4771  0.5176
 6591SOL    HW131409   3.463   0.025   7.529 -0.2494 -1.3591 -1.3658
 6591SOL    HW231410   3.538   4.640   7.547 -0.9958 -1.8161 -0.0032
 6592SOL     OW31411   3.772   0.607   4.360 -0.1475  0.3040  0.7115
 6592SOL    HW131412   3.866   0.611   4.374 -0.0336  1.2351 -0.3269
 6592SOL    HW231413   3.762   0.558   4.278 -0.8287 -2.5813  2.5350
 6593SOL     OW31414   4.533   1.290   1.915  0.1452  0.4667  0.5049
 6593SOL    HW131415   4.610   1.343   1.895  0.9488 -1.2995 -1.0695
 6593SOL    HW231416   4.570   1.254   1.996 -0.2103 -2.9068 -0.8114
 6594SOL     OW31417   3.691   3.870  14.798 -0.8106  0.1978 -0.2465
 6594SOL    HW131418   3.725   3.804  14.738  2.9426  1.5702  0.3720
 6594SOL    HW231419   3.733   3.949  14.764  1.0200 -0.2593  0.9747
 6595SOL     OW31420   3.418   2.265   5.496  0.2940 -0.4811 -0.1906
 6595SOL    HW131421   3.331   2.249   5.461  0.3434 -1.4245  0.1371
 6595SOL    HW231422   3.441   2.343   5.444 -2.2870  0.2842 -0.1589
 6596SOL     OW31423   0.163   1.200   5.111 -0.4096 -0.0521 -0.2539
 6596SOL    HW131424   0.236   1.179   5.053  0.1271  2.0190 -0.3350
 6596SOL    HW231425   0.207   1.174   5.192  0.1440 -3.4482 -1.6518
 6597SOL     OW31426   4.683   1.893  13.486 -0.0943 -0.9333  0.0350
 6597SOL    HW131427   0.018   1.949  13.518 -1.2705  0.0124  0.9421
 6597SOL    HW231428   4.609   1.924  13.537  0.8165 -0.7270  1.2290
 6598SOL     OW31429   3.836   1.505   5.093 -0.2632  0.1718 -0.2721
 6598SOL    HW131430   3.837   1.597   5.065 -1.2628  0.4891  0.7623
 6598SOL    HW231431   3.752   1.475   5.057  0.6819 -2.4346 -0.3379
 6599SOL     OW31432   0.426   3.620   7.993  0.5258  0.0701  0.0602
 6599SOL    HW131433   0.433   3.700   7.941  0.6759 -1.0431 -1.6323
 6599SOL    HW231434   0.337   3.596   7.967  1.2683 -2.7857  0.1369
 6600SOL     OW31435   3.442   3.998   2.227 -0.2232 -0.3033  0.4163
 6600SOL    HW131436   3.495   3.945   2.167  1.9526  0.0141  2.0661
 6600SOL    HW231437   3.400   3.929   2.280 -2.2392  1.3929  1.0016
 6601SOL     OW31438   3.971   2.967   6.462  0.1562  0.0154  0.1254
 6601SOL    HW131439   4.008   3.005   6.383 -1.1060 -0.5342 -0.7391
 6601SOL    HW231440   3.941   3.048   6.502  0.4619  0.7007 -1.0181
 6602SOL     OW31441   4.707   4.508   7.872 -0.3101 -0.6331 -0.6902
 6602SOL    HW131442   0.011   4.424   7.848  0.9310 -0.0570 -0.6166
 6602SOL    HW231443   4.684   4.546   7.787 -1.2692  1.8920  0.7120
 6603SOL     OW31444   0.992   0.340   4.957 -0.1612 -0.1072  0.5042
 6603SOL    HW131445   0.969   0.375   5.044 -1.2067 -0.0829  0.2168
 6603SOL    HW231446   0.901   0.324   4.933  0.1296  0.9276 -1.2961
 6604SOL     OW31447   2.351   4.052   8.123  0.3435 -0.0167 -0.1280
 6604SOL    HW131448   2.348   4.034   8.029 -1.3417 -0.6287  0.0391
 6604SOL    HW231449   2.416   3.987   8.151  0.3514  0.1659  0.2720
 6605SOL     OW31450   0.130   1.093  12.748 -0.1080  0.3401 -0.1251
 6605SOL    HW131451   0.222   1.071  12.732  0.0231  0.0736  0.9968
 6605SOL    HW231452   0.129   1.164  12.812 -0.1468  0.3764 -0.1664
 6606SOL     OW31453   2.777   2.937   7.943 -0.0829  0.0294  0.2315
 6606SOL    HW131454   2.684   2.955   7.928  0.2163  1.8290  0.5589
 6606SOL    HW231455   2.772   2.878   8.018  1.1804 -1.2333 -0.6623
 6607SOL     OW31456   0.037   3.931   3.009 -0.1129 -0.2274 -0.1111
 6607SOL    HW131457   0.071   3.953   2.922  0.7580  0.1570  0.3175
 6607SOL    HW231458   0.034   3.835   3.006 -1.1158 -0.2277  0.7918
 6608SOL     OW31459   2.764   1.660   4.223 -0.9131  0.8142  0.0260
 6608SOL    HW131460   2.835   1.658   4.158  0.9570 -2.2944  2.1149
 6608SOL    HW231461   2.810   1.710   4.290 -0.7083  0.6459  0.0124
 6609SOL     OW31462   2.346   2.237   3.136  0.4421  0.3684  0.1295
 6609SOL    HW131463   2.276   2.174   3.115  0.7173  0.3988 -0.8711
 6609SOL    HW231464   2.334   2.232   3.231 -1.8535  0.0756 -0.1644
 6610SOL     OW31465   3.775   3.070   4.341  0.2624 -0.0004 -0.1849
 6610SOL    HW131466   3.804   2.982   4.318  0.6266  0.0425  0.0976
 6610SOL    HW231467   3.863   3.108   4.335  0.4389 -0.2269  0.9818
 6611SOL     OW31468   4.445   3.528  14.148 -0.1359 -0.4105  0.6478
 6611SOL    HW131469   4.380   3.498  14.084  0.4014 -2.2059  0.9439
 6611SOL    HW231470   4.467   3.448  14.196 -0.5691 -0.3075  1.0157
 6612SOL     OW31471   3.819   3.278   1.136 -0.0256  0.1581 -0.4049
 6612SOL    HW131472   3.909   3.249   1.144  0.1271  0.4808 -0.9553
 6612SOL    HW231473   3.787   3.255   1.223  2.9655 -0.3408  0.5442
 6613SOL     OW31474   4.477   1.953   3.118  0.5220 -0.4896 -0.3367
 6613SOL    HW131475   4.505   1.865   3.140  0.0182 -0.7092 -0.5752
 6613SOL    HW231476   4.553   2.004   3.147 -0.0865 -0.6928  1.5827
 6614SOL     OW31477   0.825   1.250   2.421 -0.0957  0.3288  0.1209
 6614SOL    HW131478   0.879   1.322   2.387  0.5860 -0.1802  0.1229
 6614SOL    HW231479   0.816   1.183   2.354 -2.2211  1.3511 -0.5870
 6615SOL     OW31480   0.540   4.587   6.567 -0.0588  0.4386 -0.0395
 6615SOL    HW131481   0.622   4.576   6.616  0.4863 -0.4418 -1.1397
 6615SOL    HW231482   0.498   4.503   6.584  1.8101 -0.6278 -0.6623
 6616SOL     OW31483   1.964   1.032   5.074  0.1429 -0.3888 -0.1959
 6616SOL    HW131484   1.925   1.105   5.026 -0.7288 -0.2125  0.7931
 6616SOL    HW231485   2.030   1.011   5.008  1.1074  1.8573  0.0262
 6617SOL     OW31486   1.874   1.686  15.183  0.1902  0.4103 -0.1310
 6617SOL    HW131487   1.856   1.757  15.122 -1.9398 -0.3461 -0.3737
 6617SOL    HW231488   1.970   1.692  15.182  0.2416  0.0959  3.4290
 6618SOL     OW31489   2.652   1.206   1.852 -0.2360 -0.0117  0.3405
 6618SOL    HW131490   2.607   1.158   1.782 -0.9871 -1.7721  2.0362
 6618SOL    HW231491   2.650   1.140   1.921 -0.2447 -0.8139 -0.4259
 6619SOL     OW31492   1.341   1.854   7.343  0.8170 -0.0551 -0.4971
 6619SOL    HW131493   1.431   1.821   7.332  0.2534 -1.3988 -1.0350
 6619SOL    HW231494   1.321   1.816   7.428 -1.3598  1.6902 -0.2369
 6620SOL     OW31495   4.575   2.672  11.832 -0.1662 -0.6996  0.1419
 6620SOL    HW131496   4.590   2.577  11.831  0.8721 -0.5591  1.4356
 6620SOL    HW231497   4.648   2.697  11.889  1.7599 -3.5901 -1.0397
 6621SOL     OW31498   1.206   0.369   8.479 -0.4177 -0.2474 -0.4053
 6621SOL    HW131499   1.280   0.353   8.538 -2.3019  0.7135  2.2141
 6621SOL    HW231500   1.133   0.353   8.538  0.6133 -1.7930  0.4827
 6622SOL     OW31501   4.276   0.619   3.516 -0.4259  0.5243  0.2821
 6622SOL    HW131502   4.226   0.677   3.459  0.3963  1.4882  0.5474
 6622SOL    HW231503   4.363   0.624   3.476  1.0776  1.1523  3.6209
 6623SOL     OW31504   3.058   0.974   4.863  0.4703  0.0998  0.1379
 6623SOL    HW131505   3.013   0.936   4.939 -1.1464  3.9273  1.1238
 6623SOL    HW231506   3.006   1.055   4.858 -0.9096 -0.8025 -0.0894
 6624SOL     OW31507   3.818   2.674   8.654  0.0755 -0.4225  0.3231
 6624SOL    HW131508   3.903   2.684   8.610 -0.9935  0.9749 -1.4343
 6624SOL    HW231509   3.775   2.610   8.597  0.3570 -0.1698 -0.1719
 6625SOL     OW31510   3.454   0.620   1.883 -0.7067  0.2650  0.3783
 6625SOL    HW131511   3.445   0.677   1.959  0.0234 -1.7670  2.0092
 6625SOL    HW231512   3.370   0.613   1.837 -0.1163  0.4359 -0.7035
 6626SOL     OW31513   4.677   0.186   8.609 -0.1265  0.1031 -0.1202
 6626SOL    HW131514   4.731   0.153   8.681  2.4477  0.8819 -1.7322
 6626SOL    HW231515   4.647   0.098   8.585 -0.2274  0.8444 -2.6797
 6627SOL     OW31516   4.170   1.497   8.904  0.2822  0.8288 -0.1988
 6627SOL    HW131517   4.168   1.483   8.809  1.3746 -1.8773  0.1677
 6627SOL    HW231518   4.243   1.558   8.909 -0.9879  2.2141  1.5628
 6628SOL     OW31519   3.428   4.480   1.215  0.4728  0.2778  0.8524
 6628SOL    HW131520   3.460   4.439   1.134  0.5027 -0.4986  1.2556
 6628SOL    HW231521   3.359   4.538   1.184  0.4206 -0.1705  0.1220
 6629SOL     OW31522   3.305   0.726   8.964  0.9175  0.6293  0.4124
 6629SOL    HW131523   3.290   0.673   9.042 -0.8486  2.0646  1.0515
 6629SOL    HW231524   3.321   0.815   8.997 -1.7350  1.9250 -1.8210
 6630SOL     OW31525   1.360   1.215   7.939 -0.1498  0.3528  0.6739
 6630SOL    HW131526   1.427   1.283   7.942  1.2857 -1.0509  0.3388
 6630SOL    HW231527   1.312   1.231   8.020 -1.0292  2.2479 -0.2151
 6631SOL     OW31528   2.074   1.576  15.423 -0.0113  0.3905 -0.2382
 6631SOL    HW131529   2.003   1.590  15.360 -1.8350  0.2726  1.7895
 6631SOL    HW231530   2.139   1.641  15.397 -0.4136  1.0211  0.3086
 6632SOL     OW31531   2.507   3.200   5.754 -0.6153  0.5074  0.0215
 6632SOL    HW131532   2.449   3.137   5.712 -0.1076  1.0584 -1.5038
 6632SOL    HW231533   2.507   3.162   5.841  0.4239  0.0783 -0.1661
 6633SOL     OW31534   2.262   1.616  12.463 -0.7005 -0.4465  0.2555
 6633SOL    HW131535   2.348   1.656  12.476 -0.0075 -1.7225 -0.3737
 6633SOL    HW231536   2.287   1.528  12.434 -0.0598  0.1858 -1.0671
 6634SOL     OW31537   1.690   0.401  13.980 -0.8231 -0.1806  0.3749
 6634SOL    HW131538   1.723   0.479  14.025 -0.1133 -1.1677  1.5878
 6634SOL    HW231539   1.736   0.331  14.025  1.3282 -0.1205 -1.7395
 6635SOL     OW31540   1.463   4.212  11.513  0.1380  0.6559  0.5480
 6635SOL    HW131541   1.419   4.285  11.469  0.2496  0.5628  0.2786
 6635SOL    HW231542   1.396   4.144  11.517 -1.5917  2.3391  0.0188
 6636SOL     OW31543   4.730   3.228   8.801 -0.5863  0.4710 -0.8492
 6636SOL    HW131544   0.066   3.167   8.819 -0.9178  0.5227  0.5846
 6636SOL    HW231545   4.659   3.165   8.797 -1.2577  0.9535  3.7128
 6637SOL     OW31546   2.372   2.053   7.595 -0.7159  0.4318  0.1707
 6637SOL    HW131547   2.389   2.003   7.515  0.6439 -1.6341  1.7351
 6637SOL    HW231548   2.293   2.009   7.626 -0.2332  0.4951  1.4563
 6638SOL     OW31549   0.587   2.690  11.125  0.4221 -0.1616 -0.2072
 6638SOL    HW131550   0.663   2.748  11.129  0.5286 -0.1848 -2.0448
 6638SOL    HW231551   0.563   2.704  11.217 -1.3044 -1.4658 -0.4639
 6639SOL     OW31552   0.631   3.773   2.463 -0.0806  0.2183  0.5569
 6639SOL    HW131553   0.672   3.825   2.532 -0.2915  0.7008  0.3191
 6639SOL    HW231554   0.571   3.724   2.519 -0.4308 -1.0132 -0.9041
 6640SOL     OW31555   0.168   1.616  15.174 -0.3049 -0.3656  0.3975
 6640SOL    HW131556   0.154   1.660  15.091  1.5349 -0.4942  0.0212
 6640SOL    HW231557   0.180   1.525  15.147  4.0068  0.2938  0.0688
 6641SOL     OW31558   0.938   4.655   7.818  0.2928  0.6402 -0.3798
 6641SOL    HW131559   1.015   4.693   7.860 -3.0350  5.5365  1.3399
 6641SOL    HW231560   0.951   4.659   7.724  0.0003  2.9971 -0.3047
 6642SOL     OW31561   1.104   1.647   1.718  0.6261  0.0034  0.2103
 6642SOL    HW131562   1.057   1.620   1.797 -2.1895  0.9024 -1.1551
 6642SOL    HW231563   1.109   1.567   1.667 -0.9682  0.2567 -0.3521
 6643SOL     OW31564   0.521   0.651   9.656  0.1982  0.8619 -0.2817
 6643SOL    HW131565   0.607   0.680   9.687 -1.0088  1.7413  2.2256
 6643SOL    HW231566   0.520   0.688   9.567  1.7530  0.5872 -0.4081
 6644SOL     OW31567   1.523   4.223   3.870 -0.3587  0.1828 -0.3392
 6644SOL    HW131568   1.453   4.225   3.804 -0.9247  1.5503  0.3030
 6644SOL    HW231569   1.521   4.130   3.892 -1.4155  0.5888  1.2375
 6645SOL     OW31570   3.322   4.363  17.380  0.4028 -0.6017  0.0291
 6645SOL    HW131571   3.236   4.356  17.339 -0.3768  0.5264  1.4440
 6645SOL    HW231572   3.299   4.420  17.454  0.4730 -0.8014  0.2065
 6646SOL     OW31573   3.133   0.197   5.073  0.5040 -0.3513  0.4398
 6646SOL    HW131574   3.187   0.274   5.058 -1.1988  1.0527  1.5303
 6646SOL    HW231575   3.137   0.177   5.166 -3.3860  0.1884  0.7398
 6647SOL     OW31576   0.987   1.052  15.621 -0.4068 -0.6292  0.4335
 6647SOL    HW131577   1.031   1.134  15.641  1.0558 -1.6629  1.4299
 6647SOL    HW231578   0.939   1.075  15.542  0.7024 -0.9813 -0.3311
 6648SOL     OW31579   0.827   0.364  16.940  0.3184  0.2271 -0.2691
 6648SOL    HW131580   0.894   0.389  16.877  0.4279 -0.9170 -0.6184
 6648SOL    HW231581   0.769   0.439  16.935  0.3043  0.1342 -1.4597
 6649SOL     OW31582   0.980   3.469   1.871  0.1670 -0.0583 -1.2448
 6649SOL    HW131583   1.001   3.392   1.924  1.8801  0.8148 -0.6874
 6649SOL    HW231584   0.919   3.424   1.812 -0.7005 -2.2560  1.3327
 6650SOL     OW31585   0.455   3.365   9.346  0.5918  0.0980 -0.3820
 6650SOL    HW131586   0.407   3.394   9.268  0.5631  1.1819  0.0489
 6650SOL    HW231587   0.387   3.302   9.373  0.3191  1.0385  1.1053
 6651SOL     OW31588   3.218   1.379   7.966  0.8977 -0.2544  0.0434
 6651SOL    HW131589   3.161   1.454   7.986  0.7572 -1.0341  2.5468
 6651SOL    HW231590   3.287   1.401   8.028 -0.2438  1.7471  0.6135
 6652SOL     OW31591   0.350   0.558  10.079 -0.1554  0.5312 -0.1506
 6652SOL    HW131592   0.428   0.524  10.034 -0.7885 -1.3962  0.2269
 6652SOL    HW231593   0.313   0.473  10.102 -0.5257 -0.3333 -3.9720
 6653SOL     OW31594   2.854   0.006  10.350  0.0118 -0.3803  0.1515
 6653SOL    HW131595   2.893   4.656  10.367 -0.3812 -0.2436  1.7042
 6653SOL    HW231596   2.793   0.018  10.422 -1.2288  2.2827 -1.3291
 6654SOL     OW31597   4.001   3.576   7.107 -0.2870 -0.4524  0.1982
 6654SOL    HW131598   4.011   3.572   7.202 -1.1120 -2.2917  0.2184
 6654SOL    HW231599   4.007   3.670   7.090  1.3892 -0.2908  1.6398
 6655SOL     OW31600   3.976   1.018   3.783 -0.3592 -0.4113 -0.1973
 6655SOL    HW131601   3.947   1.026   3.692 -1.4940 -0.8625  0.1347
 6655SOL    HW231602   4.026   0.937   3.777  0.7586  0.3550 -1.6360
 6656SOL     OW31603   1.902   3.510   8.116 -0.1368 -0.2420 -0.5853
 6656SOL    HW131604   1.816   3.526   8.155 -0.4879  1.3243 -2.0381
 6656SOL    HW231605   1.914   3.595   8.074 -0.5309  1.1550  2.1635
 6657SOL     OW31606   0.686   4.550   5.721  0.0841 -0.5082 -0.4496
 6657SOL    HW131607   0.598   4.528   5.690  0.5898 -1.0808 -1.4755
 6657SOL    HW231608   0.662   4.641   5.738  0.3154 -1.0434  2.7282
 6658SOL     OW31609   0.973   4.254   8.208 -0.0992 -0.3188  0.4142
 6658SOL    HW131610   0.970   4.338   8.253 -2.7453 -0.4657  0.5002
 6658SOL    HW231611   1.028   4.202   8.267 -0.0223  0.9176  1.4325
 6659SOL     OW31612   2.489   3.847   9.203  0.2367 -0.6545  0.0613
 6659SOL    HW131613   2.466   3.839   9.296  0.1012 -0.0446  0.0801
 6659SOL    HW231614   2.408   3.868   9.157  0.7836 -0.1264 -0.6665
 6660SOL     OW31615   1.160   2.038  11.174  0.4185  0.7804 -0.1906
 6660SOL    HW131616   1.073   2.037  11.135  0.8356 -0.6960 -1.0637
 6660SOL    HW231617   1.190   1.947  11.169  0.6867  0.8757 -0.2850
 6661SOL     OW31618   4.064   3.361   1.760  0.1093 -0.2119 -0.8431
 6661SOL    HW131619   4.002   3.430   1.782  0.8721  0.5186 -0.9787
 6661SOL    HW231620   4.112   3.396   1.685  2.3265  1.8739  1.5623
 6662SOL     OW31621   1.712   3.426  16.455 -0.7141  0.4777  0.1787
 6662SOL    HW131622   1.682   3.464  16.373  2.8534  1.3368 -0.7345
 6662SOL    HW231623   1.801   3.461  16.457 -0.4362 -0.1103 -2.3567
 6663SOL     OW31624   2.580   4.547   7.668  0.4909  0.5439  0.4301
 6663SOL    HW131625   2.617   4.576   7.585  0.7799 -0.3343  0.2549
 6663SOL    HW231626   2.561   4.458   7.639  2.8957  0.5534 -1.1095
 6664SOL     OW31627   2.965   3.154   0.234 -0.3888 -0.1634  0.2170
 6664SOL    HW131628   2.878   3.138   0.197 -0.9407  1.5589  0.7432
 6664SOL    HW231629   3.018   3.202   0.171  1.1962 -0.2876  1.4552
 6665SOL     OW31630   4.466   4.722   9.942  0.0905 -0.0596 -0.3322
 6665SOL    HW131631   4.556   4.734   9.970  0.3100  1.3579 -1.6291
 6665SOL    HW231632   4.453   0.068   9.893 -0.3221  0.4907  0.6735
 6666SOL     OW31633   4.680   2.356  16.651 -0.2090  0.0789  0.4875
 6666SOL    HW131634   4.676   2.270  16.693  2.0624 -0.4337 -0.3419
 6666SOL    HW231635   4.617   2.396  16.712 -0.8056  1.9045 -1.3382
 6667SOL     OW31636   0.465   3.787   4.299 -0.3685 -0.1502  0.3505
 6667SOL    HW131637   0.411   3.820   4.371 -1.5220  0.3693 -0.7442
 6667SOL    HW231638   0.533   3.853   4.300 -0.0256 -0.5078  0.4961
 6668SOL     OW31639   1.212   3.938   6.080 -0.7511 -0.2255 -0.6143
 6668SOL    HW131640   1.300   3.901   6.091 -1.1301 -0.4916  1.4095
 6668SOL    HW231641   1.164   3.864   6.041 -0.7579 -0.2730 -0.5165
 6669SOL     OW31642   4.082   1.479  15.159  0.0364 -0.4467 -0.1464
 6669SOL    HW131643   4.149   1.513  15.218  0.7294 -0.8142 -0.7134
 6669SOL    HW231644   4.027   1.557  15.153  0.3693 -0.0203  2.5617
 6670SOL     OW31645   0.657   4.679   5.117  0.3409 -0.4351  0.7047
 6670SOL    HW131646   0.607   4.713   5.192  2.0058  0.7132  1.2901
 6670SOL    HW231647   0.701   4.607   5.162  1.8025  0.0470  0.0433
 6671SOL     OW31648   0.910   0.947   1.531 -0.3215  0.3900 -0.3866
 6671SOL    HW131649   0.946   0.902   1.454 -0.9708  0.9017 -0.9815
 6671SOL    HW231650   0.937   0.892   1.605 -0.5665  1.3533  0.3999
 6672SOL     OW31651   0.706   3.781  17.643 -0.7001 -0.7128  0.3153
 6672SOL    HW131652   0.725   3.794  17.550 -0.8335  0.6498  0.4722
 6672SOL    HW231653   0.610   3.772  17.642 -0.8420  0.9061 -0.7839
 6673SOL     OW31654   4.504   4.041   8.087 -0.0101 -0.0050 -0.0574
 6673SOL    HW131655   4.557   4.069   8.161 -1.1770  2.3125 -0.0886
 6673SOL    HW231656   4.418   4.046   8.129  0.2434 -0.1496  0.4752
 6674SOL     OW31657   0.900   3.867  13.162 -0.3016  0.7478  0.4700
 6674SOL    HW131658   0.902   3.831  13.074  0.9437  0.6281  0.5568
 6674SOL    HW231659   0.975   3.830  13.208 -2.6074 -3.1397  1.1223
 6675SOL     OW31660   4.727   3.086   2.434 -0.3249  0.0165 -0.7681
 6675SOL    HW131661   4.664   3.149   2.470 -2.0764 -1.2458 -1.6314
 6675SOL    HW231662   4.678   3.026   2.377 -0.2394 -0.6663 -0.1206
 6676SOL     OW31663   4.281   1.954   2.696  0.0247 -0.3297 -0.5111
 6676SOL    HW131664   4.276   2.050   2.691  0.1281 -0.2870  0.1696
 6676SOL    HW231665   4.334   1.938   2.774  1.0095  0.9424 -0.9249
 6677SOL     OW31666   3.679   1.251   4.326 -0.1517 -0.0516  0.1167
 6677SOL    HW131667   3.672   1.161   4.359 -0.1731  0.4689  1.5675
 6677SOL    HW231668   3.618   1.231   4.255  1.8120 -0.8026 -1.3407
 6678SOL     OW31669   4.522   1.267   8.539 -0.2451  0.2052 -0.1485
 6678SOL    HW131670   4.597   1.226   8.496  0.5002 -0.0922  1.4239
 6678SOL    HW231671   4.528   1.360   8.515 -1.7320  0.3118 -0.1228
 6679SOL     OW31672   3.371   2.073   5.245  0.5922 -0.1682  0.5801
 6679SOL    HW131673   3.368   2.109   5.156 -1.8809  1.3690  1.2879
 6679SOL    HW231674   3.461   2.041   5.234 -0.5235 -2.3597 -1.8355
 6680SOL     OW31675   1.293   3.616  12.765  0.6885 -0.0795 -0.1214
 6680SOL    HW131676   1.359   3.681  12.790 -0.1225 -0.0084  1.7780
 6680SOL    HW231677   1.237   3.671  12.710  0.0606 -1.0655 -0.4668
 6681SOL     OW31678   1.561   2.597   7.830  0.9608  0.4801  0.1954
 6681SOL    HW131679   1.533   2.688   7.815 -0.2899 -0.2242 -1.8374
 6681SOL    HW231680   1.565   2.567   7.739 -1.0849  1.2230 -0.1531
 6682SOL     OW31681   3.432   0.558   7.653  0.1514  0.5711 -0.0863
 6682SOL    HW131682   3.413   0.474   7.695  0.6761  1.3034  1.5689
 6682SOL    HW231683   3.478   0.610   7.718 -0.0312 -0.8789  1.1889
 6683SOL     OW31684   3.120   3.168   8.613  0.3519  0.0672  0.7006
 6683SOL    HW131685   3.172   3.165   8.533  0.2317 -0.8989  0.6605
 6683SOL    HW231686   3.038   3.128   8.583  0.4160 -0.4058  1.1707
 6684SOL     OW31687   1.309   2.975   4.850 -0.4502 -0.6383  0.0243
 6684SOL    HW131688   1.238   3.004   4.907  0.8590 -2.7791  2.7569
 6684SOL    HW231689   1.374   3.045   4.849 -1.2296  0.0898 -0.2675
 6685SOL     OW31690   0.222   2.386   2.574  0.2200 -0.2419 -0.0338
 6685SOL    HW131691   0.268   2.303   2.570  0.0197 -0.1436 -4.4300
 6685SOL    HW231692   0.234   2.403   2.667 -2.4126 -1.0915  0.4676
 6686SOL     OW31693   4.621   4.574   6.006 -0.3355  0.0709  0.1401
 6686SOL    HW131694   4.531   4.542   5.992 -1.3535  2.5811  1.0422
 6686SOL    HW231695   4.608   4.619   6.090  0.5199  2.8536 -1.2434
 6687SOL     OW31696   0.520   2.484   4.718 -0.4059 -0.6974  0.0974
 6687SOL    HW131697   0.528   2.579   4.729  1.3716 -0.9674  1.0867
 6687SOL    HW231698   0.605   2.457   4.683 -0.4063 -0.2376 -0.2595
 6688SOL     OW31699   4.230   2.824  10.405 -0.1797 -0.5335 -0.1152
 6688SOL    HW131700   4.174   2.855  10.333 -0.1220 -1.7902 -0.7198
 6688SOL    HW231701   4.211   2.732  10.424 -0.0921 -0.7719 -1.1439
 6689SOL     OW31702   2.439   3.629   2.612  0.0595 -0.1685 -0.0708
 6689SOL    HW131703   2.486   3.615   2.530 -1.3567 -0.6372 -0.7918
 6689SOL    HW231704   2.507   3.661   2.672 -1.7575  0.4728  1.6744
 6690SOL     OW31705   4.122   4.202   3.682  0.4207  0.0040 -0.8918
 6690SOL    HW131706   4.183   4.270   3.709  1.0023 -0.6769 -0.4971
 6690SOL    HW231707   4.036   4.228   3.715  1.1134 -1.5025  2.0758
 6691SOL     OW31708   1.886   2.237   7.070  0.2378  0.2366  0.1650
 6691SOL    HW131709   1.925   2.158   7.032  2.6943  0.6137  1.9495
 6691SOL    HW231710   1.922   2.298   7.006  3.8682  0.3481  2.3048
 6692SOL     OW31711   0.737   4.024  17.075 -0.0812  0.3731  0.3280
 6692SOL    HW131712   0.707   3.955  17.016 -0.8945  2.7224 -2.0194
 6692SOL    HW231713   0.794   3.973  17.133  2.0988  1.2397 -1.0735
 6693SOL     OW31714   4.510   3.584   2.757  0.0456 -0.0958 -0.4007
 6693SOL    HW131715   4.591   3.611   2.714  0.2831  0.7817  0.5862
 6693SOL    HW231716   4.543   3.526   2.826  0.2351 -0.3500 -0.7021
 6694SOL     OW31717   4.554   1.339   6.888  0.0289  0.4493 -0.2634
 6694SOL    HW131718   4.600   1.343   6.972 -2.5146  1.0614  1.0933
 6694SOL    HW231719   4.534   1.431   6.875  1.4523  1.0674  1.8308
 6695SOL     OW31720   0.320   1.580   2.148 -0.3087  0.7070  0.3014
 6695SOL    HW131721   0.407   1.595   2.111 -0.3169 -0.4245 -0.1569
 6695SOL    HW231722   0.312   1.487   2.128 -0.9078  1.2713 -2.1154
 6696SOL     OW31723   4.635   2.616  11.551 -0.0535 -0.5637  0.2481
 6696SOL    HW131724   4.728   2.636  11.564  0.2252 -0.8402 -1.3178
 6696SOL    HW231725   4.603   2.666  11.626  0.5891  1.8381 -1.0793
 6697SOL     OW31726   2.720   3.854   8.031  0.2796 -0.4106  0.4784
 6697SOL    HW131727   2.638   3.827   7.989 -0.9204  4.0135  0.0611
 6697SOL    HW231728   2.759   3.891   7.951  1.1344  0.7821  1.4584
 6698SOL     OW31729   4.029   0.305   2.331  0.3195  0.0674 -0.2393
 6698SOL    HW131730   3.967   0.307   2.404  1.1205  0.5370  0.4297
 6698SOL    HW231731   4.098   0.243   2.355 -0.0772  0.9025  3.1109
 6699SOL     OW31732   0.427   1.272  15.274 -0.3793 -0.5889  0.1959
 6699SOL    HW131733   0.520   1.263  15.255 -0.1836  1.2156  0.2989
 6699SOL    HW231734   0.405   1.187  15.312  2.0577 -1.9355 -1.3789
 6700SOL     OW31735   0.973   4.592   9.764 -0.1077  0.2461  0.1686
 6700SOL    HW131736   0.921   4.571   9.687 -1.0108 -1.1813  1.1531
 6700SOL    HW231737   1.044   4.633   9.715  0.1548  0.9183  1.1121
 6701SOL     OW31738   0.636   4.127  11.047  0.2858 -0.3221  0.0943
 6701SOL    HW131739   0.711   4.183  11.064 -0.7692  0.9909  0.4702
 6701SOL    HW231740   0.645   4.124  10.951 -2.0635 -0.9954 -0.1124
 6702SOL     OW31741   4.119   0.352   7.144 -0.2580 -0.0629  0.2384
 6702SOL    HW131742   4.169   0.379   7.067 -2.2773  2.9750  0.0159
 6702SOL    HW231743   4.140   0.425   7.201  0.6496  0.4734 -0.7843
 6703SOL     OW31744   4.128   2.165  15.638  0.1932  0.7311  0.5573
 6703SOL    HW131745   4.090   2.121  15.561 -0.5842  1.7566  0.3498
 6703SOL    HW231746   4.198   2.106  15.664  0.4140  1.2041  1.0283
 6704SOL     OW31747   1.816   2.306   5.995  0.1865 -0.8652 -0.0964
 6704SOL    HW131748   1.822   2.402   5.992  2.1641 -0.9939 -0.4236
 6704SOL    HW231749   1.755   2.298   5.921 -0.2673 -0.0365  0.1940
 6705SOL     OW31750   0.686   2.871   7.984  0.2769  0.1325 -0.0088
 6705SOL    HW131751   0.645   2.897   8.066 -1.9272 -0.0755 -1.0555
 6705SOL    HW231752   0.637   2.790   7.969 -2.7008  1.8636  0.5976
 6706SOL     OW31753   2.437   4.090  15.175  0.1413  0.0297  0.1260
 6706SOL    HW131754   2.360   4.087  15.231  0.7806 -2.1531  0.9245
 6706SOL    HW231755   2.462   4.182  15.177 -0.8782  0.2855  1.3601
 6707SOL     OW31756   3.241   3.545   9.278 -0.2405 -0.2194 -0.0700
 6707SOL    HW131757   3.290   3.541   9.361  1.3124  0.8155 -0.9418
 6707SOL    HW231758   3.257   3.629   9.235 -0.3977  0.2417  0.7614
 6708SOL     OW31759   4.536   3.537   7.233  0.4826 -0.5935 -0.1918
 6708SOL    HW131760   4.480   3.511   7.306  3.2602 -0.8806  1.8403
 6708SOL    HW231761   4.585   3.454   7.235  1.1791 -0.2093 -0.9945
 6709SOL     OW31762   1.138   1.003  16.744  0.2274  0.3633 -0.0164
 6709SOL    HW131763   1.058   0.991  16.694  1.4719 -1.6279 -1.5617
 6709SOL    HW231764   1.196   0.930  16.721 -0.0416  0.0693  0.2491
 6710SOL     OW31765   2.708   0.181  11.411 -0.0459  0.1069  0.1972
 6710SOL    HW131766   2.697   0.266  11.453  1.0494 -0.1775  1.0883
 6710SOL    HW231767   2.669   0.121  11.474  1.3737 -0.7035  0.3210
 6711SOL     OW31768   4.129   3.631   9.318 -0.1770 -0.2353 -0.3713
 6711SOL    HW131769   4.204   3.571   9.311  1.8424  1.8936  2.6341
 6711SOL    HW231770   4.158   3.703   9.263 -0.5122  1.1442  1.2541
 6712SOL     OW31771   4.140   2.109   6.450  0.3452  0.1505  0.0492
 6712SOL    HW131772   4.068   2.127   6.389  0.6301  2.9456  0.5429
 6712SOL    HW231773   4.212   2.149   6.401  0.1821  1.0360  0.5269
 6713SOL     OW31774   0.644   0.100   2.002  0.3391  0.5394  0.3889
 6713SOL    HW131775   0.739   0.090   2.006  0.3313 -0.0528 -1.0028
 6713SOL    HW231776   0.612   0.083   2.091  2.3266 -1.2928  0.7459
 6714SOL     OW31777   1.241   2.003   8.294  0.0070 -0.3433  0.1822
 6714SOL    HW131778   1.177   2.012   8.365  0.7123  0.4616  0.7152
 6714SOL    HW231779   1.250   1.908   8.289  1.9599 -0.2098  1.0885
 6715SOL     OW31780   0.195   3.087   3.698 -0.1122 -0.2419  0.5310
 6715SOL    HW131781   0.146   3.167   3.716 -0.6886 -0.3437 -0.5814
 6715SOL    HW231782   0.238   3.109   3.615  1.0001 -0.9753  0.9133
 6716SOL     OW31783   2.860   0.237   3.732 -0.0119 -0.0265  0.4161
 6716SOL    HW131784   2.814   0.321   3.723  1.5021  0.8590  0.9018
 6716SOL    HW231785   2.864   0.240   3.828 -0.6099  2.9238  0.3617
 6717SOL     OW31786   4.489   3.792  13.638 -0.2998  1.0164  0.3022
 6717SOL    HW131787   4.465   3.709  13.680  1.5174  1.3728  2.1101
 6717SOL    HW231788   4.459   3.861  13.698 -3.1827 -0.7369  0.8210
 6718SOL     OW31789   2.900   3.083   4.180  0.4250 -0.2778  0.0371
 6718SOL    HW131790   2.809   3.056   4.190  0.3200  0.8942  2.2631
 6718SOL    HW231791   2.944   3.004   4.211  1.2647 -0.6036 -1.9800
 6719SOL     OW31792   2.636   2.294  14.563 -0.5690  0.2202 -0.1966
 6719SOL    HW131793   2.587   2.328  14.638 -1.7581  0.4366 -1.0792
 6719SOL    HW231794   2.723   2.314  14.598 -0.5043 -0.7757  0.2205
 6720SOL     OW31795   2.237   0.584   4.344  0.3411 -0.2543 -0.0411
 6720SOL    HW131796   2.311   0.638   4.315  0.0614  0.0243 -0.2433
 6720SOL    HW231797   2.240   0.604   4.437  0.6150 -0.0427 -0.0968
 6721SOL     OW31798   0.381   1.681   5.092  0.6689 -0.1189 -0.2341
 6721SOL    HW131799   0.388   1.772   5.065  1.0019 -0.3520 -0.9420
 6721SOL    HW231800   0.405   1.692   5.184  1.2737  0.3164 -0.4457
 6722SOL     OW31801   0.102   3.172   3.221 -0.4843  0.0669  0.3364
 6722SOL    HW131802   0.098   3.240   3.289 -0.1150 -0.2432  0.6721
 6722SOL    HW231803   0.167   3.213   3.164  2.1821 -1.5010  2.2386
 6723SOL     OW31804   3.512   1.672   7.642  0.2822 -0.4506  0.3746
 6723SOL    HW131805   3.530   1.743   7.703  0.3143  2.7671 -3.3965
 6723SOL    HW231806   3.451   1.612   7.686  1.4301 -2.2004 -0.4210
 6724SOL     OW31807   0.302   0.529   9.735  0.6920 -0.1869 -0.6353
 6724SOL    HW131808   0.382   0.578   9.717  0.5211  0.6589  0.9206
 6724SOL    HW231809   0.274   0.513   9.645  2.8491  0.0468 -1.3329
 6725SOL     OW31810   0.228   2.953   5.119  0.2497  0.1503  0.3497
 6725SOL    HW131811   0.319   2.926   5.126  0.2219  0.0171  0.2084
 6725SOL    HW231812   0.189   2.904   5.191  0.9176 -1.3321 -0.2990
 6726SOL     OW31813   2.039   1.166   8.186  0.0488 -0.3486 -0.2152
 6726SOL    HW131814   2.065   1.231   8.122  1.6782 -1.2220 -0.4365
 6726SOL    HW231815   1.979   1.111   8.136 -1.6703  0.3548  1.0919
 6727SOL     OW31816   4.203   1.848   6.469  0.0941  0.2549  0.0421
 6727SOL    HW131817   4.190   1.839   6.563  0.7884  1.5764  0.2576
 6727SOL    HW231818   4.178   1.940   6.462 -1.8938 -0.2965 -0.0099
 6728SOL     OW31819   2.027   0.351   7.774  0.0380  0.4850 -0.2952
 6728SOL    HW131820   2.008   0.366   7.867 -1.4598 -1.9440 -0.2276
 6728SOL    HW231821   2.111   0.306   7.771  0.4316  1.1951  0.1516
 6729SOL     OW31822   1.130   3.955   0.657 -0.0283 -0.4366 -0.8825
 6729SOL    HW131823   1.219   3.930   0.633  0.1333  1.0184 -1.7823
 6729SOL    HW231824   1.142   4.050   0.654  1.0580 -0.5464  0.1450
 6730SOL     OW31825   1.748   1.885  13.477 -0.3607  0.2948  0.2052
 6730SOL    HW131826   1.729   1.940  13.553  2.5571  0.1819  1.0214
 6730SOL    HW231827   1.711   1.802  13.508  0.1254  0.5799  1.5518
 6731SOL     OW31828   1.963   4.610   8.351 -0.3235  0.0327  0.2148
 6731SOL    HW131829   2.058   4.602   8.358 -0.2026  1.6921  0.3471
 6731SOL    HW231830   1.933   4.633   8.439 -1.1697  2.2946 -0.6572
 6732SOL     OW31831   3.970   3.848   7.660  0.2102 -0.4405 -0.0371
 6732SOL    HW131832   4.000   3.758   7.669 -2.1474 -1.1577  0.7885
 6732SOL    HW231833   3.876   3.833   7.645  0.3248 -1.6454  0.4649
 6733SOL     OW31834   3.428   3.506   5.258 -0.5926  0.2186  0.5732
 6733SOL    HW131835   3.382   3.510   5.342 -1.4883 -2.6363  0.2005
 6733SOL    HW231836   3.491   3.577   5.272 -0.6461  0.4021 -0.1000
 6734SOL     OW31837   3.787   1.998   0.440  0.5318 -0.7757  0.2352
 6734SOL    HW131838   3.838   1.919   0.422  0.7708 -0.6158  0.2099
 6734SOL    HW231839   3.793   2.022   0.347 -0.9430 -2.5393 -0.3276
 6735SOL     OW31840   3.239   0.714  15.701  0.2568 -0.7392 -0.0541
 6735SOL    HW131841   3.294   0.781  15.742 -0.5406 -0.6422  0.8477
 6735SOL    HW231842   3.282   0.630  15.718  1.2010  0.0742  1.5757
 6736SOL     OW31843   4.075   0.729   8.077 -0.4252  0.1962 -0.1075
 6736SOL    HW131844   4.082   0.638   8.107  0.5119 -0.3006 -1.8097
 6736SOL    HW231845   4.143   0.730   8.010  0.4525  1.2954  0.7933
 6737SOL     OW31846   3.705   2.517   5.516  0.4247  0.0804  0.4443
 6737SOL    HW131847   3.621   2.525   5.472  0.1377  0.5222  1.0826
 6737SOL    HW231848   3.710   2.424   5.492  0.1388  0.8391 -2.4882
 6738SOL     OW31849   0.588   3.654   0.155  0.3518  0.2952  0.3825
 6738SOL    HW131850   0.672   3.610   0.167  0.5780  0.5941 -0.1024
 6738SOL    HW231851   0.593   3.668   0.060 -1.1913  1.2451  0.4415
 6739SOL     OW31852   2.344   2.099  16.750 -0.6503 -0.0260  0.2617
 6739SOL    HW131853   2.330   2.069  16.839  0.5435 -3.5549 -0.7438
 6739SOL    HW231854   2.283   2.171  16.763  1.6785  1.5553  2.4491
 6740SOL     OW31855   3.295   2.283  17.227 -0.1626  0.6122 -0.2818
 6740SOL    HW131856   3.272   2.231  17.304 -0.2261 -0.2651 -0.8783
 6740SOL    HW231857   3.230   2.352  17.240 -0.2291  0.7390 -1.3037
 6741SOL     OW31858   1.171   0.402  16.472 -0.6719  0.9787  0.2015
 6741SOL    HW131859   1.147   0.432  16.385 -1.4118  0.1802  0.1333
 6741SOL    HW231860   1.098   0.340  16.468  0.7702 -0.6108 -1.6507
 6742SOL     OW31861   0.592   0.348  13.948 -0.1864  0.5727 -0.1735
 6742SOL    HW131862   0.545   0.417  13.901 -0.4750  0.0162 -0.6976
 6742SOL    HW231863   0.618   0.406  14.019  3.0277 -3.0999  1.6118
 6743SOL     OW31864   3.809   2.925   9.130 -0.4280 -0.0125 -0.2339
 6743SOL    HW131865   3.818   2.962   9.042  0.1915  0.1608 -0.0929
 6743SOL    HW231866   3.760   2.995   9.174 -0.9625 -0.5014 -0.0443
 6744SOL     OW31867   0.594   0.085   2.285 -0.4178 -0.3928  0.0420
 6744SOL    HW131868   0.506   0.110   2.315  0.5489  0.1968  2.4075
 6744SOL    HW231869   0.596   4.734   2.327 -1.0663 -1.6943 -2.6373
 6745SOL     OW31870   1.119   0.983   5.038  0.0739  0.2626 -0.3167
 6745SOL    HW131871   1.112   1.067   5.084 -2.4902  1.0432 -2.0824
 6745SOL    HW231872   1.204   0.963   5.075 -0.6138 -2.4138 -0.1864
 6746SOL     OW31873   1.220   0.773   9.978  0.2546  0.0563  0.0135
 6746SOL    HW131874   1.185   0.857   9.951  0.3706  0.0973 -0.0070
 6746SOL    HW231875   1.286   0.802  10.041 -2.0744 -0.2757  2.6146
 6747SOL     OW31876   3.813   0.252   7.714 -0.2900 -0.0876 -0.4634
 6747SOL    HW131877   3.857   0.184   7.664 -0.1593  0.0609 -0.5484
 6747SOL    HW231878   3.861   0.333   7.702 -1.8400  0.9292  0.1788
 6748SOL     OW31879   2.068   1.544  12.113  0.5492 -0.0428  0.1691
 6748SOL    HW131880   2.026   1.578  12.191 -1.9832 -1.2710 -0.6389
 6748SOL    HW231881   2.097   1.629  12.079  1.5602  0.0905  1.3753
 6749SOL     OW31882   1.048   2.085   8.524  0.0963  0.5148  0.3474
 6749SOL    HW131883   1.101   2.018   8.567 -1.5576  0.7768  2.7755
 6749SOL    HW231884   0.987   2.091   8.597  0.3737  2.6773  0.3981
 6750SOL     OW31885   3.244   0.601   1.744 -0.3167 -0.5032 -0.4169
 6750SOL    HW131886   3.221   0.659   1.672 -0.2222  1.4539  1.1169
 6750SOL    HW231887   3.299   0.539   1.697  1.8095  1.7737 -0.9338
 6751SOL     OW31888   3.452   3.443   2.651 -0.2706 -0.3854 -0.2541
 6751SOL    HW131889   3.472   3.379   2.583 -1.5688 -0.3044 -0.7115
 6751SOL    HW231890   3.431   3.391   2.728 -3.4369  1.9059  0.4381
 6752SOL     OW31891   4.446   2.053   1.821 -0.2981 -0.2293 -0.6419
 6752SOL    HW131892   4.424   1.976   1.874 -0.3081  0.3945  0.2698
 6752SOL    HW231893   4.361   2.096   1.810  0.9189  1.9849 -1.4372
 6753SOL     OW31894   0.714   1.535   0.350 -0.0549 -0.2494  0.1649
 6753SOL    HW131895   0.684   1.610   0.402  0.7653 -0.8370  1.5048
 6753SOL    HW231896   0.635   1.524   0.298  0.2449 -2.2287  0.1507
 6754SOL     OW31897   4.641   2.011   4.873 -0.0263 -0.2034 -0.2441
 6754SOL    HW131898   4.723   2.027   4.921  0.1370  0.0875 -0.6177
 6754SOL    HW231899   4.667   1.932   4.824 -1.2903  0.7541 -2.4454
 6755SOL     OW31900   1.394   0.309   7.748  0.0489  0.5816  0.4677
 6755SOL    HW131901   1.395   0.276   7.838  1.6157  0.1902  0.3038
 6755SOL    HW231902   1.378   0.402   7.761  3.3814  1.2311 -0.1663
 6756SOL     OW31903   0.609   1.319   0.934  0.1412  0.0791 -0.0455
 6756SOL    HW131904   0.578   1.293   1.021  2.6649 -2.0906  0.2252
 6756SOL    HW231905   0.692   1.273   0.922 -1.2387 -1.9102 -1.7979
 6757SOL     OW31906   2.206   0.423   4.021 -0.2795  0.4219  0.2860
 6757SOL    HW131907   2.177   0.336   3.992  2.0152  0.7594 -3.0091
 6757SOL    HW231908   2.121   0.466   4.028 -0.1194  1.3135 -3.0799
 6758SOL     OW31909   3.276   0.854   7.525  0.5167  0.7463 -0.3024
 6758SOL    HW131910   3.328   0.799   7.584  0.7073  0.8869 -0.3388
 6758SOL    HW231911   3.245   0.920   7.586  2.1523  1.3875 -0.1609
 6759SOL     OW31912   2.650   3.949  13.760  0.2559 -0.5291 -0.1646
 6759SOL    HW131913   2.555   3.957  13.749  0.4926  2.0851 -0.2757
 6759SOL    HW231914   2.676   3.963  13.669  1.6313 -2.2308 -0.0327
 6760SOL     OW31915   3.159   1.053   8.664 -0.2661 -0.8418  0.4196
 6760SOL    HW131916   3.179   1.053   8.570  0.8659 -1.0550  0.6592
 6760SOL    HW231917   3.245   1.083   8.694 -0.4334  0.5656 -0.4546
 6761SOL     OW31918   2.257   1.161  11.376 -0.4191 -0.3557  0.0353
 6761SOL    HW131919   2.218   1.187  11.292 -2.2257 -0.1432  0.9315
 6761SOL    HW231920   2.228   1.070  11.376  1.5135 -0.9697 -1.8006
 6762SOL     OW31921   1.247   3.793   5.285 -0.6983 -0.5684 -0.4173
 6762SOL    HW131922   1.218   3.855   5.352 -0.0476 -2.9262  2.0414
 6762SOL    HW231923   1.216   3.840   5.208 -0.4923 -0.3994 -0.3982
 6763SOL     OW31924   0.391   3.224   7.733 -0.0734 -0.7538  0.5555
 6763SOL    HW131925   0.439   3.251   7.812 -0.2595 -0.1482  0.4663
 6763SOL    HW231926   0.452   3.231   7.660 -0.7453  1.0678  0.1445
 6764SOL     OW31927   1.893   3.729   1.970 -0.6565 -0.2789  0.0002
 6764SOL    HW131928   1.813   3.770   1.937  0.8301  1.2252 -1.7411
 6764SOL    HW231929   1.942   3.795   2.020 -1.6841 -0.0764  0.7289
 6765SOL     OW31930   2.336   2.172  11.162 -0.4057  0.2182  0.2255
 6765SOL    HW131931   2.301   2.256  11.133 -2.0292 -0.8142 -0.8168
 6765SOL    HW231932   2.379   2.200  11.243 -0.4482  1.4441 -0.1691
 6766SOL     OW31933   3.561   3.532   9.594  0.7219 -0.1572 -0.0803
 6766SOL    HW131934   3.555   3.534   9.689 -0.6299  0.0758 -0.1634
 6766SOL    HW231935   3.579   3.439   9.580 -0.3302 -0.6029  1.4888
 6767SOL     OW31936   2.441   3.104   3.526  0.0662  0.1396  0.1139
 6767SOL    HW131937   2.360   3.155   3.524 -0.1955 -0.3502 -2.0213
 6767SOL    HW231938   2.413   3.013   3.534 -2.1814  0.9856  1.6402
 6768SOL     OW31939   2.708   1.899   2.539 -0.5136 -0.4128  0.1385
 6768SOL    HW131940   2.781   1.901   2.476 -0.7027  1.4690 -0.0202
 6768SOL    HW231941   2.744   1.854   2.615  1.0786  1.0745  0.2664
 6769SOL     OW31942   0.978   0.477   5.969  0.3359 -0.2456  0.0207
 6769SOL    HW131943   1.024   0.546   6.016 -2.2802  2.3699 -1.2963
 6769SOL    HW231944   0.917   0.445   6.036 -1.6028 -2.1779 -2.6433
 6770SOL     OW31945   2.415   3.982   6.682 -0.0063 -0.4092  0.1898
 6770SOL    HW131946   2.353   4.048   6.713 -2.3209 -2.6032  0.2236
 6770SOL    HW231947   2.424   4.010   6.591 -1.2152  1.3681  0.6265
 6771SOL     OW31948   1.345   0.879  11.169 -0.0937 -0.2699 -0.1056
 6771SOL    HW131949   1.298   0.809  11.124 -0.7959  0.0549  0.1069
 6771SOL    HW231950   1.270   0.926  11.207  0.3553  0.3224  0.0551
 6772SOL     OW31951   2.391   3.455  11.845 -0.0254  0.5702  0.4951
 6772SOL    HW131952   2.483   3.473  11.864  0.6852 -0.9249 -1.5723
 6772SOL    HW231953   2.373   3.440  11.937  1.7618 -0.7499  0.6308
 6773SOL     OW31954   4.308   3.807   3.311  0.0036 -0.5547 -0.2276
 6773SOL    HW131955   4.310   3.833   3.219  0.8349  1.6679  0.4107
 6773SOL    HW231956   4.396   3.771   3.318 -0.2241 -0.9169  0.8021
 6774SOL     OW31957   1.143   4.213   3.056 -0.0656  0.0248  0.4448
 6774SOL    HW131958   1.209   4.164   3.106 -0.5103 -0.7410  0.2901
 6774SOL    HW231959   1.154   4.304   3.084  0.3732  0.6114 -1.6511
 6775SOL     OW31960   4.247   0.919   6.305  0.9634 -0.2894  0.2628
 6775SOL    HW131961   4.218   0.865   6.231  0.1375 -1.2510  1.2958
 6775SOL    HW231962   4.177   0.902   6.367  2.6510 -0.7606  2.0213
 6776SOL     OW31963   1.964   1.816   1.419 -0.1641 -0.0359  0.1644
 6776SOL    HW131964   1.930   1.843   1.504  4.6875 -2.1435  2.7747
 6776SOL    HW231965   1.923   1.874   1.355 -3.0352 -1.2222  0.9073
 6777SOL     OW31966   1.013   1.847  10.614  0.2092  0.4229 -0.5708
 6777SOL    HW131967   0.947   1.885  10.555 -4.1483 -1.2293  3.1948
 6777SOL    HW231968   1.028   1.762  10.573 -1.1370 -0.6566  1.1868
 6778SOL     OW31969   1.455   3.101   4.574 -0.8650 -0.0068 -0.2751
 6778SOL    HW131970   1.452   3.193   4.547 -0.4613 -0.2332 -1.0895
 6778SOL    HW231971   1.490   3.108   4.662 -0.1775  2.7393 -0.7657
 6779SOL     OW31972   4.471   0.262   8.281  0.5964  0.1498 -0.2485
 6779SOL    HW131973   4.389   0.262   8.331  1.2592 -1.5487  0.8075
 6779SOL    HW231974   4.451   0.191   8.220 -2.7827  1.6839 -0.9255
 6780SOL     OW31975   0.382   4.043   7.498  0.1465  0.4152  0.6783
 6780SOL    HW131976   0.387   3.974   7.432  1.9337  2.1268 -0.9758
 6780SOL    HW231977   0.473   4.034   7.527  0.7187 -0.4242 -1.4235
 6781SOL     OW31978   3.479   2.222  10.537  0.3327  0.0531  0.0260
 6781SOL    HW131979   3.488   2.154  10.470 -1.0183  2.6580 -2.7811
 6781SOL    HW231980   3.415   2.285  10.504  0.5885 -0.7598 -2.0104
 6782SOL     OW31981   2.705   2.337  17.710 -0.2529 -0.5014 -0.4013
 6782SOL    HW131982   2.765   2.402   0.006 -0.5445  0.0763 -0.9316
 6782SOL    HW231983   2.772   2.274  17.685  0.4973 -0.3081  1.1012
 6783SOL     OW31984   0.089   3.103   6.960 -0.1442 -0.2242 -0.2346
 6783SOL    HW131985   0.046   3.021   6.986 -0.2606 -0.6687 -1.8358
 6783SOL    HW231986   0.028   3.130   6.891  1.1129  1.7251 -0.6060
 6784SOL     OW31987   0.999   1.573   4.962 -0.5725 -0.4150  0.0324
 6784SOL    HW131988   1.079   1.623   4.979 -1.1582  0.5878 -0.1752
 6784SOL    HW231989   1.035   1.490   4.931  0.6143 -0.3578  1.2372
 6785SOL     OW31990   3.666   4.687  17.268  0.0546 -0.8898  0.1651
 6785SOL    HW131991   3.731   4.618  17.259 -0.6658 -1.1235 -3.1520
 6785SOL    HW231992   3.646   4.675  17.361  0.4560 -1.1544  0.2125
 6786SOL     OW31993   0.779   4.685   8.327 -0.1128  0.3701  0.0589
 6786SOL    HW131994   0.794   4.667   8.234 -1.2831  0.8757 -0.2315
 6786SOL    HW231995   0.833   4.615   8.364 -2.8139 -1.9761 -0.4208
 6787SOL     OW31996   3.893   4.050   4.356 -0.3500 -0.2025 -0.4753
 6787SOL    HW131997   3.828   4.072   4.290  0.2745 -0.0653 -1.0457
 6787SOL    HW231998   3.971   4.083   4.311 -0.2419 -1.3075 -1.1052
 6788SOL     OW31999   4.233   4.374  15.658 -0.5497 -0.1951 -0.1652
 6788SOL    HW132000   4.301   4.308  15.672 -1.8168 -1.3958  0.3088
 6788SOL    HW232001   4.276   4.434  15.719 -0.8573 -0.8709  0.7127
 6789SOL     OW32002   3.950   2.556  15.099 -0.0378  0.0045 -0.3740
 6789SOL    HW132003   3.924   2.606  15.176 -0.8311 -0.0430 -0.6186
 6789SOL    HW232004   3.895   2.596  15.032  1.2236  1.0771 -0.7853
 6790SOL     OW32005   4.577   4.370   9.060  0.3924 -0.2153 -0.3439
 6790SOL    HW132006   4.573   4.309   9.133  0.3034  0.7712  0.4700
 6790SOL    HW232007   4.569   4.442   9.122 -4.5306 -0.8742 -0.2409
 6791SOL     OW32008   3.712   1.769   8.450  0.2586 -0.0714  0.4038
 6791SOL    HW132009   3.727   1.771   8.544  0.1632 -0.6618  0.4293
 6791SOL    HW232010   3.794   1.800   8.412  1.0843 -1.7779  0.8053
 6792SOL     OW32011   1.882   3.757   8.010  0.2802 -0.0898 -0.1986
 6792SOL    HW132012   1.917   3.806   8.084 -3.9230 -0.7557  2.2529
 6792SOL    HW232013   1.865   3.832   7.953  0.6752 -0.8759 -1.3426
 6793SOL     OW32014   3.266   1.752   9.157 -0.0707  0.2229 -0.6490
 6793SOL    HW132015   3.253   1.808   9.080  0.6149  2.6711  1.0125
 6793SOL    HW232016   3.179   1.747   9.197  1.0530 -1.1910  1.6024
 6794SOL     OW32017   0.974   0.485  10.257 -0.1176 -0.3617 -0.2479
 6794SOL    HW132018   1.001   0.476  10.165  0.3137 -1.2927 -0.0334
 6794SOL    HW232019   1.001   0.399  10.289  0.5869  0.7998  2.2841
 6795SOL     OW32020   2.382   4.562   7.418 -0.1465 -0.4344 -0.4017
 6795SOL    HW132021   2.346   4.555   7.330 -1.4501 -1.9311  0.2388
 6795SOL    HW232022   2.308   4.538   7.474 -0.6850 -0.0467 -0.9543
 6796SOL     OW32023   0.162   1.933   3.433  0.6294  0.1458 -0.0029
 6796SOL    HW132024   0.078   1.887   3.442 -0.2305  1.4497 -1.5633
 6796SOL    HW232025   0.182   1.952   3.525  0.5056 -2.1685  0.5091
 6797SOL     OW32026   4.248   0.563   6.587 -0.4521 -0.2179  0.1960
 6797SOL    HW132027   4.314   0.618   6.544 -0.3892  0.8568  1.6629
 6797SOL    HW232028   4.183   0.633   6.594  0.8356  1.1112 -1.0356
 6798SOL     OW32029   2.546   2.910   5.258 -0.3526 -0.2002  0.2999
 6798SOL    HW132030   2.495   2.990   5.246 -2.0795 -1.4355 -0.4326
 6798SOL    HW232031   2.485   2.851   5.214 -2.0382  1.4283  0.4580
 6799SOL     OW32032   1.887   1.668  12.953  0.2537 -0.0621 -0.2454
 6799SOL    HW132033   1.954   1.671  13.022  0.2178 -0.5698 -0.1902
 6799SOL    HW232034   1.815   1.618  12.991 -1.1140  2.8299  0.9923
 6800SOL     OW32035   3.713   1.494   2.060 -0.5151  0.2774  0.1234
 6800SOL    HW132036   3.625   1.494   2.024  0.5124 -0.9603 -2.4341
 6800SOL    HW232037   3.731   1.579   2.100 -0.4533  0.7407 -0.8777
 6801SOL     OW32038   1.266   3.714   7.133 -0.1503  0.1159  0.8346
 6801SOL    HW132039   1.244   3.778   7.065 -0.4612 -0.3318  0.5124
 6801SOL    HW232040   1.181   3.674   7.152  1.6903 -2.8422  2.8358
 6802SOL     OW32041   2.939   2.187   7.752  0.4777 -0.4974 -0.2371
 6802SOL    HW132042   2.850   2.156   7.732  0.8884 -0.8751 -1.4420
 6802SOL    HW232043   2.925   2.238   7.832  1.5525  1.8980 -1.5697
 6803SOL     OW32044   1.183   0.752   6.393 -0.2860  0.0369  0.5634
 6803SOL    HW132045   1.193   0.797   6.477 -1.5076  0.5552  0.4407
 6803SOL    HW232046   1.156   0.666   6.425  0.8869 -0.1366  1.0885
 6804SOL     OW32047   1.127   1.214   7.773  0.2309  0.0229 -0.3225
 6804SOL    HW132048   1.141   1.278   7.703 -2.5563  2.0072  0.9500
 6804SOL    HW232049   1.194   1.237   7.838 -1.4110 -1.2481  1.8298
 6805SOL     OW32050   1.950   3.577   6.942 -0.3220 -0.0032 -0.3909
 6805SOL    HW132051   1.901   3.568   7.024 -1.5240  1.3129 -0.9567
 6805SOL    HW232052   1.944   3.672   6.930  0.7886  0.3811  2.0529
 6806SOL     OW32053   0.184   3.942   3.874 -0.1471 -0.2322 -0.2492
 6806SOL    HW132054   0.222   3.889   3.804  1.0051  1.7147 -1.1016
 6806SOL    HW232055   0.193   3.886   3.950  2.0624  0.4693  0.0116
 6807SOL     OW32056   2.344   3.664   7.639 -0.0789 -0.1593  0.0435
 6807SOL    HW132057   2.253   3.690   7.655  0.4467 -0.3148  3.2167
 6807SOL    HW232058   2.349   3.665   7.543  2.6022  2.3140  0.2280
 6808SOL     OW32059   2.736   2.525   6.819 -0.1862  0.2129 -0.5471
 6808SOL    HW132060   2.736   2.503   6.913  1.1901  0.0998 -0.5728
 6808SOL    HW232061   2.788   2.452   6.787  0.8501  1.7715 -2.3845
 6809SOL     OW32062   2.945   3.561   4.450  0.2072  0.3852 -0.0154
 6809SOL    HW132063   2.926   3.528   4.363 -2.6919 -0.8507  1.0983
 6809SOL    HW232064   3.000   3.637   4.431  0.4187  0.1709 -0.2525
 6810SOL     OW32065   0.036   4.289  11.490  0.7049 -0.4489 -0.2313
 6810SOL    HW132066   0.096   4.293  11.416  0.1879  3.1084 -0.4780
 6810SOL    HW232067   4.706   4.231  11.452  0.4047 -0.3827  0.1842
 6811SOL     OW32068   1.933   3.287   7.214  0.1205 -0.0333  0.6255
 6811SOL    HW132069   1.918   3.193   7.208  1.2956 -0.0582 -1.7811
 6811SOL    HW232070   1.870   3.328   7.156 -1.1484 -1.9668  0.6412
 6812SOL     OW32071   3.399   0.442   1.584  0.2936  0.0567 -0.1339
 6812SOL    HW132072   3.461   0.396   1.641 -0.2960 -0.7475 -0.1398
 6812SOL    HW232073   3.376   0.374   1.520 -1.5341 -0.0548  0.6333
 6813SOL     OW32074   3.510   0.137   0.062  0.1057  0.3695  0.5654
 6813SOL    HW132075   3.466   0.100  17.726  1.3114  1.6768 -0.7551
 6813SOL    HW232076   3.565   0.203   0.021 -0.7108  1.3874  1.1152
 6814SOL     OW32077   2.119   0.191   3.905  0.3626 -0.1617 -0.3325
 6814SOL    HW132078   2.184   0.123   3.921  2.5554  1.9973 -0.1161
 6814SOL    HW232079   2.045   0.134   3.885  1.5169 -1.9851  0.6493
 6815SOL     OW32080   2.665   3.398   0.333  0.0466  0.5962  0.3004
 6815SOL    HW132081   2.736   3.460   0.317  0.3337  0.1569 -0.1695
 6815SOL    HW232082   2.644   3.365   0.245 -1.7434  0.6539  0.7060
 6816SOL     OW32083   0.329   4.098   5.996  0.1977 -0.7235 -0.3438
 6816SOL    HW132084   0.342   4.152   6.074  1.1319 -0.8709 -0.4051
 6816SOL    HW232085   0.415   4.056   6.000 -0.0579 -0.9301  2.6554
 6817SOL     OW32086   3.173   3.603   4.764 -0.0826 -0.2492 -0.2966
 6817SOL    HW132087   3.088   3.580   4.800  0.8637 -0.2662  1.9371
 6817SOL    HW232088   3.223   3.585   4.843 -1.3036  2.2859  1.0334
 6818SOL     OW32089   2.144   1.561   6.300 -0.0892 -0.1138 -0.4959
 6818SOL    HW132090   2.215   1.497   6.290  0.7086  0.6516  0.2810
 6818SOL    HW232091   2.182   1.641   6.336 -0.3648 -0.3413  0.3135
 6819SOL     OW32092   4.331   3.662   9.641 -0.0090 -0.2991 -0.5762
 6819SOL    HW132093   4.243   3.634   9.664  0.7777 -1.5512  0.8877
 6819SOL    HW232094   4.312   3.734   9.580 -1.7354  0.4662  0.8800
 6820SOL     OW32095   3.346   1.300   5.408  0.2225  0.2282 -0.1460
 6820SOL    HW132096   3.330   1.224   5.351 -0.5622 -0.8624  1.5334
 6820SOL    HW232097   3.436   1.280   5.433 -0.3803  0.7153  2.4402
 6821SOL     OW32098   3.659   4.467  10.868 -0.4538  0.5139 -0.3776
 6821SOL    HW132099   3.664   4.503  10.779 -1.8384  0.7214 -0.3623
 6821SOL    HW232100   3.734   4.409  10.882 -0.4786  0.1645 -1.6472
 6822SOL     OW32101   4.093   3.714   9.825 -0.1161 -0.1206 -0.1854
 6822SOL    HW132102   4.067   3.804   9.802  0.9368 -0.0186 -0.9545
 6822SOL    HW232103   4.136   3.737   9.907 -0.5442 -0.7550  0.2110
 6823SOL     OW32104   2.189   0.389   2.911 -0.2474 -0.3214 -0.5392
 6823SOL    HW132105   2.132   0.387   2.988  2.4225  4.3891  1.4948
 6823SOL    HW232106   2.269   0.410   2.958 -0.1569  0.5790 -1.0900
 6824SOL     OW32107   2.751   4.351  11.729  0.2178 -0.6759  0.4418
 6824SOL    HW132108   2.696   4.375  11.804  0.3394  1.9008 -0.3082
 6824SOL    HW232109   2.791   4.429  11.691  0.0477  0.1776  2.0411
 6825SOL     OW32110   2.349   0.260   1.417  0.2731 -0.2363 -0.4985
 6825SOL    HW132111   2.351   0.356   1.419  4.1293 -0.3326 -0.0806
 6825SOL    HW232112   2.426   0.233   1.368 -0.2377 -1.8247 -0.4216
 6826SOL     OW32113   4.118   4.369   2.941  0.0216  0.0699  0.6171
 6826SOL    HW132114   4.141   4.345   2.851 -2.2675 -0.5958  0.2227
 6826SOL    HW232115   4.167   4.451   2.940 -0.4406  0.3339  0.1713
 6827SOL     OW32116   0.809   0.485   2.467  0.0564 -0.8055  0.1160
 6827SOL    HW132117   0.784   0.421   2.401  0.7192 -1.0058  0.0634
 6827SOL    HW232118   0.789   0.570   2.426 -0.4559 -0.5476  0.8996
 6828SOL     OW32119   2.309   3.076  15.296 -0.5782  0.1581  0.1647
 6828SOL    HW132120   2.254   3.028  15.357  0.4576 -1.8250 -0.4810
 6828SOL    HW232121   2.325   3.011  15.228 -1.1792  1.7575 -1.5196
 6829SOL     OW32122   0.549   4.077   5.171  0.0904  0.3153 -0.0633
 6829SOL    HW132123   0.472   4.072   5.115  0.6186 -0.2284 -0.7505
 6829SOL    HW232124   0.601   4.002   5.141 -1.4423 -1.1673  1.0094
 6830SOL     OW32125   2.815   1.983   0.445 -0.2261  0.0763  0.5403
 6830SOL    HW132126   2.811   2.078   0.447  1.6659  0.1496  0.9391
 6830SOL    HW232127   2.808   1.956   0.353  0.5379  0.1544  0.4572
 6831SOL     OW32128   4.387   2.048  15.699 -0.5632  0.2308  0.1375
 6831SOL    HW132129   4.402   2.110  15.770  1.8110 -0.3662  0.1508
 6831SOL    HW232130   4.478   2.029  15.676 -0.7477 -0.7420  0.1769
 6832SOL     OW32131   4.036   0.102   4.037 -0.0826 -0.1655 -0.5271
 6832SOL    HW132132   4.034   0.009   4.059 -0.1156 -0.6050 -2.4583
 6832SOL    HW232133   3.943   0.124   4.030 -0.0810 -0.0614 -0.2281
 6833SOL     OW32134   3.738   2.416   4.947 -0.4196 -0.2333 -0.0024
 6833SOL    HW132135   3.658   2.428   4.997  0.5942  0.1992  1.5452
 6833SOL    HW232136   3.747   2.506   4.915 -3.1552 -1.1540 -3.2267
 6834SOL     OW32137   3.122   4.595   2.917 -0.4090 -0.2491 -0.4820
 6834SOL    HW132138   3.101   4.534   2.847 -0.8758 -0.6501  0.0089
 6834SOL    HW232139   3.217   4.594   2.928 -0.5421 -1.5352  0.4361
 6835SOL     OW32140   0.038   1.011   8.247  0.2531  0.3412  0.0865
 6835SOL    HW132141   4.701   0.949   8.246 -1.0387  1.8652 -0.5685
 6835SOL    HW232142   0.024   1.056   8.163 -0.0932  0.0851  0.0053
 6836SOL     OW32143   0.374   1.042   6.554  0.6235 -0.3757 -0.2821
 6836SOL    HW132144   0.462   1.005   6.560  0.8406  0.3327  0.9362
 6836SOL    HW232145   0.372   1.118   6.612 -0.1651 -0.1368 -0.6178
 6837SOL     OW32146   3.985   3.494   0.398 -0.2408  0.4575 -0.4711
 6837SOL    HW132147   3.982   3.478   0.303 -0.3168  2.1312 -0.7628
 6837SOL    HW232148   4.077   3.473   0.412 -0.8104 -1.2811  0.6110
 6838SOL     OW32149   3.088   0.648   2.473  0.1340  0.2395 -0.2660
 6838SOL    HW132150   3.028   0.590   2.425 -0.7953  1.5772 -0.7336
 6838SOL    HW232151   3.144   0.588   2.520 -0.9378  3.1129  4.6819
 6839SOL     OW32152   0.327   1.127   4.798 -0.4146 -0.0608 -0.0755
 6839SOL    HW132153   0.360   1.169   4.718 -0.5055  0.3694  0.1151
 6839SOL    HW232154   0.384   1.050   4.810  0.0684  0.6017  1.9764
 6840SOL     OW32155   2.821   0.829   2.890 -0.1081  0.4319  0.3199
 6840SOL    HW132156   2.783   0.901   2.941 -0.7008  0.8879 -0.7701
 6840SOL    HW232157   2.908   0.821   2.929  0.7829  0.2105 -1.7322
 6841SOL     OW32158   3.329   2.096  10.844  0.7247 -0.1198  0.0137
 6841SOL    HW132159   3.421   2.121  10.841  0.6736  0.0270 -0.3398
 6841SOL    HW232160   3.330   2.008  10.882  0.2702  0.1221  0.5874
 6842SOL     OW32161   2.361   2.738   2.398  0.3338 -0.0057  0.1512
 6842SOL    HW132162   2.400   2.794   2.330 -3.6196  1.0942 -1.2012
 6842SOL    HW232163   2.296   2.689   2.349  1.2122 -3.0956  2.0721
 6843SOL     OW32164   3.709   2.934  13.386 -0.0245 -0.1876 -0.7539
 6843SOL    HW132165   3.696   2.846  13.423 -0.8658  0.1956 -0.1273
 6843SOL    HW232166   3.657   2.989  13.445  1.1066  0.2249 -0.1538
 6844SOL     OW32167   0.965   3.210   9.041 -0.0832  0.3025  0.1239
 6844SOL    HW132168   0.929   3.236   9.125  1.9339  1.1682  0.7341
 6844SOL    HW232169   0.963   3.114   9.047  1.6257  0.2299 -0.4905
 6845SOL     OW32170   3.459   3.732   1.575 -0.0710  0.4021 -0.3177
 6845SOL    HW132171   3.413   3.658   1.615  0.2458  0.8757  0.9161
 6845SOL    HW232172   3.391   3.798   1.584 -2.1700 -1.5882 -1.4138
 6846SOL     OW32173   4.383   3.268   8.726  0.2253  0.0806 -0.2449
 6846SOL    HW132174   4.344   3.345   8.767  0.4927 -0.9833  2.0468
 6846SOL    HW232175   4.363   3.284   8.634 -0.0229 -1.2298 -0.4150
 6847SOL     OW32176   1.043   1.440   8.429  0.3548  0.6635 -0.0801
 6847SOL    HW132177   1.013   1.468   8.515  1.0167  0.7601  0.1211
 6847SOL    HW232178   1.097   1.515   8.404 -1.3162  1.5708 -0.9594
 6848SOL     OW32179   4.086   1.794   4.999 -0.2723 -0.0383  0.3240
 6848SOL    HW132180   4.045   1.740   4.931  0.5618  3.5353 -3.0152
 6848SOL    HW232181   4.130   1.855   4.941  0.7805  0.0493  1.2144
 6849SOL     OW32182   2.005   2.429  11.577 -0.3415 -0.2074 -0.4289
 6849SOL    HW132183   1.958   2.365  11.629  0.2535 -2.0139 -2.1295
 6849SOL    HW232184   1.975   2.509  11.620  0.9259  0.5343 -0.8913
 6850SOL     OW32185   4.153   2.366   3.742  0.0988  0.2050  0.1203
 6850SOL    HW132186   4.222   2.319   3.789  0.5039  1.5438  0.8947
 6850SOL    HW232187   4.159   2.328   3.655  1.9297  2.2783 -0.6542
 6851SOL     OW32188   1.896   2.169   3.702 -0.6108  0.5587 -0.0498
 6851SOL    HW132189   1.896   2.242   3.640  0.3951  1.2550  0.7734
 6851SOL    HW232190   1.849   2.100   3.655 -2.0470  0.7807  1.0331
 6852SOL     OW32191   1.620   1.662  13.558  0.2611  0.5246  0.5232
 6852SOL    HW132192   1.528   1.645  13.536  0.3715  0.4344  0.1215
 6852SOL    HW232193   1.625   1.637  13.650  1.2720  0.9085  0.5758
 6853SOL     OW32194   3.349   0.998   9.072  0.1868 -0.1423  0.0838
 6853SOL    HW132195   3.394   1.049   9.004 -0.1749  0.6823  0.4684
 6853SOL    HW232196   3.306   1.071   9.116  0.9596 -0.5046  1.4509
 6854SOL     OW32197   4.608   1.224   5.894 -0.3938 -0.7180  0.3093
 6854SOL    HW132198   4.609   1.297   5.957  2.1841 -1.6750  1.3727
 6854SOL    HW232199   4.690   1.243   5.847  0.1420  2.6863  2.6132
 6855SOL     OW32200   1.150   0.697  11.005 -0.0775 -0.2906 -0.0937
 6855SOL    HW132201   1.098   0.732  10.932  0.0180  0.4800  0.2073
 6855SOL    HW232202   1.075   0.656  11.049 -1.2942  1.0590 -0.9342
 6856SOL     OW32203   0.292   1.570   4.669 -0.0726 -0.0828 -0.3866
 6856SOL    HW132204   0.306   1.546   4.761  1.7387  1.1929 -0.3246
 6856SOL    HW232205   0.231   1.643   4.673  0.6362  0.5711 -1.6858
 6857SOL     OW32206   3.082   0.789   4.052 -0.0047  0.2093 -0.0537
 6857SOL    HW132207   3.109   0.746   3.970  1.3792  2.7370 -0.9150
 6857SOL    HW232208   3.017   0.726   4.084 -0.0079  0.6331  0.7614
 6858SOL     OW32209   0.826   3.785   8.712  0.2614 -0.1096 -0.7301
 6858SOL    HW132210   0.824   3.740   8.628  0.6305 -2.1176  0.3176
 6858SOL    HW232211   0.792   3.719   8.772 -0.7642  1.1492  0.0787
 6859SOL     OW32212   3.822   2.711   7.902 -0.4458  0.6413  0.2964
 6859SOL    HW132213   3.799   2.764   7.825 -0.9891  0.1454  0.1207
 6859SOL    HW232214   3.751   2.647   7.912  0.9717 -1.1775 -1.3096
 6860SOL     OW32215   0.194   0.322   5.683 -0.2528 -0.1028 -0.3873
 6860SOL    HW132216   0.122   0.314   5.621 -0.0432 -0.1769 -0.6229
 6860SOL    HW232217   0.207   0.229   5.701  2.6413  0.5269  0.8554
 6861SOL     OW32218   0.345   2.760  16.213  0.2747 -0.4411 -0.7185
 6861SOL    HW132219   0.362   2.854  16.202 -3.1204  0.5923  2.9313
 6861SOL    HW232220   0.286   2.752  16.288  0.7223  1.7850 -0.1163
 6862SOL     OW32221   1.773   1.843  15.000 -0.0898  0.0393 -0.1615
 6862SOL    HW132222   1.680   1.862  15.012 -0.2760 -0.6564 -0.5312
 6862SOL    HW232223   1.792   1.861  14.908 -0.1311  0.7966 -0.0213
 6863SOL     OW32224   3.523   1.458   6.425  0.0254  0.2474  0.4035
 6863SOL    HW132225   3.435   1.467   6.389 -0.1212 -1.0277  0.4253
 6863SOL    HW232226   3.524   1.537   6.479  0.6552  0.1529  0.5286
 6864SOL     OW32227   3.793   1.151   5.456 -0.2349 -0.1474  0.3519
 6864SOL    HW132228   3.838   1.206   5.520 -1.7313  0.2488  1.0519
 6864SOL    HW232229   3.733   1.211   5.410 -1.5170 -0.3332  1.8079
 6865SOL     OW32230   1.565   1.224   8.391  0.9473 -0.7666  0.6617
 6865SOL    HW132231   1.471   1.236   8.408  0.3830 -1.1286 -2.2973
 6865SOL    HW232232   1.581   1.199   8.482  1.5043 -2.0728  0.2097
 6866SOL     OW32233   0.098   0.875   2.507 -0.1148 -0.3129  0.2060
 6866SOL    HW132234   0.152   0.951   2.491 -0.3221 -0.4853 -1.2943
 6866SOL    HW232235   0.153   0.823   2.566 -0.0319 -0.7588 -0.2636
 6867SOL     OW32236   2.414   3.175   2.803 -0.3730 -0.3751 -0.0179
 6867SOL    HW132237   2.426   3.212   2.891 -1.3166  1.4070 -0.6435
 6867SOL    HW232238   2.402   3.257   2.754 -0.7957 -0.1746  0.4208
 6868SOL     OW32239   0.094   1.169  16.442  0.7857 -0.1704 -0.0238
 6868SOL    HW132240   0.178   1.129  16.422  1.1369  0.3891  0.3383
 6868SOL    HW232241   0.035   1.159  16.366  0.5697 -0.3721  0.1709
 6869SOL     OW32242   2.999   2.532   9.811 -0.1104  0.7627 -0.3718
 6869SOL    HW132243   2.994   2.587   9.733 -0.6639 -2.1571 -2.3799
 6869SOL    HW232244   2.968   2.448   9.778 -0.9998 -0.2073  2.9215
 6870SOL     OW32245   2.702   1.408   6.854 -0.5213 -0.7789 -0.0736
 6870SOL    HW132246   2.736   1.463   6.924  0.3282 -2.8786  1.1770
 6870SOL    HW232247   2.707   1.319   6.889  0.2503 -0.7602 -0.1447
 6871SOL     OW32248   0.438   1.168   7.749  0.0162 -0.8541  0.2713
 6871SOL    HW132249   0.379   1.094   7.733  0.9278 -1.0424 -2.1447
 6871SOL    HW232250   0.427   1.216   7.667 -0.9365  0.6855  1.2943
 6872SOL     OW32251   1.672   0.586   6.891 -0.4428 -0.5175 -0.6247
 6872SOL    HW132252   1.764   0.567   6.910 -1.0817  0.7599  3.9036
 6872SOL    HW232253   1.630   0.591   6.977  1.7690  3.8552  0.2097
 6873SOL     OW32254   3.235   0.388   2.600  0.3514 -0.1965  1.0723
 6873SOL    HW132255   3.228   0.308   2.549 -1.1447  1.5148 -1.3712
 6873SOL    HW232256   3.175   0.367   2.672  1.2043 -0.4176  1.7271
 6874SOL     OW32257   3.584   4.089   2.789  0.9678 -0.1318 -0.8303
 6874SOL    HW132258   3.538   4.027   2.847 -0.7448  2.4337  0.5786
 6874SOL    HW232259   3.598   4.040   2.708 -0.9194 -1.0939 -0.5788
 6875SOL     OW32260   1.915   3.607   3.706  0.2329 -0.6565 -0.2475
 6875SOL    HW132261   1.934   3.659   3.784 -2.7842  0.6773 -0.4031
 6875SOL    HW232262   1.938   3.662   3.631  2.4413  0.7154  1.4513
 6876SOL     OW32263   2.488   1.665   2.341  0.8299  0.2394 -0.1135
 6876SOL    HW132264   2.547   1.642   2.412 -1.4361  0.6415  1.9123
 6876SOL    HW232265   2.520   1.610   2.269  2.2653 -0.1422  0.8202
 6877SOL     OW32266   1.546   3.583   4.212  0.3319  0.0080 -0.0108
 6877SOL    HW132267   1.598   3.538   4.279 -0.0811  0.0304  0.3272
 6877SOL    HW232268   1.473   3.622   4.261 -1.2305  0.6060 -2.8103
 6878SOL     OW32269   3.682   0.950   3.111 -0.0291 -0.0402 -0.2134
 6878SOL    HW132270   3.713   1.033   3.147  1.4400  0.7578 -3.2580
 6878SOL    HW232271   3.597   0.952   3.154 -1.0715  1.5795 -2.3581
 6879SOL     OW32272   1.617   2.793   3.936 -0.2147 -0.7980 -0.3862
 6879SOL    HW132273   1.524   2.788   3.914 -0.3472  0.7181 -0.1749
 6879SOL    HW232274   1.651   2.780   3.848 -0.6397 -1.3191 -0.4762
 6880SOL     OW32275   2.179   2.465   7.003  0.3399  0.3104  0.1225
 6880SOL    HW132276   2.231   2.512   6.938 -0.4629  0.8632 -0.1220
 6880SOL    HW232277   2.092   2.476   6.964  0.6797 -1.7009 -1.1913
 6881SOL     OW32278   1.125   0.923  17.673  0.0515  0.1903 -0.3727
 6881SOL    HW132279   1.128   0.841  17.722  0.3663 -0.6271 -1.7732
 6881SOL    HW232280   1.034   0.947  17.692 -0.3651 -2.0733  0.5421
 6882SOL     OW32281   3.937   0.079   6.601  0.1904 -0.0334  0.0475
 6882SOL    HW132282   3.978   0.165   6.616 -1.7190  0.7708  0.6523
 6882SOL    HW232283   3.959   0.038   6.685 -0.5220 -1.0181 -0.2452
 6883SOL     OW32284   3.066   3.237   7.434  0.7207  0.4914  0.3768
 6883SOL    HW132285   2.980   3.268   7.461 -0.5545 -0.9695 -1.9967
 6883SOL    HW232286   3.038   3.171   7.371  1.3235 -0.5281  1.1811
 6884SOL     OW32287   2.707   2.945   3.524  0.2304 -0.5506 -0.3014
 6884SOL    HW132288   2.713   2.891   3.445  1.1853 -0.9359  0.0278
 6884SOL    HW232289   2.623   2.990   3.516  0.9715  0.7133 -1.0296
 6885SOL     OW32290   1.311   4.274   3.717  0.3473  0.0201 -0.2524
 6885SOL    HW132291   1.343   4.215   3.649  1.5099  1.0236 -0.5754
 6885SOL    HW232292   1.250   4.218   3.765 -2.1910  1.6176 -1.6737
 6886SOL     OW32293   3.229   0.460   6.565 -0.0023 -0.1034 -0.4672
 6886SOL    HW132294   3.279   0.540   6.580  0.3914 -0.0938 -1.7596
 6886SOL    HW232295   3.272   0.417   6.491 -1.1764 -0.6401 -0.8340
 6887SOL     OW32296   2.657   0.243  14.111  0.1487  0.0464 -0.1563
 6887SOL    HW132297   2.677   0.150  14.101 -1.8622 -0.1672 -2.1508
 6887SOL    HW232298   2.692   0.267  14.025 -0.8702  2.3190  0.0662
 6888SOL     OW32299   3.941   0.376   9.294 -0.2500  0.3671  0.0500
 6888SOL    HW132300   3.928   0.431   9.371  1.8668 -0.4345  0.9687
 6888SOL    HW232301   4.005   0.430   9.247 -0.2116  0.5267  0.2877
 6889SOL     OW32302   3.539   3.290   9.081 -0.1196 -0.1908 -0.6765
 6889SOL    HW132303   3.452   3.329   9.076  0.1021  0.1230 -2.1112
 6889SOL    HW232304   3.580   3.349   9.017  2.1410 -0.9487  0.0641
 6890SOL     OW32305   4.728   1.005   4.086  0.2957  0.1590  0.2649
 6890SOL    HW132306   0.000   1.068   4.014 -0.0362 -0.3158 -0.1859
 6890SOL    HW232307   0.046   1.048   4.153  0.0612 -0.7301  1.0255
 6891SOL     OW32308   0.765   3.653   5.291  0.4151 -0.8956  0.0488
 6891SOL    HW132309   0.845   3.625   5.246  0.1255  0.6558 -1.4513
 6891SOL    HW232310   0.706   3.580   5.276 -0.3673 -0.2250 -0.1221
 6892SOL     OW32311   2.830   0.174   2.801  0.1865  0.0340 -0.5460
 6892SOL    HW132312   2.915   0.136   2.781 -0.3792 -2.5023  1.9106
 6892SOL    HW232313   2.779   0.094   2.793 -1.0765  0.9626 -1.7529
 6893SOL     OW32314   2.773   1.617   3.385 -0.3310 -0.5016  0.0696
 6893SOL    HW132315   2.795   1.524   3.384 -0.1729 -0.4494 -1.2427
 6893SOL    HW232316   2.691   1.621   3.433  0.0465  4.2121  0.2742
 6894SOL     OW32317   0.597   0.355   8.011 -0.4682  0.5113  0.2546
 6894SOL    HW132318   0.613   0.301   7.934  2.3574  0.0948  1.1284
 6894SOL    HW232319   0.521   0.314   8.052 -0.5278  1.7244  1.3792
 6895SOL     OW32320   0.565   2.011   0.444  0.2447  0.4908  0.1479
 6895SOL    HW132321   0.660   2.004   0.443  0.1956 -0.3625  1.2439
 6895SOL    HW232322   0.547   2.105   0.436  1.8894  0.5370 -2.6964
 6896SOL     OW32323   2.662   0.253   7.080 -0.5994 -0.4454 -0.2463
 6896SOL    HW132324   2.699   0.325   7.029 -0.5620  0.7562  1.4498
 6896SOL    HW232325   2.745   0.213   7.107  1.4359  2.3411 -2.4345
 6897SOL     OW32326   3.107   1.802   9.648 -0.1696  0.5846  0.3542
 6897SOL    HW132327   3.153   1.817   9.565 -0.1904 -1.2816 -0.0066
 6897SOL    HW232328   3.041   1.737   9.624  0.2218  0.2426  0.1937
 6898SOL     OW32329   2.706   0.693  12.899  0.4937  0.1389  0.3184
 6898SOL    HW132330   2.676   0.632  12.966  0.7010 -0.1910  0.1122
 6898SOL    HW232331   2.792   0.660  12.870 -0.5036 -0.9970 -1.3778
 6899SOL     OW32332   4.549   3.968   6.603 -0.2287 -0.1920  0.2812
 6899SOL    HW132333   4.501   3.886   6.595  0.6787 -0.5922 -1.0973
 6899SOL    HW232334   4.540   3.983   6.697 -0.3896  1.1403  0.0529
 6900SOL     OW32335   3.573   2.118   4.257 -0.0748  0.2571  0.1154
 6900SOL    HW132336   3.630   2.103   4.182 -0.8807  0.1588 -0.4880
 6900SOL    HW232337   3.533   2.031   4.261  0.5589  0.1324  3.6565
 6901SOL     OW32338   1.556   3.995  16.555  0.4520 -0.2235  0.4291
 6901SOL    HW132339   1.473   3.974  16.598 -0.1598  2.7665  0.7043
 6901SOL    HW232340   1.554   4.088  16.581 -1.7312 -0.4400  1.0465
 6902SOL     OW32341   3.768   3.734  12.517  0.0094 -0.0129  0.5240
 6902SOL    HW132342   3.855   3.698  12.500 -0.1225  1.0817 -2.4727
 6902SOL    HW232343   3.786   3.760  12.607  0.9683 -0.4897  0.4620
 6903SOL     OW32344   4.379   4.059   2.344 -0.7765  0.4251  0.4381
 6903SOL    HW132345   4.407   4.006   2.269  1.8208  0.2804  1.4986
 6903SOL    HW232346   4.287   4.040   2.328 -0.4205 -0.6399 -0.3930
 6904SOL     OW32347   3.115   0.517   5.297 -0.3204 -0.4028  0.5089
 6904SOL    HW132348   3.089   0.555   5.213 -2.2371 -2.3806  0.2116
 6904SOL    HW232349   3.204   0.551   5.310  0.1092 -1.7254  0.9797
 6905SOL     OW32350   3.533   4.514   0.214  0.1981  0.1480  0.4355
 6905SOL    HW132351   3.565   4.525   0.303  1.8006 -0.5877 -0.0521
 6905SOL    HW232352   3.440   4.495   0.226  0.1098  0.8134  0.8014
 6906SOL     OW32353   1.828   3.427   4.851  0.1203  0.1112 -0.4584
 6906SOL    HW132354   1.754   3.486   4.866  1.1296  0.6839  2.2474
 6906SOL    HW232355   1.813   3.399   4.760  3.5921  0.2286 -1.0848
 6907SOL     OW32356   1.616   0.828   8.892  0.5376 -0.5243  0.2004
 6907SOL    HW132357   1.556   0.794   8.958 -0.9452 -0.6207 -1.1687
 6907SOL    HW232358   1.552   0.871   8.835  2.2815  1.2563 -0.4030
 6908SOL     OW32359   1.674   4.733  13.015  1.0517 -0.2147 -0.5569
 6908SOL    HW132360   1.671   4.638  13.026  0.5772 -0.2246 -0.7743
 6908SOL    HW232361   1.767   0.014  13.032  1.0659 -1.9115  0.9413
 6909SOL     OW32362   2.239   1.975   3.101 -0.5870  0.5185 -0.0536
 6909SOL    HW132363   2.174   1.907   3.082 -1.1195  0.0327  3.3788
 6909SOL    HW232364   2.298   1.932   3.164 -0.0128  2.8422  0.9975
 6910SOL     OW32365   2.168   2.571   3.247 -0.1278 -0.3130 -0.6248
 6910SOL    HW132366   2.162   2.512   3.322  1.3113  0.6659  0.2694
 6910SOL    HW232367   2.105   2.534   3.186  1.2885  0.6670 -2.7216
 6911SOL     OW32368   0.136   3.461   9.607 -0.1232 -0.2139 -0.4465
 6911SOL    HW132369   0.069   3.411   9.560 -0.0972 -0.1927 -0.5066
 6911SOL    HW232370   0.198   3.473   9.535  1.4997 -0.6010  0.8906
 6912SOL     OW32371   3.146   0.690   7.368  0.3917 -0.8152  0.1382
 6912SOL    HW132372   3.186   0.765   7.411 -2.7807  1.1067 -0.2385
 6912SOL    HW232373   3.061   0.701   7.411 -0.0280 -2.5537 -0.2429
 6913SOL     OW32374   1.005   3.580   7.184 -0.0733  0.0187  0.2892
 6913SOL    HW132375   1.003   3.630   7.265  1.1077 -0.8671  0.8795
 6913SOL    HW232376   0.919   3.588   7.143  1.0144  0.1673 -1.9917
 6914SOL     OW32377   0.862   3.649   6.688  0.4942 -0.1221 -0.4778
 6914SOL    HW132378   0.829   3.727   6.732  0.8727  0.4059 -1.1293
 6914SOL    HW232379   0.789   3.588   6.697  0.2740  0.1829 -0.1858
 6915SOL     OW32380   2.679   2.047   6.694  0.3645 -0.1926  0.1320
 6915SOL    HW132381   2.633   2.127   6.719  0.7431  0.6841 -1.9882
 6915SOL    HW232382   2.629   2.025   6.616  0.8005 -0.3156 -0.1099
 6916SOL     OW32383   2.404   2.445   3.760  0.0243  0.4412  0.4472
 6916SOL    HW132384   2.466   2.490   3.818  1.8157 -1.1817 -0.2429
 6916SOL    HW232385   2.431   2.492   3.681 -0.1938  0.1127  0.1771
 6917SOL     OW32386   0.915   1.891   3.536 -0.1697 -0.3758  0.5621
 6917SOL    HW132387   0.888   1.824   3.474  1.9740  1.0286 -1.8480
 6917SOL    HW232388   0.886   1.835   3.608  1.8170 -0.7721  1.0496
 6918SOL     OW32389   0.708   1.930  17.706  0.5570  0.2606  0.2917
 6918SOL    HW132390   0.757   1.854  17.737  0.5673  0.1203 -0.0727
 6918SOL    HW232391   0.623   1.900  17.736  0.4585  0.7037  0.4582
 6919SOL     OW32392   3.564   1.934   7.755  0.4993 -0.4278 -0.3616
 6919SOL    HW132393   3.560   1.881   7.835  2.1596  0.8048  0.5564
 6919SOL    HW232394   3.657   1.948   7.739  0.6083 -1.8669 -0.9590
 6920SOL     OW32395   4.272   0.819   9.646  0.3214  0.0016  0.0962
 6920SOL    HW132396   4.229   0.871   9.714  3.0008  1.2210  0.8647
 6920SOL    HW232397   4.365   0.841   9.655  0.1838  0.4795  0.3848
 6921SOL     OW32398   3.287   2.313  11.249  0.6238  0.0677  0.0570
 6921SOL    HW132399   3.239   2.253  11.191  3.9513 -0.7143 -1.8482
 6921SOL    HW232400   3.330   2.250  11.307 -0.3161  1.1043  1.9014
 6922SOL     OW32401   3.254   4.218   6.983  0.1798  0.2266  0.3329
 6922SOL    HW132402   3.299   4.214   7.067 -2.4444  2.8922  1.8707
 6922SOL    HW232403   3.316   4.272   6.934 -1.2824  1.5049 -0.1252
 6923SOL     OW32404   2.515   1.932   2.309  0.7640 -0.3526 -0.1252
 6923SOL    HW132405   2.555   1.942   2.395  1.5929  1.2980 -0.7015
 6923SOL    HW232406   2.508   1.837   2.300  0.0212 -0.1224 -1.9872
 6924SOL     OW32407   4.049   2.497   3.182  0.7589 -1.0141 -0.0632
 6924SOL    HW132408   3.996   2.557   3.130  0.2102 -2.6021 -1.3580
 6924SOL    HW232409   4.133   2.544   3.180  0.3526 -0.4660 -3.2400
 6925SOL     OW32410   4.289   4.343  17.580 -0.0929  0.3945  0.0238
 6925SOL    HW132411   4.219   4.283  17.553  0.9046 -0.4972 -0.6126
 6925SOL    HW232412   4.359   4.289  17.541  0.4636  0.7124  0.5887
 6926SOL     OW32413   3.029   1.362   6.111 -0.5030  0.0185 -0.3411
 6926SOL    HW132414   3.093   1.358   6.183 -0.5569  4.6793 -0.0105
 6926SOL    HW232415   3.041   1.452   6.081  1.8681 -0.4167 -0.7247
 6927SOL     OW32416   1.099   4.422  17.029 -0.4624  0.0311  0.0892
 6927SOL    HW132417   1.085   4.342  17.080  0.9351 -0.4277 -0.2175
 6927SOL    HW232418   1.195   4.428  17.029 -0.2486 -2.9358  0.6869
 6928SOL     OW32419   2.211   2.812   7.192 -0.1863 -0.0384 -0.1321
 6928SOL    HW132420   2.154   2.752   7.239 -0.3306  1.3271  1.4243
 6928SOL    HW232421   2.155   2.844   7.121 -1.4360  3.3186  2.3657
 6929SOL     OW32422   1.848   2.158   7.715 -0.1567 -0.5123  0.0117
 6929SOL    HW132423   1.908   2.233   7.718  1.0333 -1.4001 -1.3485
 6929SOL    HW232424   1.903   2.099   7.662 -0.8008 -1.7797  0.7566
 6930SOL     OW32425   3.236   0.311   3.054 -0.1942 -0.4992 -0.2619
 6930SOL    HW132426   3.174   0.383   3.049  1.2374  0.8200  0.7099
 6930SOL    HW232427   3.214   0.247   2.986 -0.8952 -0.8056  0.2520
 6931SOL     OW32428   2.872   3.705   7.300  0.3245 -0.5222 -0.3376
 6931SOL    HW132429   2.829   3.628   7.264  1.2598  0.3682 -3.4052
 6931SOL    HW232430   2.901   3.672   7.385  0.0381  1.4729  0.5286
 6932SOL     OW32431   1.964   3.868  15.849  0.3218 -0.3500  0.0286
 6932SOL    HW132432   1.892   3.872  15.786  0.9166 -1.7966 -0.7426
 6932SOL    HW232433   1.970   3.774  15.865 -1.3185 -0.8041 -2.0151
 6933SOL     OW32434   4.579   4.174   9.231 -0.0881 -0.4887  0.0102
 6933SOL    HW132435   4.552   4.182   9.322 -3.2208  1.2867 -1.0885
 6933SOL    HW232436   4.618   4.086   9.236  0.8040 -0.0770  0.2849
 6934SOL     OW32437   1.126   0.526   1.695  0.4058 -0.2789  0.2648
 6934SOL    HW132438   1.146   0.550   1.786 -0.5116  0.8647  0.1652
 6934SOL    HW232439   1.102   0.435   1.708 -1.5798  0.1567 -0.2023
 6935SOL     OW32440   4.470   1.987   7.101 -0.1209  0.3082  0.2665
 6935SOL    HW132441   4.377   2.012   7.103 -0.3720 -0.5988  0.1294
 6935SOL    HW232442   4.512   2.066   7.068  2.1983 -1.4606 -0.9913
 6936SOL     OW32443   3.061   2.782   5.496  0.1938  0.2481 -0.3723
 6936SOL    HW132444   3.008   2.818   5.424 -0.0872  0.4104 -0.0877
 6936SOL    HW232445   3.068   2.863   5.546 -3.8706  0.0922  0.4470
 6937SOL     OW32446   3.899   0.108   7.320 -0.4918 -0.3904  0.2385
 6937SOL    HW132447   3.934   0.191   7.351 -0.6834 -1.2088  2.6326
 6937SOL    HW232448   3.892   0.056   7.400  0.8309 -1.0094 -0.0416
 6938SOL     OW32449   2.541   0.605  15.036  0.0247 -0.2239  0.0319
 6938SOL    HW132450   2.607   0.655  14.987 -1.1352  0.5093 -0.7874
 6938SOL    HW232451   2.548   0.520  14.992  0.2221  0.0189 -0.4091
 6939SOL     OW32452   1.449   3.338  15.966 -0.0406  0.8327 -0.3726
 6939SOL    HW132453   1.480   3.257  15.926  0.8431  1.8764 -1.8331
 6939SOL    HW232454   1.504   3.400  15.918  1.1249 -1.9894 -2.7240
 6940SOL     OW32455   2.789   3.558   7.862  0.3666 -0.4599 -0.2216
 6940SOL    HW132456   2.744   3.634   7.897 -0.7785 -1.4185  0.3898
 6940SOL    HW232457   2.784   3.569   7.767  1.8655 -0.5783 -0.3182
 6941SOL     OW32458   3.025   3.817   7.790 -0.3192 -0.3249 -0.2608
 6941SOL    HW132459   3.081   3.885   7.752 -1.4898 -0.2629 -1.8599
 6941SOL    HW232460   2.943   3.865   7.797 -0.7399 -1.2761  1.2873
 6942SOL     OW32461   0.396   3.027   6.478 -0.3433  0.1002 -0.5381
 6942SOL    HW132462   0.318   3.054   6.431 -0.4508  0.1148 -0.3523
 6942SOL    HW232463   0.433   2.953   6.430 -0.4035 -0.7387  0.6858
 6943SOL     OW32464   3.569   0.041   8.483  0.5010  0.4978  0.5671
 6943SOL    HW132465   3.557   4.694   8.436 -0.2042  1.1006 -0.2926
 6943SOL    HW232466   3.495   0.091   8.450  1.3426  0.2726 -1.6595
 6944SOL     OW32467   1.753   0.760  10.889  0.2305  0.1701  0.1227
 6944SOL    HW132468   1.736   0.667  10.874  1.7840  0.1332 -1.4716
 6944SOL    HW232469   1.663   0.788  10.903  0.6748  1.2755  0.7818
 6945SOL     OW32470   3.639   2.823   0.219 -0.2110  0.2925  0.2523
 6945SOL    HW132471   3.673   2.817   0.309 -2.0642 -0.5606  0.8830
 6945SOL    HW232472   3.695   2.894   0.186  1.4787 -0.3018  1.8169
 6946SOL     OW32473   3.034   0.664   5.495  0.1391 -0.0400  0.0688
 6946SOL    HW132474   2.991   0.593   5.541  1.2563  0.4743  1.9206
 6946SOL    HW232475   3.076   0.618   5.422 -0.1410  0.6029 -0.5018
 6947SOL     OW32476   2.532   0.090   2.823  0.7366 -0.1365  0.3911
 6947SOL    HW132477   2.550   0.183   2.836  1.1439 -0.2199  0.4326
 6947SOL    HW232478   2.521   0.054   2.910  1.5629 -0.0911  0.5121
 6948SOL     OW32479   4.358   1.718   5.657 -0.0035 -0.0424 -0.2869
 6948SOL    HW132480   4.363   1.641   5.714  1.4988  0.2150 -0.0604
 6948SOL    HW232481   4.445   1.736   5.620 -0.4228  0.7251 -0.8963
 6949SOL     OW32482   2.782   1.535   6.640 -1.3951  0.3766 -0.0753
 6949SOL    HW132483   2.775   1.482   6.720  2.0549  1.2380  0.8291
 6949SOL    HW232484   2.872   1.570   6.640 -0.8665 -0.9603  1.3541
 6950SOL     OW32485   3.986   2.885   6.013 -0.0006 -0.0845 -0.1066
 6950SOL    HW132486   4.041   2.937   5.954  0.4027  1.7583  1.8815
 6950SOL    HW232487   3.969   2.823   5.942  2.5314 -0.1992 -0.6129
 6951SOL     OW32488   3.244   1.492  15.567  0.1756  0.4587 -0.5646
 6951SOL    HW132489   3.201   1.423  15.516  0.8552  1.0436 -1.9235
 6951SOL    HW232490   3.267   1.436  15.641 -1.5581 -0.1387 -0.4734
 6952SOL     OW32491   3.905   2.207   4.524  0.6110 -0.1777 -0.3356
 6952SOL    HW132492   3.945   2.120   4.533  1.4883  0.1232 -1.3188
 6952SOL    HW232493   3.849   2.235   4.596 -1.5045 -1.6209 -1.4141
 6953SOL     OW32494   0.643   3.201   2.516 -0.3604  0.2501 -0.0853
 6953SOL    HW132495   0.580   3.207   2.444  1.2931 -1.6915 -1.6667
 6953SOL    HW232496   0.591   3.147   2.576 -0.1821  0.6585  0.4370
 6954SOL     OW32497   1.319   3.169   5.077 -0.3792 -0.3037 -0.0516
 6954SOL    HW132498   1.369   3.225   5.137  0.6210 -2.2826  0.9472
 6954SOL    HW232499   1.330   3.080   5.108  2.2014 -0.5264 -1.6823
 6955SOL     OW32500   2.317   1.856   4.730 -0.0871  0.4515 -0.1295
 6955SOL    HW132501   2.357   1.786   4.783 -3.1591 -1.4703 -0.3043
 6955SOL    HW232502   2.248   1.885   4.790  1.7560  4.2471  0.1215
 6956SOL     OW32503   4.124   3.255  14.681  0.0212 -0.2522  0.2143
 6956SOL    HW132504   4.082   3.225  14.762 -2.0617  0.4774 -0.5967
 6956SOL    HW232505   4.207   3.274  14.725  1.3783 -1.8339 -1.6653
 6957SOL     OW32506   1.190   1.705   9.046  0.1360  0.0184 -0.1067
 6957SOL    HW132507   1.152   1.658   8.973  0.1650 -0.3649  0.1253
 6957SOL    HW232508   1.268   1.649   9.053  0.0530 -0.0392  0.4136
 6958SOL     OW32509   2.101   0.828  11.666  0.2583  0.0955  0.1751
 6958SOL    HW132510   2.011   0.848  11.639  0.8341  1.6682 -0.6333
 6958SOL    HW232511   2.144   0.845  11.582  0.8912  0.6487  0.6110
 6959SOL     OW32512   2.461   2.042   9.280 -0.6008  0.2354  0.0052
 6959SOL    HW132513   2.441   2.133   9.303  0.0508  0.4924 -0.4406
 6959SOL    HW232514   2.461   2.008   9.370  0.0799 -1.5444 -0.6644
 6960SOL     OW32515   1.452   0.657   9.323 -0.2143 -0.0226 -0.3569
 6960SOL    HW132516   1.497   0.633   9.242  0.5211 -2.9931  0.9596
 6960SOL    HW232517   1.521   0.696   9.376  0.3662 -0.9867 -0.3979
 6961SOL     OW32518   4.678   0.607   1.842  0.4356  0.2601  0.5185
 6961SOL    HW132519   4.592   0.592   1.802  1.4318 -0.4582 -1.3976
 6961SOL    HW232520   4.697   0.691   1.800  1.2124 -1.3180 -2.3512
 6962SOL     OW32521   2.981   3.409   8.312  0.2717  0.1110 -0.0090
 6962SOL    HW132522   2.900   3.460   8.315 -0.3453 -0.8192 -0.9329
 6962SOL    HW232523   2.994   3.426   8.219 -1.3911 -0.0455 -0.2614
 6963SOL     OW32524   3.252   4.347   4.569  0.2448  0.4742  0.3607
 6963SOL    HW132525   3.253   4.397   4.487  0.9050 -1.3351 -0.7384
 6963SOL    HW232526   3.335   4.378   4.606  1.1809 -1.6340 -0.0128
 6964SOL     OW32527   1.720   3.718  14.912  0.1656 -0.5639 -0.8875
 6964SOL    HW132528   1.681   3.750  14.993  0.3427 -0.9799 -0.6390
 6964SOL    HW232529   1.708   3.798  14.861 -2.1048 -2.0435 -2.6734
 6965SOL     OW32530   0.815   3.102  12.372 -0.8171 -0.7178 -0.4234
 6965SOL    HW132531   0.806   3.156  12.451 -2.5108 -2.6911  0.7367
 6965SOL    HW232532   0.748   3.136  12.312  1.6367  0.6065 -2.3976
 6966SOL     OW32533   2.239   0.586   8.938 -0.1578  0.0715  0.0726
 6966SOL    HW132534   2.260   0.608   8.847  1.3286  3.7488  1.3059
 6966SOL    HW232535   2.269   0.495   8.939  1.7812  0.7054  0.5697
 6967SOL     OW32536   4.534   3.900  16.318 -0.1186  0.6152 -0.5055
 6967SOL    HW132537   4.543   3.943  16.402 -1.8532 -0.9164  0.4612
 6967SOL    HW232538   4.585   3.823  16.343 -0.5433 -0.0295 -1.6308
 6968SOL     OW32539   0.284   2.297  16.040  0.1116  0.2969 -0.3879
 6968SOL    HW132540   0.339   2.374  16.057  2.3603 -1.1789 -0.9418
 6968SOL    HW232541   0.205   2.342  16.070 -0.2055 -0.4303 -0.1437
 6969SOL     OW32542   0.992   1.685  13.067 -0.5325 -0.5701  0.0530
 6969SOL    HW132543   1.068   1.730  13.102 -2.2214  1.6460  0.8770
 6969SOL    HW232544   0.989   1.594  13.097  0.0990 -1.5762 -2.9923
 6970SOL     OW32545   0.457   4.701   8.762  0.3096  0.1728 -0.2844
 6970SOL    HW132546   0.469   4.607   8.746 -0.6703  0.1079 -0.5836
 6970SOL    HW232547   0.451   0.002   8.674  1.8959  0.8648 -0.1133
 6971SOL     OW32548   0.777   3.621   7.051  0.8057  0.1050  0.2560
 6971SOL    HW132549   0.683   3.634   7.057  1.0148  2.6594 -1.9126
 6971SOL    HW232550   0.778   3.531   7.019 -0.3906 -0.1802  1.0460
 6972SOL     OW32551   2.949   3.948   3.198  0.7369  0.1343  0.4206
 6972SOL    HW132552   2.973   4.034   3.165  2.5405  0.0774  1.5924
 6972SOL    HW232553   2.857   3.971   3.213  0.3887  0.4614 -2.1428
 6973SOL     OW32554   4.053   0.394   8.113  0.0408 -0.0436  0.3868
 6973SOL    HW132555   4.102   0.383   8.195 -0.3106  0.6002  0.6770
 6973SOL    HW232556   3.970   0.408   8.158  1.5237  0.0441  3.0605
 6974SOL     OW32557   0.064   1.663   2.052  0.2435  0.8183 -0.3609
 6974SOL    HW132558   0.154   1.652   2.084 -0.1942 -0.8025  0.3060
 6974SOL    HW232559   0.081   1.631   1.963 -1.7584 -1.0501 -0.0830
 6975SOL     OW32560   1.036   0.219  10.315 -0.0300 -0.2460  0.0572
 6975SOL    HW132561   0.966   0.156  10.301  1.5620 -1.2682 -3.2785
 6975SOL    HW232562   1.064   0.190  10.401 -1.3771 -1.0861  0.2063
 6976SOL     OW32563   0.008   0.932  16.825  0.2616 -0.1814 -0.5103
 6976SOL    HW132564   0.079   0.876  16.793  0.6378 -1.1993  2.0732
 6976SOL    HW232565   0.033   1.020  16.798  2.0327 -0.7169 -0.5883
 6977SOL     OW32566   1.749   2.693   1.042  0.3596 -0.4091  0.5222
 6977SOL    HW132567   1.692   2.768   1.061  0.0579 -0.1627 -1.4217
 6977SOL    HW232568   1.753   2.705   0.948 -3.5332  0.2509  0.4296
 6978SOL     OW32569   1.221   0.334   6.450 -0.3756 -0.1435  0.4501
 6978SOL    HW132570   1.177   0.326   6.535  1.9520 -1.6147  1.5187
 6978SOL    HW232571   1.150   0.365   6.394 -0.3894  0.6622  0.9190
 6979SOL     OW32572   4.388   3.174   8.006  0.1260  0.0459  0.0961
 6979SOL    HW132573   4.365   3.096   8.056  2.9624 -1.2090 -0.5268
 6979SOL    HW232574   4.440   3.218   8.074  0.3177 -0.5597  0.3435
 6980SOL     OW32575   1.685   3.384  16.137 -0.1962 -0.5949  0.3414
 6980SOL    HW132576   1.598   3.371  16.100  0.8735  0.0239 -2.3658
 6980SOL    HW232577   1.692   3.479  16.147 -0.2553 -0.7965  2.3591
 6981SOL     OW32578   0.719   1.032   3.772  0.0759 -0.0636  0.5582
 6981SOL    HW132579   0.811   1.034   3.798  0.6193 -1.5156 -1.2672
 6981SOL    HW232580   0.694   0.943   3.797 -1.1514  0.3310  0.7596
 6982SOL     OW32581   1.726   2.837  12.097 -0.2092  0.2003 -0.1937
 6982SOL    HW132582   1.818   2.812  12.090 -0.3890  0.0361 -1.8318
 6982SOL    HW232583   1.705   2.797  12.182  2.3658  1.2518  0.9161
 6983SOL     OW32584   3.442   0.593   2.890 -0.0939 -0.2714  0.6450
 6983SOL    HW132585   3.436   0.569   2.983 -0.2765  1.6747  1.1311
 6983SOL    HW232586   3.447   0.686   2.913 -0.1388 -0.0181 -0.3547
 6984SOL     OW32587   2.829   3.690   9.280 -0.2731 -0.2357 -0.0089
 6984SOL    HW132588   2.852   3.650   9.364 -0.6733  0.1100  0.2705
 6984SOL    HW232589   2.810   3.612   9.228  0.4204 -0.9428  0.8017
 6985SOL     OW32590   3.659   3.729   8.505 -0.2789  0.5736 -0.2285
 6985SOL    HW132591   3.650   3.666   8.577 -1.9890  2.2038  1.0102
 6985SOL    HW232592   3.600   3.687   8.443 -0.1140 -1.6816  1.1459
 6986SOL     OW32593   2.787   2.705   9.369  0.1270  0.3683  0.2049
 6986SOL    HW132594   2.869   2.686   9.324  1.5013  1.5175  2.1938
 6986SOL    HW232595   2.727   2.666   9.307  0.7891 -1.0910  0.4944
 6987SOL     OW32596   4.114   1.612   4.326 -1.1616 -0.0863 -0.3679
 6987SOL    HW132597   4.153   1.561   4.255  0.4848  1.0112 -0.2350
 6987SOL    HW232598   4.140   1.550   4.395 -1.6760 -1.3096 -1.2572
 6988SOL     OW32599   2.905   3.233  10.859 -0.4073  0.1041  0.1141
 6988SOL    HW132600   2.897   3.192  10.946 -1.6084 -0.2314 -0.1465
 6988SOL    HW232601   2.811   3.238  10.842 -0.2280 -1.2089 -1.2746
 6989SOL     OW32602   1.517   1.386   5.088 -0.4022 -0.3638 -0.0945
 6989SOL    HW132603   1.444   1.447   5.096  0.1093  0.1894  0.3903
 6989SOL    HW232604   1.590   1.446   5.074 -1.0743  0.1275 -1.4438
 6990SOL     OW32605   1.119   1.345   4.926  0.4948  0.4109 -0.2615
 6990SOL    HW132606   1.077   1.287   4.990  0.9873 -0.3998 -0.6741
 6990SOL    HW232607   1.197   1.293   4.904  0.7327  0.8076 -0.3487
 6991SOL     OW32608   2.167   3.767   5.952  0.1367  0.3108  0.1363
 6991SOL    HW132609   2.088   3.817   5.929  0.8442  1.1279 -0.5032
 6991SOL    HW232610   2.186   3.743   5.861 -0.7612 -0.6583  0.2034
 6992SOL     OW32611   2.710   1.362   3.659 -0.4413  0.2535  0.1935
 6992SOL    HW132612   2.745   1.444   3.693 -0.1906 -0.5105  1.7751
 6992SOL    HW232613   2.748   1.359   3.571 -1.0410  0.0764 -0.0567
 6993SOL     OW32614   4.393   2.913   6.285  0.1721 -0.3736  0.4340
 6993SOL    HW132615   4.419   2.914   6.193  2.4947 -0.4234  1.0989
 6993SOL    HW232616   4.301   2.938   6.274  0.6258  0.2981 -1.8605
 6994SOL     OW32617   4.607   0.688  13.575 -0.2771  0.7863  0.1669
 6994SOL    HW132618   4.636   0.734  13.496 -0.8868  1.2121  0.1877
 6994SOL    HW232619   4.527   0.647  13.544  2.2995 -2.4939 -2.2090
 6995SOL     OW32620   3.030   3.987  12.095  0.4650 -0.0533  0.0231
 6995SOL    HW132621   2.977   3.909  12.077 -1.7868  1.6613 -0.8513
 6995SOL    HW232622   2.985   4.026  12.170 -0.1818 -1.6974  0.5071
 6996SOL     OW32623   2.810   1.381   4.398  0.1520 -0.3873  0.4326
 6996SOL    HW132624   2.777   1.447   4.338  1.7052 -0.2312 -0.2479
 6996SOL    HW232625   2.903   1.386   4.374 -0.0710  2.5793  0.1499
 6997SOL     OW32626   1.944   3.305   3.950  0.1334 -0.1183 -0.0900
 6997SOL    HW132627   1.942   3.237   4.017 -0.8651 -0.6461 -0.6593
 6997SOL    HW232628   1.859   3.292   3.909  1.0105 -0.8507 -1.6801
 6998SOL     OW32629   1.889   3.986   6.469 -0.0693 -0.8166 -0.1314
 6998SOL    HW132630   1.833   4.051   6.427 -0.6076 -0.6491  0.8455
 6998SOL    HW232631   1.847   3.957   6.550  2.5598 -0.0440  1.4981
 6999SOL     OW32632   0.252   0.277  10.165  0.3537 -0.5510  0.3044
 6999SOL    HW132633   0.194   0.317  10.229 -0.9427  0.0436 -1.2456
 6999SOL    HW232634   0.331   0.262  10.217 -0.2741  1.5330  1.8508
 7000SOL     OW32635   1.387   1.149   3.954 -0.1344 -0.0411 -0.0826
 7000SOL    HW132636   1.457   1.141   3.890  0.2183  0.7822  0.1988
 7000SOL    HW232637   1.343   1.064   3.953 -1.5306  0.7064 -2.1942
 7001SOL     OW32638   3.911   0.382   4.808 -0.5708 -0.0104 -0.2626
 7001SOL    HW132639   3.920   0.353   4.718 -0.4124 -3.1166  0.7587
 7001SOL    HW232640   3.908   0.298   4.854  1.0025  0.5355  0.8562
 7002SOL     OW32641   0.690   3.206   5.237 -0.4422  0.1845  0.0089
 7002SOL    HW132642   0.728   3.225   5.151 -1.8945  1.5557 -0.3479
 7002SOL    HW232643   0.606   3.252   5.228  0.0954  1.4849  1.8006
 7003SOL     OW32644   1.707   3.544   5.965  0.1669  0.4961 -0.3585
 7003SOL    HW132645   1.687   3.459   6.004  0.9243  0.8451  0.8055
 7003SOL    HW232646   1.711   3.597   6.044 -2.8751 -1.7953  1.3525
 7004SOL     OW32647   2.198   3.187   6.835 -0.4075  0.4431  0.1330
 7004SOL    HW132648   2.144   3.107   6.834  1.7300 -1.0045  0.9083
 7004SOL    HW232649   2.284   3.145   6.830 -0.2957  0.8021 -0.9491
 7005SOL     OW32650   3.026   3.481  10.834 -0.1912  0.2580 -0.1897
 7005SOL    HW132651   2.967   3.406  10.843 -0.1124  0.4527  1.8319
 7005SOL    HW232652   3.114   3.445  10.847  0.8179  2.0335 -2.1239
 7006SOL     OW32653   4.639   2.345  10.150 -0.8508  0.0126  0.0390
 7006SOL    HW132654   4.543   2.351  10.144 -0.8182  0.6776  0.2051
 7006SOL    HW232655   4.651   2.269  10.206  0.3420 -1.8085 -2.7075
 7007SOL     OW32656   1.237   1.683   2.766 -0.2455  0.1698 -0.2152
 7007SOL    HW132657   1.267   1.734   2.842 -0.3185 -0.3580  0.1628
 7007SOL    HW232658   1.147   1.670   2.794  0.7709 -2.8101  1.5865
 7008SOL     OW32659   4.502   1.135   7.255  0.1050 -0.4988  0.3087
 7008SOL    HW132660   4.502   1.082   7.175 -1.1785 -1.5339  1.0015
 7008SOL    HW232661   4.407   1.147   7.267  0.3053  0.8183  0.6816
 7009SOL     OW32662   0.963   0.781   4.931 -0.2334  0.1829  0.1911
 7009SOL    HW132663   1.020   0.844   4.975 -0.9847 -0.5584  2.2169
 7009SOL    HW232664   0.889   0.841   4.925  1.5275  2.5529  2.2323
 7010SOL     OW32665   4.317   3.335   8.459 -0.0527 -0.0843  0.1969
 7010SOL    HW132666   4.328   3.300   8.370  0.4670  0.3659  0.0790
 7010SOL    HW232667   4.225   3.360   8.449 -0.1266 -1.2372 -1.9403
 7011SOL     OW32668   0.576   3.755  12.999  0.0974  0.8852 -0.3794
 7011SOL    HW132669   0.616   3.695  13.062  1.0986  0.2553 -1.5888
 7011SOL    HW232670   0.656   3.777  12.951  0.5672 -1.1297 -0.5418
 7012SOL     OW32671   3.019   1.288   9.596  0.1801  0.0305 -0.3578
 7012SOL    HW132672   3.052   1.232   9.526  1.7143 -0.4564  0.7626
 7012SOL    HW232673   2.971   1.347   9.538  4.4685  2.5015 -1.3529
 7013SOL     OW32674   4.138   3.966   4.613  0.0070  0.1266  0.1795
 7013SOL    HW132675   4.073   3.956   4.683  0.8659 -1.0353  0.8242
 7013SOL    HW232676   4.206   3.903   4.636  0.2361  0.4100  0.2717
 7014SOL     OW32677   0.744   3.626   8.324 -0.3728  0.5513  0.2690
 7014SOL    HW132678   0.691   3.618   8.244  2.3827 -0.6767 -1.4274
 7014SOL    HW232679   0.729   3.719   8.341 -1.7326  0.5880 -1.1524
 7015SOL     OW32680   0.946   2.212   6.877  0.3602 -0.1492 -0.0345
 7015SOL    HW132681   0.888   2.287   6.870  0.4940  0.0693  1.2830
 7015SOL    HW232682   1.014   2.251   6.931 -0.8661  2.9308 -0.7303
 7016SOL     OW32683   0.486   0.156   1.785  0.5598  0.5981 -0.2308
 7016SOL    HW132684   0.409   0.099   1.784  0.7590  0.3007  1.7510
 7016SOL    HW232685   0.529   0.122   1.863 -3.5665 -0.2182  1.6661
 7017SOL     OW32686   3.932   4.386   1.939  0.0497  0.2586  0.5415
 7017SOL    HW132687   3.913   4.407   1.847  1.9849 -0.6862 -0.0724
 7017SOL    HW232688   3.951   4.292   1.936 -1.2303 -0.0682  2.5849
 7018SOL     OW32689   2.397   1.780   7.800  0.0017 -0.2233  0.1589
 7018SOL    HW132690   2.343   1.763   7.722  0.6847 -0.2416 -0.3070
 7018SOL    HW232691   2.320   1.782   7.857 -0.5681 -0.5181 -0.5899
 7019SOL     OW32692   1.293   0.609   9.749 -0.6386  0.4670  0.2515
 7019SOL    HW132693   1.265   0.641   9.835  1.3647  0.5880  0.8504
 7019SOL    HW232694   1.254   0.683   9.702  0.4472  1.7152  1.3285
 7020SOL     OW32695   0.517   3.555   8.456  0.4370 -0.5259  0.2705
 7020SOL    HW132696   0.457   3.621   8.421  0.6374 -1.1780 -1.2942
 7020SOL    HW232697   0.587   3.561   8.391  0.3725  2.4640  0.4760
 7021SOL     OW32698   4.473   4.492  11.927 -0.3587  0.1053  0.0913
 7021SOL    HW132699   4.440   4.576  11.895  0.9461  1.7809  3.1972
 7021SOL    HW232700   4.504   4.513  12.015  1.2361  0.4912 -0.5807
 7022SOL     OW32701   1.641   0.851   3.663 -0.5966 -0.8223 -1.7470
 7022SOL    HW132702   1.575   0.913   3.629 -0.7004  0.4224  0.7746
 7022SOL    HW232703   1.589   0.776   3.691  1.7671 -1.6934  0.2067
 7023SOL     OW32704   0.635   1.175   1.739  0.3184 -0.5573  0.3603
 7023SOL    HW132705   0.625   1.248   1.800  0.1848 -0.5729  0.3567
 7023SOL    HW232706   0.672   1.109   1.798  1.7656  1.0349  1.2364
 7024SOL     OW32707   4.234   4.326  15.248  0.1198  0.0082  0.2731
 7024SOL    HW132708   4.164   4.334  15.312 -0.0463  0.0147  0.0889
 7024SOL    HW232709   4.187   4.314  15.166  2.3787 -2.7457 -0.6205
 7025SOL     OW32710   1.751   2.946   1.891  0.1000  0.5514 -0.1334
 7025SOL    HW132711   1.770   2.946   1.797 -3.4330 -2.5487 -0.8725
 7025SOL    HW232712   1.673   3.002   1.888  0.8468  1.5067 -1.7751
 7026SOL     OW32713   2.742   0.096   9.929  0.1042  0.3535  0.2953
 7026SOL    HW132714   2.733   0.006   9.959 -0.4622  0.1753 -0.4066
 7026SOL    HW232715   2.807   0.137   9.986 -0.1088  1.5042 -0.2905
 7027SOL     OW32716   2.408   3.092   2.015  0.2699  0.0332  0.5052
 7027SOL    HW132717   2.497   3.097   1.981  0.9586  3.0115  2.8028
 7027SOL    HW232718   2.365   3.088   1.930  2.2055 -0.6815 -0.4424
 7028SOL     OW32719   1.673   0.596   6.288 -0.0010 -0.2505 -0.0246
 7028SOL    HW132720   1.648   0.631   6.203 -0.3759 -0.6834 -0.0887
 7028SOL    HW232721   1.661   0.503   6.273 -1.0440 -0.4164  1.8441
 7029SOL     OW32722   0.761   1.450   1.848  0.2893  0.2523  0.4148
 7029SOL    HW132723   0.807   1.430   1.929  0.7404  0.6583  0.2576
 7029SOL    HW232724   0.760   1.546   1.839 -0.4351 -0.0374 -2.5885
 7030SOL     OW32725   3.335   2.373  16.767  0.0682  0.5441 -0.2123
 7030SOL    HW132726   3.301   2.361  16.679  0.0898 -2.5083  0.1752
 7030SOL    HW232727   3.259   2.399  16.819  0.4287  1.9655 -0.4128
 7031SOL     OW32728   1.448   3.642   5.449  0.1049 -0.1190  0.3287
 7031SOL    HW132729   1.411   3.723   5.416  1.7665  0.9857  1.1706
 7031SOL    HW232730   1.410   3.589   5.379  3.3197 -0.3857 -1.1994
 7032SOL     OW32731   0.340   3.746   5.529 -0.2521  0.0608 -0.2662
 7032SOL    HW132732   0.274   3.775   5.592 -1.0437 -0.6461 -0.7687
 7032SOL    HW232733   0.320   3.801   5.453  0.9423  1.1761  0.2215
 7033SOL     OW32734   0.581   0.553   8.211 -0.4831 -0.7897  0.0304
 7033SOL    HW132735   0.600   0.608   8.134 -1.1838  0.0234  0.4394
 7033SOL    HW232736   0.576   0.471   8.161 -2.0826 -0.9329  0.4530
 7034SOL     OW32737   0.473   2.419  10.762 -0.4663 -0.2676  0.3983
 7034SOL    HW132738   0.522   2.499  10.744  1.2339 -1.2500  0.5513
 7034SOL    HW232739   0.387   2.453  10.741  0.7332  2.4502 -0.0877
 7035SOL     OW32740   3.738   0.268   8.435  0.8497  0.9202  0.5708
 7035SOL    HW132741   3.721   0.178   8.405  2.9759  1.5825 -2.5707
 7035SOL    HW232742   3.681   0.278   8.511  1.5346  2.1516  0.9046
 7036SOL     OW32743   1.081   3.112   2.322  0.1802 -0.0591  0.1891
 7036SOL    HW132744   1.091   3.142   2.412 -1.3894 -0.5272  0.5215
 7036SOL    HW232745   1.157   3.057   2.309 -0.2107 -0.7370  0.7480
 7037SOL     OW32746   3.885   3.576   8.747  0.1395 -0.4578  0.2375
 7037SOL    HW132747   3.824   3.557   8.818  0.1580 -2.3921 -0.2611
 7037SOL    HW232748   3.866   3.507   8.683  0.3150 -0.2290 -0.0608
 7038SOL     OW32749   4.665   1.916   3.621  0.2421 -0.1337  0.4869
 7038SOL    HW132750   4.586   1.879   3.582  0.0340  1.9266 -1.0254
 7038SOL    HW232751   4.635   2.005   3.638 -1.4950 -0.6262 -0.0063
 7039SOL     OW32752   3.446   0.078   5.070 -0.0213 -0.5728 -0.0843
 7039SOL    HW132753   3.451   0.132   5.149 -1.4055 -0.2610 -0.2010
 7039SOL    HW232754   3.379   0.125   5.021 -0.1822 -0.7402 -0.0260
 7040SOL     OW32755   2.282   2.640   7.532  0.5782 -0.2170  0.3500
 7040SOL    HW132756   2.218   2.656   7.602 -0.9185 -0.3442 -0.9756
 7040SOL    HW232757   2.226   2.604   7.463  1.7403 -2.2245  0.4510
 7041SOL     OW32758   3.133   2.159   8.377  0.5894  0.0842  0.0038
 7041SOL    HW132759   3.189   2.150   8.454 -1.2205 -5.0230  0.6923
 7041SOL    HW232760   3.118   2.067   8.355 -3.5418  0.4219  1.3479
 7042SOL     OW32761   3.208   3.768  12.230 -0.0228 -0.6765  0.0824
 7042SOL    HW132762   3.140   3.734  12.172  0.6164 -1.8210 -0.0174
 7042SOL    HW232763   3.164   3.779  12.314 -0.9627  0.1929 -0.5353
 7043SOL     OW32764   1.560   4.588   2.981 -0.1323  0.1213  0.6917
 7043SOL    HW132765   1.478   4.543   2.959 -0.6181 -0.4369  3.6127
 7043SOL    HW232766   1.519   4.648   3.043 -0.2884  0.0789  0.6322
 7044SOL     OW32767   3.930   1.252  14.175  0.6301 -0.1507  0.1591
 7044SOL    HW132768   3.964   1.164  14.190 -1.8912 -1.3108 -0.9759
 7044SOL    HW232769   3.893   1.241  14.088 -0.4999  0.1439  0.6027
 7045SOL     OW32770   1.910   0.275   1.466 -0.1831 -0.4177 -0.5127
 7045SOL    HW132771   1.880   0.185   1.479 -0.6322 -0.0912  0.7622
 7045SOL    HW232772   1.974   0.287   1.537 -0.6197  1.2824 -0.3965
 7046SOL     OW32773   3.647   2.729   5.224  0.0376 -0.0091  0.1874
 7046SOL    HW132774   3.592   2.751   5.149 -0.4075 -1.5472  0.0807
 7046SOL    HW232775   3.584   2.713   5.294 -1.2281  2.6849 -0.3176
 7047SOL     OW32776   3.899   2.610   7.608  0.6309  0.4578 -0.3880
 7047SOL    HW132777   3.894   2.520   7.639 -0.8085  0.6448 -0.1143
 7047SOL    HW232778   3.964   2.648   7.667 -1.8154  1.0112  1.9248
 7048SOL     OW32779   2.408   1.497  16.818  0.1837  0.4068 -0.7032
 7048SOL    HW132780   2.339   1.543  16.865  1.6489  0.5919  1.2579
 7048SOL    HW232781   2.401   1.415  16.868 -0.1420  0.7973 -0.1158
 7049SOL     OW32782   1.475   4.657   7.761  0.6724  0.0833  1.0601
 7049SOL    HW132783   1.461   4.562   7.772 -1.1074  0.3662  1.3631
 7049SOL    HW232784   1.566   4.678   7.782  0.8225  0.8657 -0.3905
 7050SOL     OW32785   3.100   2.635   3.726 -0.3940  0.0838 -0.8347
 7050SOL    HW132786   3.043   2.579   3.779 -0.6723 -0.4897 -1.7382
 7050SOL    HW232787   3.147   2.563   3.682 -0.3088  0.2895 -1.0801
 7051SOL     OW32788   1.469   3.655   4.513 -0.2014 -0.5197 -0.1490
 7051SOL    HW132789   1.543   3.716   4.512  0.7938 -1.6961  2.0944
 7051SOL    HW232790   1.398   3.707   4.551  1.2960  0.7973  0.8559
 7052SOL     OW32791   2.470   0.441   2.325  0.2547 -0.1955  0.8770
 7052SOL    HW132792   2.549   0.409   2.281  0.0124 -0.0099  0.3045
 7052SOL    HW232793   2.453   0.519   2.272  0.5693 -0.1031  0.9099
 7053SOL     OW32794   0.797   3.758   6.039 -0.2398  0.2680 -0.0381
 7053SOL    HW132795   0.871   3.785   5.986 -0.3624  0.0510 -0.3231
 7053SOL    HW232796   0.808   3.817   6.113  0.9763  0.4052 -0.3324
 7054SOL     OW32797   0.666   0.335   3.444 -0.0617 -0.3880 -0.3205
 7054SOL    HW132798   0.688   0.274   3.515  0.2171 -0.1180 -0.1738
 7054SOL    HW232799   0.746   0.338   3.391 -0.4993 -0.3152 -0.9828
 7055SOL     OW32800   0.168   2.857   2.507  0.2182  0.5171  0.0213
 7055SOL    HW132801   0.255   2.868   2.467  0.2661  0.9864  0.2603
 7055SOL    HW232802   0.180   2.931   2.566  0.1929  0.7522 -0.2649
 7056SOL     OW32803   2.739   1.831   9.256 -0.4552  0.1889 -0.2430
 7056SOL    HW132804   2.672   1.766   9.276  0.0553 -0.5668 -0.9866
 7056SOL    HW232805   2.738   1.889   9.332 -0.8244 -0.8938  0.5811
 7057SOL     OW32806   0.816   4.287   3.353 -0.0079 -0.3147  0.0670
 7057SOL    HW132807   0.868   4.291   3.434 -0.0139  0.7673  0.0128
 7057SOL    HW232808   0.808   4.194   3.333  1.5870 -0.5770  0.6233
 7058SOL     OW32809   1.254   0.361   3.262 -0.0384 -0.5563  0.2121
 7058SOL    HW132810   1.272   0.439   3.209  0.3169 -0.7955 -0.0161
 7058SOL    HW232811   1.340   0.325   3.282  0.0615 -0.1961  0.4358
 7059SOL     OW32812   3.173   3.365   6.146 -0.3387  0.5028  0.0725
 7059SOL    HW132813   3.134   3.278   6.150  0.3738  0.1695 -0.3386
 7059SOL    HW232814   3.266   3.358   6.128 -0.2324 -0.0708  0.8486
 7060SOL     OW32815   4.656   2.012  15.691 -0.6233  0.0969 -0.2728
 7060SOL    HW132816   4.721   2.057  15.745 -0.6350 -0.7280  0.4345
 7060SOL    HW232817   4.645   1.932  15.742  0.6007  0.3314  0.3635
 7061SOL     OW32818   1.525   1.868   6.415 -0.0822  0.4124  0.5041
 7061SOL    HW132819   1.549   1.782   6.450  1.2185  0.3502 -0.5338
 7061SOL    HW232820   1.610   1.901   6.387  0.1820 -1.0407 -0.4244
 7062SOL     OW32821   1.268   4.142   0.250  0.0013  0.0178  0.2033
 7062SOL    HW132822   1.235   4.114   0.164  2.0394  0.9979 -0.9004
 7062SOL    HW232823   1.253   4.060   0.296 -0.4549 -2.0245 -3.5793
 7063SOL     OW32824   2.490   0.862   5.375 -0.4423 -0.3687 -0.2577
 7063SOL    HW132825   2.470   0.773   5.402 -0.6827 -0.4866 -0.8133
 7063SOL    HW232826   2.398   0.879   5.352 -0.4300 -2.4064 -1.8255
 7064SOL     OW32827   3.322   1.928   3.681  0.2111  0.7684  0.0600
 7064SOL    HW132828   3.309   1.998   3.618 -2.7691 -0.0050 -0.1684
 7064SOL    HW232829   3.407   1.957   3.715 -1.0694  3.1754  1.2066
 7065SOL     OW32830   2.226   2.353   7.242  0.5769  0.1593 -0.0688
 7065SOL    HW132831   2.157   2.394   7.294  0.7026  1.5870 -1.0184
 7065SOL    HW232832   2.214   2.389   7.153 -3.9408  1.2963  1.0080
 7066SOL     OW32833   3.941   0.151   5.784  0.6104  0.0335 -0.2304
 7066SOL    HW132834   4.008   0.103   5.735  3.0630  0.2942  2.8434
 7066SOL    HW232835   3.977   0.140   5.872 -0.6055 -0.9201  0.1457
 7067SOL     OW32836   1.484   4.692  12.816 -0.1439 -0.3287  0.8789
 7067SOL    HW132837   1.569   4.663  12.782 -0.4573 -0.0138 -0.1953
 7067SOL    HW232838   1.502   0.008  12.894  0.3899  1.1600 -0.2366
 7068SOL     OW32839   2.851   4.101   7.540 -0.0840 -0.2087 -0.1279
 7068SOL    HW132840   2.933   4.150   7.535  0.7782 -1.4596  1.3787
 7068SOL    HW232841   2.796   4.150   7.480 -0.2098  1.6700  1.4965
 7069SOL     OW32842   4.032   1.525   5.823  0.4059  0.4183  0.4120
 7069SOL    HW132843   3.949   1.550   5.781  1.2080  0.8851 -0.9080
 7069SOL    HW232844   4.062   1.616   5.834  0.6711  0.4093 -0.2549
 7070SOL     OW32845   1.323   3.235   2.093 -0.2728 -0.5041  0.1893
 7070SOL    HW132846   1.342   3.329   2.085 -0.5459 -0.4556  0.1073
 7070SOL    HW232847   1.336   3.227   2.188  0.2537  0.3973  0.2011
 7071SOL     OW32848   1.559   0.227   4.680 -0.2558  0.3965 -0.0107
 7071SOL    HW132849   1.655   0.222   4.683 -0.1633  0.8856 -2.2224
 7071SOL    HW232850   1.542   0.314   4.715 -0.9115  0.0624  0.5209
 7072SOL     OW32851   3.465   4.161   5.394 -0.0549  0.0252  0.3377
 7072SOL    HW132852   3.520   4.203   5.328  1.4020 -0.2369  1.4018
 7072SOL    HW232853   3.380   4.166   5.350 -0.1991 -0.5272  0.5636
 7073SOL     OW32854   3.290   2.644  10.570  0.0943  0.0825  0.2118
 7073SOL    HW132855   3.326   2.702  10.503 -0.0259 -0.6381 -0.4639
 7073SOL    HW232856   3.308   2.700  10.646  1.6139 -0.4425  0.2352
 7074SOL     OW32857   2.425   2.407   4.414  0.1241  0.1522  0.3412
 7074SOL    HW132858   2.388   2.448   4.336 -1.0362 -0.5992  0.4908
 7074SOL    HW232859   2.490   2.348   4.374  0.9102  0.4418  1.1840
 7075SOL     OW32860   4.601   1.709   5.526  0.2901 -0.4440  0.4804
 7075SOL    HW132861   4.670   1.645   5.513  0.8064 -0.0587  1.2938
 7075SOL    HW232862   4.649   1.789   5.505  1.0635 -0.8739  0.6076
 7076SOL     OW32863   4.641   2.105   8.950 -0.2520 -0.0320 -0.1923
 7076SOL    HW132864   4.585   2.177   8.921 -0.1896  1.0069  2.2272
 7076SOL    HW232865   4.578   2.036   8.973  0.2088 -0.4625 -0.2110
 7077SOL     OW32866   3.460   1.598   6.047  0.1727 -0.0417 -0.3697
 7077SOL    HW132867   3.443   1.674   5.991 -2.8072 -2.1950 -2.3851
 7077SOL    HW232868   3.536   1.629   6.096  0.4709  1.6491 -1.9242
 7078SOL     OW32869   1.642   0.769   9.489 -0.1659 -0.4445 -0.1930
 7078SOL    HW132870   1.603   0.715   9.558 -2.9111 -0.4337 -1.7435
 7078SOL    HW232871   1.676   0.841   9.543 -0.7424 -1.4675  1.5266
 7079SOL     OW32872   1.597   3.410   6.792 -0.8842  0.4217  0.6422
 7079SOL    HW132873   1.525   3.368   6.840  1.7762 -0.9150  3.4903
 7079SOL    HW232874   1.607   3.339   6.729 -0.4527  1.6888 -0.6996
 7080SOL     OW32875   4.241   4.597   2.215 -0.7426  0.4597 -0.4294
 7080SOL    HW132876   4.318   4.541   2.204  0.1216  1.5318  0.1810
 7080SOL    HW232877   4.191   4.545   2.278 -0.7976 -2.5497 -2.9701
 7081SOL     OW32878   2.518   2.656   8.528  0.2014 -0.2361  0.0659
 7081SOL    HW132879   2.435   2.669   8.481 -1.2376 -1.0040  2.4184
 7081SOL    HW232880   2.496   2.589   8.593 -2.9077 -0.1758 -0.8969
 7082SOL     OW32881   2.798   3.989  14.903  0.4066  0.0993 -0.0152
 7082SOL    HW132882   2.725   4.049  14.889  0.9316  0.2710 -2.0810
 7082SOL    HW232883   2.866   4.041  14.861 -0.1869  0.8583 -0.0298
 7083SOL     OW32884   2.301   4.197   0.944  0.3008  0.2552  0.0969
 7083SOL    HW132885   2.360   4.123   0.958 -1.2193 -0.6655  1.5835
 7083SOL    HW232886   2.215   4.156   0.952  0.9327 -1.0699  0.0677
 7084SOL     OW32887   2.588   0.363   9.026  0.3173 -0.4638  0.2522
 7084SOL    HW132888   2.492   0.362   9.028  0.3269 -1.6408 -0.2196
 7084SOL    HW232889   2.607   0.457   9.028  0.4310 -0.5082  1.5502
 7085SOL     OW32890   4.447   4.498  17.336  0.0576  0.7549  0.4267
 7085SOL    HW132891   4.525   4.518  17.388 -0.1462  0.2627  0.9144
 7085SOL    HW232892   4.457   4.413  17.294 -0.1997  0.8901  0.0882
 7086SOL     OW32893   4.334   4.384   3.286 -0.0834  0.1576  0.4650
 7086SOL    HW132894   4.278   4.307   3.295  0.2736 -0.1970 -0.3473
 7086SOL    HW232895   4.285   4.449   3.336  0.3532 -0.1494  1.2823
 7087SOL     OW32896   3.198   2.157   2.239 -0.2990  0.4408  0.6527
 7087SOL    HW132897   3.109   2.147   2.274 -0.7262  1.3564 -0.1748
 7087SOL    HW232898   3.191   2.252   2.246 -2.2127  0.4446 -1.2931
 7088SOL     OW32899   0.553   0.611   4.673  0.7438 -0.1720 -0.1620
 7088SOL    HW132900   0.511   0.529   4.646 -0.5501  0.5778 -0.4363
 7088SOL    HW232901   0.577   0.597   4.764 -2.1678  1.7158  0.8718
 7089SOL     OW32902   1.865   1.820   6.719 -0.4965 -0.7667  0.5766
 7089SOL    HW132903   1.822   1.767   6.786  1.5338 -0.8013  1.8212
 7089SOL    HW232904   1.843   1.773   6.638 -0.1604 -0.9453  0.5930
 7090SOL     OW32905   4.563   2.649   4.008 -0.2751 -0.8446  0.6137
 7090SOL    HW132906   4.572   2.624   4.100 -0.3253 -1.8333  0.3395
 7090SOL    HW232907   4.604   2.577   3.961  0.0290 -1.4226  1.7628
 7091SOL     OW32908   0.725   4.232   7.054  0.3979 -0.3690  0.0200
 7091SOL    HW132909   0.787   4.163   7.029  0.5180  0.3331 -1.6273
 7091SOL    HW232910   0.678   4.192   7.128 -1.1858  0.1086 -0.7217
 7092SOL     OW32911   4.646   3.286   9.195  0.4890 -0.2881 -0.6582
 7092SOL    HW132912   0.002   3.287   9.166  0.6428 -0.2528 -0.1699
 7092SOL    HW232913   4.656   3.305   9.288  1.8135 -0.7368 -0.7079
 7093SOL     OW32914   4.109   3.546   2.406 -0.6597 -0.8275  0.5470
 7093SOL    HW132915   4.189   3.502   2.436 -1.3972 -2.1436  0.5570
 7093SOL    HW232916   4.074   3.594   2.481  0.9131  2.4341 -0.7706
 7094SOL     OW32917   4.269   0.321   1.577  0.0408  0.4197  0.1042
 7094SOL    HW132918   4.213   0.327   1.655 -0.3192  2.4080 -0.2935
 7094SOL    HW232919   4.219   0.372   1.514 -0.4936  1.3416  1.2575
 7095SOL     OW32920   2.552   2.284   6.397 -0.5019  0.0721  0.0840
 7095SOL    HW132921   2.577   2.217   6.461 -1.2949  1.3312  1.7055
 7095SOL    HW232922   2.457   2.273   6.402 -0.4802 -0.0027  0.3505
 7096SOL     OW32923   1.971   4.569   3.300 -0.8917  0.3629  0.2888
 7096SOL    HW132924   1.940   4.478   3.306  3.1271 -1.2490 -2.8809
 7096SOL    HW232925   1.964   4.603   3.389  0.7756  3.0042 -0.5924
 7097SOL     OW32926   0.993   0.828   7.629  0.0526  0.0915 -0.4099
 7097SOL    HW132927   0.963   0.771   7.558  2.4135 -2.6798  0.8276
 7097SOL    HW232928   1.013   0.913   7.589  1.1078  0.6050  1.2321
 7098SOL     OW32929   0.191   1.344  15.121 -0.1621 -0.7364 -0.2586
 7098SOL    HW132930   0.184   1.250  15.105 -1.5863 -0.8086  0.7729
 7098SOL    HW232931   0.271   1.345  15.174 -0.7605 -5.6967  0.6902
 7099SOL     OW32932   1.240   1.267   2.555 -0.1953 -0.6977  0.1726
 7099SOL    HW132933   1.333   1.266   2.530 -0.0336 -0.9683  0.7984
 7099SOL    HW232934   1.226   1.175   2.580  1.1768 -1.1773 -0.7983
 7100SOL     OW32935   2.698   1.459   4.038  0.5976  0.4766 -0.7426
 7100SOL    HW132936   2.725   1.526   4.101 -0.4925 -0.2545  0.5116
 7100SOL    HW232937   2.638   1.508   3.981  0.2802  2.0694  0.9665
 7101SOL     OW32938   3.754   1.679   2.269  0.1581 -0.7606 -0.3169
 7101SOL    HW132939   3.719   1.748   2.326  3.2425  0.3923  0.1715
 7101SOL    HW232940   3.827   1.726   2.229 -2.2970  1.8775 -1.7110
 7102SOL     OW32941   2.918   3.664  16.853  0.0219  0.1985 -0.1416
 7102SOL    HW132942   2.986   3.681  16.788  0.2645 -0.7497 -0.1291
 7102SOL    HW232943   2.842   3.653  16.797  0.6793  0.6535 -1.1222
 7103SOL     OW32944   1.754   2.901   8.681  0.1609  0.1843  0.3462
 7103SOL    HW132945   1.767   2.939   8.595 -1.2007  1.7573  0.8244
 7103SOL    HW232946   1.725   2.810   8.668 -0.1604  0.4892 -0.9994
 7104SOL     OW32947   3.354   0.354   5.012 -0.1407  0.9831 -0.1684
 7104SOL    HW132948   3.431   0.407   5.034 -0.1784 -0.1837  2.8242
 7104SOL    HW232949   3.329   0.373   4.922  2.3083  1.1129 -0.8310
 7105SOL     OW32950   1.085   0.949   4.090 -1.0781  0.4210  0.5339
 7105SOL    HW132951   1.010   0.903   4.127  1.3283 -2.5538  1.7291
 7105SOL    HW232952   1.128   0.972   4.173  2.1554  1.5142 -1.4583
 7106SOL     OW32953   2.222   3.787   4.597 -0.1885  0.3497  0.1445
 7106SOL    HW132954   2.252   3.731   4.526 -0.8807  0.2209 -0.0528
 7106SOL    HW232955   2.254   3.740   4.674  1.2624  1.5801  0.2894
 7107SOL     OW32956   2.865   2.778   2.462 -0.0238 -0.2820 -0.6826
 7107SOL    HW132957   2.775   2.788   2.495  0.0299 -0.7231 -0.3934
 7107SOL    HW232958   2.902   2.740   2.542 -0.2794  0.4064 -0.2351
 7108SOL     OW32959   1.475   4.213   8.592 -0.1215 -0.0995  0.0457
 7108SOL    HW132960   1.410   4.228   8.523 -1.7325 -0.6489  1.4441
 7108SOL    HW232961   1.473   4.121   8.617 -1.2407 -0.0541  0.1420
 7109SOL     OW32962   0.837   1.034   7.088 -0.0222 -0.1484  0.4685
 7109SOL    HW132963   0.772   0.965   7.074 -1.2415  1.3846 -1.3894
 7109SOL    HW232964   0.822   1.052   7.181 -0.2808 -0.6190  0.5192
 7110SOL     OW32965   0.473   0.782   7.915 -0.6870 -0.0282 -0.1803
 7110SOL    HW132966   0.543   0.778   7.850 -1.8876  2.4809 -1.6272
 7110SOL    HW232967   0.509   0.849   7.973 -1.4669 -1.4190  1.9175
 7111SOL     OW32968   1.692   2.408   2.383 -0.3808 -0.3773 -0.7688
 7111SOL    HW132969   1.630   2.437   2.451  1.4657  0.0553  0.7392
 7111SOL    HW232970   1.691   2.313   2.399  0.2234 -0.5051 -1.5093
 7112SOL     OW32971   0.724   3.560  14.284 -0.3853 -0.9926 -0.1794
 7112SOL    HW132972   0.655   3.550  14.218 -1.2599  1.0906  0.4300
 7112SOL    HW232973   0.697   3.640  14.329 -0.8529 -0.3003 -1.6672
 7113SOL     OW32974   3.089   2.444  16.890 -0.5301  0.4729  0.3918
 7113SOL    HW132975   3.107   2.494  16.810 -2.5908  0.9669  0.2449
 7113SOL    HW232976   3.105   2.511  16.957  0.6301  1.8542 -1.2569
 7114SOL     OW32977   0.329   2.734   7.435 -0.4533 -0.0191  0.3001
 7114SOL    HW132978   0.316   2.788   7.357 -1.7433 -0.0398  0.4906
 7114SOL    HW232979   0.357   2.646   7.409 -1.6823 -0.6632  1.1717
 7115SOL     OW32980   4.466   3.215  17.188 -0.1792  0.2827  0.3702
 7115SOL    HW132981   4.399   3.283  17.194 -1.5913 -1.1000  0.2999
 7115SOL    HW232982   4.484   3.207  17.094 -2.7857  1.2315 -0.2107
 7116SOL     OW32983   1.539   1.443   8.080  0.1035 -0.0495  0.1799
 7116SOL    HW132984   1.457   1.419   8.124  0.7165 -1.6552  0.4102
 7116SOL    HW232985   1.601   1.456   8.151 -0.0798 -2.4755  0.7608
 7117SOL     OW32986   0.509   1.372   5.357 -0.2174 -0.2934 -0.3809
 7117SOL    HW132987   0.602   1.395   5.357 -0.4090  0.4893 -0.8549
 7117SOL    HW232988   0.501   1.307   5.288  0.9408 -1.7175  0.8435
 7118SOL     OW32989   0.536   2.490  11.712  0.5882  0.1146 -0.1984
 7118SOL    HW132990   0.516   2.396  11.721 -1.1707  0.3299 -1.9032
 7118SOL    HW232991   0.604   2.492  11.644 -0.7103  1.6664 -1.4456
 7119SOL     OW32992   1.468   4.178   9.262 -0.0983  0.0151  0.4525
 7119SOL    HW132993   1.480   4.199   9.355  0.1578  0.0647  0.4094
 7119SOL    HW232994   1.383   4.134   9.266  1.1156 -2.4720 -0.9125
 7120SOL     OW32995   0.285   1.352   3.253 -0.3365  0.2284 -0.5424
 7120SOL    HW132996   0.321   1.344   3.342 -1.7748  0.0842  0.0266
 7120SOL    HW232997   0.298   1.267   3.212  0.5390  0.8685 -1.5986
 7121SOL     OW32998   2.004   4.339  12.910 -0.0328  0.1064  0.0285
 7121SOL    HW132999   2.004   4.261  12.854 -0.3813  0.9068 -1.0910
 7121SOL    HW233000   2.044   4.408  12.858  0.7593  0.7049  1.4479
 7122SOL     OW33001   3.027   4.294   6.000 -0.2887  0.1624  0.0643
 7122SOL    HW133002   2.984   4.261   6.078  1.4080 -0.6015  0.6793
 7122SOL    HW233003   3.002   4.224   5.940 -2.5836  1.9455 -1.0423
 7123SOL     OW33004   3.477   2.810   1.256 -0.3394 -0.2012  0.4035
 7123SOL    HW133005   3.395   2.844   1.292  0.0049  2.1711 -1.0143
 7123SOL    HW233006   3.459   2.841   1.167 -1.1258 -0.8598  0.3315
 7124SOL     OW33007   3.294   3.947   2.724  0.2450 -0.0305  0.1605
 7124SOL    HW133008   3.303   3.857   2.693  0.9644  0.4477 -1.0097
 7124SOL    HW233009   3.332   3.943   2.812 -0.4470  0.4398  0.4846
 7125SOL     OW33010   3.644   4.305  14.749 -0.1662 -0.1127 -0.2040
 7125SOL    HW133011   3.613   4.339  14.666 -1.5888  1.1189  0.8318
 7125SOL    HW233012   3.702   4.372  14.785  0.4090 -0.2255 -0.9355
 7126SOL     OW33013   3.101   0.008   2.001  0.1324 -0.3786 -0.5676
 7126SOL    HW133014   3.123   0.006   1.908  2.1286  2.2238 -0.1653
 7126SOL    HW233015   3.092   0.103   2.008 -0.9400 -0.6295  1.5089
 7127SOL     OW33016   3.302   2.091   9.511  0.5809  0.5009  0.3599
 7127SOL    HW133017   3.316   2.022   9.446  0.9022  2.1552 -1.3449
 7127SOL    HW233018   3.387   2.135   9.519  0.2528  1.3604 -0.8183
 7128SOL     OW33019   1.981   4.322  13.436  0.0072 -0.6235  0.0455
 7128SOL    HW133020   2.030   4.328  13.354  1.7054 -3.9304  0.8396
 7128SOL    HW233021   1.896   4.356  13.407  0.8748  0.8151 -0.7996
 7129SOL     OW33022   2.991   3.042   7.259  0.2674  0.2108  0.0772
 7129SOL    HW133023   2.973   3.040   7.165 -1.0908  0.1139  0.3468
 7129SOL    HW233024   3.050   2.967   7.262 -0.9809 -0.7810 -0.6024
 7130SOL     OW33025   1.893   2.179   5.178  0.3699 -0.0291 -0.3201
 7130SOL    HW133026   1.904   2.214   5.267  0.1336 -0.2410 -0.2073
 7130SOL    HW233027   1.799   2.167   5.168  0.4847  1.1137 -2.8034
 7131SOL     OW33028   4.449   2.060  11.276 -0.0299  0.1632  0.1476
 7131SOL    HW133029   4.444   1.971  11.241 -0.6946 -0.1249  0.9683
 7131SOL    HW233030   4.538   2.081  11.249 -0.3690 -1.2118 -2.0557
 7132SOL     OW33031   1.997   1.898   2.228  0.2259 -0.1011  0.6455
 7132SOL    HW133032   2.064   1.833   2.248  0.3134 -0.3717 -0.5295
 7132SOL    HW233033   1.935   1.856   2.288  0.3276  0.7996  1.3788
 7133SOL     OW33034   4.254   4.406   3.785 -0.0807  0.2970  0.4928
 7133SOL    HW133035   4.336   4.423   3.832  0.0285  0.6757  0.1635
 7133SOL    HW233036   4.185   4.436   3.844 -1.2527  2.5824 -2.0458
 7134SOL     OW33037   2.415   0.031   9.560 -0.5732  0.5947  0.6222
 7134SOL    HW133038   2.492   0.069   9.602  0.7573 -0.2456 -1.0256
 7134SOL    HW233039   2.344   0.024   9.623 -0.6377  0.0684  0.4935
 7135SOL     OW33040   1.219   2.822   5.473 -0.5067  0.1517 -0.0691
 7135SOL    HW133041   1.244   2.872   5.551 -1.5141  1.9665 -0.9265
 7135SOL    HW233042   1.201   2.743   5.524 -1.8434  0.2709 -0.3633
 7136SOL     OW33043   4.467   0.281   5.761  0.5798  0.6407  0.1007
 7136SOL    HW133044   4.437   0.206   5.812  2.8505  1.6301  2.8864
 7136SOL    HW233045   4.543   0.309   5.811  0.3301 -0.8637  1.3251
 7137SOL     OW33046   4.421   2.041  10.927 -0.1209 -0.4752  0.3506
 7137SOL    HW133047   4.444   1.962  10.975 -3.4713 -0.0225  2.6451
 7137SOL    HW233048   4.477   2.097  10.980  1.8971 -1.3108 -0.9103
 7138SOL     OW33049   4.118   4.096  13.981 -0.0589  0.0784 -0.4069
 7138SOL    HW133050   4.150   4.177  13.943  2.1778 -0.4000  0.4552
 7138SOL    HW233051   4.191   4.072  14.038 -1.2400 -1.1154  0.5954
 7139SOL     OW33052   2.171   4.405  17.021  0.3946  0.2332 -0.0418
 7139SOL    HW133053   2.227   4.350  16.967  1.0712  1.9152 -1.0557
 7139SOL    HW233054   2.237   4.456  17.066  0.0682  0.7050 -0.0926
 7140SOL     OW33055   3.474   3.121   7.446 -0.5045  0.0313 -0.2327
 7140SOL    HW133056   3.395   3.174   7.442 -0.9582 -0.6638 -0.3915
 7140SOL    HW233057   3.451   3.068   7.370 -1.9663  0.9606 -0.4399
 7141SOL     OW33058   2.637   0.967   2.009 -0.0447  0.2216  0.6520
 7141SOL    HW133059   2.613   0.991   2.099  0.1589 -0.1277  0.7993
 7141SOL    HW233060   2.732   0.958   2.020  0.4917  2.7680 -1.7976
 7142SOL     OW33061   4.398   3.098   9.586  0.8547  0.4334 -1.1535
 7142SOL    HW133062   4.335   3.133   9.522 -0.3088  0.5952  0.0663
 7142SOL    HW233063   4.438   3.179   9.618  0.9232 -0.6191  1.4228
 7143SOL     OW33064   4.201   3.656  13.706 -0.3071 -0.0861  0.3596
 7143SOL    HW133065   4.111   3.669  13.677 -0.7925 -0.2431  1.8157
 7143SOL    HW233066   4.252   3.708  13.644  0.7184 -1.1801  0.2870
 7144SOL     OW33067   0.681   0.073  11.041 -0.6211 -0.5189  0.3544
 7144SOL    HW133068   0.651   4.729  10.997 -1.0401  0.6212 -1.4201
 7144SOL    HW233069   0.599   0.123  11.036 -0.5113 -0.5553 -1.6340
 7145SOL     OW33070   2.292   3.720   1.913  0.2201  0.2577 -0.5442
 7145SOL    HW133071   2.225   3.659   1.943 -0.5458 -0.7408 -4.3100
 7145SOL    HW233072   2.326   3.746   1.999 -0.7115  1.0960 -0.4175
 7146SOL     OW33073   4.527   2.389  12.748  0.4710 -0.1404 -0.0659
 7146SOL    HW133074   4.512   2.345  12.664 -0.0830  0.2327 -0.1673
 7146SOL    HW233075   4.619   2.369  12.763  1.1153  2.7152 -0.1692
 7147SOL     OW33076   2.938   1.787   7.114  0.1531 -0.1416  0.1147
 7147SOL    HW133077   2.994   1.792   7.191  0.8848  2.3949 -0.5965
 7147SOL    HW233078   2.924   1.880   7.096  1.6454  0.1202  0.3129
 7148SOL     OW33079   4.709   3.353   0.563  0.1215  0.2634 -0.0874
 7148SOL    HW133080   0.060   3.391   0.579 -0.4006  1.7581 -0.7180
 7148SOL    HW233081   4.706   3.296   0.639  2.9210  0.6564  0.3258
 7149SOL     OW33082   0.502   0.612  10.883  0.2938  0.2110  0.6168
 7149SOL    HW133083   0.436   0.543  10.890  0.4468  0.0101  0.0763
 7149SOL    HW233084   0.557   0.597  10.959  0.6532  0.9810  0.5086
 7150SOL     OW33085   1.009   3.206   6.916  0.2078 -0.3012 -0.4460
 7150SOL    HW133086   1.074   3.267   6.950 -1.0700 -0.1831  1.8007
 7150SOL    HW233087   1.045   3.180   6.832 -0.7537  2.2329 -1.6282
 7151SOL     OW33088   1.518   0.702   6.664 -0.0318  0.0126  0.3918
 7151SOL    HW133089   1.549   0.720   6.752  0.8939  0.9762 -0.1241
 7151SOL    HW233090   1.529   0.784   6.614 -1.6724  1.0698  1.7667
 7152SOL     OW33091   4.235   1.127   9.265 -0.5874  0.3981 -0.0008
 7152SOL    HW133092   4.155   1.162   9.303  0.2141  0.1665  1.9312
 7152SOL    HW233093   4.236   1.174   9.182  0.6444  0.0343 -0.1892
 7153SOL     OW33094   3.737   2.018  13.505  0.0023  0.1144 -0.0416
 7153SOL    HW133095   3.827   2.038  13.531  0.1495 -1.0551  0.3131
 7153SOL    HW233096   3.699   2.106  13.507  0.1735  0.2745 -2.6252
 7154SOL     OW33097   0.750   1.642  16.113 -0.3199 -0.1519 -0.6716
 7154SOL    HW133098   0.676   1.689  16.074  1.0315  1.0734 -1.7777
 7154SOL    HW233099   0.745   1.675  16.203 -1.2038 -0.3267 -0.6539
 7155SOL     OW33100   0.947   0.851   2.113  0.0341  0.2232  0.2685
 7155SOL    HW133101   1.010   0.889   2.053 -0.7895 -0.9476 -1.3724
 7155SOL    HW233102   0.951   0.755   2.108  0.4399  0.2422  0.2983
 7156SOL     OW33103   3.230   0.690   5.938 -0.8801 -0.3223  0.1267
 7156SOL    HW133104   3.166   0.677   6.008 -1.5610  2.3589  0.0026
 7156SOL    HW233105   3.167   0.704   5.868 -0.6346 -0.6256 -0.1547
 7157SOL     OW33106   1.802   2.897   7.982 -0.2146 -0.3442 -0.5052
 7157SOL    HW133107   1.878   2.907   7.925 -1.0705  0.5764 -1.5052
 7157SOL    HW233108   1.798   2.983   8.024  0.2247 -0.4310 -0.2880
 7158SOL     OW33109   1.546   0.715   1.123  0.9304 -0.5726 -0.6944
 7158SOL    HW133110   1.529   0.739   1.032 -1.3731 -1.7317 -0.5738
 7158SOL    HW233111   1.600   0.638   1.107  0.9825 -0.7741  0.4472
 7159SOL     OW33112   0.660   3.132   8.820  0.0565 -0.4213  0.1694
 7159SOL    HW133113   0.590   3.085   8.774 -0.0106 -1.3168  1.2016
 7159SOL    HW233114   0.679   3.204   8.760 -1.6745 -0.4775 -0.4618
 7160SOL     OW33115   0.301   3.051  16.103 -0.0387 -0.1627 -0.4499
 7160SOL    HW133116   0.213   3.077  16.130 -0.1686 -1.6976  0.6194
 7160SOL    HW233117   0.363   3.079  16.171 -0.9039 -0.7333  0.5730
 7161SOL     OW33118   3.462   2.931   8.360 -1.0306 -0.0286 -0.3175
 7161SOL    HW133119   3.420   2.999   8.413  1.0972  0.0267  1.3331
 7161SOL    HW233120   3.477   2.870   8.432  0.2009 -0.5569 -1.0203
 7162SOL     OW33121   1.327   0.774   8.515  0.3181 -0.3850  0.1067
 7162SOL    HW133122   1.394   0.717   8.477  0.0587 -0.3654 -0.3790
 7162SOL    HW233123   1.250   0.750   8.464  0.4306 -0.1699 -0.1638
 7163SOL     OW33124   0.917   3.360   0.449  0.4208 -0.0409 -0.5689
 7163SOL    HW133125   0.843   3.320   0.402  1.8059 -1.0335 -1.9003
 7163SOL    HW233126   0.982   3.290   0.449  0.7891  0.2861  1.1036
 7164SOL     OW33127   3.674   4.018   5.111 -0.3508  0.4333 -0.8262
 7164SOL    HW133128   3.599   3.963   5.134 -0.9137  2.6050  2.5308
 7164SOL    HW233129   3.689   4.058   5.196  1.5816  1.5494 -1.6897
 7165SOL     OW33130   1.517   3.677   3.533 -0.5832 -0.0893 -0.2334
 7165SOL    HW133131   1.503   3.767   3.562 -1.0216  0.5164 -2.3826
 7165SOL    HW233132   1.434   3.643   3.498 -0.3157 -0.7217 -0.2537
 7166SOL     OW33133   3.982   2.074   2.497 -0.1672  0.5856  0.5966
 7166SOL    HW133134   3.948   2.136   2.561 -0.5163  1.4003 -0.3783
 7166SOL    HW233135   4.002   2.000   2.554 -2.5764  0.3865  1.1711
 7167SOL     OW33136   1.662   1.552   2.074  0.4909 -0.3117  0.0552
 7167SOL    HW133137   1.666   1.626   2.012 -0.2719 -0.4346 -0.1418
 7167SOL    HW233138   1.746   1.510   2.060  0.9632  1.0390 -1.2154
 7168SOL     OW33139   1.436   2.080   5.415  0.3437  0.0133  0.6366
 7168SOL    HW133140   1.345   2.088   5.388  1.0655  1.4480 -1.3602
 7168SOL    HW233141   1.458   2.171   5.436 -2.9320  1.2949 -1.5498
 7169SOL     OW33142   4.374   3.502   9.253  0.8489 -0.0785  0.4031
 7169SOL    HW133143   4.371   3.440   9.180  2.6951  1.7248 -1.1858
 7169SOL    HW233144   4.467   3.525   9.249  0.8020  0.2754  1.3090
 7170SOL     OW33145   0.382   2.099   2.617  0.5109  0.3791  0.5077
 7170SOL    HW133146   0.397   2.028   2.553 -2.9203 -1.4800  1.7642
 7170SOL    HW233147   0.463   2.092   2.667  1.2161 -2.3091 -0.9686
 7171SOL     OW33148   1.653   2.841   9.212  0.5465 -0.0682  0.1539
 7171SOL    HW133149   1.571   2.889   9.202  2.0576  2.6777  1.1646
 7171SOL    HW233150   1.609   2.756   9.200  1.3152 -0.3566 -0.7121
 7172SOL     OW33151   4.026   0.744   7.695  0.0007  0.3978  0.0935
 7172SOL    HW133152   4.086   0.767   7.765 -1.0298 -0.8167  1.3659
 7172SOL    HW233153   4.030   0.807   7.622  0.5210  0.8884  0.5453
 7173SOL     OW33154   3.424   2.703   0.102 -0.8254 -0.0671  0.2949
 7173SOL    HW133155   3.500   2.726   0.155 -0.9135 -1.5401  1.0788
 7173SOL    HW233156   3.356   2.755   0.145  1.1843  1.3359  1.7869
 7174SOL     OW33157   3.882   0.868  14.837 -0.1181  0.0773  0.0995
 7174SOL    HW133158   3.919   0.821  14.912  1.5857  0.5329 -0.4481
 7174SOL    HW233159   3.910   0.803  14.773 -2.4829  0.3062 -1.1754
 7175SOL     OW33160   0.838   1.987   4.226 -0.4049 -0.4726  0.3587
 7175SOL    HW133161   0.862   2.080   4.224  1.9161 -1.0738  1.5042
 7175SOL    HW233162   0.917   1.949   4.263 -0.0396 -0.2874 -0.2284
 7176SOL     OW33163   0.118   2.648   9.919 -0.4372  0.3691 -0.0779
 7176SOL    HW133164   0.164   2.723   9.882 -0.8481  0.9205  0.5274
 7176SOL    HW233165   0.035   2.665   9.873  0.4765  1.5926 -1.3035
 7177SOL     OW33166   1.897   2.830   5.717  0.1395 -0.1249 -0.4718
 7177SOL    HW133167   1.818   2.809   5.667  0.2336 -0.1559 -0.6076
 7177SOL    HW233168   1.864   2.912   5.755  2.2367 -0.3698  1.8901
 7178SOL     OW33169   3.625   1.347   3.056 -0.1136 -0.0143 -0.1370
 7178SOL    HW133170   3.631   1.442   3.070  0.1763  0.1718 -1.4939
 7178SOL    HW233171   3.711   1.313   3.032  0.2786  0.6046  0.3629
 7179SOL     OW33172   4.320   4.151   1.680  1.1814 -0.0164 -0.1029
 7179SOL    HW133173   4.382   4.165   1.751  0.7978 -0.4834  0.3227
 7179SOL    HW233174   4.382   4.131   1.610  1.2288  2.0750 -0.6463
 7180SOL     OW33175   3.221   4.289  11.173  0.2181  0.0705  0.0869
 7180SOL    HW133176   3.252   4.340  11.249 -1.6575  0.0606  0.8713
 7180SOL    HW233177   3.298   4.291  11.116  0.0901 -0.5674 -0.1071
 7181SOL     OW33178   4.524   0.335   5.485 -0.6347  0.5528 -0.5957
 7181SOL    HW133179   4.617   0.315   5.493 -0.0646  3.9201  1.1547
 7181SOL    HW233180   4.505   0.338   5.579  0.3348 -2.0422 -0.3097
 7182SOL     OW33181   3.022   0.031   7.636 -0.4155  0.6961  1.1683
 7182SOL    HW133182   2.996   0.115   7.673 -0.3496  0.3538  1.9854
 7182SOL    HW233183   2.990   0.033   7.546  2.1684  1.1049  0.2793
 7183SOL     OW33184   1.313   1.700   4.018  0.6643 -0.1454 -0.0320
 7183SOL    HW133185   1.333   1.790   3.990  0.4963  1.0494  3.7428
 7183SOL    HW233186   1.276   1.663   3.938 -3.1395 -0.3064  1.7869
 7184SOL     OW33187   4.713   0.228   4.988  0.1280  0.2031  0.7698
 7184SOL    HW133188   4.628   0.271   4.980 -0.2874 -0.8785 -0.6682
 7184SOL    HW233189   4.685   0.157   5.046 -0.1305 -1.7160 -1.7070
 7185SOL     OW33190   1.879   4.159   4.770 -0.1707 -0.7568 -0.0371
 7185SOL    HW133191   1.817   4.148   4.842 -1.5210 -0.3472 -1.1537
 7185SOL    HW233192   1.817   4.207   4.717  0.3723 -0.5758 -0.5097
 7186SOL     OW33193   0.011   3.129  14.272 -0.3966 -0.4500 -0.2868
 7186SOL    HW133194   0.013   3.091  14.185 -2.1396  0.6656 -0.8278
 7186SOL    HW233195   4.657   3.165  14.266 -0.6158 -0.8338  0.6977
 7187SOL     OW33196   4.169   2.224  17.555  0.2398 -0.2752  0.9532
 7187SOL    HW133197   4.214   2.256  17.477 -1.0099  0.8316  0.6771
 7187SOL    HW233198   4.185   2.130  17.544  0.1262 -0.2179  0.2633
 7188SOL     OW33199   4.048   1.502  13.027  0.4666 -0.2467  0.6148
 7188SOL    HW133200   4.022   1.570  12.965 -2.2191  0.6484  2.7256
 7188SOL    HW233201   4.020   1.423  12.982 -0.4227 -0.8531  2.2411
 7189SOL     OW33202   1.305   4.133   1.606  0.6258 -0.2811 -0.2433
 7189SOL    HW133203   1.355   4.057   1.635 -1.8720 -2.1723 -0.8292
 7189SOL    HW233204   1.243   4.099   1.541 -0.9716  1.5146  0.3376
 7190SOL     OW33205   4.149   0.050   5.660 -0.0435 -0.2145 -0.1864
 7190SOL    HW133206   4.148   4.706   5.607 -2.8489  0.8540 -1.7377
 7190SOL    HW233207   4.201   0.114   5.611  0.2301 -1.1234 -1.0935
 7191SOL     OW33208   1.188   0.493   8.952  0.4202  0.6315 -0.1367
 7191SOL    HW133209   1.202   0.550   8.877 -0.4500  2.4436  1.0769
 7191SOL    HW233210   1.279   0.465   8.964  0.6150  1.1043 -0.5226
 7192SOL     OW33211   1.946   1.931   9.605  0.4033  0.0255 -0.0931
 7192SOL    HW133212   1.890   1.891   9.672 -0.2532 -0.7527 -1.1162
 7192SOL    HW233213   1.958   2.020   9.639 -0.2608  0.7888 -1.9200
 7193SOL     OW33214   4.555   2.621  11.212  0.2795  0.0698  0.1409
 7193SOL    HW133215   4.615   2.547  11.216  0.8083  0.4246 -1.1659
 7193SOL    HW233216   4.619   2.690  11.194 -0.3691 -0.0207 -2.4261
 7194SOL     OW33217   2.160   0.757   2.892  0.6361  0.1856  0.8382
 7194SOL    HW133218   2.215   0.713   2.956 -0.0311 -2.7521 -0.6267
 7194SOL    HW233219   2.166   0.706   2.811  1.9344  0.9694  0.4355
 7195SOL     OW33220   1.312   0.715   1.292  0.4940  0.2831  0.0843
 7195SOL    HW133221   1.314   0.805   1.258 -0.8973 -0.1811 -1.2279
 7195SOL    HW233222   1.395   0.686   1.256 -0.6751 -0.7354 -1.7899
 7196SOL     OW33223   4.045   1.715   7.624  0.2329  0.0258  0.0935
 7196SOL    HW133224   4.094   1.792   7.592  0.8407 -1.3319 -2.2096
 7196SOL    HW233225   4.108   1.682   7.688 -0.1882  0.1014  0.5401
 7197SOL     OW33226   0.548   3.249   7.501 -0.4479 -0.4017  0.1502
 7197SOL    HW133227   0.469   3.278   7.455 -1.2874 -0.1990  1.6989
 7197SOL    HW233228   0.612   3.317   7.481  1.0948 -2.2667 -1.2727
 7198SOL     OW33229   3.321   1.258   1.450 -0.7395 -0.2327  0.8674
 7198SOL    HW133230   3.323   1.338   1.397 -3.6456 -0.2078  0.7867
 7198SOL    HW233231   3.246   1.275   1.507 -0.4171  0.6692  1.0162
 7199SOL     OW33232   1.423   3.876   1.756 -0.2240  0.3295  0.5867
 7199SOL    HW133233   1.411   3.787   1.788 -0.9715  0.0713 -0.4158
 7199SOL    HW233234   1.369   3.926   1.817  3.1498  3.0802  1.2939
 7200SOL     OW33235   4.616   2.132  11.748  0.2392 -0.1114  0.3099
 7200SOL    HW133236   4.596   2.104  11.838  1.5470  0.6649  0.8289
 7200SOL    HW233237   4.545   2.087  11.702  0.3635  0.6004 -0.5744
 7201SOL     OW33238   4.726   4.192   5.320  0.0285  0.3763 -0.0783
 7201SOL    HW133239   4.676   4.235   5.388  2.3689 -1.5404  2.8730
 7201SOL    HW233240   0.082   4.200   5.346 -0.2546  2.8009  0.1359
 7202SOL     OW33241   0.222   4.623   4.315 -0.2533  0.2114  0.0692
 7202SOL    HW133242   0.165   4.646   4.241 -0.1917 -0.6748 -0.2524
 7202SOL    HW233243   0.278   4.701   4.316  0.5278 -0.3395 -1.1664
 7203SOL     OW33244   1.199   1.621  16.497  0.2653 -0.5251  0.4584
 7203SOL    HW133245   1.167   1.543  16.542  1.3492 -1.0510  0.3158
 7203SOL    HW233246   1.281   1.584  16.464 -0.5723  0.3563 -2.5362
 7204SOL     OW33247   0.340   2.699  14.773 -0.0455 -0.1251  0.4962
 7204SOL    HW133248   0.381   2.640  14.837 -0.5136 -0.5979  0.3551
 7204SOL    HW233249   0.288   2.636  14.724 -1.3045  0.2673  1.3072
 7205SOL     OW33250   3.470   1.809  10.628  0.0500 -0.2857  0.0832
 7205SOL    HW133251   3.561   1.790  10.607  0.8227  2.2297  1.1538
 7205SOL    HW233252   3.464   1.804  10.724  3.9798 -0.4683  0.3347
 7206SOL     OW33253   0.538   1.683   7.589 -0.7235 -0.4942 -0.5566
 7206SOL    HW133254   0.506   1.691   7.679 -3.0485  0.8517 -1.5177
 7206SOL    HW233255   0.470   1.637   7.539 -0.7839  0.8499 -1.6922
 7207SOL     OW33256   3.305   2.764   2.477 -0.0219  0.1315 -0.2153
 7207SOL    HW133257   3.337   2.703   2.543  1.0304  0.1161 -0.7410
 7207SOL    HW233258   3.280   2.708   2.403 -1.7722  0.3439  0.2016
 7208SOL     OW33259   4.163   3.331   4.035  0.1065 -0.3073  0.2013
 7208SOL    HW133260   4.089   3.386   4.057 -0.0521 -0.3816 -0.1412
 7208SOL    HW233261   4.152   3.248   4.082 -0.2291 -0.0947  0.4955
 7209SOL     OW33262   4.246   3.632   8.192  0.8582 -0.1955 -0.0595
 7209SOL    HW133263   4.197   3.553   8.167  2.0397 -0.9170 -0.0976
 7209SOL    HW233264   4.336   3.608   8.216  1.0975  0.5478 -0.2262
 7210SOL     OW33265   2.688   4.222   5.389 -0.3540 -0.4691 -0.0098
 7210SOL    HW133266   2.767   4.275   5.400 -1.0548  0.5583  0.1439
 7210SOL    HW233267   2.624   4.285   5.422  1.0616  1.6160 -1.2063
 7211SOL     OW33268   0.303   4.652  14.594 -0.0778 -0.5351  0.3497
 7211SOL    HW133269   0.283   4.716  14.526 -0.6082 -1.4054 -0.3105
 7211SOL    HW233270   0.275   4.568  14.559  0.0330 -0.9906  1.3462
 7212SOL     OW33271   0.243   3.167   1.855  0.4658 -0.7265  0.5404
 7212SOL    HW133272   0.249   3.115   1.935  1.0101 -0.4856  0.6562
 7212SOL    HW233273   0.188   3.241   1.881 -0.1378 -0.7382 -0.6862
 7213SOL     OW33274   4.696   2.049  16.336  0.6847 -0.0589  0.1588
 7213SOL    HW133275   4.642   2.004  16.271  0.5547 -2.5712  1.9904
 7213SOL    HW233276   4.664   1.999  16.411  1.3198 -1.2862 -0.3792
 7214SOL     OW33277   3.962   2.208   7.341  0.4491  0.3256  0.1246
 7214SOL    HW133278   4.049   2.246   7.351  0.7738 -0.0221 -1.3771
 7214SOL    HW233279   3.928   2.266   7.274  1.8415  0.2608 -0.6441
 7215SOL     OW33280   0.026   1.756   2.730  0.1564 -0.6200 -0.0228
 7215SOL    HW133281   0.065   1.839   2.702 -1.4367  0.0557 -0.2119
 7215SOL    HW233282   4.714   1.720   2.655  0.7099 -0.4269 -0.4663
 7216SOL     OW33283   3.906   2.385   0.092  0.3661 -0.4949 -0.7943
 7216SOL    HW133284   3.870   2.338   0.017  1.2664 -2.9386  0.3088
 7216SOL    HW233285   3.823   2.417   0.129  1.1918 -0.0573  0.7063
 7217SOL     OW33286   4.571   3.590  17.329  0.2904  0.0027  0.0141
 7217SOL    HW133287   4.610   3.586  17.417 -0.5796  1.8289  0.4767
 7217SOL    HW233288   4.486   3.547  17.344  0.9193 -1.6322 -1.0392
 7218SOL     OW33289   4.658   1.197  14.240  0.2206 -0.2367 -0.9246
 7218SOL    HW133290   4.681   1.186  14.148 -1.6794  1.6669 -1.6259
 7218SOL    HW233291   4.564   1.206  14.225 -0.0349 -0.4582  0.5405
 7219SOL     OW33292   3.205   2.846   0.571 -0.5579  0.0517  0.1162
 7219SOL    HW133293   3.201   2.894   0.654 -0.0928  0.6514 -0.2132
 7219SOL    HW233294   3.164   2.914   0.518 -2.6170 -2.2091 -1.2173
 7220SOL     OW33295   1.676   1.770   1.917  0.0608 -0.1055  0.3607
 7220SOL    HW133296   1.639   1.833   1.978 -0.1088 -0.0841  0.2336
 7220SOL    HW233297   1.765   1.805   1.928 -0.0474  0.8288 -1.8517
 7221SOL     OW33298   1.821   4.140   7.403 -0.0807 -0.3610 -0.2487
 7221SOL    HW133299   1.895   4.118   7.460  0.1358 -2.1012 -1.1993
 7221SOL    HW233300   1.832   4.233   7.386 -3.1068  0.2244  1.0146
 7222SOL     OW33301   3.802   4.327   2.788 -0.0507  0.8233  0.1286
 7222SOL    HW133302   3.797   4.382   2.866 -0.8268  0.5202  0.2898
 7222SOL    HW233303   3.748   4.250   2.806  0.9061  0.1339  0.0966
 7223SOL     OW33304   3.331   0.867   4.893 -0.2479  0.0318 -0.4187
 7223SOL    HW133305   3.246   0.868   4.849 -0.8982  0.3367  0.8504
 7223SOL    HW233306   3.300   0.863   4.983  1.9621 -0.9543  0.2973
 7224SOL     OW33307   2.889   0.064   3.534 -0.1956  0.4008  0.2911
 7224SOL    HW133308   2.824   0.079   3.465  0.2123  0.3551 -0.0999
 7224SOL    HW233309   2.860   0.131   3.596 -0.0664  1.3216 -0.6366
 7225SOL     OW33310   0.783   2.462   4.564 -0.5885  0.3581 -0.2234
 7225SOL    HW133311   0.854   2.437   4.621  0.0935 -1.8642 -2.0600
 7225SOL    HW233312   0.833   2.523   4.509 -1.7946  0.9969 -0.6228
 7226SOL     OW33313   3.842   4.286   7.858  1.0689  0.1646  0.5373
 7226SOL    HW133314   3.759   4.241   7.871  0.8935  0.0370 -1.1350
 7226SOL    HW233315   3.899   4.216   7.890  1.5225  1.3167  2.2722
 7227SOL     OW33316   3.120   3.227   5.207 -0.1409 -0.6674 -0.0683
 7227SOL    HW133317   3.053   3.290   5.235 -0.5243 -1.4201  0.7063
 7227SOL    HW233318   3.149   3.259   5.121 -0.0955  2.2934  1.0557
 7228SOL     OW33319   2.989   4.208  11.610 -0.6622  0.0213  0.3265
 7228SOL    HW133320   2.905   4.233  11.649 -0.8560 -2.1092  1.2309
 7228SOL    HW233321   3.023   4.165  11.688 -1.4511 -1.7952 -0.3423
 7229SOL     OW33322   1.429   4.457   2.369  0.2386  0.0922 -0.5972
 7229SOL    HW133323   1.503   4.510   2.399  2.3638 -2.0762 -1.9430
 7229SOL    HW233324   1.461   4.366   2.362 -0.4290 -0.2444  0.7559
 7230SOL     OW33325   2.988   1.146   9.114  0.2514  0.3546 -0.2434
 7230SOL    HW133326   2.982   1.170   9.022 -0.1242  1.6386  0.1019
 7230SOL    HW233327   2.908   1.097   9.132  0.8395 -0.3332  0.5111
 7231SOL     OW33328   1.360   3.339   3.413  0.2704  0.5567  0.0124
 7231SOL    HW133329   1.333   3.425   3.380 -0.8279  0.4702  0.6814
 7231SOL    HW233330   1.282   3.296   3.449 -0.9801  2.1306 -0.8319
 7232SOL     OW33331   1.252   3.425  16.151 -0.4894 -0.5822  0.0212
 7232SOL    HW133332   1.248   3.519  16.168  1.1326 -0.2330 -1.5305
 7232SOL    HW233333   1.327   3.410  16.094 -0.9928  1.4229 -1.1713
 7233SOL     OW33334   0.145   3.628   6.442  0.4587  0.1949  0.5488
 7233SOL    HW133335   0.191   3.624   6.526  2.5516  0.7408 -0.5651
 7233SOL    HW233336   0.212   3.640   6.375 -1.2151 -0.9868 -1.3451
 7234SOL     OW33337   3.584   0.817   7.321 -0.0441 -0.1067 -0.7919
 7234SOL    HW133338   3.654   0.788   7.263  2.0779  0.9870  1.1997
 7234SOL    HW233339   3.540   0.733   7.329  3.4269 -1.6727  2.0048
 7235SOL     OW33340   0.356   0.305  12.999  0.1898  0.3380 -0.0016
 7235SOL    HW133341   0.295   0.362  13.045 -1.4023 -2.1815  1.0119
 7235SOL    HW233342   0.359   0.236  13.066 -0.0870  0.0878 -0.2475
 7236SOL     OW33343   0.310   3.320   2.864  0.6187  0.0768 -0.1320
 7236SOL    HW133344   0.328   3.308   2.958  1.0488  3.8902  0.3049
 7236SOL    HW233345   0.216   3.307   2.856  0.5887 -0.0520  0.4233
 7237SOL     OW33346   1.800   2.074  11.208  0.2641 -0.3820 -0.3454
 7237SOL    HW133347   1.772   2.138  11.142 -1.1862 -1.9389 -1.2451
 7237SOL    HW233348   1.730   2.010  11.197  0.0534  0.0644 -1.6453
 7238SOL     OW33349   1.331   2.792   8.927  0.3396  0.0928  0.1998
 7238SOL    HW133350   1.417   2.810   8.889  0.8051  0.7337  1.5572
 7238SOL    HW233351   1.341   2.807   9.021 -0.9641 -2.4910  0.7479
 7239SOL     OW33352   1.397   2.090   9.028  0.2971  0.3654  0.0271
 7239SOL    HW133353   1.422   2.104   9.119  5.0320 -1.6682 -0.9433
 7239SOL    HW233354   1.466   2.025   9.014  0.3455  0.2661  0.7337
 7240SOL     OW33355   0.768   3.899   6.715 -0.3016 -0.7348 -0.1180
 7240SOL    HW133356   0.686   3.899   6.764 -1.0622 -4.2089 -1.4008
 7240SOL    HW233357   0.728   3.898   6.628 -0.9154 -0.6216  0.1611
 7241SOL     OW33358   1.040   2.959   2.047  0.2091 -0.5143 -0.8529
 7241SOL    HW133359   1.005   3.008   2.122  3.6925  1.8636 -0.7979
 7241SOL    HW233360   0.976   2.988   1.982 -0.6127  2.9272  1.4952
 7242SOL     OW33361   1.941   2.535   2.963 -0.4602 -0.3562 -0.6708
 7242SOL    HW133362   1.903   2.487   2.889 -0.5430  0.3113 -1.0618
 7242SOL    HW233363   2.028   2.550   2.926 -0.7907  1.2197 -0.8359
 7243SOL     OW33364   0.542   1.439   1.542 -0.6670 -0.0829 -0.1390
 7243SOL    HW133365   0.556   1.362   1.597 -0.5487 -1.0648 -1.5396
 7243SOL    HW233366   0.453   1.444   1.575 -0.1586 -0.3685  1.2633
 7244SOL     OW33367   3.763   0.892   7.774 -0.3164 -0.0032  0.0492
 7244SOL    HW133368   3.843   0.845   7.750  2.1216  3.8407  0.5730
 7244SOL    HW233369   3.796   0.980   7.756  3.2290 -1.4348 -0.3549
 7245SOL     OW33370   3.675   3.753   4.261  0.1131 -0.2252 -0.1273
 7245SOL    HW133371   3.619   3.685   4.222  1.7575 -1.9463  0.4988
 7245SOL    HW233372   3.619   3.828   4.240 -1.9405 -1.6290  0.2876
 7246SOL     OW33373   2.076   2.033   8.765 -0.0294 -0.0772  0.1536
 7246SOL    HW133374   2.031   2.117   8.775  0.1827 -0.4085  3.9959
 7246SOL    HW233375   2.095   2.020   8.672 -1.3363  0.6891 -0.2205
 7247SOL     OW33376   1.946   4.312   6.713 -0.0192 -0.0394  0.1154
 7247SOL    HW133377   1.856   4.285   6.733 -0.7939  1.5395 -1.2089
 7247SOL    HW233378   1.979   4.362   6.788 -0.3379 -0.7410  0.7360
 7248SOL     OW33379   2.314   3.406   5.787 -0.1901  0.0598 -0.6145
 7248SOL    HW133380   2.353   3.328   5.749 -1.1558 -1.1920  0.9771
 7248SOL    HW233381   2.233   3.410   5.735  0.4370  1.8593 -1.4709
 7249SOL     OW33382   4.671   3.834   5.122 -0.2290  0.1130 -0.3050
 7249SOL    HW133383   4.625   3.847   5.205 -2.1837  0.4638 -1.4166
 7249SOL    HW233384   4.698   3.925   5.106  2.6251 -0.2434  2.6291
 7250SOL     OW33385   3.810   2.722  15.627  0.2355 -0.8431  0.0959
 7250SOL    HW133386   3.894   2.693  15.591  0.4629  0.9106 -0.7934
 7250SOL    HW233387   3.793   2.653  15.691 -1.4108 -1.3308 -0.8765
 7251SOL     OW33388   2.169   1.546   8.183  0.2544  0.0436 -0.0282
 7251SOL    HW133389   2.224   1.508   8.252  0.3927 -0.4705 -0.4173
 7251SOL    HW233390   2.141   1.468   8.135 -0.0135 -0.5467  1.0783
 7252SOL     OW33391   2.188   1.254  10.108  0.4502  0.6770 -0.2877
 7252SOL    HW133392   2.210   1.347  10.104  0.3933  0.7583  1.2079
 7252SOL    HW233393   2.135   1.247  10.029  0.1042 -0.6255  0.0461
 7253SOL     OW33394   4.363   0.099   2.985  0.3744  0.5330 -0.4487
 7253SOL    HW133395   4.457   0.089   3.000  0.7671  0.2881 -3.0654
 7253SOL    HW233396   4.355   0.136   3.073  0.7855 -1.4669  0.4543
 7254SOL     OW33397   4.170   2.985   9.652  0.4253 -0.2809 -0.9193
 7254SOL    HW133398   4.136   3.074   9.656  2.7706  0.5965 -0.8167
 7254SOL    HW233399   4.256   2.999   9.613 -0.3289  1.1575 -2.0762
 7255SOL     OW33400   0.804   0.268   4.712 -0.3657 -0.0629  0.2107
 7255SOL    HW133401   0.712   0.249   4.732 -1.0494  1.0137 -1.9157
 7255SOL    HW233402   0.849   0.183   4.720 -2.0412 -1.1076 -1.4693
 7256SOL     OW33403   0.712   1.925   2.970 -0.3108 -0.2532 -0.5011
 7256SOL    HW133404   0.785   1.966   3.016 -0.9355  0.7082 -0.3705
 7256SOL    HW233405   0.662   1.907   3.050 -0.0021  1.4099  0.0629
 7257SOL     OW33406   2.377   3.270   2.325 -0.1140  0.1484 -0.2489
 7257SOL    HW133407   2.336   3.224   2.252  1.4511  0.8054 -1.5590
 7257SOL    HW233408   2.386   3.207   2.396  1.1181  0.6480  0.0505
 7258SOL     OW33409   2.830   3.290   2.934 -0.2464 -0.2565 -0.0682
 7258SOL    HW133410   2.905   3.232   2.953  0.6725  1.2673  0.9501
 7258SOL    HW233411   2.773   3.288   3.011 -1.6225  0.3843 -1.0935
 7259SOL     OW33412   4.128   3.843  10.230 -0.3777 -0.4287 -0.6748
 7259SOL    HW133413   4.179   3.845  10.149 -0.3085  1.7619 -0.5970
 7259SOL    HW233414   4.138   3.937  10.249 -2.8544 -0.2718 -0.0634
 7260SOL     OW33415   0.462   1.049  15.925 -0.2350  0.5384 -0.3291
 7260SOL    HW133416   0.485   1.089  15.841  1.4994  3.3128  1.4400
 7260SOL    HW233417   0.406   0.975  15.905  1.8401 -0.7446 -1.3751
 7261SOL     OW33418   1.295   0.653  17.006 -0.1642 -0.2153 -0.3502
 7261SOL    HW133419   1.231   0.684  17.071  0.2710  2.3189 -1.1360
 7261SOL    HW233420   1.254   0.567  16.993  1.3003 -0.9298 -0.3085
 7262SOL     OW33421   1.673   2.088   2.619  0.8052  0.1245 -0.4008
 7262SOL    HW133422   1.768   2.079   2.609  0.7979  1.5090 -1.9027
 7262SOL    HW233423   1.660   2.140   2.539 -1.1556  0.9341  0.4541
 7263SOL     OW33424   3.488   3.247   3.902 -0.2581 -0.2158 -0.0730
 7263SOL    HW133425   3.550   3.217   3.835  0.5307  2.4804 -0.5470
 7263SOL    HW233426   3.513   3.185   3.971 -0.0663 -0.2918 -0.2080
 7264SOL     OW33427   1.719   2.157  10.665  0.1571  0.2145 -0.0096
 7264SOL    HW133428   1.784   2.103  10.621  1.0676  0.2801  1.2403
 7264SOL    HW233429   1.672   2.209  10.600  0.6961 -1.3012 -1.6174
 7265SOL     OW33430   3.747   3.339  15.789 -0.3102  0.5858 -0.2385
 7265SOL    HW133431   3.660   3.346  15.751 -0.3531  0.5671 -0.1442
 7265SOL    HW233432   3.773   3.429  15.808 -0.8940  0.1124  2.8856
 7266SOL     OW33433   3.763   3.437   2.239 -0.4543 -0.0431  0.0854
 7266SOL    HW133434   3.751   3.398   2.326 -1.3771 -0.8130 -0.3832
 7266SOL    HW233435   3.677   3.448   2.198 -0.4832 -0.1203  0.1269
 7267SOL     OW33436   3.403   2.035   8.553  0.6267 -0.5849 -0.1294
 7267SOL    HW133437   3.465   2.029   8.480  0.3669  1.0875 -0.4975
 7267SOL    HW233438   3.407   2.130   8.563 -2.5985 -0.5213  0.6027
 7268SOL     OW33439   2.788   0.237   8.664 -0.2059  0.3490 -0.1776
 7268SOL    HW133440   2.834   0.308   8.709  1.9786 -0.2474 -1.4415
 7268SOL    HW233441   2.804   0.167   8.728  2.6577  2.2544  1.1830
 7269SOL     OW33442   0.092   4.080   3.554 -0.6263  0.3726  0.0828
 7269SOL    HW133443   0.043   4.000   3.571 -1.3989  0.7722 -0.2293
 7269SOL    HW233444   0.117   4.079   3.462 -1.3356  1.3485 -0.1307
 7270SOL     OW33445   3.844   0.902   3.561  0.2783 -0.0915 -0.5659
 7270SOL    HW133446   3.843   0.808   3.578 -1.3800 -0.0263 -0.2880
 7270SOL    HW233447   3.877   0.904   3.472  0.0588 -0.9221 -0.6633
 7271SOL     OW33448   2.595   4.388  11.972  0.2237 -0.4609  0.2864
 7271SOL    HW133449   2.556   4.302  11.955 -0.4214 -0.3586  1.2494
 7271SOL    HW233450   2.521   4.444  11.996  0.5068  0.9400 -2.0757
 7272SOL     OW33451   4.368   1.006   7.545  0.2720  0.1895 -0.5334
 7272SOL    HW133452   4.404   0.944   7.608  0.7852  0.1337 -0.8860
 7272SOL    HW233453   4.439   1.070   7.548  0.3588  0.2929 -4.4560
 7273SOL     OW33454   1.395   0.118   8.003 -0.4456  0.2663  0.3500
 7273SOL    HW133455   1.355   0.117   8.090  0.6391 -2.1220  0.8055
 7273SOL    HW233456   1.488   0.108   8.023 -0.2196  0.7469 -0.4807
 7274SOL     OW33457   0.272   3.613   3.186 -0.0815  0.0995  0.4683
 7274SOL    HW133458   0.276   3.621   3.281  1.6299  1.4997  0.2800
 7274SOL    HW233459   0.365   3.619   3.163  0.7769 -0.8500  3.6385
 7275SOL     OW33460   1.000   0.847   1.760  0.7430 -0.5870  0.0190
 7275SOL    HW133461   1.058   0.901   1.814  0.9566  1.4303 -2.1901
 7275SOL    HW233462   1.056   0.769   1.760  0.2342 -0.9535 -1.3980
 7276SOL     OW33463   2.412   1.842   7.387 -0.5539  0.1193 -0.4304
 7276SOL    HW133464   2.327   1.813   7.419  0.1363  0.3980  1.6493
 7276SOL    HW233465   2.466   1.769   7.419 -1.4534 -1.1939 -1.8746
 7277SOL     OW33466   1.953   3.471   6.115 -0.0605 -0.2020  0.4630
 7277SOL    HW133467   2.004   3.547   6.086  0.4862 -0.7592 -0.0534
 7277SOL    HW233468   1.867   3.483   6.074  1.3582  1.3926 -2.0365
 7278SOL     OW33469   0.304   0.840  15.869 -0.5311 -0.2317 -0.4408
 7278SOL    HW133470   0.357   0.780  15.921  0.0058 -0.7274 -1.5565
 7278SOL    HW233471   0.288   0.783  15.794 -0.3334 -1.0069  0.1070
 7279SOL     OW33472   3.382   2.737   0.866 -0.3110  0.0767  0.0928
 7279SOL    HW133473   3.314   2.707   0.927  0.4800 -1.7347  0.0743
 7279SOL    HW233474   3.441   2.796   0.913 -0.7921  1.6145 -1.2237
 7280SOL     OW33475   3.457   0.010   0.489  0.5042 -0.2737  0.3760
 7280SOL    HW133476   3.408   4.681   0.540  2.3053 -1.8173  0.1517
 7280SOL    HW233477   3.540   4.698   0.485  0.6064 -0.0833  0.2577
 7281SOL     OW33478   3.157   1.664   1.409 -0.3329  0.9111  0.2951
 7281SOL    HW133479   3.067   1.693   1.397 -0.2623  0.9363 -0.1620
 7281SOL    HW233480   3.168   1.652   1.503 -0.8050  1.1184  0.3778
 7282SOL     OW33481   0.243   1.750   8.811 -0.5455 -0.2303  0.1618
 7282SOL    HW133482   0.277   1.833   8.845  1.8615 -0.5778 -1.3979
 7282SOL    HW233483   0.319   1.721   8.761 -0.5186 -1.5442  0.9744
 7283SOL     OW33484   1.115   3.018  12.608 -0.0353 -0.1414 -0.1434
 7283SOL    HW133485   1.087   3.022  12.699 -0.0501  1.4742 -0.2250
 7283SOL    HW233486   1.151   3.106  12.599 -3.1077  0.9367 -1.9698
 7284SOL     OW33487   1.516   2.688  14.486  0.1424  0.2236  0.1009
 7284SOL    HW133488   1.581   2.626  14.452 -0.9036 -1.1453  0.5878
 7284SOL    HW233489   1.440   2.631  14.498 -0.1373  0.3552 -1.0326
 7285SOL     OW33490   0.320   2.267  14.028  0.0544  0.3096  0.6397
 7285SOL    HW133491   0.230   2.299  14.028  1.1038  3.2579 -2.6449
 7285SOL    HW233492   0.354   2.318  13.954  0.6797 -2.1208 -0.7610
 7286SOL     OW33493   1.984   0.937   2.058  0.0841 -0.5044 -0.1017
 7286SOL    HW133494   1.944   0.880   1.992 -0.8509 -0.4437  0.4159
 7286SOL    HW233495   1.990   0.871   2.127  0.7714 -0.6040 -0.2578
 7287SOL     OW33496   2.442   0.832   6.387  0.3346  0.4261  0.4656
 7287SOL    HW133497   2.348   0.847   6.397  0.1601 -0.7489  0.4868
 7287SOL    HW233498   2.478   0.921   6.392  2.5963 -0.5278  1.0337
 7288SOL     OW33499   3.268   3.901   4.075  0.5973 -0.7065 -0.1919
 7288SOL    HW133500   3.186   3.868   4.038  0.0246  0.9446 -0.4085
 7288SOL    HW233501   3.316   3.923   3.995  2.2076  2.3715  1.6274
 7289SOL     OW33502   2.663   2.953  14.406  0.3243  0.1315  0.1646
 7289SOL    HW133503   2.732   2.894  14.375 -0.8182 -2.5068  2.6535
 7289SOL    HW233504   2.661   2.932  14.499  0.6515 -0.1819  0.1023
 7290SOL     OW33505   2.249   4.531   3.175 -0.2485  0.0183 -0.2616
 7290SOL    HW133506   2.268   4.437   3.168  2.2881  0.4329  1.0214
 7290SOL    HW233507   2.169   4.526   3.228  0.5176  1.1813  1.0102
 7291SOL     OW33508   0.512   3.326  13.120 -0.2724 -0.7926 -0.5325
 7291SOL    HW133509   0.563   3.255  13.082  1.1206  0.1712 -0.4586
 7291SOL    HW233510   0.572   3.351  13.190  0.4472 -2.4196 -0.5812
 7292SOL     OW33511   2.973   3.897   6.210  0.2695 -0.3034  0.2905
 7292SOL    HW133512   2.896   3.897   6.152 -0.7315 -0.0268  1.6195
 7292SOL    HW233513   2.960   3.976   6.263  0.7012  0.2933 -0.5014
 7293SOL     OW33514   3.446   2.997   6.616  0.2984 -0.6874 -0.2011
 7293SOL    HW133515   3.356   3.029   6.613  1.0565  1.5470  0.8944
 7293SOL    HW233516   3.440   2.920   6.560 -0.6464 -0.2849 -0.6455
 7294SOL     OW33517   1.073   3.918   8.878 -0.7435 -0.1696  0.5468
 7294SOL    HW133518   1.036   4.005   8.864 -0.1974 -0.8361 -4.7090
 7294SOL    HW233519   1.006   3.869   8.832  0.4378 -0.9893 -0.3108
 7295SOL     OW33520   0.025   0.486  11.129  0.6026 -0.8909  0.2666
 7295SOL    HW133521   4.730   0.491  11.219 -0.2581 -1.0053 -0.0173
 7295SOL    HW233522   4.726   0.568  11.093 -1.6326 -1.8518  0.2451
 7296SOL     OW33523   4.598   3.001  12.626 -0.4494 -0.0223 -0.2132
 7296SOL    HW133524   4.664   3.069  12.636 -0.6525  0.1352  0.0342
 7296SOL    HW233525   4.521   3.057  12.638  1.2252  2.5141 -1.3635
 7297SOL     OW33526   1.839   0.709   8.071  0.6993 -0.1224 -0.8372
 7297SOL    HW133527   1.783   0.763   8.128  1.3092  0.1720 -0.5185
 7297SOL    HW233528   1.802   0.732   7.985 -0.9030  3.1902  0.7423
 7298SOL     OW33529   4.685   4.593  11.303 -0.9070 -0.3731 -0.2988
 7298SOL    HW133530   4.631   4.516  11.285 -2.7525  0.8789 -0.1407
 7298SOL    HW233531   0.024   4.560  11.352  0.2014 -0.1295 -1.8301
 7299SOL     OW33532   2.271   0.499   3.365  0.6339 -0.2077 -0.3087
 7299SOL    HW133533   2.206   0.429   3.359 -1.3233  1.4848  0.8893
 7299SOL    HW233534   2.241   0.540   3.446  1.8532 -0.3256  0.2019
 7300SOL     OW33535   1.481   2.497   8.287 -0.2433  0.3572 -0.0289
 7300SOL    HW133536   1.464   2.420   8.340  1.2783  1.5580  2.1977
 7300SOL    HW233537   1.449   2.474   8.199  0.6675  2.8536 -1.0294
 7301SOL     OW33538   4.475   3.637  17.672  0.4088  0.3395 -0.1339
 7301SOL    HW133539   4.467   3.655   0.026 -0.6496 -2.7173  0.3515
 7301SOL    HW233540   4.439   3.549  17.665 -1.4345  1.0501  0.4334
 7302SOL     OW33541   0.627   0.583   2.920  0.5110 -0.7702  0.9145
 7302SOL    HW133542   0.621   0.531   3.001  2.8954 -0.5444  1.2337
 7302SOL    HW233543   0.695   0.544   2.865 -0.7974 -1.3822 -0.2682
 7303SOL     OW33544   1.840   1.389   3.425 -0.2852  0.3496  0.1858
 7303SOL    HW133545   1.860   1.471   3.470 -0.2849  0.2986  0.2779
 7303SOL    HW233546   1.749   1.388   3.453 -0.7396 -2.1003 -1.3118
 7304SOL     OW33547   1.809   1.398   4.035 -0.3648  0.1309 -0.2172
 7304SOL    HW133548   1.802   1.425   4.127 -2.5653  1.7973 -0.8627
 7304SOL    HW233549   1.719   1.395   4.002 -0.1284  2.8351 -1.0547
 7305SOL     OW33550   2.161   3.208   4.190  0.0437 -0.2465  0.0314
 7305SOL    HW133551   2.122   3.143   4.133 -0.6481 -0.2427  0.5061
 7305SOL    HW233552   2.119   3.188   4.274  2.4398  2.2186  1.8473
 7306SOL     OW33553   3.079   2.396   7.079 -0.3135 -0.0067  0.5323
 7306SOL    HW133554   3.172   2.410   7.098 -0.4148  0.9918  0.3354
 7306SOL    HW233555   3.037   2.411   7.163 -0.0980 -0.3428  0.6987
 7307SOL     OW33556   1.976   1.117   8.460  0.6307 -0.1405  0.2841
 7307SOL    HW133557   1.903   1.056   8.469  1.1623 -0.3892  2.7445
 7307SOL    HW233558   1.984   1.126   8.365  2.1360 -1.3534  0.3125
 7308SOL     OW33559   2.842   3.363   2.296  0.1273  0.5363 -0.2707
 7308SOL    HW133560   2.800   3.315   2.368  1.4114  1.0630  0.8352
 7308SOL    HW233561   2.829   3.301   2.225 -2.5167 -1.3440  1.8438
 7309SOL     OW33562   0.784   4.684   5.419 -0.4483  0.2456 -0.9104
 7309SOL    HW133563   0.733   4.607   5.446 -1.0788  1.6741  2.0491
 7309SOL    HW233564   0.830   4.707   5.500 -1.4945  0.6701 -0.4214
 7310SOL     OW33565   3.461   2.922   6.880 -0.1629 -0.0445  0.0552
 7310SOL    HW133566   3.551   2.953   6.879  0.0004 -0.5283  0.1055
 7310SOL    HW233567   3.437   2.950   6.792 -1.3401 -0.8755  0.1085
 7311SOL     OW33568   3.683   3.758   1.377 -0.5409  0.6995 -0.4513
 7311SOL    HW133569   3.653   3.693   1.315  1.1505 -0.0247 -0.5001
 7311SOL    HW233570   3.604   3.771   1.429 -1.7839  1.3993 -2.5177
 7312SOL     OW33571   3.575   2.136  10.893  0.4062  0.2705  0.3376
 7312SOL    HW133572   3.625   2.059  10.918 -1.4627  0.5749  4.9885
 7312SOL    HW233573   3.639   2.206  10.904  1.4307 -0.5931 -0.1772
 7313SOL     OW33574   0.748   1.626  10.427 -0.6217 -0.2727  0.0626
 7313SOL    HW133575   0.824   1.642  10.372 -1.4037  0.2986 -0.8667
 7313SOL    HW233576   0.680   1.652  10.364  0.0027 -0.6872 -0.7700
 7314SOL     OW33577   3.352   4.602  14.891 -0.2328 -0.2858 -0.1713
 7314SOL    HW133578   3.379   4.526  14.941  1.5169 -0.2899 -1.1138
 7314SOL    HW233579   3.258   4.609  14.908 -0.1008  0.8944  0.0722
 7315SOL     OW33580   4.474   1.449   8.030 -0.1174  0.4428 -0.7552
 7315SOL    HW133581   4.446   1.541   8.026  0.5502  0.7283  1.0378
 7315SOL    HW233582   4.545   1.460   7.966 -0.0392 -2.8162 -1.2440
 7316SOL     OW33583   0.418   1.546   6.111 -0.1568  0.0416  0.4372
 7316SOL    HW133584   0.419   1.500   6.027 -1.2377  1.9718 -0.6291
 7316SOL    HW233585   0.331   1.527   6.146 -0.2915 -0.1168  0.0120
 7317SOL     OW33586   2.960   2.860   3.805 -0.1787  0.0253  0.6929
 7317SOL    HW133587   3.023   2.909   3.857  0.4880 -0.7081  0.5805
 7317SOL    HW233588   3.019   2.797   3.763 -0.3627  0.0770  0.3525
 7318SOL     OW33589   3.929   4.184  14.509 -1.1057 -0.4172 -0.1553
 7318SOL    HW133590   3.839   4.206  14.485 -1.5437 -0.3375  1.5376
 7318SOL    HW233591   3.973   4.198  14.425 -1.2189  0.0237 -0.1405
 7319SOL     OW33592   4.463   4.038   7.353  0.1125  0.1886 -0.3352
 7319SOL    HW133593   4.555   4.059   7.337 -0.0229  1.3947  0.4946
 7319SOL    HW233594   4.462   3.943   7.338 -0.2467 -0.1566  1.8739
 7320SOL     OW33595   1.151   1.532   4.174  0.0460 -0.0841  0.0261
 7320SOL    HW133596   1.210   1.582   4.119 -2.0886  1.4510 -0.8455
 7320SOL    HW233597   1.162   1.446   4.134 -2.7487  1.3195 -3.7244
 7321SOL     OW33598   1.808   2.131   3.962  0.3155 -0.3326 -0.1636
 7321SOL    HW133599   1.776   2.045   3.936  2.3743 -1.6058  1.5146
 7321SOL    HW233600   1.864   2.157   3.889 -1.6129  0.4009 -1.3582
 7322SOL     OW33601   0.272   1.481  15.703 -0.3820  0.2598  0.3532
 7322SOL    HW133602   0.335   1.499  15.632  0.2661 -1.1700  0.5539
 7322SOL    HW233603   0.302   1.534  15.776  0.1904  0.3818  0.0347
 7323SOL     OW33604   2.511   1.481  14.145  0.1350 -0.2623  0.2387
 7323SOL    HW133605   2.566   1.419  14.097 -2.4351 -1.1559 -1.5646
 7323SOL    HW233606   2.540   1.561  14.102  0.2358 -0.2526  0.3264
 7324SOL     OW33607   1.556   3.107   7.098  0.2856  0.5987 -0.0935
 7324SOL    HW133608   1.633   3.162   7.090  1.1242 -0.2125  2.2482
 7324SOL    HW233609   1.488   3.129   7.034  1.3865  1.0255 -1.0992
 7325SOL     OW33610   1.014   0.278   1.718 -0.0715 -0.9478 -0.0635
 7325SOL    HW133611   0.923   0.253   1.700 -0.2848 -0.6544  0.5918
 7325SOL    HW233612   1.047   0.253   1.631 -0.5352 -1.7154 -0.0260
 7326SOL     OW33613   1.800   0.380   8.435  0.8377 -0.5508  0.3122
 7326SOL    HW133614   1.886   0.353   8.403  1.2453 -1.8071  2.4614
 7326SOL    HW233615   1.795   0.468   8.398  1.2515  0.4574  2.7029
 7327SOL     OW33616   0.858   2.818   2.930  0.2634 -0.3501 -0.4273
 7327SOL    HW133617   0.772   2.860   2.935  0.0349 -1.0072  1.1207
 7327SOL    HW233618   0.832   2.728   2.911  0.8959 -0.4144 -1.0082
 7328SOL     OW33619   4.038   2.606   9.456  0.3755  0.6770 -0.0547
 7328SOL    HW133620   4.011   2.564   9.537  0.1450  1.3875  0.2334
 7328SOL    HW233621   3.963   2.665   9.451  0.5482  1.2317  3.8814
 7329SOL     OW33622   3.983   2.573  17.176  0.3678  0.7773 -0.3651
 7329SOL    HW133623   4.030   2.507  17.125  3.0752  2.7624 -0.4347
 7329SOL    HW233624   3.956   2.523  17.253  0.6434  1.7680  0.3695
 7330SOL     OW33625   3.944   3.236   9.370  0.1868  0.1043  0.2339
 7330SOL    HW133626   3.939   3.204   9.280 -1.4154  0.5193  0.1706
 7330SOL    HW233627   3.861   3.282   9.382 -0.4022 -0.8034 -0.4065
 7331SOL     OW33628   2.952   0.609   4.226  0.5893 -0.2355 -0.1058
 7331SOL    HW133629   2.999   0.634   4.306 -0.2045  2.5459 -0.4925
 7331SOL    HW233630   2.989   0.521   4.215  1.1748  0.0360 -0.3064
 7332SOL     OW33631   3.056   2.409   2.042 -0.4807 -0.0344  0.4811
 7332SOL    HW133632   2.971   2.433   2.003 -0.2571  0.8809  0.5599
 7332SOL    HW233633   3.026   2.332   2.089  0.6155 -0.0865  1.0690
 7333SOL     OW33634   0.968   3.729   1.908 -0.2959 -0.3946 -0.0419
 7333SOL    HW133635   1.002   3.716   1.996  0.2503  2.2878  0.1343
 7333SOL    HW233636   0.977   3.638   1.878 -0.5497 -0.3639 -0.2097
 7334SOL     OW33637   3.954   1.865   4.141 -0.6151  0.2634 -0.1292
 7334SOL    HW133638   3.961   1.770   4.130  0.2597  0.3712 -0.5053
 7334SOL    HW233639   4.039   1.900   4.114  0.7676 -2.6971  0.3867
 7335SOL     OW33640   3.740   3.250   1.391 -0.5015 -0.0537 -0.1881
 7335SOL    HW133641   3.798   3.235   1.466 -2.0179 -1.2976  0.7442
 7335SOL    HW233642   3.685   3.324   1.416  1.9555  1.2836  1.3234
 7336SOL     OW33643   4.424   3.323   5.582 -0.2102 -0.4358 -0.8462
 7336SOL    HW133644   4.508   3.347   5.621  0.2698 -1.0463 -1.4947
 7336SOL    HW233645   4.450   3.249   5.527 -1.4237 -0.4193 -1.4417
 7337SOL     OW33646   1.644   2.397   4.970 -0.3147 -0.3709 -0.4064
 7337SOL    HW133647   1.739   2.400   4.983 -0.4326 -1.2238  0.6492
 7337SOL    HW233648   1.625   2.485   5.003 -1.6879 -1.0529  0.5886
 7338SOL     OW33649   1.785   0.566   5.567  0.0021  0.1953  0.1251
 7338SOL    HW133650   1.845   0.528   5.503  0.2637 -0.7918  0.9499
 7338SOL    HW233651   1.799   0.658   5.545  1.6743  0.1750  1.0457
 7339SOL     OW33652   1.701   3.646   6.708  0.0918 -0.8406  0.3181
 7339SOL    HW133653   1.663   3.562   6.732 -0.8672 -0.4293  0.2308
 7339SOL    HW233654   1.784   3.616   6.670 -0.2389 -0.8420 -0.4102
 7340SOL     OW33655   4.679   0.476   2.538  0.0726  0.1533  0.1024
 7340SOL    HW133656   4.676   0.515   2.450  0.4466  0.5691  0.2802
 7340SOL    HW233657   0.013   0.413   2.521  0.1548  0.0107  1.0134
 7341SOL     OW33658   2.400   0.796   7.058  0.3440 -0.2030  0.0610
 7341SOL    HW133659   2.365   0.802   7.147 -0.0457 -2.8668  0.0948
 7341SOL    HW233660   2.315   0.795   7.014 -1.7052 -2.0858  4.0480
 7342SOL     OW33661   4.608   3.446   4.195 -0.1803  0.0234  0.4947
 7342SOL    HW133662   4.703   3.454   4.209  0.3753  1.9620 -4.1100
 7342SOL    HW233663   4.578   3.524   4.242 -0.9614 -0.7363  1.2394
 7343SOL     OW33664   4.352   0.441   9.572  0.3891  0.2955 -0.4182
 7343SOL    HW133665   4.383   0.457   9.483 -0.5395  1.7023 -0.4763
 7343SOL    HW233666   4.277   0.499   9.585  0.3088  0.1577 -0.2631
 7344SOL     OW33667   3.396   3.092   9.373 -0.0764 -0.0325  0.1358
 7344SOL    HW133668   3.345   3.018   9.338 -3.6203  2.4875 -0.0535
 7344SOL    HW233669   3.339   3.127   9.442 -1.0312 -0.8302 -0.2406
 7345SOL     OW33670   3.802   4.591   5.485 -0.3061  0.2449  0.1450
 7345SOL    HW133671   3.724   4.582   5.539 -0.6221  0.3030 -0.2976
 7345SOL    HW233672   3.761   4.614   5.402 -1.8106 -0.5281  0.6787
 7346SOL     OW33673   3.837   1.028   9.427 -0.1041  0.3512 -0.4602
 7346SOL    HW133674   3.750   1.064   9.413  0.1249  0.7997 -0.7125
 7346SOL    HW233675   3.877   1.080   9.497  2.8183 -0.6006 -1.4403
 7347SOL     OW33676   2.750   2.683  11.985 -0.1138 -0.0889  0.3806
 7347SOL    HW133677   2.664   2.704  11.949  0.1685 -0.6228 -0.6065
 7347SOL    HW233678   2.760   2.596  11.946  2.8077  1.2098 -1.7330
 7348SOL     OW33679   4.610   2.470   8.318  0.3189  0.4617 -0.2619
 7348SOL    HW133680   4.599   2.558   8.355  2.3020 -0.2689  2.1041
 7348SOL    HW233681   4.524   2.430   8.330  0.2432  0.2815 -1.4377
 7349SOL     OW33682   1.508   3.863   7.238 -0.0227 -0.2148 -0.1112
 7349SOL    HW133683   1.502   3.904   7.324 -2.0131 -2.2580  0.7434
 7349SOL    HW233684   1.421   3.825   7.226  0.6497 -2.0593  0.7287
 7350SOL     OW33685   0.753   2.392  10.148  0.1190  0.7785 -0.5921
 7350SOL    HW133686   0.670   2.400  10.100 -0.2770  1.9951  0.3048
 7350SOL    HW233687   0.805   2.471  10.138  1.4563 -0.0855 -0.5326
 7351SOL     OW33688   3.099   1.423  12.476  0.2720 -0.0606  0.3476
 7351SOL    HW133689   3.133   1.488  12.537  1.0818 -0.2741  0.1165
 7351SOL    HW233690   3.020   1.466  12.443  1.4462  0.4085 -1.8461
 7352SOL     OW33691   3.796   3.430   8.235  0.1903  0.1897 -0.2430
 7352SOL    HW133692   3.728   3.417   8.301  0.5129 -0.0681  0.0366
 7352SOL    HW233693   3.780   3.523   8.217  0.5026  0.2179 -0.3788
 7353SOL     OW33694   1.261   2.573   4.218  0.0724 -0.3927  0.1257
 7353SOL    HW133695   1.298   2.520   4.288  1.7151 -1.9737 -1.9651
 7353SOL    HW233696   1.321   2.561   4.144  0.3940  0.3910  0.2561
 7354SOL     OW33697   3.102   2.215  15.901  0.0729 -0.7513  0.1775
 7354SOL    HW133698   3.195   2.211  15.925  0.6982 -2.9499 -2.5046
 7354SOL    HW233699   3.083   2.294  15.851 -0.0907 -2.1425 -1.9990
 7355SOL     OW33700   1.845   1.559   7.932 -0.0381 -0.1567 -0.1968
 7355SOL    HW133701   1.808   1.477   7.898  2.8898 -2.8562  3.1599
 7355SOL    HW233702   1.830   1.555   8.026  0.1454  1.5861 -0.0839
 7356SOL     OW33703   1.602   3.645   6.456  0.5364  0.1380 -0.0237
 7356SOL    HW133704   1.632   3.555   6.467  0.7078  0.2820  0.7557
 7356SOL    HW233705   1.624   3.663   6.548 -2.2084 -0.4745  0.7455
 7357SOL     OW33706   3.853   4.327   5.813 -0.0155 -0.0357 -0.3470
 7357SOL    HW133707   3.796   4.339   5.889  0.6855  1.8670 -0.1052
 7357SOL    HW233708   3.928   4.383   5.836 -0.0236 -0.8607  1.7374
 7358SOL     OW33709   2.907   0.477   4.623  0.1059 -0.2233 -0.5797
 7358SOL    HW133710   2.994   0.484   4.583 -0.1901 -1.0690 -1.3843
 7358SOL    HW233711   2.852   0.417   4.573 -0.7996  0.3531 -0.2736
 7359SOL     OW33712   3.241   1.034   1.582 -0.2796 -0.3254  0.0262
 7359SOL    HW133713   3.293   1.087   1.523  0.7760  0.1813  1.4197
 7359SOL    HW233714   3.176   1.100   1.605  0.6780 -0.4537  3.1183
 7360SOL     OW33715   1.355   2.792   3.894  0.0576 -0.7688  0.1291
 7360SOL    HW133716   1.342   2.766   3.802  0.6873  2.7997 -0.9575
 7360SOL    HW233717   1.272   2.837   3.910 -0.7286 -1.4803 -1.8423
 7361SOL     OW33718   2.221   1.440   2.257 -0.2623  0.0331 -0.1881
 7361SOL    HW133719   2.301   1.418   2.305  0.5007  1.9571 -0.5717
 7361SOL    HW233720   2.160   1.424   2.329  0.9939  1.2165  1.1466
 7362SOL     OW33721   3.650   3.332   0.942 -0.2916 -1.0624  0.7577
 7362SOL    HW133722   3.671   3.249   0.901 -2.0458 -1.1016 -0.0418
 7362SOL    HW233723   3.695   3.332   1.027  2.4262  2.0797 -0.6580
 7363SOL     OW33724   3.731   3.622   7.257 -0.0492  0.0608  0.1329
 7363SOL    HW133725   3.663   3.555   7.266 -0.8521  0.9308  0.4699
 7363SOL    HW233726   3.803   3.573   7.296  0.5245 -0.1183 -1.1407
 7364SOL     OW33727   0.684   3.388  16.615 -0.5245 -0.6043 -0.0640
 7364SOL    HW133728   0.685   3.465  16.559 -0.6353 -0.7351 -0.2450
 7364SOL    HW233729   0.774   3.354  16.611  0.3311  1.5443  1.1791
 7365SOL     OW33730   4.031   2.909   8.861 -0.4254 -0.1091  0.1015
 7365SOL    HW133731   3.936   2.906   8.870 -0.4781 -2.1599 -1.4038
 7365SOL    HW233732   4.037   3.002   8.886  0.2114 -0.1286  0.0183
 7366SOL     OW33733   2.130   0.842   8.313 -0.0416  0.4560  0.2383
 7366SOL    HW133734   2.089   0.869   8.395 -0.5979 -2.2325  0.8320
 7366SOL    HW233735   2.196   0.910   8.295 -1.8334  1.7060 -1.5949
 7367SOL     OW33736   2.859   1.354   3.433  0.6070 -0.6176  0.0919
 7367SOL    HW133737   2.939   1.321   3.392 -0.1936 -1.6408 -0.6537
 7367SOL    HW233738   2.809   1.273   3.422 -1.0882  0.3544  0.7096
 7368SOL     OW33739   2.709   2.234   9.343  0.7233  0.0593 -0.4325
 7368SOL    HW133740   2.668   2.270   9.421 -1.5085 -0.1702 -1.5049
 7368SOL    HW233741   2.723   2.149   9.385  3.0610  1.2782  1.2783
 7369SOL     OW33742   0.872   0.577   8.528 -0.1862  0.2120 -0.0759
 7369SOL    HW133743   0.902   0.510   8.589  0.9632  0.1593 -0.7001
 7369SOL    HW233744   0.794   0.535   8.492  0.0042  0.4785 -0.7873
 7370SOL     OW33745   0.814   1.884  11.821 -0.4349 -0.1089 -0.3424
 7370SOL    HW133746   0.737   1.828  11.809  0.4168 -1.2697 -0.4274
 7370SOL    HW233747   0.822   1.933  11.740  0.7492  0.1245 -0.0715
 7371SOL     OW33748   2.216   2.146   4.344  0.0149 -0.0304 -0.3126
 7371SOL    HW133749   2.178   2.070   4.388  0.8182 -0.1112  0.2398
 7371SOL    HW233750   2.146   2.210   4.326  0.9692  0.9295 -0.5873
 7372SOL     OW33751   3.219   1.407   2.859  0.1523  0.2622  0.5419
 7372SOL    HW133752   3.283   1.476   2.844  0.2727 -0.5051 -2.3954
 7372SOL    HW233753   3.259   1.348   2.922 -0.4896 -0.6184  0.1255
 7373SOL     OW33754   3.410   3.502   3.194  0.0886  0.1659  0.5674
 7373SOL    HW133755   3.388   3.421   3.149  2.5110  0.2598 -0.8077
 7373SOL    HW233756   3.504   3.487   3.188 -0.0518 -0.4070 -0.1724
 7374SOL     OW33757   4.456   1.273   3.390 -0.5593 -0.1614 -0.4076
 7374SOL    HW133758   4.462   1.190   3.438  2.8203  1.0224  1.2320
 7374SOL    HW233759   4.527   1.263   3.326  1.3035  0.8961  1.5033
 7375SOL     OW33760   2.509   1.248   1.528 -0.2751 -0.4647  0.3736
 7375SOL    HW133761   2.596   1.274   1.500  0.0645 -0.7962  1.1150
 7375SOL    HW233762   2.523   1.163   1.569  2.1472  0.3203  1.1553
 7376SOL     OW33763   2.123   2.855   8.152  0.3299 -0.3955  0.1616
 7376SOL    HW133764   2.043   2.804   8.166 -0.2603  1.2305  2.6914
 7376SOL    HW233765   2.086   2.931   8.107 -0.2734 -0.4952  0.4894
 7377SOL     OW33766   4.177   0.351   3.532 -0.2008 -0.0937 -0.0114
 7377SOL    HW133767   4.216   0.432   3.499 -1.5702 -0.1734 -1.8864
 7377SOL    HW233768   4.085   0.378   3.529  0.2367  1.3095 -1.0895
 7378SOL     OW33769   1.476   0.562   8.383  0.3113 -0.4415  0.2880
 7378SOL    HW133770   1.471   0.522   8.296  0.9623 -1.5312  0.7379
 7378SOL    HW233771   1.468   0.478   8.429  1.5671 -0.4884  0.4307
 7379SOL     OW33772   4.310   4.349   8.457  0.0551 -0.0959 -0.7789
 7379SOL    HW133773   4.248   4.346   8.384 -1.3560  0.6734  0.3987
 7379SOL    HW233774   4.289   4.264   8.496  0.3022 -0.5958 -1.7446
 7380SOL     OW33775   3.652   2.924   2.333  0.3227  0.1215  0.7083
 7380SOL    HW133776   3.682   3.006   2.292  1.8441 -1.7545 -1.9300
 7380SOL    HW233777   3.558   2.940   2.340 -0.0278 -0.7598 -1.8740
 7381SOL     OW33778   3.936   2.515   4.236  0.4151 -0.0147 -0.0629
 7381SOL    HW133779   3.879   2.448   4.274  1.1032 -0.3047  0.4615
 7381SOL    HW233780   3.876   2.589   4.250  1.9381  1.5868 -2.0637
 7382SOL     OW33781   2.264   1.092   4.220 -0.3243  0.1200 -0.3061
 7382SOL    HW133782   2.322   1.109   4.146  0.4845 -1.2641 -0.0004
 7382SOL    HW233783   2.320   1.131   4.288 -0.5619 -2.3611  1.3083
 7383SOL     OW33784   4.082   3.604  17.696  0.1869  0.3145 -0.0410
 7383SOL    HW133785   4.154   3.608   0.018 -1.6135 -0.0100  2.0399
 7383SOL    HW233786   4.022   3.560   0.015  1.2404  1.6856  2.0343
 7384SOL     OW33787   1.199   0.192   4.827  0.1935  0.3042 -0.1133
 7384SOL    HW133788   1.145   0.205   4.905  0.2436 -2.1363  0.3180
 7384SOL    HW233789   1.272   0.248   4.853 -0.4278 -0.2535  2.7665
 7385SOL     OW33790   3.793   2.856   3.614  0.2112  0.6905  0.3055
 7385SOL    HW133791   3.868   2.830   3.667  1.8216  1.7724 -1.4383
 7385SOL    HW233792   3.757   2.770   3.595  1.5118  0.6590 -2.0055
 7386SOL     OW33793   0.661   2.951   7.511  0.1626  0.6884 -0.9031
 7386SOL    HW133794   0.621   3.035   7.529 -0.3755 -0.1013  1.6214
 7386SOL    HW233795   0.610   2.899   7.573 -0.6643 -1.5122 -3.4162
 7387SOL     OW33796   0.312   1.886  16.978  0.2914  0.0047 -0.2950
 7387SOL    HW133797   0.318   1.910  16.885 -0.2024  0.0549 -0.3140
 7387SOL    HW233798   0.228   1.924  17.001  1.2771  0.8061  1.9573
 7388SOL     OW33799   1.483   3.095   8.899 -0.1377  0.2791 -0.6964
 7388SOL    HW133800   1.532   3.015   8.915 -2.1286 -0.6445  0.8539
 7388SOL    HW233801   1.396   3.072   8.866  0.6947 -0.7815 -2.1085
 7389SOL     OW33802   3.062   0.848   9.902  0.0498  0.6929 -0.0644
 7389SOL    HW133803   3.085   0.913   9.836  0.2268 -1.4247 -2.0595
 7389SOL    HW233804   3.061   0.900   9.983 -0.3682  0.7060 -0.0786
 7390SOL     OW33805   0.556   4.308   9.647  0.2333 -0.5822  0.0120
 7390SOL    HW133806   0.636   4.258   9.664 -0.3129 -1.2189  0.7040
 7390SOL    HW233807   0.494   4.238   9.626 -0.2246  0.4139 -1.8880
 7391SOL     OW33808   3.893   0.378   2.835  0.1959  0.3780 -1.1838
 7391SOL    HW133809   3.958   0.403   2.902 -0.0356 -0.2665 -0.7234
 7391SOL    HW233810   3.813   0.407   2.879  1.6885  1.9774  0.5171
 7392SOL     OW33811   0.511   2.843  17.671  0.3833  0.1722 -0.1798
 7392SOL    HW133812   0.463   2.823  17.591  2.5437  1.4023 -1.7663
 7392SOL    HW233813   0.446   2.818  17.737  0.3223 -0.8616 -0.6383
 7393SOL     OW33814   0.627   1.451   4.778  0.4725 -0.5806  0.1743
 7393SOL    HW133815   0.702   1.437   4.719 -1.2818 -2.3742 -1.6365
 7393SOL    HW233816   0.626   1.547   4.783  0.5772 -0.5629 -0.1309
 7394SOL     OW33817   2.764   4.322   6.237 -0.6662 -0.7925 -0.1778
 7394SOL    HW133818   2.697   4.255   6.227 -1.3054 -0.0877 -0.6907
 7394SOL    HW233819   2.734   4.391   6.177  1.2049  0.6757  0.5835
 7395SOL     OW33820   3.814   0.044   8.607 -0.1680  0.9163 -0.0885
 7395SOL    HW133821   3.906   0.043   8.582 -0.6588 -1.6285 -1.7431
 7395SOL    HW233822   3.785   4.727   8.533  2.5570  1.1139 -1.2818
 7396SOL     OW33823   4.347   1.792   2.009  0.1654 -0.1298  0.2301
 7396SOL    HW133824   4.431   1.837   2.002 -0.2751  0.6528 -0.1978
 7396SOL    HW233825   4.371   1.713   1.961 -1.1632 -2.0472  2.7933
 7397SOL     OW33826   2.735   0.109  11.154  0.3356 -0.4978  0.1263
 7397SOL    HW133827   2.662   0.048  11.161 -0.9648  1.3831  3.1486
 7397SOL    HW233828   2.739   0.145  11.243 -1.0396 -0.8652  0.3424
 7398SOL     OW33829   1.303   1.375   8.193  0.4438  0.4756 -0.0084
 7398SOL    HW133830   1.219   1.420   8.184  0.9112  1.2393 -0.6612
 7398SOL    HW233831   1.297   1.318   8.270  0.0740  0.1715 -0.2594
 7399SOL     OW33832   3.927   2.633  17.639  0.4372 -0.2762  0.1751
 7399SOL    HW133833   3.991   2.603  17.704  0.2386 -1.3436 -0.1241
 7399SOL    HW233834   3.904   2.549  17.600 -1.5222 -0.1652  1.1164
 7400SOL     OW33835   3.835   0.968  12.338  0.2160 -0.3854  0.1315
 7400SOL    HW133836   3.930   0.954  12.339  0.2351 -0.3952 -0.9812
 7400SOL    HW233837   3.824   0.990  12.245 -0.3229 -0.8227  0.0907
 7401SOL     OW33838   0.302   2.931  14.967 -0.5083  0.1456  0.5344
 7401SOL    HW133839   0.237   2.889  15.023 -1.7975  0.9250 -0.3594
 7401SOL    HW233840   0.290   2.883  14.885  0.7408  0.6391  0.0597
 7402SOL     OW33841   4.327   3.084   3.568 -0.5903 -0.0760 -0.3460
 7402SOL    HW133842   4.304   3.113   3.479  1.8597 -0.6786 -1.1592
 7402SOL    HW233843   4.269   3.127   3.631  0.6033  3.2045 -1.4882
 7403SOL     OW33844   3.306   3.418   7.068  0.5472  0.3127 -0.9895
 7403SOL    HW133845   3.324   3.488   7.006  1.7460  0.3795 -0.5842
 7403SOL    HW233846   3.331   3.341   7.016 -1.7413 -0.1287 -1.4135
 7404SOL     OW33847   0.262   2.661   8.079  0.7117 -0.2178 -0.3253
 7404SOL    HW133848   0.340   2.606   8.069 -0.4092 -2.3065  2.3224
 7404SOL    HW233849   0.286   2.739   8.029  2.1103  0.4204  1.3230
 7405SOL     OW33850   0.826   1.886  12.986  0.1819 -0.1809 -0.4132
 7405SOL    HW133851   0.886   1.816  13.008 -1.2580 -0.5807  2.1793
 7405SOL    HW233852   0.803   1.869  12.894 -2.0341 -3.9161  0.8514
 7406SOL     OW33853   1.003   2.002   0.208  0.6000 -0.2527 -0.1657
 7406SOL    HW133854   0.972   1.929   0.154 -0.1329 -0.3076  0.3269
 7406SOL    HW233855   0.938   2.013   0.277 -1.6623 -1.6521 -2.0643
 7407SOL     OW33856   3.131   0.287  15.623 -0.3032  0.4820  0.2983
 7407SOL    HW133857   3.162   0.280  15.532 -0.3876  2.0261  0.1553
 7407SOL    HW233858   3.212   0.284  15.674 -1.7868  1.8407  2.7345
 7408SOL     OW33859   1.467   3.808   9.384  0.2365  0.0607 -0.4077
 7408SOL    HW133860   1.531   3.792   9.315  0.1392 -3.5711  0.3652
 7408SOL    HW233861   1.514   3.878   9.431  1.1197  0.6190 -2.0873
 7409SOL     OW33862   3.278   3.246   4.344 -0.2979 -0.1617  0.3766
 7409SOL    HW133863   3.249   3.294   4.422 -1.2419  1.8963 -1.2332
 7409SOL    HW233864   3.370   3.272   4.344  0.0250 -1.3196  2.8176
 7410SOL     OW33865   2.332   0.494   9.275 -0.1015  0.6248  0.2901
 7410SOL    HW133866   2.315   0.420   9.333  0.3010 -0.4789 -0.9866
 7410SOL    HW233867   2.427   0.497   9.280  0.1027 -2.4205 -1.3612
 7411SOL     OW33868   0.485   2.534   3.933 -0.4246 -0.2736 -0.3331
 7411SOL    HW133869   0.574   2.564   3.948  0.2005 -1.5257 -1.5274
 7411SOL    HW233870   0.502   2.443   3.906  0.5910 -0.2513  0.2219
 7412SOL     OW33871   1.496   2.739   4.783 -0.0657 -0.2304 -0.2975
 7412SOL    HW133872   1.435   2.806   4.813 -0.7662 -1.5507  1.2893
 7412SOL    HW233873   1.554   2.724   4.857  0.5239  0.3527 -0.6416
 7413SOL     OW33874   0.766   1.369   4.364  0.2820 -0.1632  0.2922
 7413SOL    HW133875   0.701   1.440   4.359 -0.4695 -0.9460 -0.8949
 7413SOL    HW233876   0.703   1.302   4.389 -1.2111  1.8697  1.9487
 7414SOL     OW33877   0.300   1.051  17.374 -0.0951 -0.4696 -0.8448
 7414SOL    HW133878   0.362   1.092  17.314 -0.5864  0.2422 -0.8690
 7414SOL    HW233879   0.301   0.966  17.330 -0.2101 -0.4301 -0.9258
 7415SOL     OW33880   0.439   2.698  15.838 -0.1150 -0.0292 -0.8539
 7415SOL    HW133881   0.491   2.665  15.764  1.9432  2.0406 -0.3405
 7415SOL    HW233882   0.355   2.657  15.820 -1.0979  2.1459 -1.2501
 7416SOL     OW33883   2.381   1.275   7.061 -0.0482  0.4208 -0.4831
 7416SOL    HW133884   2.290   1.287   7.089  0.9375  1.3758  2.2264
 7416SOL    HW233885   2.429   1.300   7.140 -1.9550  0.8788  0.5267
 7417SOL     OW33886   3.038   3.788   3.005  0.0608 -0.0010 -0.2604
 7417SOL    HW133887   3.010   3.843   3.078 -0.7135 -1.1187  0.2839
 7417SOL    HW233888   3.128   3.764   3.024 -0.8154 -3.0074  0.1292
 7418SOL     OW33889   0.677   3.986   3.383  0.5172 -0.3268 -0.3017
 7418SOL    HW133890   0.629   3.952   3.308 -1.7626  1.4784  0.3326
 7418SOL    HW233891   0.756   3.932   3.376  1.1016  0.4966 -0.1056
 7419SOL     OW33892   1.625   3.548   7.449 -0.2192 -0.7756  0.1209
 7419SOL    HW133893   1.687   3.552   7.376 -0.5836  0.4297 -0.1188
 7419SOL    HW233894   1.545   3.568   7.400 -0.8761 -0.4521  1.3134
 7420SOL     OW33895   4.549   0.658   0.317  0.0524 -0.4300 -0.0844
 7420SOL    HW133896   4.556   0.594   0.388  0.8108 -0.3446 -0.0796
 7420SOL    HW233897   4.455   0.671   0.323  0.0647 -1.0355  1.4592
 7421SOL     OW33898   4.249   1.595   1.237 -0.6044 -0.2900  0.1756
 7421SOL    HW133899   4.187   1.654   1.194 -0.9590  1.7640  3.4531
 7421SOL    HW233900   4.235   1.509   1.199 -0.2268 -0.2187 -0.1252
 7422SOL     OW33901   2.868   0.590   5.856  0.1816  0.0895  0.1915
 7422SOL    HW133902   2.791   0.644   5.871  1.4377  2.1108 -0.5257
 7422SOL    HW233903   2.917   0.604   5.938  1.4175 -1.9157 -0.1907
 7423SOL     OW33904   3.217   4.461   6.378  0.2351  0.3837 -0.0890
 7423SOL    HW133905   3.306   4.497   6.370  1.1291 -1.8309 -0.3292
 7423SOL    HW233906   3.237   4.375   6.340  1.0314  0.4562  0.1547
 7424SOL     OW33907   1.392   0.412   4.806 -0.3527  0.4116 -0.6073
 7424SOL    HW133908   1.434   0.450   4.883 -1.0562  1.6334 -0.8204
 7424SOL    HW233909   1.353   0.493   4.773  1.2038  1.1333 -0.6822
 7425SOL     OW33910   2.642   3.864   7.151 -0.1679 -0.5537  0.2111
 7425SOL    HW133911   2.720   3.815   7.176  0.2560 -1.3766 -2.7160
 7425SOL    HW233912   2.675   3.888   7.064 -1.2198 -0.4863 -0.1672
 7426SOL     OW33913   1.188   2.113   4.937 -0.1775  0.1889 -0.4184
 7426SOL    HW133914   1.166   2.075   4.852 -0.9296  0.3936 -0.3076
 7426SOL    HW233915   1.266   2.168   4.923  0.9031 -1.7649 -2.1304
 7427SOL     OW33916   0.034   1.519   5.428 -0.0039  0.2800  0.2778
 7427SOL    HW133917   4.715   1.440   5.426  0.3059  0.1017 -1.0979
 7427SOL    HW233918   0.062   1.537   5.339 -3.0252 -1.1246 -0.9498
 7428SOL     OW33919   1.815   2.449   8.169  0.2159  0.2287 -0.4392
 7428SOL    HW133920   1.812   2.544   8.180 -1.6616  0.0320  0.7419
 7428SOL    HW233921   1.756   2.433   8.095  0.9055  2.7941 -1.5318
 7429SOL     OW33922   2.561   3.384   6.362  0.6236 -0.6696 -0.4085
 7429SOL    HW133923   2.473   3.402   6.395  1.2251 -0.7728  1.2819
 7429SOL    HW233924   2.578   3.468   6.319 -1.4620 -1.3555 -2.5688
 7430SOL     OW33925   0.326   0.566   2.156 -0.3905 -0.1043 -0.1689
 7430SOL    HW133926   0.300   0.650   2.193 -0.0630 -0.7633  1.5573
 7430SOL    HW233927   0.246   0.544   2.108  0.4464 -0.5459 -1.3624
 7431SOL     OW33928   1.349   1.067   7.694  0.0352 -0.3937  0.0952
 7431SOL    HW133929   1.255   1.056   7.687 -0.3226  3.3755 -0.8486
 7431SOL    HW233930   1.351   1.127   7.769  0.1719  1.7762 -1.6511
 7432SOL     OW33931   4.265   2.098   8.044 -0.0751  0.1406 -0.4416
 7432SOL    HW133932   4.329   2.144   8.098  0.1574  1.2585 -1.7039
 7432SOL    HW233933   4.320   2.053   7.980  2.1766  1.2978  0.7046
 7433SOL     OW33934   3.566   4.414  15.065  0.1743  0.2898 -0.2135
 7433SOL    HW133935   3.475   4.388  15.078  0.8693 -1.4793  1.2242
 7433SOL    HW233936   3.596   4.328  15.035 -0.6052  0.4161 -1.3466
 7434SOL     OW33937   2.620   0.793   0.308  0.3447 -0.1698  0.7356
 7434SOL    HW133938   2.558   0.862   0.281 -0.9890 -1.4868  0.4493
 7434SOL    HW233939   2.650   0.839   0.386  1.3664  0.8337 -0.2365
 7435SOL     OW33940   2.605   2.281   8.632  0.5321 -0.5122 -0.2669
 7435SOL    HW133941   2.688   2.290   8.586  0.4001  2.0273 -0.0110
 7435SOL    HW233942   2.548   2.301   8.558 -0.8483 -0.3116  0.8490
 7436SOL     OW33943   0.380   2.935   9.183 -0.2863 -0.0418  0.2430
 7436SOL    HW133944   0.369   3.016   9.233 -1.5462  0.7504 -1.3104
 7436SOL    HW233945   0.320   2.953   9.111  1.2785  0.2011 -0.9820
 7437SOL     OW33946   2.376   1.678   4.939  0.2505  0.2670  0.1752
 7437SOL    HW133947   2.464   1.696   4.971  0.6842 -0.8340 -0.3923
 7437SOL    HW233948   2.334   1.655   5.023  0.1289 -1.1051 -0.2591
 7438SOL     OW33949   4.672   0.430   5.895 -0.2830 -0.2256  0.0054
 7438SOL    HW133950   4.681   0.525   5.883 -0.6495  0.0281  1.8172
 7438SOL    HW233951   0.013   0.408   5.841  0.9352  3.6656  0.1743
 7439SOL     OW33952   3.033   0.784   8.153 -0.0035 -0.4405  0.6726
 7439SOL    HW133953   3.047   0.828   8.069  2.1305  0.7163  1.6136
 7439SOL    HW233954   2.948   0.821   8.176 -0.5609 -1.0154 -0.4753
 7440SOL     OW33955   2.622   3.160  11.877 -0.7528  0.0294  0.7377
 7440SOL    HW133956   2.535   3.119  11.878 -0.4962 -0.5716 -1.4209
 7440SOL    HW233957   2.688   3.096  11.902 -0.3653 -0.1580 -0.7282
 7441SOL     OW33958   4.538   4.069   3.268  0.8442 -0.4799  0.6021
 7441SOL    HW133959   4.533   4.086   3.174  2.9490  1.4909  0.8387
 7441SOL    HW233960   4.549   4.158   3.301  1.0493 -0.5337  0.6781
 7442SOL     OW33961   0.646   2.935   9.132 -0.4217 -0.1094 -0.0672
 7442SOL    HW133962   0.551   2.936   9.143 -0.3079 -0.5153  0.9703
 7442SOL    HW233963   0.672   3.017   9.173 -3.9247  1.2031 -0.4298
 7443SOL     OW33964   2.487   4.452   1.986  0.3193 -0.5157 -0.5848
 7443SOL    HW133965   2.401   4.450   1.945 -0.3263  0.7087  0.6758
 7443SOL    HW233966   2.471   4.438   2.080 -1.3334  0.3759 -0.7307
 7444SOL     OW33967   1.779   0.218   6.954 -0.3974 -0.5404  0.0528
 7444SOL    HW133968   1.853   0.265   6.994 -2.0954  0.4626  1.9825
 7444SOL    HW233969   1.703   0.244   7.005 -0.1762 -2.7626  1.5209
 7445SOL     OW33970   3.580   3.113  17.221  0.0902 -0.3302  0.4182
 7445SOL    HW133971   3.561   3.198  17.181 -0.7019 -0.8312 -0.2517
 7445SOL    HW233972   3.565   3.064  17.140  1.2380 -0.7549  0.4622
 7446SOL     OW33973   2.260   2.858   5.935  0.2730  0.3858 -0.8037
 7446SOL    HW133974   2.215   2.913   5.999  2.4502  0.1717  0.9170
 7446SOL    HW233975   2.280   2.917   5.863 -0.4646  0.4375 -0.9615
 7447SOL     OW33976   2.310   1.361   9.667 -0.2943  0.4401  0.1025
 7447SOL    HW133977   2.248   1.292   9.643  0.1804 -0.0049  0.1685
 7447SOL    HW233978   2.391   1.311   9.660 -0.8680 -0.8514  2.9133
 7448SOL     OW33979   2.794   3.548   5.885 -0.1412 -0.0339  0.3189
 7448SOL    HW133980   2.701   3.526   5.892 -0.2599  0.3182 -0.2400
 7448SOL    HW233981   2.795   3.599   5.805 -0.5837 -1.7778 -0.7897
 7449SOL     OW33982   3.557   4.536   9.082  0.0631  0.6694 -0.7817
 7449SOL    HW133983   3.562   4.451   9.037  1.7738  0.4607 -0.2014
 7449SOL    HW233984   3.468   4.567   9.064  0.0342  0.7514 -0.4963
 7450SOL     OW33985   2.437   4.199   3.791 -0.7310  0.1136  0.1483
 7450SOL    HW133986   2.431   4.271   3.728 -0.4080 -0.9031 -1.0372
 7450SOL    HW233987   2.354   4.151   3.782 -0.8585  0.5549 -1.0738
 7451SOL     OW33988   0.787   1.529   2.555  0.3023  0.5765  0.3204
 7451SOL    HW133989   0.799   1.624   2.543 -1.4920  0.7369 -0.3255
 7451SOL    HW233990   0.861   1.486   2.513 -1.2999 -0.4573 -1.4903
 7452SOL     OW33991   0.908   4.064   3.184  0.2661 -0.3276 -0.5558
 7452SOL    HW133992   0.962   4.052   3.263 -0.1653  0.9096 -0.0644
 7452SOL    HW233993   0.961   4.122   3.129  0.6972 -1.2935 -1.1483
 7453SOL     OW33994   1.893   2.420   8.984 -0.9685  0.7411  0.0389
 7453SOL    HW133995   1.969   2.370   8.955 -1.8778 -0.3735 -0.4409
 7453SOL    HW233996   1.818   2.387   8.934 -2.1208  3.7526 -0.2337
 7454SOL     OW33997   1.930   1.451   1.839 -0.1281  0.2741  0.1213
 7454SOL    HW133998   1.854   1.484   1.792  0.8905 -0.5307 -2.0803
 7454SOL    HW233999   1.893   1.419   1.922 -1.8287 -0.1654 -0.8206
 7455SOL     OW34000   4.394   4.499   0.359  0.0790 -0.7434  0.8758
 7455SOL    HW134001   4.441   4.554   0.296 -1.8219  0.7155  0.7098
 7455SOL    HW234002   4.308   4.515   0.319 -0.2405 -2.5443  0.8568
 7456SOL     OW34003   3.963   3.630  12.921  0.1587  0.9597 -0.2851
 7456SOL    HW134004   3.998   3.712  12.886  2.3619 -0.2263 -0.8251
 7456SOL    HW234005   3.872   3.659  12.914 -0.2660 -0.2129  0.3778
 7457SOL     OW34006   2.872   4.227   7.157  0.1262  0.0050 -0.1003
 7457SOL    HW134007   2.886   4.286   7.083 -3.6641  1.3150  0.2368
 7457SOL    HW234008   2.950   4.257   7.203  0.1793  1.9218 -1.4500
 7458SOL     OW34009   1.330   1.472   3.669 -0.8786  0.0148 -1.4360
 7458SOL    HW134010   1.253   1.469   3.613 -1.0749 -1.3278 -1.0971
 7458SOL    HW234011   1.278   1.454   3.747 -1.9580  0.2668 -2.0918
 7459SOL     OW34012   1.516   1.352  15.032  0.0649 -0.4915 -0.1302
 7459SOL    HW134013   1.519   1.260  15.059  1.7470 -0.6477 -0.8525
 7459SOL    HW234014   1.584   1.396  15.084  0.6496 -1.1803 -0.3146
 7460SOL     OW34015   2.733   4.239  10.440 -0.6379 -0.6525  0.1358
 7460SOL    HW134016   2.728   4.249  10.345 -0.8402  0.3175  0.2427
 7460SOL    HW234017   2.640   4.221  10.453 -0.6788  0.2576  1.1777
 7461SOL     OW34018   4.709   0.183   3.378  0.0204  0.1705  0.2000
 7461SOL    HW134019   0.041   0.237   3.337  1.6629 -0.4758  2.0132
 7461SOL    HW234020   4.713   0.224   3.465 -1.7006 -1.8388  1.2094
 7462SOL     OW34021   0.691   3.389   6.677 -0.1773  0.3956  0.0280
 7462SOL    HW134022   0.645   3.306   6.681  0.1837  0.1727 -0.5100
 7462SOL    HW234023   0.644   3.421   6.600  0.3036 -0.8308 -0.7643
 7463SOL     OW34024   1.560   1.726  12.980 -0.2833  0.7106  0.7552
 7463SOL    HW134025   1.532   1.764  13.063 -1.1101 -0.2706  0.9283
 7463SOL    HW234026   1.613   1.654  13.015  0.0208  0.4425 -0.2689
 7464SOL     OW34027   1.499   2.631  12.547 -0.2063 -0.4992  0.3650
 7464SOL    HW134028   1.406   2.653  12.554  0.0901  0.8168  0.0189
 7464SOL    HW234029   1.515   2.633  12.642  0.0435 -0.3398  0.3204
 7465SOL     OW34030   1.423   3.279   4.187  0.0892  0.3067 -0.4387
 7465SOL    HW134031   1.389   3.210   4.130 -0.7829  0.9328 -0.6784
 7465SOL    HW234032   1.472   3.331   4.123 -1.4412  2.4884  0.1800
 7466SOL     OW34033   1.752   0.786   7.801 -0.1512 -0.3921  0.5603
 7466SOL    HW134034   1.681   0.773   7.738  0.3611  0.3880 -0.1750
 7466SOL    HW234035   1.818   0.785   7.732  1.4244  1.7319  2.0428
 7467SOL     OW34036   1.490   3.971   3.614 -0.2797  0.2411  0.3091
 7467SOL    HW134037   1.565   3.976   3.554 -0.1538 -1.8741  0.3106
 7467SOL    HW234038   1.535   3.958   3.697  2.9354  0.3052 -1.4030
 7468SOL     OW34039   3.528   2.429  10.252  0.5111  0.4681 -0.0895
 7468SOL    HW134040   3.448   2.440  10.303  0.1051 -3.2169  0.0605
 7468SOL    HW234041   3.588   2.464  10.318  1.0423 -0.5328 -0.0514
 7469SOL     OW34042   1.908   3.491  11.670  0.4604  0.0501  0.1303
 7469SOL    HW134043   2.002   3.474  11.670 -0.0556 -2.8181  0.9463
 7469SOL    HW234044   1.877   3.435  11.599 -1.6001 -0.5034  1.4459
 7470SOL     OW34045   0.559   0.062   9.935 -0.0088 -0.7873  0.8928
 7470SOL    HW134046   0.557   0.038   9.842  0.1204  1.0427  0.4165
 7470SOL    HW234047   0.491   0.128   9.931  0.2787 -0.5562 -0.0663
 7471SOL     OW34048   1.274   1.224  17.242  0.1860  0.4287 -0.0749
 7471SOL    HW134049   1.263   1.153  17.179  2.3551  1.1908 -1.3350
 7471SOL    HW234050   1.360   1.200  17.277 -0.3905  0.0985  1.1259
 7472SOL     OW34051   2.183   1.261   8.995  0.3933  0.3584 -0.4878
 7472SOL    HW134052   2.103   1.213   8.970  2.0831 -2.4470 -0.5678
 7472SOL    HW234053   2.149   1.341   9.034 -0.9589 -0.4600  0.0120
 7473SOL     OW34054   2.826   4.441   6.490  0.4623 -0.6513  0.0336
 7473SOL    HW134055   2.889   4.371   6.508  2.3448  1.0006 -0.1134
 7473SOL    HW234056   2.787   4.420   6.405  0.4695  1.4820 -0.5085
 7474SOL     OW34057   2.026   0.902   3.972  0.1535  0.6752  0.0711
 7474SOL    HW134058   1.939   0.878   4.003 -0.0720  1.1353 -0.2076
 7474SOL    HW234059   2.076   0.827   4.004 -0.7632 -0.5038 -1.2997
 7475SOL     OW34060   4.263   2.372   2.307  0.5112 -0.0447 -0.1545
 7475SOL    HW134061   4.354   2.345   2.300  0.1855 -1.0130 -0.7568
 7475SOL    HW234062   4.216   2.317   2.244  1.0284  0.7081 -1.1934
 7476SOL     OW34063   0.689   2.844   3.976 -0.0811  0.1429  0.5803
 7476SOL    HW134064   0.608   2.877   4.014 -0.7223  1.1568 -1.6580
 7476SOL    HW234065   0.681   2.827   3.882  1.4791 -0.5373  0.5679
 7477SOL     OW34066   2.897   2.058   7.073 -0.2498  0.0547  0.1098
 7477SOL    HW134067   2.860   2.112   7.143  1.4757 -0.6115  1.5418
 7477SOL    HW234068   2.982   2.095   7.051 -1.1173  0.4322 -2.5431
 7478SOL     OW34069   2.999   2.243   5.191  0.1940  0.2712  0.0555
 7478SOL    HW134070   2.952   2.201   5.118 -0.0628 -1.6187  1.3219
 7478SOL    HW234071   2.929   2.250   5.256  0.7152 -0.2689  0.6668
 7479SOL     OW34072   0.243   1.168   0.812  0.3664 -0.0225 -0.7042
 7479SOL    HW134073   0.301   1.164   0.736  0.7392  0.9083 -0.4655
 7479SOL    HW234074   0.239   1.261   0.836  1.7859 -0.2701  0.4736
 7480SOL     OW34075   1.532   0.971   2.609 -0.2376  0.1983 -0.2359
 7480SOL    HW134076   1.605   1.032   2.619 -0.5596  0.2792  1.6717
 7480SOL    HW234077   1.462   1.027   2.644 -0.4516 -0.4944  0.4519
 7481SOL     OW34078   2.742   0.349   0.787 -0.1165 -0.1327  0.0545
 7481SOL    HW134079   2.827   0.393   0.779  0.0525 -0.8799 -2.3258
 7481SOL    HW234080   2.715   0.394   0.867 -2.3257  0.8629 -1.2535
 7482SOL     OW34081   2.020   1.836  16.566 -0.4157  0.1318  0.1993
 7482SOL    HW134082   2.053   1.917  16.527  2.9578 -1.5552 -0.4635
 7482SOL    HW234083   1.928   1.859  16.579 -0.1669  1.1430  0.1478
 7483SOL     OW34084   0.977   3.126   8.650 -0.5321 -0.2998  0.1202
 7483SOL    HW134085   1.026   3.091   8.724  1.6084  0.6292 -0.8722
 7483SOL    HW234086   0.948   3.041   8.617 -1.8659  0.5724 -0.9812
 7484SOL     OW34087   4.050   2.781   2.100 -0.4386  0.2591 -0.2626
 7484SOL    HW134088   4.052   2.687   2.081 -1.5435  0.2745 -0.4755
 7484SOL    HW234089   4.145   2.786   2.091 -0.1435 -1.0489  2.1989
 7485SOL     OW34090   4.437   4.572   1.732 -0.1631 -0.3283  0.5016
 7485SOL    HW134091   4.383   4.642   1.695  1.1832 -0.9635 -2.6690
 7485SOL    HW234092   4.469   4.604   1.817 -1.8292  0.5346  0.8001
 7486SOL     OW34093   4.662   3.265   5.720 -0.0019 -0.0091 -0.3837
 7486SOL    HW134094   4.639   3.172   5.726 -0.1638  0.0352 -0.3041
 7486SOL    HW234095   0.020   3.265   5.700 -0.1296 -0.0921 -0.9797
 7487SOL     OW34096   4.397   1.614   9.175 -0.1467 -0.3419 -0.2850
 7487SOL    HW134097   4.385   1.519   9.169 -0.3354 -0.2576 -1.3156
 7487SOL    HW234098   4.326   1.644   9.232  0.7849  1.6408 -0.2026
 7488SOL     OW34099   4.406   3.192  16.336  0.0305  0.2998  0.1007
 7488SOL    HW134100   4.385   3.110  16.292 -1.7773  1.2911 -0.8759
 7488SOL    HW234101   4.500   3.176  16.322  0.2476  0.7779  0.9791
 7489SOL     OW34102   3.753   3.808   6.437 -0.7458  0.3755  0.2901
 7489SOL    HW134103   3.731   3.727   6.392  1.7247 -0.6474  0.9435
 7489SOL    HW234104   3.665   3.845   6.444 -0.0627  2.2268 -0.9411
 7490SOL     OW34105   0.508   1.876  13.671 -0.1635  0.1477 -0.0277
 7490SOL    HW134106   0.512   1.785  13.701  3.9595  0.7778  1.3206
 7490SOL    HW234107   0.522   1.921  13.754 -0.4509  1.1018 -0.5042
 7491SOL     OW34108   2.779   2.450  16.163 -0.0614 -0.4109  0.0423
 7491SOL    HW134109   2.842   2.387  16.198  0.4753  1.4512  2.4302
 7491SOL    HW234110   2.821   2.483  16.084 -1.7866  1.0558 -0.2633
 7492SOL     OW34111   4.612   1.876  16.141  0.3744  0.2353  0.3281
 7492SOL    HW134112   4.683   1.860  16.080  0.0216 -0.8824  0.2045
 7492SOL    HW234113   4.554   1.804  16.114 -0.5517  0.8626  0.6428
 7493SOL     OW34114   1.489   3.423   8.756  0.8093 -0.0872  0.2719
 7493SOL    HW134115   1.444   3.343   8.783 -1.2222  1.2232  0.8190
 7493SOL    HW234116   1.503   3.472   8.837 -0.2109  1.5636 -0.5221
 7494SOL     OW34117   2.183   0.122   9.718  0.0193  0.0945 -0.2218
 7494SOL    HW134118   2.189   0.181   9.793 -0.5494  0.0140 -0.1174
 7494SOL    HW234119   2.113   0.067   9.753  0.0281  0.4277  0.3268
 7495SOL     OW34120   2.034   0.908   7.325 -0.4045 -0.1504 -0.7844
 7495SOL    HW134121   2.119   0.884   7.362  0.5941  1.6349 -1.8878
 7495SOL    HW234122   1.976   0.877   7.394  1.3108 -0.3780  0.5478
 7496SOL     OW34123   3.912   0.024  16.947 -0.0487  0.2535 -0.0962
 7496SOL    HW134124   3.887   4.696  16.879  1.5103 -0.3716 -0.0763
 7496SOL    HW234125   4.007   0.012  16.942 -0.1304 -1.8250  3.3069
 7497SOL     OW34126   0.055   3.308   1.192  0.2416  0.3796  0.1676
 7497SOL    HW134127   0.072   3.381   1.132  1.5694  0.6415  0.8641
 7497SOL    HW234128   0.145   3.284   1.216  0.8980  0.7848 -1.8040
 7498SOL     OW34129   1.893   1.868   8.864 -0.3982 -0.0060  0.0171
 7498SOL    HW134130   1.970   1.924   8.860 -0.8230  0.5900  0.0940
 7498SOL    HW234131   1.882   1.861   8.958 -1.2832  0.6344 -0.0339
 7499SOL     OW34132   0.952   4.512  12.553  0.0959  0.6156  0.0601
 7499SOL    HW134133   0.985   4.524  12.642  0.3673 -0.6259  0.1211
 7499SOL    HW234134   0.874   4.459  12.569  2.3618 -2.8169 -0.2611
 7500SOL     OW34135   1.176   0.056   6.858  0.2848 -0.2604  0.3602
 7500SOL    HW134136   1.173   0.055   6.762  1.5187  1.1367  0.3290
 7500SOL    HW234137   1.110   4.723   6.872  0.4436 -0.5679 -0.4109
 7501SOL     OW34138   3.669   0.903   1.687 -0.0905  0.0733  0.3924
 7501SOL    HW134139   3.633   0.818   1.663  0.1253  0.1738 -0.2879
 7501SOL    HW234140   3.611   0.937   1.755  0.6499  0.9338  0.6048
 7502SOL     OW34141   3.647   3.362   6.272 -0.1846  0.3653 -0.3740
 7502SOL    HW134142   3.715   3.404   6.325 -0.6575  0.4540  0.1696
 7502SOL    HW234143   3.695   3.302   6.215  1.5721  0.7103  0.7347
 7503SOL     OW34144   2.376   2.818   3.491  0.2491  0.1174  0.0405
 7503SOL    HW134145   2.303   2.757   3.502  0.0810  0.7180  2.1979
 7503SOL    HW234146   2.431   2.792   3.417 -0.4041  2.2696 -1.2065
 7504SOL     OW34147   1.386   4.488   9.196  0.0907 -0.1489  0.9996
 7504SOL    HW134148   1.473   4.449   9.194  0.5020  0.8478 -0.1822
 7504SOL    HW234149   1.329   4.431   9.144 -0.1318  0.0629  1.0096
 7505SOL     OW34150   4.273   3.489   0.397  0.6502  0.7147  0.5466
 7505SOL    HW134151   4.324   3.505   0.476  0.0397 -1.1506  1.3266
 7505SOL    HW234152   4.291   3.395   0.395  0.8925  0.7512  0.9631
 7506SOL     OW34153   3.679   3.630  12.792  0.2101 -0.4174  0.7140
 7506SOL    HW134154   3.598   3.582  12.779  0.2026 -1.1089  3.2798
 7506SOL    HW234155   3.680   3.630  12.887  3.2972 -0.1518  0.6994
 7507SOL     OW34156   2.189   4.043   3.829  0.0607  0.1533 -0.1359
 7507SOL    HW134157   2.171   4.008   3.916  2.0811  1.3915  0.7908
 7507SOL    HW234158   2.235   3.972   3.784 -1.4757 -0.2306 -1.0874
 7508SOL     OW34159   1.292   4.649  12.607  0.8351  0.4416  0.2962
 7508SOL    HW134160   1.351   4.678  12.676  1.3667  1.0238 -0.4125
 7508SOL    HW234161   1.209   4.655  12.654  0.5030  0.7023 -0.3284
 7509SOL     OW34162   3.428   4.698   4.262 -0.0277  0.6063 -0.7431
 7509SOL    HW134163   3.460   0.053   4.257  1.8939  0.0549  1.7706
 7509SOL    HW234164   3.450   4.685   4.354  2.6166  2.2751 -1.1301
 7510SOL     OW34165   1.672   4.190  16.739 -0.3389  0.2518 -0.3167
 7510SOL    HW134166   1.721   4.203  16.820 -0.7141  0.6240 -0.1491
 7510SOL    HW234167   1.598   4.248  16.754  0.8339  1.5896  0.3425
 7511SOL     OW34168   4.484   3.183   2.519  0.3101  0.5278  0.3119
 7511SOL    HW134169   4.388   3.180   2.527  0.2659  0.7555 -0.1445
 7511SOL    HW234170   4.497   3.099   2.563 -1.9511 -0.0945 -0.1669
 7512SOL     OW34171   4.313   1.387   9.432 -0.1022  0.5649  0.6618
 7512SOL    HW134172   4.234   1.334   9.416 -0.0048  1.0191 -1.3556
 7512SOL    HW234173   4.278   1.470   9.400 -0.3371  0.4576  0.6320
 7513SOL     OW34174   1.169   1.090  15.019 -0.1207  0.2028 -0.1140
 7513SOL    HW134175   1.134   1.098  15.108  0.2737  0.1971  0.0379
 7513SOL    HW234176   1.082   1.089  14.979  0.1564 -2.7109 -0.6535
 7514SOL     OW34177   0.950   1.784   7.458  0.2730  0.2733  0.8626
 7514SOL    HW134178   0.993   1.774   7.543 -0.2187  0.8487  1.1729
 7514SOL    HW234179   0.916   1.695   7.445 -2.2353  1.4803 -1.0116
 7515SOL     OW34180   0.990   3.376  14.837  0.2151  0.7362  0.2577
 7515SOL    HW134181   1.050   3.388  14.910  0.5437 -0.6288  0.2040
 7515SOL    HW234182   0.905   3.358  14.879 -0.4267 -1.1578 -1.8313
 7516SOL     OW34183   1.779   3.989   2.368  0.3876 -0.4375  0.7585
 7516SOL    HW134184   1.852   4.008   2.309 -2.1880 -1.0184 -2.6227
 7516SOL    HW234185   1.716   3.941   2.315  1.4289 -0.0787 -0.8009
 7517SOL     OW34186   3.701   0.141  17.060 -0.4372  0.2459  0.1333
 7517SOL    HW134187   3.695   0.085  17.138 -2.4602  1.1997  0.6738
 7517SOL    HW234188   3.759   0.090  17.005 -1.9594 -0.0312 -1.2135
 7518SOL     OW34189   4.129   1.877   1.879 -0.1137  0.0157 -0.2042
 7518SOL    HW134190   4.197   1.848   1.940 -0.9710  0.0609  0.7624
 7518SOL    HW234191   4.173   1.872   1.794  0.4299  0.3567  0.0576
 7519SOL     OW34192   3.189   0.649   4.471 -0.7818 -0.2356  0.0931
 7519SOL    HW134193   3.243   0.659   4.392 -1.2802  2.2757  0.0965
 7519SOL    HW234194   3.176   0.735   4.509 -0.8292  0.1321 -0.7756
 7520SOL     OW34195   4.564   1.704   2.268 -0.2965 -0.1666  0.6996
 7520SOL    HW134196   4.617   1.683   2.191 -0.1408 -2.6493  1.4698
 7520SOL    HW234197   4.513   1.776   2.232  0.4659  0.0905  0.1281
 7521SOL     OW34198   2.106   0.025  12.293 -0.4272  0.3991 -0.0738
 7521SOL    HW134199   2.115   4.700  12.219  1.1993  1.8741 -1.0961
 7521SOL    HW234200   2.107   4.700  12.367  2.0896 -1.3234 -1.5369
 7522SOL     OW34201   3.756   0.819   6.046  0.7269 -0.2791 -0.1121
 7522SOL    HW134202   3.775   0.802   5.954  3.2011 -2.4876  0.8300
 7522SOL    HW234203   3.660   0.820   6.044  0.6919 -2.8111  1.1293
 7523SOL     OW34204   3.477   0.254  12.456  0.5606  0.6105 -0.0481
 7523SOL    HW134205   3.423   0.246  12.377 -0.6370 -1.9345  1.0345
 7523SOL    HW234206   3.566   0.250  12.422  1.3585 -1.8385  2.3447
 7524SOL     OW34207   0.209   3.606   6.689  0.4694  0.7696  0.2161
 7524SOL    HW134208   0.132   3.634   6.739 -1.4308 -1.5148 -1.4683
 7524SOL    HW234209   0.271   3.593   6.761  0.8864 -0.4945 -0.3718
 7525SOL     OW34210   3.944   2.411   9.648  0.1030  0.3415 -0.0475
 7525SOL    HW134211   4.003   2.352   9.601  0.2181 -0.4868  1.1678
 7525SOL    HW234212   3.860   2.369   9.630 -0.7156  2.6596 -1.7499
 7526SOL     OW34213   2.837   1.753   1.713 -0.2781 -0.2810  0.4034
 7526SOL    HW134214   2.805   1.801   1.789  0.7491  1.2824 -0.1474
 7526SOL    HW234215   2.756   1.725   1.669  0.1751 -0.5648 -0.2434
 7527SOL     OW34216   0.435   4.666  10.160 -0.0349 -0.0660  0.4333
 7527SOL    HW134217   0.464   4.683  10.071 -2.1483  0.4639 -0.1545
 7527SOL    HW234218   0.504   4.606  10.189 -0.3463 -0.5916  0.0949
 7528SOL     OW34219   2.375   1.851   9.092 -0.3837  0.0650  0.0886
 7528SOL    HW134220   2.424   1.907   9.151  0.8928 -0.5192 -0.4274
 7528SOL    HW234221   2.345   1.783   9.152  0.6545  0.5850  1.1815
 7529SOL     OW34222   1.232   0.413   5.077  0.4547 -0.9734  0.2971
 7529SOL    HW134223   1.157   0.382   5.026 -0.7820  2.2811  0.1358
 7529SOL    HW234224   1.221   0.507   5.061  0.6099 -0.8534  0.8836
 7530SOL     OW34225   4.162   4.371  13.912 -0.3625  0.1648  0.7770
 7530SOL    HW134226   4.244   4.341  13.953  0.4739 -0.4958 -1.3657
 7530SOL    HW234227   4.158   4.456  13.956 -1.7492  1.3423 -1.6605
 7531SOL     OW34228   1.668   1.583   3.110 -0.0017 -0.1584 -0.0884
 7531SOL    HW134229   1.689   1.526   3.184  0.7111 -1.4557 -1.2994
 7531SOL    HW234230   1.586   1.538   3.090  0.4317 -0.6677 -0.6901
 7532SOL     OW34231   0.878   4.367   5.736  0.7558 -0.2703 -0.0682
 7532SOL    HW134232   0.795   4.413   5.729  1.0286  0.4097  1.1535
 7532SOL    HW234233   0.939   4.417   5.682  0.8688 -0.6938 -0.3398
 7533SOL     OW34234   2.434   1.832   2.664  0.2465 -0.4731  0.7095
 7533SOL    HW134235   2.503   1.882   2.621 -0.0115 -0.7445 -0.0196
 7533SOL    HW234236   2.399   1.900   2.721 -2.0305 -2.5583  1.8220
 7534SOL     OW34237   3.943   4.574   3.317 -0.0579  0.8373  0.5461
 7534SOL    HW134238   4.003   4.505   3.344 -0.3580 -0.9430 -3.4384
 7534SOL    HW234239   3.971   4.635   3.385  0.5538  0.9428  0.1944
 7535SOL     OW34240   3.539   1.130   5.031 -0.1106  0.2880  0.4140
 7535SOL    HW134241   3.619   1.085   5.059 -0.4353  0.1992  1.2139
 7535SOL    HW234242   3.501   1.073   4.965  0.7804 -0.1318  0.2586
 7536SOL     OW34243   1.849   1.822   7.839 -0.2775 -0.1442  0.0878
 7536SOL    HW134244   1.787   1.826   7.766  1.2466 -0.2199 -1.2121
 7536SOL    HW234245   1.842   1.729   7.860  0.0489  0.0391  0.9926
 7537SOL     OW34246   0.961   1.515   6.101 -0.5739 -0.3891  0.2054
 7537SOL    HW134247   0.869   1.537   6.108 -0.8382 -1.1620 -0.8239
 7537SOL    HW234248   0.960   1.429   6.143  1.2798 -0.2186  0.6150
 7538SOL     OW34249   0.598   4.717   9.394 -0.1735 -0.5588 -0.6518
 7538SOL    HW134250   0.537   0.030   9.339  0.4674  1.2029  0.2076
 7538SOL    HW234251   0.657   4.681   9.327  0.6980  0.2777 -0.3413
 7539SOL     OW34252   0.926   2.924  10.614 -0.1329  0.5473 -0.3534
 7539SOL    HW134253   0.895   2.835  10.595 -1.0831  0.4843  1.4514
 7539SOL    HW234254   0.852   2.977  10.584 -0.2066  0.5707 -0.1325
 7540SOL     OW34255   1.782   1.939   7.405  0.5054 -0.3091  0.1137
 7540SOL    HW134256   1.820   2.003   7.344 -0.7645 -0.8952 -1.2806
 7540SOL    HW234257   1.836   1.975   7.476 -0.1031  1.2648 -0.2178
 7541SOL     OW34258   0.174   2.527  14.533  0.0681 -0.2818  0.0807
 7541SOL    HW134259   0.194   2.442  14.495  0.0960 -0.6826  0.9891
 7541SOL    HW234260   0.223   2.588  14.478 -0.0426 -1.7157 -1.5985
 7542SOL     OW34261   0.697   4.228   6.105 -0.1014  0.2586  0.3980
 7542SOL    HW134262   0.626   4.290   6.085  0.1218  1.1279  2.3404
 7542SOL    HW234263   0.700   4.226   6.201  2.4956  0.6414  0.3112
 7543SOL     OW34264   1.471   2.206   2.136  0.0565 -0.2866  0.3338
 7543SOL    HW134265   1.514   2.249   2.063 -0.2530  0.7996  0.7961
 7543SOL    HW234266   1.451   2.121   2.097  4.0702 -0.7507 -0.7983
 7544SOL     OW34267   0.839   0.902   5.214  0.0745  0.2740  0.0698
 7544SOL    HW134268   0.922   0.854   5.215 -0.1583 -0.2215 -2.5942
 7544SOL    HW234269   0.836   0.942   5.126  3.0217  0.9317  0.2605
 7545SOL     OW34270   2.913   3.528   2.817  0.3133 -0.7940  0.7282
 7545SOL    HW134271   2.895   3.444   2.859  1.2339 -2.0326 -1.3338
 7545SOL    HW234272   2.978   3.570   2.873  0.7057 -0.6436  0.1643
 7546SOL     OW34273   3.796   3.697   0.200  0.0851 -0.3732 -0.2643
 7546SOL    HW134274   3.838   3.767   0.150  2.2451 -0.0338  2.0710
 7546SOL    HW234275   3.871   3.655   0.243 -0.7902 -0.2808  1.3340
 7547SOL     OW34276   0.246   1.109  11.714  0.2356  0.3442 -0.8564
 7547SOL    HW134277   0.278   1.027  11.751  1.1314  1.2801  0.4638
 7547SOL    HW234278   0.311   1.115  11.644  0.3245  1.4500 -0.6898
 7548SOL     OW34279   0.733   1.454   4.008  0.2035  0.0474 -0.2289
 7548SOL    HW134280   0.791   1.407   3.948 -0.4766  1.0074 -1.6525
 7548SOL    HW234281   0.796   1.501   4.063 -0.6959 -3.7421  4.0308
 7549SOL     OW34282   0.910   0.391   4.215 -0.0780 -0.2229 -0.5695
 7549SOL    HW134283   0.815   0.399   4.225 -0.1447 -0.7521 -0.7616
 7549SOL    HW234284   0.929   0.455   4.284 -1.4479  0.1373 -0.5283
 7550SOL     OW34285   2.365   2.712   6.490  0.2443  0.0840  0.0268
 7550SOL    HW134286   2.450   2.674   6.468  1.3220  3.4933 -1.6667
 7550SOL    HW234287   2.369   2.735   6.583  1.8929  0.7507 -0.2098
 7551SOL     OW34288   2.633   1.360  10.739  0.2336  0.1262  0.2822
 7551SOL    HW134289   2.598   1.309  10.666 -0.7150  0.3299  0.5956
 7551SOL    HW234290   2.614   1.454  10.729  0.5775 -0.1471 -2.9674
 7552SOL     OW34291   4.281   4.290   5.445  0.0891  0.3077 -0.5054
 7552SOL    HW134292   4.200   4.328   5.412  0.7831  3.1349  1.0406
 7552SOL    HW234293   4.339   4.330   5.380  0.0501 -1.5922 -1.6949
 7553SOL     OW34294   3.684   1.463   4.054  0.5891  0.0492 -0.0583
 7553SOL    HW134295   3.763   1.518   4.049 -0.3068  1.1611 -2.1037
 7553SOL    HW234296   3.659   1.485   4.144  2.0510 -0.0530  0.3813
 7554SOL     OW34297   4.668   2.753   4.498  0.1576 -0.2501  0.2676
 7554SOL    HW134298   4.584   2.715   4.524  0.1279 -0.8620 -0.7200
 7554SOL    HW234299   4.640   2.842   4.478  1.6600 -0.0010 -0.6857
 7555SOL     OW34300   1.849   0.517  12.157 -0.1922 -0.5078  0.3525
 7555SOL    HW134301   1.801   0.434  12.159 -0.1492 -0.5396  0.0468
 7555SOL    HW234302   1.776   0.578  12.144 -0.5551 -0.5391  2.2415
 7556SOL     OW34303   3.823   0.068   3.214 -0.3820  0.4891 -1.1326
 7556SOL    HW134304   3.744   0.073   3.268 -0.9030  0.6971 -1.9164
 7556SOL    HW234305   3.862   4.717   3.232 -1.7695  0.3803  1.3563
 7557SOL     OW34306   4.164   4.375   4.817 -0.1119  0.3172 -0.0871
 7557SOL    HW134307   4.108   4.341   4.888  0.3425 -1.2466 -0.4684
 7557SOL    HW234308   4.247   4.333   4.839  0.1215  0.2250 -1.1406
 7558SOL     OW34309   3.701   0.077   6.137  0.0648  0.0648 -0.5383
 7558SOL    HW134310   3.629   0.125   6.095 -1.2470 -2.1718 -0.8489
 7558SOL    HW234311   3.676   0.092   6.228  0.0422 -2.0653 -0.2063
 7559SOL     OW34312   1.209   1.395   0.151  0.0807 -0.2396 -0.1183
 7559SOL    HW134313   1.200   1.401   0.056 -2.9326 -0.7133  0.1291
 7559SOL    HW234314   1.146   1.464   0.170  1.2471  1.4093 -2.2876
 7560SOL     OW34315   1.314   3.119   5.838 -0.0289 -0.0678  0.0450
 7560SOL    HW134316   1.290   3.102   5.929 -1.2765  1.4079 -0.0222
 7560SOL    HW234317   1.398   3.164   5.839  0.2382 -0.5316 -0.8591
 7561SOL     OW34318   3.863   2.317   5.713  0.1272  0.1512  0.1773
 7561SOL    HW134319   3.947   2.333   5.670  2.0492 -2.5021  3.0037
 7561SOL    HW234320   3.817   2.399   5.730 -0.7933 -0.0355 -1.3990
 7562SOL     OW34321   4.022   3.292  13.999  0.7307 -0.0404 -0.6159
 7562SOL    HW134322   3.940   3.273  14.045  1.0838 -3.2353 -1.3309
 7562SOL    HW234323   3.995   3.290  13.907 -0.5956 -0.7290 -0.2152
 7563SOL     OW34324   2.772   2.429   2.469  0.5123 -0.3445 -0.2905
 7563SOL    HW134325   2.769   2.379   2.551  1.2219  0.9482  0.5309
 7563SOL    HW234326   2.759   2.520   2.496  1.5060  0.7061 -3.4146
 7564SOL     OW34327   1.644   0.745   2.770  0.5572 -0.0708 -0.0779
 7564SOL    HW134328   1.604   0.787   2.694 -1.4151 -1.2358  0.2978
 7564SOL    HW234329   1.723   0.795   2.790  0.4795 -0.6660  1.7408
 7565SOL     OW34330   0.615   2.849   6.967 -0.1945  0.0399 -0.2024
 7565SOL    HW134331   0.566   2.927   6.943 -0.3564 -0.2220 -0.7185
 7565SOL    HW234332   0.642   2.873   7.055  0.3172  0.2259 -0.4081
 7566SOL     OW34333   1.910   1.394   6.770  0.4622  0.7047  0.1161
 7566SOL    HW134334   1.975   1.428   6.709  1.0378  0.6497  0.6984
 7566SOL    HW234335   1.928   1.305   6.799 -0.6935  0.2020 -0.6818
 7567SOL     OW34336   0.215   0.794   9.773  0.2624  0.4947 -0.2578
 7567SOL    HW134337   0.250   0.807   9.860 -1.0389 -0.1390  0.3650
 7567SOL    HW234338   0.244   0.703   9.762  0.6847  0.6266 -0.2287
 7568SOL     OW34339   3.629   1.400   0.030 -0.0961 -0.6703 -0.1936
 7568SOL    HW134340   3.637   1.429  17.680  1.4801  0.5422  0.3313
 7568SOL    HW234341   3.535   1.410   0.040 -0.0604 -1.2462  0.7422
 7569SOL     OW34342   2.158   0.397  12.253 -0.2059 -0.4427 -0.0524
 7569SOL    HW134343   2.129   0.434  12.170  0.7111 -0.5022 -0.4020
 7569SOL    HW234344   2.228   0.462  12.262 -1.0877  0.8183 -2.4663
 7570SOL     OW34345   3.733   0.456   4.117 -0.2561 -0.0555 -0.0870
 7570SOL    HW134346   3.795   0.493   4.055  0.2541 -0.9122 -0.0841
 7570SOL    HW234347   3.654   0.461   4.062  0.6374 -0.4840 -1.4171
 7571SOL     OW34348   0.028   2.090   9.213 -0.3063 -0.0363 -0.2237
 7571SOL    HW134349   4.724   2.079   9.300 -1.0701 -0.5887 -0.6481
 7571SOL    HW234350   4.734   2.011   9.168 -3.8011 -0.0757  2.1693
 7572SOL     OW34351   4.300   0.152  12.473  0.0614 -0.0443 -0.0158
 7572SOL    HW134352   4.295   0.082  12.539 -0.0255  1.1582  1.2447
 7572SOL    HW234353   4.237   0.214  12.508 -0.4638 -0.6692  0.1484
 7573SOL     OW34354   4.667   0.692   5.856  0.2193  0.6703 -0.6974
 7573SOL    HW134355   4.710   0.768   5.817 -1.8230  1.9035 -0.5089
 7573SOL    HW234356   4.581   0.729   5.874  0.2032 -1.0656  2.7870
 7574SOL     OW34357   0.577   2.511   2.782  0.0890 -0.0691  0.1251
 7574SOL    HW134358   0.574   2.589   2.728  0.3421  1.5346  2.4109
 7574SOL    HW234359   0.637   2.452   2.737 -0.0575 -0.2951  0.2203
 7575SOL     OW34360   2.911   0.548   7.091 -0.2657  0.3340 -0.1924
 7575SOL    HW134361   2.841   0.530   7.153 -0.6630  0.9581 -0.4565
 7575SOL    HW234362   2.873   0.518   7.008  1.4857  1.2084 -1.3053
 7576SOL     OW34363   0.481   4.311  16.831  0.3552  0.9323  0.0699
 7576SOL    HW134364   0.552   4.371  16.807  3.0517 -1.6635  1.4384
 7576SOL    HW234365   0.531   4.229  16.830  0.7670  1.1752  0.3094
 7577SOL     OW34366   2.699   0.305  10.956 -0.3447  0.2281 -0.0819
 7577SOL    HW134367   2.723   0.241  11.023  0.0873  1.9252  1.3846
 7577SOL    HW234368   2.783   0.317  10.911 -0.4197  1.9649  0.2297
 7578SOL     OW34369   3.594   4.351   1.715 -0.7518 -0.5574 -0.6501
 7578SOL    HW134370   3.583   4.281   1.651 -0.4684  1.6022 -3.0133
 7578SOL    HW234371   3.688   4.367   1.717 -0.6717 -0.9890 -0.9516
 7579SOL     OW34372   2.137   1.722   9.504  0.1480  0.5358 -0.0320
 7579SOL    HW134373   2.100   1.804   9.472  0.0617 -0.7357 -3.1436
 7579SOL    HW234374   2.089   1.693   9.582  0.1757  0.0869 -0.1808
 7580SOL     OW34375   2.981   3.372   7.018 -0.3419 -0.1182 -0.4246
 7580SOL    HW134376   2.963   3.420   6.938 -0.3437 -1.8939 -1.4955
 7580SOL    HW234377   3.062   3.415   7.046 -0.2973  1.8869 -3.7059
 7581SOL     OW34378   0.309   1.481   7.509  0.0684 -0.5077 -0.5401
 7581SOL    HW134379   0.270   1.548   7.565  2.8398 -1.4099  2.4084
 7581SOL    HW234380   0.238   1.442   7.457 -1.2087  1.0930 -0.0054
 7582SOL     OW34381   0.859   1.023   9.743 -0.2061  0.6723  0.1173
 7582SOL    HW134382   0.775   1.063   9.768 -0.6563  0.3713 -0.8926
 7582SOL    HW234383   0.928   1.065   9.793  0.4899  0.0636 -0.3414
 7583SOL     OW34384   4.407   2.705   4.554 -0.8017  0.0293 -0.1655
 7583SOL    HW134385   4.342   2.772   4.531 -0.2061  1.0575  1.1508
 7583SOL    HW234386   4.407   2.646   4.479 -0.3188 -0.1939  0.0134
 7584SOL     OW34387   1.308   3.869   2.424 -0.3816  0.7011  0.2388
 7584SOL    HW134388   1.309   3.894   2.517  1.4083  1.0790  0.1168
 7584SOL    HW234389   1.395   3.832   2.410 -0.4199  2.4120 -4.4569
 7585SOL     OW34390   1.501   3.314   3.155 -0.3021  0.1588  0.1791
 7585SOL    HW134391   1.474   3.302   3.246 -1.8511  1.7401 -0.0774
 7585SOL    HW234392   1.530   3.405   3.157  2.7943 -0.8530  1.4397
 7586SOL     OW34393   0.269   2.579  13.474  0.3389 -0.0181 -0.2661
 7586SOL    HW134394   0.182   2.603  13.442  0.6218  1.6208  0.2305
 7586SOL    HW234395   0.316   2.660  13.458  1.1887 -0.4559  0.0173
 7587SOL     OW34396   3.713   1.895   4.595 -0.6898  0.3361 -0.2800
 7587SOL    HW134397   3.779   1.880   4.529 -0.1401  1.8524 -0.0885
 7587SOL    HW234398   3.654   1.820   4.590 -2.3990  1.6849 -0.4341
 7588SOL     OW34399   0.211   0.123   9.764  0.0989 -0.0655  0.2124
 7588SOL    HW134400   0.199   0.198   9.824 -1.0871 -0.4857  0.5078
 7588SOL    HW234401   0.268   0.158   9.696 -0.8850  1.7621  0.3136
 7589SOL     OW34402   2.792   4.126   2.039 -0.5246  0.2844  0.4878
 7589SOL    HW134403   2.856   4.062   2.008  0.0729  0.8702  0.5257
 7589SOL    HW234404   2.760   4.161   1.956  0.6619  2.0590  0.8022
 7590SOL     OW34405   3.776   2.014   1.267 -0.0786 -0.4118 -0.3448
 7590SOL    HW134406   3.821   1.930   1.279 -1.0123 -0.9655 -0.7497
 7590SOL    HW234407   3.742   2.026   1.356 -2.7571  0.1145 -1.4509
 7591SOL     OW34408   3.572   3.255   6.581  0.2196 -0.1538  0.2723
 7591SOL    HW134409   3.661   3.229   6.555 -1.7761 -4.9042 -1.8708
 7591SOL    HW234410   3.545   3.204   6.657  0.4277  1.5172  1.4612
 7592SOL     OW34411   1.978   3.838   7.247 -0.4166 -0.4944  0.5774
 7592SOL    HW134412   2.060   3.788   7.252 -0.6299 -0.7573  1.6379
 7592SOL    HW234413   1.962   3.862   7.338  1.7757  2.2449  0.2233
 7593SOL     OW34414   0.453   1.915   5.658 -0.2037 -0.9563  0.2103
 7593SOL    HW134415   0.492   1.906   5.571 -1.1373  1.0886 -0.4158
 7593SOL    HW234416   0.425   1.829   5.691  0.1910 -1.4518 -0.7379
 7594SOL     OW34417   3.210   3.122   8.205 -0.1817 -0.3895 -0.0929
 7594SOL    HW134418   3.164   3.041   8.185 -1.9290  0.3872  0.7710
 7594SOL    HW234419   3.218   3.158   8.117  3.1162 -0.8567  0.0123
 7595SOL     OW34420   0.197   2.514   9.635  0.1563  0.1280  0.4971
 7595SOL    HW134421   0.272   2.545   9.583 -1.9786  2.3846 -1.2940
 7595SOL    HW234422   0.133   2.581   9.611  0.0285 -0.4540 -0.7748
 7596SOL     OW34423   0.963   1.574   5.691 -0.5396 -0.2390  0.2734
 7596SOL    HW134424   1.029   1.569   5.760 -0.3599 -1.0260  0.0528
 7596SOL    HW234425   1.006   1.629   5.626 -1.2189 -0.4976 -0.4017
 7597SOL     OW34426   3.744   1.540   7.583  0.9002 -0.1024  0.0374
 7597SOL    HW134427   3.751   1.465   7.642  1.3065 -0.2161 -0.1515
 7597SOL    HW234428   3.654   1.572   7.594  0.6259 -0.4180 -1.2437
 7598SOL     OW34429   2.260   2.266   6.326 -0.1282 -0.0587 -0.2605
 7598SOL    HW134430   2.194   2.259   6.395 -1.8330 -1.0721 -1.9813
 7598SOL    HW234431   2.235   2.188   6.277 -1.5515 -0.6347  1.4078
 7599SOL     OW34432   3.796   4.692  15.917 -0.2357 -0.0189  0.0508
 7599SOL    HW134433   3.829   4.697  15.827  1.1400  1.8623  0.6639
 7599SOL    HW234434   3.714   0.001  15.896  1.9703  3.4160 -1.4447
 7600SOL     OW34435   0.020   0.417   6.347  0.5678 -0.0549  0.1720
 7600SOL    HW134436   0.005   0.324   6.362  1.9985 -0.1635  0.8951
 7600SOL    HW234437   4.695   0.455   6.412 -0.0132 -1.2511  0.3296
 7601SOL     OW34438   2.027   0.788   1.723 -0.4764  0.0483  0.2817
 7601SOL    HW134439   2.033   0.709   1.778 -1.5239  0.9501  1.6752
 7601SOL    HW234440   1.933   0.800   1.710 -0.8748 -0.3126  2.7223
 7602SOL     OW34441   2.041   4.056   5.164 -0.2546  0.1305  0.0777
 7602SOL    HW134442   1.949   4.041   5.142  0.2319 -0.1792 -1.7081
 7602SOL    HW234443   2.035   4.152   5.167 -1.5114 -0.0500  3.1426
 7603SOL     OW34444   0.292   4.462   6.317  0.5107 -0.6042  0.5593
 7603SOL    HW134445   0.285   4.473   6.222  0.3227  0.2593  0.6720
 7603SOL    HW234446   0.331   4.547   6.338  2.7302 -1.0041 -1.9813
 7604SOL     OW34447   4.224   4.708  12.048 -0.7221 -0.1054  0.1575
 7604SOL    HW134448   4.269   4.723  11.965 -1.0511 -2.3769 -0.4413
 7604SOL    HW234449   4.282   0.018  12.109  0.9618  2.1521 -3.1264
 7605SOL     OW34450   0.954   2.542   6.458 -0.0652 -0.3203  0.1497
 7605SOL    HW134451   0.928   2.620   6.410 -1.1797  0.4099  1.9359
 7605SOL    HW234452   0.877   2.546   6.515  1.0083 -1.3387  1.6997
 7606SOL     OW34453   0.340   0.398   1.820  0.2588 -0.2764 -0.2731
 7606SOL    HW134454   0.382   0.469   1.868 -0.6118  0.1881 -0.1988
 7606SOL    HW234455   0.409   0.334   1.801  2.1058  0.7218  3.1046
 7607SOL     OW34456   0.083   3.764   5.639 -0.1823 -0.3998 -0.1804
 7607SOL    HW134457   4.730   3.800   5.645 -1.1234 -2.2823 -2.6189
 7607SOL    HW234458   0.125   3.826   5.699 -1.0080 -0.4143  0.4188
 7608SOL     OW34459   4.519   0.458   4.499  0.4641 -0.5764 -0.2220
 7608SOL    HW134460   4.461   0.533   4.513  2.4465  0.7877  0.7276
 7608SOL    HW234461   4.469   0.422   4.426  0.5330 -1.1991  0.0380
 7609SOL     OW34462   0.754   0.173   3.637 -0.0786 -0.3418  0.0767
 7609SOL    HW134463   0.800   0.221   3.706 -0.4994  1.1573 -0.6895
 7609SOL    HW234464   0.819   0.103   3.629  1.2200  0.7400  1.4231
 7610SOL     OW34465   2.190   2.546   6.403 -0.3743  0.7601  0.6076
 7610SOL    HW134466   2.261   2.598   6.439 -1.3734  3.1172 -0.8362
 7610SOL    HW234467   2.220   2.455   6.403  0.6092  1.0879  0.0206
 7611SOL     OW34468   1.851   4.117  16.294  0.4581  0.3089 -0.2001
 7611SOL    HW134469   1.855   4.106  16.389  0.1709  2.0936  0.0169
 7611SOL    HW234470   1.788   4.050  16.268  0.8172  1.2530 -3.5076
 7612SOL     OW34471   3.601   1.989   8.352  0.5629  0.5154 -0.7780
 7612SOL    HW134472   3.645   2.045   8.415 -0.0208  0.0269  0.0644
 7612SOL    HW234473   3.644   1.909   8.381 -1.5503 -0.7735 -1.1557
 7613SOL     OW34474   0.739   0.316   6.514 -0.6652 -0.1220  0.2032
 7613SOL    HW134475   0.725   0.406   6.485 -0.6682 -0.5168 -1.0024
 7613SOL    HW234476   0.834   0.312   6.528 -0.7169 -2.8150 -0.1047
 7614SOL     OW34477   2.262   1.923  15.064  0.0008 -0.1247  0.6676
 7614SOL    HW134478   2.249   1.839  15.021  0.1450  0.0148  0.3535
 7614SOL    HW234479   2.192   1.972  15.022  1.1791 -0.3938 -1.6271
 7615SOL     OW34480   2.661   3.307   5.558  0.0933  0.3383  0.1690
 7615SOL    HW134481   2.612   3.263   5.627 -0.7367  1.9266  0.6014
 7615SOL    HW234482   2.750   3.286   5.584 -0.3096 -1.9871 -0.3160
 7616SOL     OW34483   1.816   0.918   8.470 -0.0281  0.0659  0.7211
 7616SOL    HW134484   1.775   0.889   8.388  2.7807  0.2820 -0.7847
 7616SOL    HW234485   1.836   0.831   8.504  0.5554 -0.1305 -0.0994
 7617SOL     OW34486   4.501   4.683   0.187 -0.6511  0.1319 -0.2732
 7617SOL    HW134487   4.467   4.712   0.102 -1.7285 -0.8195 -0.1755
 7617SOL    HW234488   4.564   0.012   0.217  0.7348  0.2547 -3.4438
 7618SOL     OW34489   3.877   4.132   8.877  0.3752 -0.2012  0.0054
 7618SOL    HW134490   3.925   4.214   8.869  0.4237 -0.3846 -1.6519
 7618SOL    HW234491   3.801   4.159   8.824 -1.2361 -0.2798  2.2711
 7619SOL     OW34492   2.379   1.260   7.390  0.3979 -0.3078  0.3652
 7619SOL    HW134493   2.448   1.198   7.367 -0.2456  0.1237 -2.8346
 7619SOL    HW234494   2.339   1.228   7.470  0.3420  0.5009  0.6668
 7620SOL     OW34495   2.648   0.428   5.689 -0.0959  0.0149  0.4402
 7620SOL    HW134496   2.733   0.437   5.646 -0.0758  0.2025  0.5194
 7620SOL    HW234497   2.623   0.519   5.706  0.7046  0.1907  0.6581
 7621SOL     OW34498   3.721   2.428   2.630  0.0549  0.5574 -0.5103
 7621SOL    HW134499   3.771   2.443   2.550 -0.3367 -0.1353 -0.8873
 7621SOL    HW234500   3.759   2.490   2.692  0.5497  0.5453 -0.8033
 7622SOL     OW34501   4.194   0.422   2.623 -0.1986 -0.1149 -0.5264
 7622SOL    HW134502   4.268   0.483   2.620  1.2662 -1.8227  0.7131
 7622SOL    HW234503   4.228   0.354   2.681  2.6945  2.3187  0.6528
 7623SOL     OW34504   4.482   4.137  17.204  0.2119 -0.2810  0.0016
 7623SOL    HW134505   4.398   4.179  17.190 -0.1524 -0.6277  1.1742
 7623SOL    HW234506   4.454   4.049  17.178 -0.3508 -0.6072  1.7073
 7624SOL     OW34507   1.466   1.131   5.485  0.2025 -0.8336  0.6588
 7624SOL    HW134508   1.447   1.199   5.550  0.8234  1.7833 -1.8449
 7624SOL    HW234509   1.378   1.107   5.455 -0.2272 -3.2763  3.9685
 7625SOL     OW34510   4.261   3.704  15.235 -0.6698  0.5188 -0.5011
 7625SOL    HW134511   4.258   3.786  15.186 -0.8362 -0.3075 -1.8655
 7625SOL    HW234512   4.176   3.664  15.219 -0.6494  0.6687 -0.9907
 7626SOL     OW34513   1.340   3.329   0.212 -0.2397  0.3798 -0.6628
 7626SOL    HW134514   1.265   3.289   0.168 -0.2654 -0.4582  0.1541
 7626SOL    HW234515   1.379   3.258   0.262  0.5547  1.1500 -0.1854
 7627SOL     OW34516   2.051   2.755  10.274  0.4438 -0.0111  0.0006
 7627SOL    HW134517   2.114   2.800  10.330  0.8071  0.7082 -0.9762
 7627SOL    HW234518   1.994   2.721  10.342  0.8474 -1.6928 -0.5020
 7628SOL     OW34519   3.441   3.073   5.992  0.2917  0.0476 -0.4615
 7628SOL    HW134520   3.400   3.082   5.906 -0.9466  0.0118  0.1231
 7628SOL    HW234521   3.412   3.154   6.033  0.8984  0.1623 -0.2523
 7629SOL     OW34522   1.587   0.754   7.599  0.1393  0.0156  0.6487
 7629SOL    HW134523   1.521   0.771   7.532  0.7674  0.8519  0.2313
 7629SOL    HW234524   1.619   0.670   7.567  1.1806  0.1872  1.2424
 7630SOL     OW34525   3.701   4.701  11.005 -0.0197 -0.5366  0.2488
 7630SOL    HW134526   3.626   0.024  10.990  0.0529  0.1533  2.5503
 7630SOL    HW234527   3.679   4.635  10.939 -2.7608 -2.1779  2.7930
 7631SOL     OW34528   2.107   4.054   1.713 -0.4199  0.5331  0.7758
 7631SOL    HW134529   2.176   3.988   1.704 -0.0713  1.1981 -1.2990
 7631SOL    HW234530   2.130   4.084   1.801  1.2790  1.0252  0.1560
 7632SOL     OW34531   4.341   3.042   0.160  0.3984  0.5045 -0.5245
 7632SOL    HW134532   4.287   3.014   0.234 -1.2116  0.9540 -1.5238
 7632SOL    HW234533   4.338   2.959   0.112 -1.7125  0.1654  0.1760
 7633SOL     OW34534   4.513   1.183   4.429  0.9487 -0.3824 -0.3891
 7633SOL    HW134535   4.564   1.115   4.474 -1.0754 -1.7922 -0.2127
 7633SOL    HW234536   4.541   1.266   4.467  0.3453 -0.9936  1.3730
 7634SOL     OW34537   1.902   3.056  14.863 -0.1764  0.6104 -0.4120
 7634SOL    HW134538   1.885   3.004  14.941  0.0867 -0.5809 -1.1506
 7634SOL    HW234539   1.948   3.131  14.900  1.8977 -1.3811  1.0228
 7635SOL     OW34540   2.244   1.189   4.524  0.1341  0.4764  0.0722
 7635SOL    HW134541   2.331   1.216   4.495  0.3329  0.5125  0.6867
 7635SOL    HW234542   2.242   1.097   4.501 -0.5908  0.7593 -0.9644
 7636SOL     OW34543   2.936   0.912   7.917 -0.5075 -0.0468 -0.2430
 7636SOL    HW134544   2.945   0.910   7.822  0.9671  0.1220 -0.1134
 7636SOL    HW234545   2.912   1.003   7.938  1.5142  0.6765 -0.9607
 7637SOL     OW34546   1.839   1.975   3.498  0.1836  0.3621 -0.2668
 7637SOL    HW134547   1.772   1.907   3.499 -0.4443  0.9363 -2.5914
 7637SOL    HW234548   1.895   1.930   3.435  0.5575  1.3570 -0.6502
 7638SOL     OW34549   2.450   3.209   4.201 -0.2122 -0.3535 -0.0089
 7638SOL    HW134550   2.495   3.134   4.161 -0.0572 -0.3644  0.1825
 7638SOL    HW234551   2.364   3.196   4.161 -0.7907 -0.3198  1.2154
 7639SOL     OW34552   4.499   1.653  10.469 -0.2980 -0.1650  0.2427
 7639SOL    HW134553   4.501   1.715  10.396  1.0077 -0.4931  0.0047
 7639SOL    HW234554   4.451   1.579  10.431  2.5147 -0.8369 -2.0206
 7640SOL     OW34555   1.026   3.390  12.810  0.0484 -0.1371  0.2006
 7640SOL    HW134556   1.067   3.313  12.851 -1.4427 -0.1600  1.6465
 7640SOL    HW234557   1.103   3.413  12.759  1.2538 -2.7623  0.7935
 7641SOL     OW34558   0.153   4.185   8.059  0.0621  0.5122 -0.2243
 7641SOL    HW134559   0.222   4.186   8.124 -1.2075  1.9293  1.0980
 7641SOL    HW234560   0.206   4.154   7.986 -1.0109 -1.9224 -0.0034
 7642SOL     OW34561   0.501   3.188   2.271  0.3096  0.3118  0.5335
 7642SOL    HW134562   0.526   3.225   2.186  1.0388 -4.1763 -1.1852
 7642SOL    HW234563   0.406   3.197   2.275  0.4211  0.1770  3.4472
 7643SOL     OW34564   4.681   3.537   3.889 -0.4685  0.4680 -0.0390
 7643SOL    HW134565   4.617   3.499   3.950 -1.5829  0.6227 -1.1045
 7643SOL    HW234566   4.626   3.574   3.821  0.5049  0.8980 -0.5810
 7644SOL     OW34567   1.937   2.692  15.649  0.2596  0.0699  0.3462
 7644SOL    HW134568   1.906   2.716  15.736 -0.9847  1.0040 -0.3515
 7644SOL    HW234569   2.014   2.644  15.679  0.7658  0.2376 -0.6741
 7645SOL     OW34570   0.264   4.515  16.838 -0.3308 -0.6871  0.5573
 7645SOL    HW134571   0.329   4.445  16.847 -0.8634 -1.0244  1.7637
 7645SOL    HW234572   0.324   4.584  16.810 -0.4272 -1.5241 -1.7536
 7646SOL     OW34573   1.021   4.152   1.559 -0.3769 -0.2975 -0.2787
 7646SOL    HW134574   1.002   4.077   1.615 -2.2460  1.0532  0.9016
 7646SOL    HW234575   0.962   4.214   1.602 -0.1668 -0.1521 -0.2014
 7647SOL     OW34576   1.503   3.321   8.188  0.2925 -0.3118  0.3704
 7647SOL    HW134577   1.579   3.283   8.232  0.8482 -0.2630 -0.5663
 7647SOL    HW234578   1.429   3.291   8.241  0.4388  0.7701  1.1898
 7648SOL     OW34579   2.640   1.250   5.117 -0.6423 -0.3311 -0.4281
 7648SOL    HW134580   2.695   1.175   5.092 -0.3228 -0.5975  1.1231
 7648SOL    HW234581   2.613   1.289   5.033  0.4898  2.5491  0.5529
 7649SOL     OW34582   4.197   4.242  14.961  0.2084 -0.5555 -0.4356
 7649SOL    HW134583   4.135   4.176  14.991  0.5630  0.0170  1.5467
 7649SOL    HW234584   4.191   4.228  14.866 -1.0865 -0.6959 -0.3277
 7650SOL     OW34585   1.754   0.115   8.806 -0.3644 -0.0371  0.1406
 7650SOL    HW134586   1.695   0.118   8.881 -0.8998  0.0570 -0.2811
 7650SOL    HW234587   1.752   0.206   8.777  1.6672 -0.1491 -0.4064
 7651SOL     OW34588   4.520   0.436  16.133  0.1842 -0.5986  0.2974
 7651SOL    HW134589   4.518   0.504  16.066 -0.4262 -0.7649  0.1513
 7651SOL    HW234590   4.436   0.463  16.170 -0.6181 -1.8534 -0.6424
 7652SOL     OW34591   2.446   3.533   1.828  0.0654  0.3379 -0.6685
 7652SOL    HW134592   2.396   3.615   1.835 -2.2239 -1.0153 -1.2648
 7652SOL    HW234593   2.388   3.474   1.876  0.4435  1.6580  1.3871
 7653SOL     OW34594   3.283   4.381  11.849  0.0654 -0.2516  0.1883
 7653SOL    HW134595   3.349   4.407  11.786  2.1731 -1.2550  1.9760
 7653SOL    HW234596   3.325   4.315  11.905 -0.4071 -0.0708  0.7520
 7654SOL     OW34597   0.907   1.480  17.066 -0.0890 -0.4734 -0.1085
 7654SOL    HW134598   0.986   1.532  17.054 -0.2440  0.1409  1.5573
 7654SOL    HW234599   0.944   1.399  17.100  0.0213  0.9305  3.0673
 7655SOL     OW34600   0.111   2.135   7.840 -0.1777  0.7877 -0.0999
 7655SOL    HW134601   0.071   2.061   7.887  0.6789 -0.6256 -1.6045
 7655SOL    HW234602   0.124   2.107   7.750  0.8711  0.9124  0.0131
 7656SOL     OW34603   0.344   1.809   3.672  0.0951 -0.2903 -0.0479
 7656SOL    HW134604   0.399   1.830   3.747 -0.7684  0.1190  0.4741
 7656SOL    HW234605   0.397   1.765   3.606  0.9075 -1.1334  1.1685
 7657SOL     OW34606   1.765   0.742   1.947 -0.3438 -0.1096  0.1132
 7657SOL    HW134607   1.694   0.733   1.885  1.0536  1.7157 -1.7467
 7657SOL    HW234608   1.810   0.658   1.935  2.4719  1.3128  0.5646
 7658SOL     OW34609   4.038   2.434   6.255  0.0096 -0.0273 -0.1349
 7658SOL    HW134610   4.012   2.486   6.179  0.6977  2.2048  1.1576
 7658SOL    HW234611   4.126   2.469   6.266  0.1679 -0.6681  0.7167
 7659SOL     OW34612   0.281   4.278   7.598  0.0363 -0.3427 -0.1130
 7659SOL    HW134613   0.309   4.197   7.555 -1.1654 -1.8560  1.9342
 7659SOL    HW234614   0.187   4.291   7.586  0.6490  2.6193 -1.7407
 7660SOL     OW34615   4.539   3.223   1.216  0.3825 -0.2349  0.7931
 7660SOL    HW134616   4.626   3.262   1.207  0.6327 -0.9751 -0.0625
 7660SOL    HW234617   4.514   3.215   1.308  0.7134  0.2686  0.9242
 7661SOL     OW34618   0.942   3.107   3.832  0.1188 -0.5542 -0.7320
 7661SOL    HW134619   0.869   3.136   3.886  0.0625 -1.1467 -0.4916
 7661SOL    HW234620   0.887   3.042   3.787  0.4038 -0.7976 -0.7269
 7662SOL     OW34621   1.540   3.352  12.298  0.2564  0.2502 -0.2992
 7662SOL    HW134622   1.463   3.300  12.277  0.0066  0.5042 -0.0136
 7662SOL    HW234623   1.612   3.298  12.266  1.1795  1.7562 -0.7538
 7663SOL     OW34624   2.317   3.678  13.761 -0.2139 -0.2588  0.4426
 7663SOL    HW134625   2.232   3.698  13.721 -0.4311  1.4431  1.7529
 7663SOL    HW234626   2.361   3.763  13.767  1.0558 -0.7417 -2.0707
 7664SOL     OW34627   3.461   0.375  13.378  0.3068 -0.0032  0.1904
 7664SOL    HW134628   3.418   0.351  13.296  0.1297  1.4482 -0.1377
 7664SOL    HW234629   3.393   0.431  13.415  1.3225  0.4736  1.3526
 7665SOL     OW34630   4.034   2.905   2.394  0.0789  0.1736  0.1337
 7665SOL    HW134631   4.021   2.969   2.325  0.5141 -0.4312 -0.5075
 7665SOL    HW234632   3.949   2.871   2.423  0.6545 -0.0703  1.5619
 7666SOL     OW34633   0.749   0.587   5.570 -0.1163  0.4189  0.6535
 7666SOL    HW134634   0.796   0.546   5.497 -2.2933  1.2001 -1.1917
 7666SOL    HW234635   0.804   0.666   5.580  2.2515 -1.3562  1.6456
 7667SOL     OW34636   3.198   4.662  10.271  0.0879  0.0927  0.3041
 7667SOL    HW134637   3.162   4.585  10.315  0.1692  0.3537  0.8228
 7667SOL    HW234638   3.241   4.712  10.341  1.8213 -1.0212  0.0516
 7668SOL     OW34639   1.913   3.496   6.561 -0.0552 -0.3589  0.1440
 7668SOL    HW134640   1.971   3.456   6.625 -0.0878  1.5526  1.3598
 7668SOL    HW234641   1.988   3.530   6.513 -1.3239  0.4083 -1.3225
 7669SOL     OW34642   2.647   2.469   2.851 -0.5032 -0.3881 -0.1284
 7669SOL    HW134643   2.691   2.553   2.869  2.4374 -1.7241 -1.2033
 7669SOL    HW234644   2.557   2.492   2.875 -0.7510  0.7049 -2.0749
 7670SOL     OW34645   2.218   0.939  17.104 -0.0605  0.2640 -0.1294
 7670SOL    HW134646   2.251   0.853  17.131  2.3201  0.6529 -1.7269
 7670SOL    HW234647   2.269   0.989  17.168 -2.4233  1.4932  0.7607
 7671SOL     OW34648   1.378   4.350   2.647  0.2954  0.5891 -0.2548
 7671SOL    HW134649   1.428   4.331   2.568 -0.4707 -0.0698 -0.5779
 7671SOL    HW234650   1.382   4.262   2.685 -2.3807  1.5369  2.2581
 7672SOL     OW34651   3.186   0.154  15.125 -0.2848 -0.3415  0.5155
 7672SOL    HW134652   3.262   0.192  15.080 -0.9386  0.2877 -0.0748
 7672SOL    HW234653   3.215   0.177  15.214  1.9486  0.1983 -0.3349
 7673SOL     OW34654   1.936   0.045   8.131  0.2827  0.6658 -0.5785
 7673SOL    HW134655   2.010   0.025   8.073 -0.0072  0.6244 -0.9310
 7673SOL    HW234656   1.953   4.712   8.196 -2.2639  1.3436  0.8056
 7674SOL     OW34657   3.516   2.015   7.074  0.6535 -0.0766 -0.3200
 7674SOL    HW134658   3.559   1.971   7.148 -0.6135 -1.1127 -0.1849
 7674SOL    HW234659   3.424   2.018   7.102  1.3691  0.7885  1.9233
 7675SOL     OW34660   4.047   0.591   1.100 -0.1781 -0.0717  0.2156
 7675SOL    HW134661   4.056   0.619   1.191 -1.5972  1.7646 -0.2106
 7675SOL    HW234662   3.960   0.551   1.099 -0.5792  0.8341 -0.8880
 7676SOL     OW34663   0.930   1.767  11.246 -0.6284 -0.3436 -0.6260
 7676SOL    HW134664   0.997   1.812  11.298 -1.2834 -0.0935  0.0112
 7676SOL    HW234665   0.897   1.846  11.203 -0.1967  0.1006 -0.1498
 7677SOL     OW34666   1.196   1.774   2.196  0.0275  0.0833  0.0752
 7677SOL    HW134667   1.240   1.694   2.225  1.6036 -0.1822 -3.0531
 7677SOL    HW234668   1.149   1.742   2.119 -1.6673  3.3451 -0.2258
 7678SOL     OW34669   2.512   3.988   7.466 -0.1389  0.2207  0.4169
 7678SOL    HW134670   2.554   3.903   7.453 -1.3815 -0.3112 -0.1151
 7678SOL    HW234671   2.544   4.049   7.400  1.6405 -1.5653 -0.3732
 7679SOL     OW34672   0.770   2.248   9.266 -0.2240  0.4710 -0.3287
 7679SOL    HW134673   0.717   2.328   9.258 -0.7523  0.2378  0.8691
 7679SOL    HW234674   0.816   2.275   9.346 -1.1104 -0.0215  0.3367
 7680SOL     OW34675   4.231   4.595   2.601 -0.4175  0.4244 -0.8808
 7680SOL    HW134676   4.150   4.576   2.554 -1.2346  0.4117  0.5190
 7680SOL    HW234677   4.302   4.600   2.538 -0.3005 -1.2904 -0.8954
 7681SOL     OW34678   1.680   2.643   4.593 -0.0561  0.6301 -0.0891
 7681SOL    HW134679   1.627   2.678   4.665  1.1426  0.8228  0.6886
 7681SOL    HW234680   1.664   2.549   4.594 -1.9541  0.9690  2.9675
 7682SOL     OW34681   3.207   4.296  12.235 -0.4932 -0.7361 -0.0446
 7682SOL    HW134682   3.175   4.301  12.145 -0.1159  0.2355 -0.1341
 7682SOL    HW234683   3.245   4.208  12.232  1.1198 -0.0830  0.9402
 7683SOL     OW34684   4.345   0.564  11.886 -0.3490 -0.4231 -0.0342
 7683SOL    HW134685   4.349   0.475  11.850 -0.0326  0.8184 -3.0580
 7683SOL    HW234686   4.398   0.554  11.965  0.2663 -1.5177 -0.6028
 7684SOL     OW34687   3.599   1.571   5.425 -0.0093  0.0407  0.0059
 7684SOL    HW134688   3.563   1.589   5.339 -2.0141  0.9573  1.0334
 7684SOL    HW234689   3.678   1.623   5.415 -1.2192  1.7155 -0.8879
 7685SOL     OW34690   4.503   3.897   8.370 -0.5797  0.3788  0.2137
 7685SOL    HW134691   4.564   3.970   8.363 -1.8912  1.4770  0.2798
 7685SOL    HW234692   4.420   3.944   8.361 -1.0900 -0.3941  0.8442
 7686SOL     OW34693   4.436   3.300   0.131 -0.5852  0.0298 -0.1851
 7686SOL    HW134694   4.424   3.205   0.128  1.7098 -0.2566  0.3373
 7686SOL    HW234695   4.514   3.322   0.181 -1.0636  1.6495 -0.1575
 7687SOL     OW34696   3.283   0.142   5.322  0.2389  0.7437  0.1451
 7687SOL    HW134697   3.377   0.127   5.336  0.1800  0.7650  0.5739
 7687SOL    HW234698   3.263   0.131   5.415  1.7939  1.1526  0.5255
 7688SOL     OW34699   4.109   3.104  17.267 -0.6159  0.0028 -0.6758
 7688SOL    HW134700   4.021   3.070  17.282 -0.2125 -0.7347 -0.0037
 7688SOL    HW234701   4.165   3.026  17.269  0.6467  0.9154 -0.5294
 7689SOL     OW34702   0.946   0.724  14.877  0.1587  0.3224 -0.0909
 7689SOL    HW134703   0.945   0.757  14.967  3.4985  0.7867 -0.2257
 7689SOL    HW234704   1.030   0.759  14.850  0.5633  0.8273  1.7918
 7690SOL     OW34705   4.582   0.328   0.085 -0.0154  0.7734  0.4421
 7690SOL    HW134706   4.639   0.268   0.132  0.0590 -0.8055 -1.6283
 7690SOL    HW234707   4.504   0.274   0.068  1.7984 -1.7668  0.3008
 7691SOL     OW34708   1.482   1.589   8.413  0.1421  0.8014  0.5187
 7691SOL    HW134709   1.532   1.640   8.477 -2.6235  1.7190  1.9663
 7691SOL    HW234710   1.557   1.560   8.361 -0.2120 -0.8291  0.9225
 7692SOL     OW34711   0.286   1.651  17.696  0.5385 -0.3894  0.2635
 7692SOL    HW134712   0.262   1.574  17.643  2.7270 -1.6779  1.1383
 7692SOL    HW234713   0.210   1.658   0.013 -1.0325 -1.0929 -1.7121
 7693SOL     OW34714   1.081   2.329   8.836  0.2612  0.1646  0.2094
 7693SOL    HW134715   1.029   2.399   8.795 -2.7534 -2.2871 -0.1267
 7693SOL    HW234716   1.035   2.251   8.806  1.0406  0.1803 -0.9934
 7694SOL     OW34717   4.002   2.579   3.654  0.4977 -0.2286  0.0344
 7694SOL    HW134718   3.999   2.646   3.722  0.6516 -1.1551  0.9638
 7694SOL    HW234719   4.038   2.509   3.709 -0.7347 -2.0608 -1.4932
 7695SOL     OW34720   2.508   2.290   0.545  0.6689 -0.5971  0.4961
 7695SOL    HW134721   2.504   2.254   0.456  1.7804  0.1426  0.1441
 7695SOL    HW234722   2.595   2.326   0.561  0.0148 -0.0767  2.8312
 7696SOL     OW34723   0.731   4.482  16.850 -0.1824 -0.0539  0.5992
 7696SOL    HW134724   0.754   4.400  16.894  0.1673 -1.1213 -1.5587
 7696SOL    HW234725   0.786   4.539  16.903  3.2943 -1.3650 -1.5685
 7697SOL     OW34726   2.435   4.659   2.624 -0.4279 -1.2423  0.2467
 7697SOL    HW134727   2.455   0.003   2.674 -1.3977  0.0537 -1.4268
 7697SOL    HW234728   2.350   4.632   2.658 -1.1521  0.7040  0.0083
 7698SOL     OW34729   4.032   3.394   8.431 -0.0325  0.2319 -0.1282
 7698SOL    HW134730   4.030   3.409   8.336  0.1706 -2.4508 -0.5537
 7698SOL    HW234731   3.958   3.340   8.456 -1.0979  1.4659 -0.5959
 7699SOL     OW34732   0.384   1.280   4.250  0.5470 -0.1823  0.1235
 7699SOL    HW134733   0.450   1.260   4.184 -2.5551  0.8581 -3.2778
 7699SOL    HW234734   0.434   1.265   4.330  0.1579 -0.6699  0.2791
 7700SOL     OW34735   4.686   2.359   2.504 -0.0045  0.2757  0.4318
 7700SOL    HW134736   4.659   2.310   2.582  0.4273 -2.1450 -0.9295
 7700SOL    HW234737   0.045   2.354   2.520  0.0978 -1.5058 -0.6639
 7701SOL     OW34738   4.387   0.065   4.337  0.2946 -0.2661  0.0168
 7701SOL    HW134739   4.350   0.040   4.422 -1.6981  1.1348 -0.4285
 7701SOL    HW234740   4.476   0.031   4.337 -0.2878 -1.8070 -1.2933
 7702SOL     OW34741   2.027   1.015   7.610 -0.0129 -0.9525  0.0923
 7702SOL    HW134742   2.010   0.922   7.597  0.1400 -1.0904  0.8803
 7702SOL    HW234743   1.942   1.053   7.589  0.5436  0.8377  1.1354
 7703SOL     OW34744   0.301   1.814   7.403  0.1902 -0.1359  0.6350
 7703SOL    HW134745   0.387   1.846   7.429 -0.3849  2.3334 -0.4883
 7703SOL    HW234746   0.303   1.816   7.307 -0.6815  0.2424  0.6153
 7704SOL     OW34747   0.162   4.425   9.293 -0.4024 -0.0840 -0.1499
 7704SOL    HW134748   0.144   4.347   9.346 -2.1134  1.1239  1.0490
 7704SOL    HW234749   0.164   4.387   9.205 -0.4039 -0.3833 -0.0219
 7705SOL     OW34750   4.329   0.135   9.030 -0.4994 -0.5605 -0.3466
 7705SOL    HW134751   4.417   0.155   9.063 -0.5286 -0.8763 -0.0794
 7705SOL    HW234752   4.297   0.087   9.107 -1.4318 -0.0737 -0.4241
 7706SOL     OW34753   2.827   1.258  15.977  0.7804  0.6640 -0.6059
 7706SOL    HW134754   2.767   1.265  15.903  0.4156  0.0713 -0.3670
 7706SOL    HW234755   2.879   1.182  15.951  1.9887  0.7256  1.6273
 7707SOL     OW34756   2.700   2.671   4.842 -0.0071  0.1606 -0.3465
 7707SOL    HW134757   2.679   2.764   4.854 -2.1781 -0.2132 -1.2980
 7707SOL    HW234758   2.623   2.641   4.794 -0.6868  0.0178  0.8380
 7708SOL     OW34759   3.636   3.750   3.546 -0.0370  0.5916  0.3147
 7708SOL    HW134760   3.712   3.692   3.554 -0.4478  0.1002  0.6794
 7708SOL    HW234761   3.682   3.821   3.503  2.3906 -0.0514  1.8654
 7709SOL     OW34762   2.317   2.823   0.625 -0.4837  0.6626  0.2126
 7709SOL    HW134763   2.291   2.905   0.667 -2.4807 -0.8798  1.9488
 7709SOL    HW234764   2.337   2.859   0.539  1.2652 -2.0152 -0.4918
 7710SOL     OW34765   3.519   0.365  12.712 -0.0411  0.3851  0.3795
 7710SOL    HW134766   3.596   0.310  12.696  0.6426  0.8083  2.2055
 7710SOL    HW234767   3.463   0.339  12.638 -1.1014  3.0856  0.2233
 7711SOL     OW34768   0.783   2.833  10.830  0.0197 -0.6629  0.5232
 7711SOL    HW134769   0.845   2.770  10.866 -0.2827  0.1810  2.5538
 7711SOL    HW234770   0.842   2.898  10.793 -0.9250 -1.3158 -2.1152
 7712SOL     OW34771   3.891   4.661   0.109  0.5324  0.4313  0.2797
 7712SOL    HW134772   3.888   4.567   0.129 -1.4483  0.4307 -0.0591
 7712SOL    HW234773   3.968   4.667   0.053 -1.3337 -0.8251 -2.3965
 7713SOL     OW34774   0.508   1.749   8.330 -0.5903 -0.1666  0.5396
 7713SOL    HW134775   0.431   1.693   8.340  0.4135 -1.4272  1.0917
 7713SOL    HW234776   0.577   1.684   8.324  1.5344  2.1619 -0.1067
 7714SOL     OW34777   1.145   1.952   4.210  0.9118  0.1532  0.1331
 7714SOL    HW134778   1.205   2.023   4.186  0.9356  0.7882  2.0337
 7714SOL    HW234779   1.197   1.886   4.256  1.2542 -0.5929 -1.3380
 7715SOL     OW34780   3.790   4.475   8.724 -0.3444 -0.4215 -0.3773
 7715SOL    HW134781   3.833   4.400   8.765  1.4827  0.6986 -0.2343
 7715SOL    HW234782   3.856   4.541   8.746  1.3597 -2.5946  0.9443
 7716SOL     OW34783   4.548   0.115   7.005  0.1940  0.2487  0.1169
 7716SOL    HW134784   4.513   0.043   6.953  0.3353  0.2993 -0.0477
 7716SOL    HW234785   4.470   0.154   7.045  0.4769 -0.6953  1.5820
 7717SOL     OW34786   2.329   3.345   3.788  0.0369 -0.3849  0.5308
 7717SOL    HW134787   2.235   3.364   3.792  0.4350  1.0663  2.9168
 7717SOL    HW234788   2.361   3.430   3.817  0.9711 -0.7899  0.6642
 7718SOL     OW34789   2.264   4.653   6.022 -0.3684  0.3824 -0.2438
 7718SOL    HW134790   2.292   4.720   6.084  2.6321 -0.1927 -0.9819
 7718SOL    HW234791   2.285   4.575   6.073 -2.3045  0.5366  0.7878
 7719SOL     OW34792   3.967   4.637   8.907  0.3020 -0.8339  0.1692
 7719SOL    HW134793   4.060   4.657   8.892  0.6790 -0.9042  2.3887
 7719SOL    HW234794   3.923   4.721   8.897 -1.4318 -1.7293  0.2961
 7720SOL     OW34795   1.345   2.470  14.417 -0.0911 -0.1060 -0.1862
 7720SOL    HW134796   1.324   2.480  14.324 -0.7602  1.3860  0.1241
 7720SOL    HW234797   1.434   2.438  14.400 -1.0109 -1.8342 -1.6714
 7721SOL     OW34798   3.759   3.445  15.138 -0.6807  0.5626 -0.8406
 7721SOL    HW134799   3.845   3.486  15.151  0.2419 -0.8604 -2.5666
 7721SOL    HW234800   3.710   3.511  15.089  1.1402  2.5127 -0.0708
 7722SOL     OW34801   3.353   3.957   5.770 -0.0797  0.2389  0.2180
 7722SOL    HW134802   3.421   4.017   5.739  1.4545 -0.9510  1.2989
 7722SOL    HW234803   3.402   3.885   5.809  2.5215  0.8179 -2.0529
 7723SOL     OW34804   2.629   2.616   6.152 -0.0099 -0.3279 -0.8984
 7723SOL    HW134805   2.589   2.620   6.065 -1.4984 -0.8399 -0.2423
 7723SOL    HW234806   2.625   2.710   6.173  0.4155 -0.2297 -1.2536
 7724SOL     OW34807   0.999   3.571   5.170 -0.1129 -0.4796  0.0879
 7724SOL    HW134808   1.045   3.503   5.122  0.1922  0.2277 -0.6147
 7724SOL    HW234809   1.018   3.652   5.122 -0.9111 -1.2529 -1.5095
 7725SOL     OW34810   1.721   1.128   7.016 -0.4455  0.2697 -0.7486
 7725SOL    HW134811   1.747   1.073   7.090  0.6155  1.5194 -0.1906
 7725SOL    HW234812   1.665   1.183   7.071  1.0735  0.1197  0.9482
 7726SOL     OW34813   4.115   1.368   4.866  0.2163  0.0562  0.4179
 7726SOL    HW134814   4.187   1.307   4.849  1.2787  1.6329 -0.7869
 7726SOL    HW234815   4.134   1.389   4.957 -1.5146  2.5806  0.2090
 7727SOL     OW34816   2.628   1.456  14.762 -0.1704  0.5613 -0.1809
 7727SOL    HW134817   2.665   1.378  14.804  1.8271  1.8613  0.5147
 7727SOL    HW234818   2.632   1.517  14.836  1.7604  0.4405 -0.1735
 7728SOL     OW34819   2.746   2.029   8.466  0.0616 -0.1119 -0.1298
 7728SOL    HW134820   2.705   1.959   8.517 -1.6987  0.6063 -0.5629
 7728SOL    HW234821   2.762   2.081   8.544  0.0246 -1.5301  0.8282
 7729SOL     OW34822   2.749   3.102  11.576  0.2031 -0.5230  0.3926
 7729SOL    HW134823   2.813   3.037  11.547  0.0293 -0.6005  0.1864
 7729SOL    HW234824   2.682   3.051  11.621 -0.0428 -0.3618  0.2101
 7730SOL     OW34825   3.505   1.532   1.055  0.2618  0.8769 -0.4013
 7730SOL    HW134826   3.468   1.527   0.967  3.1161 -0.0619 -1.5644
 7730SOL    HW234827   3.465   1.619   1.058 -0.0106  0.7131  0.7779
 7731SOL     OW34828   4.207   1.529  13.660 -0.1166 -0.1644 -0.2130
 7731SOL    HW134829   4.232   1.532  13.568 -1.2454 -0.2440 -0.5206
 7731SOL    HW234830   4.145   1.598  13.684  0.0439 -0.6302  1.5589
 7732SOL     OW34831   3.875   3.057   0.492  0.0915  0.1562  0.1742
 7732SOL    HW134832   3.864   3.151   0.476  1.7824  0.2785 -0.2688
 7732SOL    HW234833   3.785   3.029   0.509 -0.2382  0.6281 -0.7870
 7733SOL     OW34834   1.334   2.471  14.146 -0.5607  0.3214  0.1835
 7733SOL    HW134835   1.299   2.428  14.068 -0.2371  0.7724 -0.2076
 7733SOL    HW234836   1.413   2.511  14.109 -1.0935  0.1706 -1.1300
 7734SOL     OW34837   4.229   1.202   2.523 -0.4621  0.4897  0.3341
 7734SOL    HW134838   4.240   1.157   2.439 -1.0628  0.1756  0.4213
 7734SOL    HW234839   4.201   1.135   2.586  1.1328  0.7168  1.2628
 7735SOL     OW34840   0.172   0.358   9.908 -0.5742 -0.5513  0.4454
 7735SOL    HW134841   0.224   0.343   9.988  2.2605 -1.4252 -1.5758
 7735SOL    HW234842   0.232   0.419   9.864  0.3486 -2.0729 -0.3801
 7736SOL     OW34843   0.880   3.570   2.317  0.2581 -0.7956 -0.3823
 7736SOL    HW134844   0.902   3.663   2.329 -1.4654 -0.1798 -1.9128
 7736SOL    HW234845   0.963   3.533   2.347  0.6508  2.5251  2.7252
 7737SOL     OW34846   2.206   1.721   7.549  0.7080  0.2712  1.0528
 7737SOL    HW134847   2.203   1.634   7.589  1.2507  0.0774  0.6793
 7737SOL    HW234848   2.112   1.728   7.533  1.1414 -0.0680 -1.6470
 7738SOL     OW34849   0.134   2.924   9.421 -0.5272  0.3305  0.0464
 7738SOL    HW134850   0.102   2.853   9.475 -0.7048  0.5583  0.2431
 7738SOL    HW234851   0.052   2.941   9.373 -1.3371 -1.0329  0.9814
 7739SOL     OW34852   0.825   1.219   2.694  0.1877  0.5475 -0.2001
 7739SOL    HW134853   0.813   1.227   2.599  0.8095 -0.8173 -0.3967
 7739SOL    HW234854   0.764   1.148   2.710 -0.3038  0.8195 -0.8682
 7740SOL     OW34855   4.485   2.497   9.548 -0.1961 -0.0718 -0.4710
 7740SOL    HW134856   4.411   2.539   9.505  0.9052  1.9785 -0.3590
 7740SOL    HW234857   4.513   2.428   9.487  1.1131  0.0842 -0.0585
 7741SOL     OW34858   0.670   1.982  14.604 -0.5887  0.3964 -0.2441
 7741SOL    HW134859   0.575   1.966  14.609 -0.6391  0.9264  0.6091
 7741SOL    HW234860   0.668   2.061  14.549  0.3394  0.9450  0.4978
 7742SOL     OW34861   2.329   0.711   9.833 -0.7461  0.3439 -0.0381
 7742SOL    HW134862   2.282   0.701   9.916 -1.1905  2.0626 -0.0728
 7742SOL    HW234863   2.402   0.763   9.868 -0.9870  0.7932 -0.1963
 7743SOL     OW34864   3.828   1.823   7.766  0.3850  0.4484 -1.0483
 7743SOL    HW134865   3.782   1.759   7.820  0.8896 -0.7589 -2.0421
 7743SOL    HW234866   3.885   1.768   7.712 -0.1795  0.0060 -1.1821
 7744SOL     OW34867   2.436   4.713   3.054 -0.6505 -0.4434 -0.2128
 7744SOL    HW134868   2.363   4.657   3.082 -0.4533  0.2401  1.6653
 7744SOL    HW234869   2.505   4.663   3.097 -1.2074 -0.9246  0.1285
 7745SOL     OW34870   3.627   1.605   3.433  0.2142 -0.2295 -0.7745
 7745SOL    HW134871   3.626   1.693   3.470 -2.2478  0.1296 -1.7432
 7745SOL    HW234872   3.701   1.611   3.373  0.7179 -0.0753 -0.1458
 7746SOL     OW34873   4.705   4.636  12.791 -0.5092 -0.0290  0.1075
 7746SOL    HW134874   0.007   4.610  12.707  3.1166  0.1473  1.6327
 7746SOL    HW234875   0.037   4.695  12.826 -0.6154  0.4067 -0.4194
 7747SOL     OW34876   3.799   1.657  14.307 -0.7804 -0.7219 -0.0918
 7747SOL    HW134877   3.728   1.696  14.256 -0.3359 -0.5329 -0.5726
 7747SOL    HW234878   3.778   1.564  14.309  1.2885 -1.2411 -2.3666
 7748SOL     OW34879   3.102   2.128  16.180 -0.5222  0.2552  0.3311
 7748SOL    HW134880   3.067   2.203  16.228  0.0507 -0.1276  1.3403
 7748SOL    HW234881   3.088   2.159  16.090 -0.1245 -1.9928 -0.5016
 7749SOL     OW34882   3.022   2.102  14.775 -0.0114  0.6448  0.0607
 7749SOL    HW134883   3.058   2.018  14.804 -2.3240 -0.9016 -1.5237
 7749SOL    HW234884   2.962   2.084  14.703  0.1107  1.3434 -0.2095
 7750SOL     OW34885   3.996   2.557  15.490  0.1109  0.5137 -0.4788
 7750SOL    HW134886   4.062   2.495  15.460 -0.5717 -0.4256 -0.0374
 7750SOL    HW234887   3.994   2.631  15.429  1.4239 -0.8888 -2.2132
 7751SOL     OW34888   3.371   4.584   3.997  0.1210 -0.2538  0.6451
 7751SOL    HW134889   3.419   4.631   4.066  2.6742 -0.5049 -0.9628
 7751SOL    HW234890   3.420   4.601   3.917 -3.3838 -0.1241 -1.4575
 7752SOL     OW34891   1.126   4.460   3.160 -0.5160 -0.0875 -0.0033
 7752SOL    HW134892   1.175   4.419   3.231 -0.2752 -1.2413 -0.8323
 7752SOL    HW234893   1.038   4.471   3.197 -0.5730  0.3003 -0.2514
 7753SOL     OW34894   0.895   1.646   3.382  0.1452  0.3639 -0.1179
 7753SOL    HW134895   0.944   1.659   3.301 -1.5226  2.4207 -0.7906
 7753SOL    HW234896   0.831   1.582   3.352 -0.5502  2.1000 -2.3451
 7754SOL     OW34897   0.785   0.854   8.543 -0.1170  0.1504  0.0563
 7754SOL    HW134898   0.816   0.870   8.631  2.0848  1.1554 -0.9063
 7754SOL    HW234899   0.813   0.762   8.543 -0.6547 -0.0089  0.2316
 7755SOL     OW34900   4.568   4.111   9.798 -0.2291  0.0465  0.2757
 7755SOL    HW134901   4.529   4.196   9.820 -1.1457 -0.1172 -0.7580
 7755SOL    HW234902   4.495   4.050   9.811 -0.0177  0.0066  1.2882
 7756SOL     OW34903   3.442   3.361   6.028 -0.4947 -0.0792  0.0848
 7756SOL    HW134904   3.520   3.405   6.062 -0.8922  1.2433 -0.7244
 7756SOL    HW234905   3.444   3.391   5.937 -0.3174  0.0805  0.1418
 7757SOL     OW34906   3.127   2.785   8.843 -0.3305 -0.1449 -0.0429
 7757SOL    HW134907   3.080   2.827   8.915 -0.4233 -0.1821 -0.0816
 7757SOL    HW234908   3.209   2.765   8.889  0.7214  0.7662 -1.5090
 7758SOL     OW34909   1.245   3.652   8.328  0.6726 -0.6826  0.5720
 7758SOL    HW134910   1.207   3.565   8.344 -2.6035  0.9910  1.9439
 7758SOL    HW234911   1.320   3.637   8.386  0.6555 -1.3464  0.4233
 7759SOL     OW34912   3.428   1.705   6.502 -0.0662 -0.4627 -0.5149
 7759SOL    HW134913   3.468   1.767   6.563 -2.3597  0.7450 -0.2546
 7759SOL    HW234914   3.392   1.764   6.436 -1.0138 -1.4439 -0.8861
 7760SOL     OW34915   0.935   0.603   9.047  0.1555  0.8591  0.0945
 7760SOL    HW134916   0.945   0.650   9.130 -1.1732 -0.2243  0.8727
 7760SOL    HW234917   1.026   0.575   9.038  0.1892  1.0833 -0.2549
 7761SOL     OW34918   2.647   1.977   4.881 -0.2901 -0.2563 -0.3967
 7761SOL    HW134919   2.717   1.917   4.905  0.8138  0.7625 -1.0512
 7761SOL    HW234920   2.629   2.027   4.961  0.7372  0.1878 -0.4408
 7762SOL     OW34921   4.597   3.681   9.560 -0.6143  0.2414  0.0705
 7762SOL    HW134922   4.664   3.748   9.575  0.5190 -1.2580  1.7148
 7762SOL    HW234923   4.533   3.708   9.627 -2.4714 -2.2696 -0.7012
 7763SOL     OW34924   4.345   4.644   5.374  0.5783  0.0954  0.1489
 7763SOL    HW134925   4.259   4.614   5.403  0.7217  0.2041  0.6859
 7763SOL    HW234926   4.343   4.728   5.418  1.1763 -0.5395  1.3929
 7764SOL     OW34927   4.662   2.857  14.813  0.4335  0.1801  1.0268
 7764SOL    HW134928   4.669   2.765  14.791 -1.7235  0.5527 -1.1949
 7764SOL    HW234929   4.692   2.893  14.729 -0.3602  1.8535  1.4532
 7765SOL     OW34930   0.850   1.826   5.892 -0.3963 -0.2640  0.1432
 7765SOL    HW134931   0.800   1.759   5.846 -1.7393 -1.0742  2.7820
 7765SOL    HW234932   0.936   1.825   5.851 -1.1330  1.4961 -1.4728
 7766SOL     OW34933   1.809   3.004  10.706  0.1667  0.7678  0.0200
 7766SOL    HW134934   1.833   3.022  10.615  3.1739 -1.4420  0.3725
 7766SOL    HW234935   1.823   2.909  10.702  0.2487  0.8638 -2.0817
 7767SOL     OW34936   1.327   2.255   8.784 -0.6320 -0.2161 -0.6768
 7767SOL    HW134937   1.321   2.159   8.785  0.5472 -0.3127 -1.7026
 7767SOL    HW234938   1.245   2.284   8.824 -0.4922 -0.1323 -0.4538
 7768SOL     OW34939   1.457   0.329   0.438 -0.5232  0.6435 -0.4445
 7768SOL    HW134940   1.506   0.388   0.495  0.4392  0.4457 -1.0818
 7768SOL    HW234941   1.423   0.260   0.496  1.7234  2.0376  2.5266
 7769SOL     OW34942   3.094   4.683   4.086  0.1114 -0.1027 -0.2683
 7769SOL    HW134943   3.050   4.680   4.171 -0.0053 -4.3570 -0.4643
 7769SOL    HW234944   3.159   4.612   4.091 -0.1399 -0.1937  1.7717
 7770SOL     OW34945   1.289   1.786   7.596  0.4797  0.3106  0.1410
 7770SOL    HW134946   1.328   1.839   7.665 -1.3428  3.3357 -1.1447
 7770SOL    HW234947   1.219   1.740   7.642  1.3782 -2.2530 -1.0608
 7771SOL     OW34948   1.400   4.382   4.389  0.0003 -0.2374 -0.1543
 7771SOL    HW134949   1.308   4.362   4.405  0.5944 -0.7516  2.6825
 7771SOL    HW234950   1.388   4.410   4.299  0.2677  1.1109  0.2276
 7772SOL     OW34951   2.453   1.529   8.876  0.1017  0.0482 -0.6246
 7772SOL    HW134952   2.475   1.436   8.868 -0.0030  0.0462 -0.8741
 7772SOL    HW234953   2.504   1.552   8.954 -0.9540 -1.0608  0.4131
 7773SOL     OW34954   0.131   1.646   9.903 -0.1163  0.2910  0.3268
 7773SOL    HW134955   0.128   1.553   9.924  1.2413 -0.1739 -1.6544
 7773SOL    HW234956   0.079   1.641   9.823  0.2352  0.5492  0.0840
 7774SOL     OW34957   1.244   0.643   3.869  0.0171 -0.2906  0.2305
 7774SOL    HW134958   1.166   0.677   3.825 -0.1179 -0.8318  0.0578
 7774SOL    HW234959   1.197   0.611   3.946 -2.0298  1.3343 -0.3341
 7775SOL     OW34960   2.306   0.117   4.858 -0.0727  0.0934 -0.7614
 7775SOL    HW134961   2.223   0.124   4.811 -0.1626 -1.1310 -0.7813
 7775SOL    HW234962   2.367   0.110   4.785 -0.2999  1.0197 -1.0369
 7776SOL     OW34963   4.636   1.379   7.163 -0.7901  0.4969 -0.3442
 7776SOL    HW134964   4.605   1.299   7.205  0.3976 -0.1113 -0.6399
 7776SOL    HW234965   4.559   1.432   7.183  0.2660  0.5699  3.5722
 7777SOL     OW34966   1.949   0.782   1.113  0.2067  0.2906  0.1468
 7777SOL    HW134967   1.993   0.706   1.151  0.7979  0.8788  0.6378
 7777SOL    HW234968   1.922   0.754   1.025  0.7726 -1.8542  0.6705
 7778SOL     OW34969   3.050   1.924   8.281  0.5112 -0.8428 -0.0138
 7778SOL    HW134970   3.026   1.835   8.307  2.4165 -1.2261  0.4380
 7778SOL    HW234971   2.962   1.954   8.259  0.9376  0.1389 -0.3895
 7779SOL     OW34972   3.023   1.601  10.018  0.7146 -0.6099  0.3848
 7779SOL    HW134973   3.051   1.689  10.041 -1.5776  0.0754  0.5891
 7779SOL    HW234974   3.001   1.558  10.100  1.9072 -0.1554  0.9405
 7780SOL     OW34975   1.760   0.820   5.806 -0.1617  0.2774 -0.5987
 7780SOL    HW134976   1.786   0.747   5.750  0.1090  1.2088 -1.6806
 7780SOL    HW234977   1.724   0.884   5.745  0.9120  0.9052 -0.5607
 7781SOL     OW34978   2.841   1.056   6.271  0.0335 -0.5711 -0.2679
 7781SOL    HW134979   2.910   0.995   6.244 -0.4375 -0.9345 -0.6374
 7781SOL    HW234980   2.815   1.012   6.352 -1.8996 -0.3431 -0.7755
 7782SOL     OW34981   4.075   0.614  11.825 -0.1255 -0.4378  0.3321
 7782SOL    HW134982   4.004   0.571  11.872 -0.3885 -0.5349 -0.1538
 7782SOL    HW234983   4.158   0.581  11.861  0.5433  0.8893  0.0002
 7783SOL     OW34984   0.144   2.715   8.791 -0.1745  0.6882  0.1668
 7783SOL    HW134985   0.108   2.636   8.831 -3.1257  1.1433 -1.6138
 7783SOL    HW234986   0.066   2.737   8.740 -0.9827  0.0708  1.1468
 7784SOL     OW34987   0.981   1.275   4.224  0.0298  0.1981 -0.1867
 7784SOL    HW134988   0.911   1.308   4.281 -1.3803  1.0731 -2.4685
 7784SOL    HW234989   0.973   1.181   4.243 -0.6671 -0.0856 -1.9596
 7785SOL     OW34990   0.278   0.579   5.813  0.1614  0.3347  0.5221
 7785SOL    HW134991   0.286   0.596   5.907  3.4760 -1.5555  0.5999
 7785SOL    HW234992   0.258   0.486   5.819  2.6866 -0.2402  0.0444
 7786SOL     OW34993   1.680   1.304  13.874  0.6197 -0.6057 -0.6702
 7786SOL    HW134994   1.627   1.312  13.795  3.2477  0.7408 -2.2829
 7786SOL    HW234995   1.625   1.343  13.943 -0.7959 -1.4351 -1.3432
 7787SOL     OW34996   4.374   0.102   5.940  0.3406  0.3732 -0.4086
 7787SOL    HW134997   4.314   0.172   5.968  0.3820  0.2083  0.0798
 7787SOL    HW234998   4.390   0.056   6.022 -0.4470  3.0870  1.2840
 7788SOL     OW34999   1.152   4.603   3.818  0.2810  0.1487  0.1886
 7788SOL    HW135000   1.135   4.620   3.911 -0.0626 -1.5338  0.4496
 7788SOL    HW235001   1.070   4.558   3.797 -0.0486  1.0226 -0.3991
 7789SOL     OW35002   2.836   0.966   5.681 -0.3762  0.4202 -0.8233
 7789SOL    HW135003   2.801   0.903   5.619  2.0275 -2.2081  0.4898
 7789SOL    HW235004   2.812   1.053   5.649  0.9925 -0.0822 -3.2547
 7790SOL     OW35005   1.931   2.889   6.141  0.3240 -0.0732 -0.0260
 7790SOL    HW135006   1.944   2.794   6.143 -2.9248 -0.5293  0.3862
 7790SOL    HW235007   2.015   2.920   6.173  0.4322 -0.9841  0.5750
 7791SOL     OW35008   1.428   0.170   7.307  0.2913  0.5417  0.6063
 7791SOL    HW135009   1.392   0.258   7.301 -1.2903 -0.1694 -0.4839
 7791SOL    HW235010   1.432   0.159   7.402  3.1091  1.2127  0.5662
 7792SOL     OW35011   2.534   3.071   3.787 -0.2496  0.1760  0.1618
 7792SOL    HW135012   2.572   2.983   3.784  1.4872  0.9321  0.0745
 7792SOL    HW235013   2.566   3.114   3.708  1.7501 -0.1800  0.7637
 7793SOL     OW35014   0.174   1.756  14.932 -0.2216  0.1371 -0.2368
 7793SOL    HW135015   0.236   1.811  14.886  1.8234 -1.2295  0.8534
 7793SOL    HW235016   0.098   1.752  14.874  0.8688  2.9997 -1.8056
 7794SOL     OW35017   2.694   1.075   8.263 -0.0711 -0.1088 -0.1708
 7794SOL    HW135018   2.660   1.042   8.345  0.6543 -0.3320  0.0381
 7794SOL    HW235019   2.717   1.165   8.285  0.4858 -0.0268 -1.0497
 7795SOL     OW35020   3.408   0.775  15.912  0.5000 -0.1175 -0.0826
 7795SOL    HW135021   3.369   0.748  15.995 -1.0456  0.9871 -0.4407
 7795SOL    HW235022   3.492   0.730  15.910  0.2031 -0.6228 -1.3501
 7796SOL     OW35023   0.541   0.811   6.780 -0.0823  0.2769 -0.5637
 7796SOL    HW135024   0.541   0.726   6.736  2.9817  0.9953 -1.9083
 7796SOL    HW235025   0.573   0.866   6.709 -0.1223 -0.8852 -1.4745
 7797SOL     OW35026   3.997   0.618   8.927  0.0754 -0.0610  0.1027
 7797SOL    HW135027   3.985   0.523   8.922  3.2525 -0.6575  3.8573
 7797SOL    HW235028   4.032   0.643   8.842  0.5818 -0.5708  0.1616
 7798SOL     OW35029   1.815   0.467   0.311 -0.7748  0.0523  0.3803
 7798SOL    HW135030   1.831   0.541   0.254 -1.1156 -0.4859 -0.4201
 7798SOL    HW235031   1.901   0.439   0.340 -1.3334 -1.3383  0.7121
 7799SOL     OW35032   3.294   3.363  16.080  0.0890 -0.3466 -0.0990
 7799SOL    HW135033   3.305   3.302  16.152  2.9656 -0.7635 -0.9095
 7799SOL    HW235034   3.385   3.381  16.056  0.4840 -0.1276  1.6160
 7800SOL     OW35035   1.583   3.365   7.628  0.8607 -0.2399  0.0244
 7800SOL    HW135036   1.593   3.411   7.711 -1.3350  1.8339 -0.8596
 7800SOL    HW235037   1.596   3.437   7.566 -0.9959  0.5104  0.4978
 7801SOL     OW35038   2.335   4.263   2.839  0.5257  0.3971  0.3924
 7801SOL    HW135039   2.308   4.271   2.931 -2.7012  0.0681 -0.5222
 7801SOL    HW235040   2.363   4.173   2.826  1.7727  0.5646  1.8449
 7802SOL     OW35041   2.962   4.385  13.417 -0.3340  0.3762  0.2199
 7802SOL    HW135042   2.907   4.463  13.405  0.2097  0.9407  1.3251
 7802SOL    HW235043   3.026   4.413  13.484  1.2311 -0.0089 -1.1113
 7803SOL     OW35044   1.368   2.112   6.397  0.1008  0.1058 -0.3238
 7803SOL    HW135045   1.296   2.077   6.449 -0.3052 -0.1642 -1.0752
 7803SOL    HW235046   1.441   2.057   6.425 -0.4677 -0.2505  0.4444
 7804SOL     OW35047   2.367   4.594  17.156 -0.5052 -0.0371  0.5935
 7804SOL    HW135048   2.356   4.683  17.190  0.0732  0.2995 -0.0863
 7804SOL    HW235049   2.446   4.569  17.205  0.4919  1.4653 -0.2496
 7805SOL     OW35050   1.396   3.932   5.508  0.2763 -0.2850  0.0471
 7805SOL    HW135051   1.378   4.026   5.507 -0.3782 -0.3847  1.3581
 7805SOL    HW235052   1.396   3.931   5.604 -1.7726 -1.7291  0.0231
 7806SOL     OW35053   0.327   4.508   8.328 -0.3913 -0.2028 -0.4484
 7806SOL    HW135054   0.400   4.528   8.387 -1.7082 -0.6413  1.3279
 7806SOL    HW235055   0.260   4.526   8.393  1.6911  0.1340  1.6259
 7807SOL     OW35056   3.180   1.153   4.530 -0.0705  0.0658 -0.5259
 7807SOL    HW135057   3.181   1.228   4.591  1.7362 -0.6080  0.2938
 7807SOL    HW235058   3.257   1.104   4.561  0.7223  1.6129 -0.0201
 7808SOL     OW35059   3.508   3.608   3.878  0.1678  0.3778 -0.2131
 7808SOL    HW135060   3.415   3.609   3.854  0.2437  0.0126 -0.5215
 7808SOL    HW235061   3.494   3.615   3.972 -0.7660 -0.2559 -0.3071
 7809SOL     OW35062   1.601   2.184   1.873  0.2200 -1.0677 -0.6202
 7809SOL    HW135063   1.625   2.244   1.802  2.0212  0.0275  0.8943
 7809SOL    HW235064   1.570   2.105   1.830  0.0354 -1.8840  1.0304
 7810SOL     OW35065   1.948   3.297   8.687 -0.2328 -0.1969 -0.8610
 7810SOL    HW135066   1.953   3.376   8.741  3.8774 -0.8972 -0.2309
 7810SOL    HW235067   1.866   3.258   8.720 -0.3030  0.2039 -0.5533
 7811SOL     OW35068   1.768   0.445   2.141 -0.7408  0.9263 -0.8360
 7811SOL    HW135069   1.857   0.480   2.136 -0.0321 -0.8909 -1.0412
 7811SOL    HW235070   1.726   0.500   2.207  1.6718 -0.8722  2.2558
 7812SOL     OW35071   2.340   2.338   4.656 -0.0873  0.0240 -0.1127
 7812SOL    HW135072   2.396   2.262   4.670  1.5226  1.2703  0.1570
 7812SOL    HW235073   2.358   2.355   4.563 -1.3869 -0.7330 -0.5008
 7813SOL     OW35074   3.315   1.002   7.067 -0.6715 -0.5146 -0.3694
 7813SOL    HW135075   3.304   0.907   7.065  0.2514 -0.6642  1.2314
 7813SOL    HW235076   3.316   1.029   7.159 -0.7519 -0.8704 -0.2647
 7814SOL     OW35077   2.184   1.700   1.615  0.2305  0.4659 -0.0408
 7814SOL    HW135078   2.146   1.695   1.527  0.0352  1.2805 -0.0084
 7814SOL    HW235079   2.110   1.741   1.661  0.6102 -0.6485  1.5484
 7815SOL     OW35080   3.230   1.662   2.605 -0.1436 -0.3985  0.1914
 7815SOL    HW135081   3.290   1.619   2.544  0.6261 -0.4567  0.9971
 7815SOL    HW235082   3.282   1.674   2.684 -1.1241 -0.6041  0.8738
 7816SOL     OW35083   1.573   3.847   3.024  0.0019 -0.1978 -0.2697
 7816SOL    HW135084   1.654   3.858   3.072  1.8424 -1.9822 -2.9862
 7816SOL    HW235085   1.563   3.938   2.996 -2.4562  0.8569  4.0980
 7817SOL     OW35086   1.655   1.028   5.655  0.4286  0.2774  0.3263
 7817SOL    HW135087   1.600   1.078   5.595  1.0052 -1.3524 -1.5824
 7817SOL    HW235088   1.700   1.101   5.698  0.9574  0.8739 -1.2471
 7818SOL     OW35089   4.029   4.639   4.849  0.2084 -0.5082  0.7129
 7818SOL    HW135090   4.055   4.547   4.857  2.1698 -0.0939 -0.7184
 7818SOL    HW235091   4.051   4.654   4.757 -0.1515 -1.8060  0.4045
 7819SOL     OW35092   4.487   2.732   8.449  0.3989 -0.4268 -0.1156
 7819SOL    HW135093   4.395   2.714   8.465  0.3352 -1.2296 -1.3871
 7819SOL    HW235094   4.482   2.810   8.393 -2.9776  0.6302  1.6981
 7820SOL     OW35095   4.566   1.353   4.192 -0.3360  0.8138  0.1405
 7820SOL    HW135096   4.546   1.293   4.264 -3.8370 -0.0182 -1.5115
 7820SOL    HW235097   4.494   1.416   4.196 -0.6669  0.4392  0.1433
 7821SOL     OW35098   1.297   0.176   9.456 -0.0840  0.1956 -0.1480
 7821SOL    HW135099   1.318   0.235   9.529  1.2782 -1.4900  0.8135
 7821SOL    HW235100   1.211   0.207   9.428  0.0970 -0.8232 -1.8118
 7822SOL     OW35101   2.308   0.395   0.693  0.1593  0.4093  0.4955
 7822SOL    HW135102   2.247   0.321   0.701 -2.3159  2.2948 -1.0901
 7822SOL    HW235103   2.282   0.452   0.765 -2.5250  2.7915 -2.3811
 7823SOL     OW35104   3.946   3.211   9.085  0.6465 -0.1514 -0.0542
 7823SOL    HW135105   3.985   3.296   9.063  2.0688 -0.5161  1.0828
 7823SOL    HW235106   3.902   3.203   9.000 -0.8706  2.8947  0.4440
 7824SOL     OW35107   2.851   0.777   9.344  0.7373  0.2609  0.4922
 7824SOL    HW135108   2.923   0.805   9.400  0.2010  0.7108  0.9622
 7824SOL    HW235109   2.805   0.861   9.331 -0.6911 -0.5878 -0.0003
 7825SOL     OW35110   1.899   2.478   4.163  0.1958  0.3570  0.1251
 7825SOL    HW135111   1.827   2.539   4.147  1.2360  1.7399  0.6927
 7825SOL    HW235112   1.965   2.526   4.214 -0.9636  0.4420  1.5431
 7826SOL     OW35113   2.964   1.985   9.475  0.4259  0.0650  0.1763
 7826SOL    HW135114   3.014   1.952   9.551  0.7314  0.6941  0.2473
 7826SOL    HW235115   2.872   1.969   9.496  0.7452  0.5179  1.9847
 7827SOL     OW35116   2.196   1.640  16.943 -0.4042 -0.0737  1.3763
 7827SOL    HW135117   2.138   1.572  16.979  0.0969  0.4125  3.1256
 7827SOL    HW235118   2.225   1.676  17.027 -1.2852 -3.2897  3.0383
 7828SOL     OW35119   2.951   1.587   4.737 -0.0515  0.1388  0.2180
 7828SOL    HW135120   3.008   1.645   4.789  1.5356 -0.9432 -0.3166
 7828SOL    HW235121   2.930   1.647   4.665  1.4988 -0.4046 -0.6999
 7829SOL     OW35122   3.299   3.212   0.301 -0.1689  0.0446 -0.0398
 7829SOL    HW135123   3.280   3.294   0.257 -1.1000 -1.4461 -2.4183
 7829SOL    HW235124   3.393   3.222   0.292 -0.2874 -0.3083 -1.6240
 7830SOL     OW35125   1.901   1.091   6.759  0.2551 -0.6872 -0.6520
 7830SOL    HW135126   1.868   1.015   6.711 -1.2575 -1.2829  1.3560
 7830SOL    HW235127   1.839   1.111   6.829  2.3602 -0.4148  1.1304
 7831SOL     OW35128   1.428   0.964   8.725 -0.3174  0.7378  0.1619
 7831SOL    HW135129   1.371   1.040   8.738  1.6993  2.4265 -0.6400
 7831SOL    HW235130   1.404   0.949   8.634 -1.3613  0.3506  0.5094
 7832SOL     OW35131   0.779   4.405   7.978 -0.3288 -0.7441 -0.4714
 7832SOL    HW135132   0.770   4.498   8.001  0.7380 -1.0766  1.3192
 7832SOL    HW235133   0.764   4.408   7.883  3.1898 -0.6683 -1.0328
 7833SOL     OW35134   4.524   2.023  15.222  0.9925 -0.3819 -0.6515
 7833SOL    HW135135   4.581   2.097  15.201  0.7492  0.1552  0.5604
 7833SOL    HW235136   4.566   1.993  15.303 -0.9359 -1.1012  0.0898
 7834SOL     OW35137   2.410   1.342   5.697 -0.4493  0.6159 -0.0893
 7834SOL    HW135138   2.355   1.317   5.771 -1.0167 -1.5080 -1.2247
 7834SOL    HW235139   2.496   1.327   5.737  0.7088  2.0585 -2.0512
 7835SOL     OW35140   0.327   4.672  11.711  0.0780  0.2087  0.2036
 7835SOL    HW135141   0.376   4.634  11.784  1.1906 -0.4846 -0.9058
 7835SOL    HW235142   0.248   4.683  11.765  0.7259  1.8729  0.8006
 7836SOL     OW35143   0.029   2.704  13.372 -0.7042 -0.0046  0.0845
 7836SOL    HW135144   4.714   2.785  13.380  1.4981  1.6982 -3.3203
 7836SOL    HW235145   4.688   2.646  13.366 -0.4633 -0.4557  1.3699
 7837SOL     OW35146   2.206   3.994   4.444 -0.3300 -0.0424 -0.4093
 7837SOL    HW135147   2.200   3.924   4.509 -2.6933 -0.1368 -0.6969
 7837SOL    HW235148   2.284   3.970   4.394  0.3072 -1.7809  1.3985
 7838SOL     OW35149   0.996   0.644   3.326 -0.2384  0.1263 -0.0244
 7838SOL    HW135150   0.908   0.679   3.338 -0.4886  0.0340 -1.5733
 7838SOL    HW235151   0.992   0.558   3.365 -1.7233  0.6782  1.0221
 7839SOL     OW35152   4.315   2.240   4.017 -0.1639  0.0206 -0.4022
 7839SOL    HW135153   4.260   2.283   4.083 -0.9895 -2.1159  0.3286
 7839SOL    HW235154   4.400   2.239   4.060  0.4989 -2.5297 -1.7753
 7840SOL     OW35155   0.081   2.528  10.152 -0.6783 -0.0245 -0.2532
 7840SOL    HW135156   0.093   2.560  10.062 -0.8549  0.6316 -0.0429
 7840SOL    HW235157   4.732   2.484  10.149 -0.8127  0.1596  0.8989
 7841SOL     OW35158   0.101   0.498   2.047  0.5538  0.0676  0.0651
 7841SOL    HW135159   0.035   0.487   2.116  0.5549 -0.4164 -0.0105
 7841SOL    HW235160   0.040   0.515   1.975  0.4801 -2.5838 -0.4954
 7842SOL     OW35161   0.094   3.649   2.885 -0.1922 -0.9272  0.1878
 7842SOL    HW135162   0.052   3.702   2.817 -1.7941 -1.2934  0.8916
 7842SOL    HW235163   0.182   3.625   2.856 -1.4005 -1.8743 -2.7514
 7843SOL     OW35164   1.226   0.527   9.461  0.0152 -0.0743 -0.2921
 7843SOL    HW135165   1.290   0.595   9.442  1.2760 -1.5620 -1.3588
 7843SOL    HW235166   1.282   0.478   9.522 -1.4324  1.0234  1.9304
 7844SOL     OW35167   2.319   3.897   2.491  0.0584  0.2185 -0.2632
 7844SOL    HW135168   2.283   3.959   2.428 -0.1764  3.0214  2.6093
 7844SOL    HW235169   2.393   3.862   2.441  0.2879  0.7905 -0.3322
 7845SOL     OW35170   0.538   0.788  13.311 -0.3366 -0.2942 -0.1842
 7845SOL    HW135171   0.592   0.737  13.372 -2.4819 -1.5113  0.6839
 7845SOL    HW235172   0.504   0.713  13.262 -0.5637 -1.1189  1.2394
 7846SOL     OW35173   1.738   4.676   7.865 -0.0830 -0.4883  0.2963
 7846SOL    HW135174   1.754   4.592   7.909 -1.6369  0.2573  2.2549
 7846SOL    HW235175   1.786   4.656   7.784 -0.2459 -1.0468  0.3363
 7847SOL     OW35176   1.545   4.174   7.403 -0.0072  0.1467 -0.2534
 7847SOL    HW135177   1.637   4.163   7.379 -0.2034 -0.5478 -0.7080
 7847SOL    HW235178   1.549   4.100   7.464 -1.0717  0.9517  0.7998
 7848SOL     OW35179   4.092   3.687  11.343 -0.1272  0.1512  0.0815
 7848SOL    HW135180   4.124   3.725  11.261 -0.3521 -0.7878 -0.4474
 7848SOL    HW235181   4.128   3.745  11.411 -2.0658  2.2420 -0.6866
 7849SOL     OW35182   4.182   2.482  16.071  0.4506  0.6557  0.0063
 7849SOL    HW135183   4.191   2.387  16.083 -1.2846  0.5973  0.8662
 7849SOL    HW235184   4.192   2.514  16.161 -2.5410 -0.1542  0.6425
 7850SOL     OW35185   0.110   4.524   4.784 -0.0838  0.3440  0.3239
 7850SOL    HW135186   0.193   4.495   4.745  0.0626  0.5541  0.4800
 7850SOL    HW235187   0.044   4.512   4.716  0.4401 -0.6767  0.0024
 7851SOL     OW35188   3.022   1.331   2.030  0.0918 -0.3443  0.0992
 7851SOL    HW135189   3.010   1.330   2.125 -1.1076 -1.9327 -0.0534
 7851SOL    HW235190   3.045   1.238   2.023 -0.0261 -0.3184 -0.5852
 7852SOL     OW35191   0.571   0.469   6.270 -0.3594 -0.1224  0.1251
 7852SOL    HW135192   0.588   0.538   6.334  0.5025 -2.0191  1.9280
 7852SOL    HW235193   0.476   0.463   6.283 -0.3719 -2.7489 -1.0992
 7853SOL     OW35194   1.496   2.811   5.284  0.0297  0.2341  0.0247
 7853SOL    HW135195   1.468   2.893   5.326 -0.1452 -0.3427  1.0291
 7853SOL    HW235196   1.515   2.750   5.355 -2.8499  0.5475  1.0550
 7854SOL     OW35197   0.195   3.919   5.836  0.4121 -0.1966 -0.1085
 7854SOL    HW135198   0.230   3.835   5.864  1.9438  0.5878  0.3079
 7854SOL    HW235199   0.201   3.976   5.912 -0.9127 -1.2418  0.7853
 7855SOL     OW35200   4.066   2.321  14.068  0.2351  0.1268  0.2350
 7855SOL    HW135201   4.076   2.241  14.017 -0.3435 -1.2556  2.2696
 7855SOL    HW235202   3.972   2.339  14.061  0.6525  1.9126 -0.7740
 7856SOL     OW35203   4.091   1.408   2.668  0.0982 -0.3037 -0.5865
 7856SOL    HW135204   4.156   1.354   2.621  0.3761  0.0299 -0.5829
 7856SOL    HW235205   4.074   1.476   2.603  1.5605  1.3385  0.7491
 7857SOL     OW35206   1.948   1.432   2.709 -0.1096 -0.4480 -0.4192
 7857SOL    HW135207   1.880   1.498   2.716  0.9234  0.6773 -1.0265
 7857SOL    HW235208   1.943   1.374   2.785  0.3764 -0.8245 -0.6752
 7858SOL     OW35209   0.178   1.942  15.206 -0.2317 -0.1646  0.0675
 7858SOL    HW135210   0.116   1.967  15.275 -0.2801 -0.0908 -0.0035
 7858SOL    HW235211   0.203   1.853  15.231  0.1923 -1.0591 -3.5368
 7859SOL     OW35212   1.225   1.550  11.998 -0.4728  0.1663 -0.5046
 7859SOL    HW135213   1.274   1.631  11.988  1.7712 -0.7850  2.9974
 7859SOL    HW235214   1.163   1.571  12.068  1.4502  1.6767  0.7121
 7860SOL     OW35215   0.059   3.466   7.939 -0.0457 -0.0558 -0.2020
 7860SOL    HW135216   0.010   3.535   7.984 -1.5004 -1.1157 -0.1724
 7860SOL    HW235217   0.035   3.496   7.851 -0.9263  0.0079  0.0615
 7861SOL     OW35218   1.849   0.705   8.601 -0.2503  0.4508  0.0745
 7861SOL    HW135219   1.896   0.716   8.683 -0.7257  2.7117  0.0483
 7861SOL    HW235220   1.903   0.635   8.563 -0.8050 -0.8248  1.6241
 7862SOL     OW35221   3.778   0.700   3.315 -0.2160 -0.0605 -0.1893
 7862SOL    HW135222   3.729   0.769   3.270  0.7564  1.4381  1.0192
 7862SOL    HW235223   3.864   0.740   3.322 -1.0996  1.4239  2.3537
 7863SOL     OW35224   1.459   1.043   0.687  0.3419 -0.3335 -0.5242
 7863SOL    HW135225   1.536   1.036   0.744  0.4664 -0.8915 -0.7562
 7863SOL    HW235226   1.492   1.047   0.597  2.5034  1.3849  0.3335
 7864SOL     OW35227   0.426   2.351  10.461  0.6116 -0.1385  0.2622
 7864SOL    HW135228   0.374   2.339  10.382 -2.0051  1.3523  1.7385
 7864SOL    HW235229   0.375   2.418  10.507  0.6379 -0.1479  0.3049
 7865SOL     OW35230   0.153   0.401   4.834 -0.7220 -0.1155 -0.3047
 7865SOL    HW135231   0.109   0.328   4.876 -0.6919  0.4432  0.6836
 7865SOL    HW235232   0.115   0.410   4.746 -2.0157  0.9015  0.3588
 7866SOL     OW35233   0.783   0.341   9.353  0.5188  0.1998 -0.0940
 7866SOL    HW135234   0.847   0.276   9.383 -1.8819 -2.7682 -1.4056
 7866SOL    HW235235   0.799   0.342   9.259  2.9352 -0.4719  0.3100
 7867SOL     OW35236   4.637   1.930   5.197 -0.2734 -0.1238  0.0785
 7867SOL    HW135237   4.656   1.929   5.103  0.9310 -0.7108  0.3314
 7867SOL    HW235238   4.570   1.861   5.198 -0.6062  0.1698 -1.5211
 7868SOL     OW35239   2.058   1.076   0.913 -0.5912 -0.4081  0.0025
 7868SOL    HW135240   1.991   1.080   0.982  0.1903 -1.0061  0.7859
 7868SOL    HW235241   2.118   1.005   0.934 -0.4819 -0.2005  0.3835
 7869SOL     OW35242   1.570   0.385   3.181  0.0924 -0.4287  0.4932
 7869SOL    HW135243   1.655   0.383   3.226 -0.3816 -1.0245  1.3712
 7869SOL    HW235244   1.565   0.471   3.138  2.2032 -0.0847  0.9336
 7870SOL     OW35245   1.781   3.134  10.151 -0.1373  0.2640  0.0740
 7870SOL    HW135246   1.821   3.162  10.069  0.2387 -0.7755 -0.1095
 7870SOL    HW235247   1.790   3.038  10.145  0.3872  0.4467 -1.9088
 7871SOL     OW35248   2.108   1.815   9.973 -0.0205 -0.2284  0.1322
 7871SOL    HW135249   2.041   1.774   9.919  1.0739 -1.8307  0.0259
 7871SOL    HW235250   2.172   1.846   9.909 -0.9684  1.5834  0.0566
 7872SOL     OW35251   0.963   2.491   9.743  0.3964 -0.4322 -0.0781
 7872SOL    HW135252   0.968   2.507   9.838  3.6225 -1.4827 -0.1081
 7872SOL    HW235253   1.024   2.419   9.731  0.4018  0.0749 -3.0635
 7873SOL     OW35254   4.023   4.341  13.271 -0.4956  0.1724 -0.2057
 7873SOL    HW135255   4.014   4.422  13.321  2.0943 -0.3815  1.1581
 7873SOL    HW235256   3.935   4.308  13.252  0.6895 -2.2610 -1.5191
 7874SOL     OW35257   1.682   1.661   9.351  0.5405  0.1798  0.9790
 7874SOL    HW135258   1.650   1.736   9.401 -2.7522 -0.2419 -0.5489
 7874SOL    HW235259   1.632   1.582   9.368  0.0478  0.3075  0.1267
 7875SOL     OW35260   3.083   1.064   6.056 -0.2480 -0.3878 -0.2745
 7875SOL    HW135261   3.177   1.063   6.072 -0.1577 -1.1883 -0.8471
 7875SOL    HW235262   3.058   1.149   6.090  1.1791 -0.7774  1.7516
 7876SOL     OW35263   0.944   1.772   8.636  0.1746  0.3631  0.0185
 7876SOL    HW135264   0.978   1.764   8.547  2.0293  0.9813  0.6905
 7876SOL    HW235265   0.851   1.748   8.628  0.2521  0.0549  0.0280
 7877SOL     OW35266   2.476   2.185   4.271  0.4746  0.1205 -0.2722
 7877SOL    HW135267   2.381   2.184   4.266  0.5151 -2.3175 -0.4817
 7877SOL    HW235268   2.502   2.114   4.330 -0.0425 -0.1915 -0.4224
 7878SOL     OW35269   4.319   2.658   9.415  0.2730  0.2874  0.0356
 7878SOL    HW135270   4.293   2.750   9.407  0.4754  0.0688 -3.0765
 7878SOL    HW235271   4.234   2.615   9.422  0.1001  0.7819  0.9125
 7879SOL     OW35272   3.307   4.067   3.863 -0.3700  0.2334  0.4562
 7879SOL    HW135273   3.260   4.150   3.868  0.9493  1.0892 -1.6249
 7879SOL    HW235274   3.363   4.082   3.787 -2.7281 -0.3512 -1.3627
 7880SOL     OW35275   1.356   3.797   0.650 -0.5333  0.2323  0.0266
 7880SOL    HW135276   1.395   3.719   0.609 -1.3383  0.6476 -1.5264
 7880SOL    HW235277   1.326   3.769   0.737 -0.9820  0.5576 -0.0222
 7881SOL     OW35278   1.330   1.346   7.339  0.1904 -0.5762 -0.1836
 7881SOL    HW135279   1.391   1.418   7.354 -0.8406  0.5651 -1.4965
 7881SOL    HW235280   1.381   1.273   7.374  2.3680  0.4922 -1.1346
 7882SOL     OW35281   1.509   1.803   2.288  0.0443 -0.2079 -0.4174
 7882SOL    HW135282   1.459   1.742   2.344  2.6814 -0.4450  1.6942
 7882SOL    HW235283   1.525   1.761   2.204  3.7124  0.0450  0.1435
 7883SOL     OW35284   2.937   2.533   4.602  0.6103  0.5080  0.5335
 7883SOL    HW135285   2.917   2.560   4.512 -0.2229 -0.2079  0.5079
 7883SOL    HW235286   2.930   2.438   4.594 -0.0291  0.8123 -2.6997
 7884SOL     OW35287   3.012   1.653   8.359  0.1441  0.1661  0.1281
 7884SOL    HW135288   2.940   1.611   8.311 -1.6109  2.3752  0.8376
 7884SOL    HW235289   2.973   1.633   8.444 -1.0155 -2.6779 -1.0501
 7885SOL     OW35290   1.626   3.604   4.844 -0.2554  0.3244 -0.1278
 7885SOL    HW135291   1.677   3.681   4.821 -1.4613  1.5362  1.2872
 7885SOL    HW235292   1.557   3.614   4.778 -2.0334  1.4835  1.9083
 7886SOL     OW35293   0.490   2.579   6.454  0.0820  0.0301  0.5278
 7886SOL    HW135294   0.563   2.569   6.515  1.9402  2.8426 -1.2795
 7886SOL    HW235295   0.498   2.671   6.432 -0.5779 -0.2677 -0.9619
 7887SOL     OW35296   1.184   1.227   9.404 -0.4326  0.5023  0.4343
 7887SOL    HW135297   1.133   1.292   9.355  0.8704 -1.4480 -3.4530
 7887SOL    HW235298   1.120   1.192   9.466 -1.0389  1.1547  0.1793
 7888SOL     OW35299   1.273   3.120   6.365 -0.0295  0.3718  0.1943
 7888SOL    HW135300   1.300   3.199   6.412 -2.4238 -0.3854  2.8713
 7888SOL    HW235301   1.184   3.112   6.400  0.8508 -1.2442  2.0912
 7889SOL     OW35302   2.127   1.971   9.339  0.4100 -0.0141  0.3098
 7889SOL    HW135303   2.127   1.980   9.244 -1.2982 -0.2714  0.2909
 7889SOL    HW235304   2.066   2.038   9.367  1.0874  0.6744  0.1411
 7890SOL     OW35305   2.947   2.472   7.308 -0.4469  0.3596  0.2228
 7890SOL    HW135306   2.855   2.449   7.308 -0.8136  1.8341  1.4701
 7890SOL    HW235307   2.966   2.497   7.398  0.4060  0.7954 -0.0658
 7891SOL     OW35308   2.813   1.793   9.766  0.1174  0.0583  0.4210
 7891SOL    HW135309   2.869   1.816   9.840  0.9684 -1.9953  0.4142
 7891SOL    HW235310   2.770   1.714   9.799  1.5590 -0.4783  0.9930
 7892SOL     OW35311   2.477   3.071   5.003  0.3201 -0.1484  0.0043
 7892SOL    HW135312   2.389   3.034   4.987  1.8162 -2.5436 -2.7619
 7892SOL    HW235313   2.456   3.160   5.032  0.0571  0.2606 -1.4164
 7893SOL     OW35314   4.388   1.137  15.189  0.0318  0.6251  0.1041
 7893SOL    HW135315   4.421   1.225  15.199  0.2991  0.4874  0.4035
 7893SOL    HW235316   4.394   1.113  15.281 -3.4023  0.8019  0.3902
 7894SOL     OW35317   2.646   3.093   0.289 -0.2473  0.2831 -0.5259
 7894SOL    HW135318   2.630   3.174   0.241 -2.2432  1.3931  1.9706
 7894SOL    HW235319   2.621   3.039   0.214  0.3382  0.0545 -0.5583
 7895SOL     OW35320   3.762   0.570   6.212 -0.4232 -0.1456 -0.3357
 7895SOL    HW135321   3.831   0.586   6.277 -0.4117 -0.8871 -0.1669
 7895SOL    HW235322   3.728   0.659   6.205 -0.7349 -0.1194  1.7354
 7896SOL     OW35323   4.588   0.159  15.017  0.1718  0.0421  0.0075
 7896SOL    HW135324   4.529   0.127  14.949  3.6888 -2.1388 -1.9902
 7896SOL    HW235325   4.598   0.079  15.069 -1.0072  0.1206  0.3659
 7897SOL     OW35326   3.454   4.525  11.188  1.0143  0.4916 -0.1158
 7897SOL    HW135327   3.462   4.445  11.136 -0.3569  0.0363  0.3876
 7897SOL    HW235328   3.420   4.583  11.120 -2.0228  1.3201  2.0997
 7898SOL     OW35329   2.829   3.769  12.318 -0.3422 -0.2529 -0.4037
 7898SOL    HW135330   2.875   3.840  12.273  1.2121 -0.5371  0.7411
 7898SOL    HW235331   2.755   3.803  12.368  0.2115 -0.7613  0.7468
 7899SOL     OW35332   4.465   0.338   8.711 -0.3363  0.0821 -0.8541
 7899SOL    HW135333   4.409   0.328   8.635 -0.7188  3.5898 -1.0558
 7899SOL    HW235334   4.552   0.306   8.688 -0.1111  0.8299 -1.0466
 7900SOL     OW35335   0.471   0.572   7.171 -0.5598  0.3363  0.4567
 7900SOL    HW135336   0.538   0.575   7.239 -0.5209 -1.1100  0.4858
 7900SOL    HW235337   0.459   0.665   7.153  4.3463  1.6587  3.8392
 7901SOL     OW35338   4.433   2.527   4.337  0.0013  0.3251 -0.0654
 7901SOL    HW135339   4.359   2.487   4.291 -1.3417 -0.1027  2.4090
 7901SOL    HW235340   4.507   2.470   4.320 -1.8235 -2.0882  0.0059
 7902SOL     OW35341   3.605   1.339   3.468 -0.2995 -0.3362  0.2428
 7902SOL    HW135342   3.594   1.337   3.563 -2.2220 -0.1530  0.0398
 7902SOL    HW235343   3.604   1.434   3.456 -2.1849  0.0262  3.3765
 7903SOL     OW35344   2.511   1.948   4.463  1.0729 -0.1082  0.2593
 7903SOL    HW135345   2.479   1.858   4.466 -1.9297  1.0322  2.0720
 7903SOL    HW235346   2.602   1.936   4.491  0.4186 -4.2726  0.5363
 7904SOL     OW35347   2.651   2.361   9.566 -0.1928 -0.4528 -0.1465
 7904SOL    HW135348   2.560   2.365   9.595  0.3684  0.8513  1.4182
 7904SOL    HW235349   2.670   2.454   9.554 -2.1217  0.0767  0.8330
 7905SOL     OW35350   3.508   4.694   6.513 -0.2546  0.6728 -0.3593
 7905SOL    HW135351   3.559   4.635   6.568 -1.5761 -0.1173  0.0259
 7905SOL    HW235352   3.503   4.646   6.430  0.9324 -0.6332  0.3215
 7906SOL     OW35353   3.878   1.701  17.642  0.3996  0.3019 -1.2909
 7906SOL    HW135354   3.815   1.629  17.643  1.4395 -0.6023 -0.0570
 7906SOL    HW235355   3.897   1.707  17.736 -1.2264  1.7373 -1.0650
 7907SOL     OW35356   3.825   4.472   6.213  0.0055  0.1879  0.8586
 7907SOL    HW135357   3.870   4.492   6.296  0.2786 -2.2300  1.2798
 7907SOL    HW235358   3.828   4.377   6.218 -0.0635  0.1551  0.2050
 7908SOL     OW35359   2.725   3.990   6.920 -0.2725 -0.1250  0.2780
 7908SOL    HW135360   2.721   4.008   6.826 -0.9063  1.2138  0.5537
 7908SOL    HW235361   2.650   4.037   6.956 -0.1741 -0.0782  0.4223
 7909SOL     OW35362   0.780   2.591   7.060  0.2338 -0.7920 -0.1886
 7909SOL    HW135363   0.842   2.657   7.091 -1.2834  0.5678 -0.0411
 7909SOL    HW235364   0.698   2.639   7.049  0.4946 -0.4886 -0.8326
 7910SOL     OW35365   2.323   1.445   3.300 -0.4275 -0.3974  0.0123
 7910SOL    HW135366   2.247   1.417   3.351 -0.8053 -0.5777 -0.6445
 7910SOL    HW235367   2.372   1.364   3.282  1.1854  0.5710  0.0051
 7911SOL     OW35368   3.782   1.958  17.565  0.8783  0.7092  0.1637
 7911SOL    HW135369   3.707   1.947  17.506  0.6909  1.9611  0.1699
 7911SOL    HW235370   3.811   1.868  17.580 -0.5695 -0.1891 -2.3567
 7912SOL     OW35371   4.602   2.898   2.280 -0.1574 -0.0643  0.5189
 7912SOL    HW135372   4.680   2.844   2.295  0.6067  0.2286 -2.5291
 7912SOL    HW235373   4.535   2.840   2.317 -0.4947 -1.1596 -1.8636
 7913SOL     OW35374   2.435   2.910   2.217 -0.3294 -0.2875  0.1708
 7913SOL    HW135375   2.529   2.925   2.206 -0.6613  1.4919 -0.2689
 7913SOL    HW235376   2.399   2.968   2.150  0.5125 -0.8534 -0.7917
 7914SOL     OW35377   1.758   0.376   7.685 -0.2118 -0.2514 -0.4749
 7914SOL    HW135378   1.704   0.387   7.764  0.2514 -0.9573 -0.0610
 7914SOL    HW235379   1.845   0.356   7.717 -1.0824 -0.6301  1.6395
 7915SOL     OW35380   3.520   3.100   7.722  0.8734 -0.2361  0.0213
 7915SOL    HW135381   3.434   3.086   7.760 -0.8048  0.8052 -3.3345
 7915SOL    HW235382   3.500   3.093   7.628 -1.6093 -0.3337  0.5547
 7916SOL     OW35383   0.794   3.162   6.390 -0.7445  0.0736  0.1905
 7916SOL    HW135384   0.731   3.171   6.462 -0.7190  1.0328  0.0919
 7916SOL    HW235385   0.734   3.141   6.318 -1.1988 -1.7493  1.1010
 7917SOL     OW35386   2.859   0.268   4.018  0.5651  0.5320  0.2625
 7917SOL    HW135387   2.905   0.326   4.079  1.2147 -0.2369  0.4991
 7917SOL    HW235388   2.833   0.195   4.074  0.9779 -0.8092 -1.2874
 7918SOL     OW35389   2.061   4.184  11.263  0.1464 -0.7115 -0.4570
 7918SOL    HW135390   2.122   4.191  11.337 -0.7764  0.2208  0.2078
 7918SOL    HW235391   2.082   4.097  11.229  2.4003 -0.5815  0.5576
 7919SOL     OW35392   0.687   1.437   8.085 -0.2797 -0.3741  0.2190
 7919SOL    HW135393   0.637   1.360   8.060  1.0669 -1.4269  0.7698
 7919SOL    HW235394   0.729   1.465   8.004  0.4360  0.2641  0.8097
 7920SOL     OW35395   1.476   1.924   7.758  0.0681  0.4490 -0.3863
 7920SOL    HW135396   1.505   1.927   7.849 -1.4436 -1.3438  0.1575
 7920SOL    HW235397   1.563   1.907   7.720 -0.8507 -0.2882 -2.1606
 7921SOL     OW35398   1.256   3.257  11.917 -0.4152 -0.0731 -0.1174
 7921SOL    HW135399   1.246   3.198  11.842  0.2686 -0.5001  0.1259
 7921SOL    HW235400   1.260   3.339  11.867  0.0784 -0.9316 -1.4868
 7922SOL     OW35401   1.747   0.703  14.436 -0.1429  0.6149 -0.0444
 7922SOL    HW135402   1.697   0.780  14.463  1.0514  0.3476  3.0070
 7922SOL    HW235403   1.818   0.707  14.501  1.0368  1.7942 -1.4357
 7923SOL     OW35404   4.656   4.359   1.709  0.1376 -0.1430  0.1033
 7923SOL    HW135405   4.668   4.370   1.615 -0.0609 -3.7435 -0.3565
 7923SOL    HW235406   4.596   4.433   1.719  0.7081  0.0953  1.7217
 7924SOL     OW35407   4.301   1.479   5.797  0.2355  0.0517  0.2188
 7924SOL    HW135408   4.209   1.493   5.818 -0.0658  0.3357 -1.3007
 7924SOL    HW235409   4.337   1.459   5.883 -1.9466  1.3627  1.4254
 7925SOL     OW35410   0.461   2.044   9.208 -0.7612 -0.3587 -0.1486
 7925SOL    HW135411   0.391   2.086   9.258 -0.6329  0.2770 -0.4922
 7925SOL    HW235412   0.418   2.057   9.124 -1.3849 -2.6183 -0.1751
 7926SOL     OW35413   4.048   2.060   8.910 -0.5227  0.5857 -0.0460
 7926SOL    HW135414   4.037   2.129   8.974 -0.9102 -1.1605  1.7785
 7926SOL    HW235415   3.963   2.017   8.914 -0.5244  0.6058  0.1323
 7927SOL     OW35416   4.163   1.261  14.958  0.1889  0.1033  0.2128
 7927SOL    HW135417   4.112   1.203  14.901 -1.9142  0.7536  1.4462
 7927SOL    HW235418   4.099   1.311  15.009  1.4477  1.8525  0.0754
 7928SOL     OW35419   3.547   2.697   8.766  0.2541  0.0084 -0.6074
 7928SOL    HW135420   3.530   2.767   8.703 -3.2326 -0.6521 -0.4141
 7928SOL    HW235421   3.638   2.675   8.745  0.6963  1.6358 -0.4181
 7929SOL     OW35422   0.223   2.146  12.429  0.2250  0.3901  0.0474
 7929SOL    HW135423   0.217   2.101  12.345 -2.6516  0.7309  0.0851
 7929SOL    HW235424   0.149   2.105  12.473 -0.7349  1.1957 -0.8226
 7930SOL     OW35425   4.236   0.474   6.927  0.3434  0.2099  0.2840
 7930SOL    HW135426   4.164   0.520   6.884 -1.0938  0.2324  2.6625
 7930SOL    HW235427   4.308   0.536   6.921  0.4040 -0.0103 -1.0551
 7931SOL     OW35428   3.184   3.759   7.468 -0.4197 -0.4012  0.4190
 7931SOL    HW135429   3.122   3.833   7.471 -0.0066  0.0061 -0.7948
 7931SOL    HW235430   3.239   3.790   7.396 -1.1181  1.3875  0.6499
 7932SOL     OW35431   3.788   3.309   0.451 -0.3243 -0.4567 -0.0937
 7932SOL    HW135432   3.829   3.387   0.413  0.5551 -0.9329 -0.1240
 7932SOL    HW235433   3.786   3.333   0.544  1.0735  1.5922 -0.5950
 7933SOL     OW35434   1.088   4.265   6.434 -0.2633  0.0292 -0.3023
 7933SOL    HW135435   1.139   4.198   6.478 -1.1154 -2.2198 -2.7118
 7933SOL    HW235436   1.037   4.202   6.382  0.4641 -2.4684  2.0207
 7934SOL     OW35437   1.000   3.361  13.303  0.1282  0.5475  0.1738
 7934SOL    HW135438   0.928   3.323  13.353 -0.1708  0.3110 -0.4265
 7934SOL    HW235439   1.028   3.438  13.353  0.4005  0.1795  0.5810
 7935SOL     OW35440   1.660   0.633   4.545 -0.2589 -0.4084  0.1384
 7935SOL    HW135441   1.678   0.593   4.630 -1.8624 -2.4826 -0.4933
 7935SOL    HW235442   1.727   0.702   4.540 -1.6978  0.8883 -1.2361
 7936SOL     OW35443   3.892   3.066  15.333 -0.2081  0.3265 -0.1808
 7936SOL    HW135444   3.842   3.097  15.409  1.5247 -0.5045  1.2810
 7936SOL    HW235445   3.825   3.076  15.266 -0.7814 -2.1973  0.0176
 7937SOL     OW35446   0.709   0.880   8.289 -0.0683  0.2233  0.6170
 7937SOL    HW135447   0.740   0.884   8.380 -0.0788 -0.2049  0.6374
 7937SOL    HW235448   0.618   0.897   8.314  0.4132  1.1885  1.7417
 7938SOL     OW35449   3.939   4.001   5.395 -0.1550 -0.0468 -0.4400
 7938SOL    HW135450   4.023   3.978   5.432  0.4271  0.7662 -1.2332
 7938SOL    HW235451   3.907   3.938   5.330  1.4376  0.1127 -1.3782
 7939SOL     OW35452   0.811   1.467  10.670 -0.2469 -0.2759 -0.4663
 7939SOL    HW135453   0.748   1.396  10.670  0.5809 -1.0197  0.9042
 7939SOL    HW235454   0.794   1.519  10.592 -1.2277  1.1727  0.7128
 7940SOL     OW35455   4.086   4.653   1.993  0.2424 -0.0932 -0.3098
 7940SOL    HW135456   4.030   4.576   1.983 -0.6352  0.6872 -1.3513
 7940SOL    HW235457   4.135   4.627   2.072 -0.3434  1.7712  0.6730
 7941SOL     OW35458   0.533   2.655   0.259  0.3489  0.2570  0.8222
 7941SOL    HW135459   0.458   2.607   0.294  0.1904  2.4686  3.5316
 7941SOL    HW235460   0.587   2.662   0.338  1.5427 -3.5341  0.3507
 7942SOL     OW35461   2.234   0.776   7.692 -0.1489 -0.1440 -0.6543
 7942SOL    HW135462   2.327   0.800   7.694  0.1312 -1.2633 -0.1363
 7942SOL    HW235463   2.215   0.784   7.785 -2.1564  0.6164 -1.1206
 7943SOL     OW35464   0.652   3.803   2.814  0.0673  0.0042 -0.1409
 7943SOL    HW135465   0.705   3.857   2.873 -0.5026  0.4099 -0.0041
 7943SOL    HW235466   0.652   3.855   2.734 -1.0855 -0.6799 -0.5928
 7944SOL     OW35467   1.276   3.432  11.448 -0.5823  0.3010 -0.8157
 7944SOL    HW135468   1.190   3.401  11.477  0.7381 -1.0409  1.7157
 7944SOL    HW235469   1.328   3.363  11.490 -0.2042  0.1889 -1.4696
 7945SOL     OW35470   4.287   3.367  10.548  0.8187  0.3838 -1.1113
 7945SOL    HW135471   4.377   3.371  10.579  0.6160  1.7321 -0.6848
 7945SOL    HW235472   4.265   3.457  10.524  1.5166  0.5959 -0.9437
 7946SOL     OW35473   2.157   1.334   8.009 -0.8024  0.3889 -0.1793
 7946SOL    HW135474   2.247   1.337   7.979 -0.1669  2.7241  1.9268
 7946SOL    HW235475   2.103   1.332   7.930 -1.1580  1.8167  0.0205
 7947SOL     OW35476   0.204   4.301  13.940 -0.3587  0.2448  0.0597
 7947SOL    HW135477   0.164   4.231  13.889  1.6667  0.5020 -1.8985
 7947SOL    HW235478   0.292   4.268  13.959 -0.1959  1.3999  1.3114
 7948SOL     OW35479   0.690   1.325   9.579 -0.0665 -0.1475  0.0152
 7948SOL    HW135480   0.753   1.271   9.626  1.4185  1.2311 -0.4088
 7948SOL    HW235481   0.667   1.264   9.509  0.4243 -0.8589  0.4781
 7949SOL     OW35482   2.215   3.666   6.226 -0.5748 -0.0549  0.0268
 7949SOL    HW135483   2.227   3.597   6.161  0.9890 -1.6345  1.9875
 7949SOL    HW235484   2.195   3.732   6.158 -0.6868 -1.2769 -1.1258
 7950SOL     OW35485   1.609   3.583   3.140  0.5045 -0.5934 -0.2353
 7950SOL    HW135486   1.588   3.671   3.109 -1.9824 -0.5845  1.4878
 7950SOL    HW235487   1.693   3.567   3.098  1.7429 -0.4182  2.1593
 7951SOL     OW35488   4.638   2.175   7.050 -0.5578  0.2409 -0.2690
 7951SOL    HW135489   4.703   2.181   7.120 -2.3655  0.6630  1.3555
 7951SOL    HW235490   4.599   2.262   7.062  1.2073  0.9587  0.4144
 7952SOL     OW35491   3.413   1.206   3.983  0.0578 -0.3630 -0.2323
 7952SOL    HW135492   3.357   1.163   3.919 -2.2856  1.9010  0.3093
 7952SOL    HW235493   3.499   1.202   3.940 -0.7853 -1.6582 -1.8069
 7953SOL     OW35494   1.229   2.134   8.034  0.1793  0.6297  0.1493
 7953SOL    HW135495   1.237   2.067   7.966 -3.0102  1.3771 -0.9663
 7953SOL    HW235496   1.250   2.086   8.114 -0.2058  0.0987 -0.0707
 7954SOL     OW35497   3.056   0.276   2.053 -0.0862 -0.0108 -0.0343
 7954SOL    HW135498   2.985   0.318   2.004  0.3136 -0.5696 -1.1073
 7954SOL    HW235499   3.109   0.353   2.070 -0.6224  0.3131  0.1899
 7955SOL     OW35500   3.981   1.936   6.692  0.0613  0.0062 -0.1344
 7955SOL    HW135501   3.932   1.902   6.767 -1.1279  0.1019 -0.8690
 7955SOL    HW235502   4.072   1.936   6.723  0.0106  0.6575  0.0212
 7956SOL     OW35503   3.723   1.637   8.171 -0.0423  0.1104 -0.2302
 7956SOL    HW135504   3.811   1.600   8.183  0.4396  0.8231 -1.6480
 7956SOL    HW235505   3.712   1.689   8.251 -0.9728  0.9906 -0.9499
 7957SOL     OW35506   1.947   3.810   3.923  0.0735  0.3454 -0.3614
 7957SOL    HW135507   2.012   3.829   3.990 -2.1836 -0.7361  2.1411
 7957SOL    HW235508   1.915   3.898   3.902 -1.4217 -0.1771 -0.3250
 7958SOL     OW35509   2.614   1.674   1.580  0.2530 -0.5001  0.1321
 7958SOL    HW135510   2.550   1.680   1.651  0.8642  1.0388  0.5502
 7958SOL    HW235511   2.587   1.603   1.521  3.9263 -1.5937 -0.2241
 7959SOL     OW35512   4.259   4.245  12.621 -0.1530  0.7799  0.2618
 7959SOL    HW135513   4.188   4.273  12.680  0.2518  0.0892  1.0803
 7959SOL    HW235514   4.221   4.166  12.581 -1.8998  1.8408 -0.1938
 7960SOL     OW35515   1.123   3.552   8.761 -0.2385 -0.2083  0.0856
 7960SOL    HW135516   1.107   3.532   8.853  1.9922  0.1161  0.5313
 7960SOL    HW235517   1.171   3.473   8.737 -0.5765 -0.2445 -0.4807
 7961SOL     OW35518   1.800   4.643  14.572  0.2242  0.4867  0.5608
 7961SOL    HW135519   1.768   4.571  14.517 -0.5351  0.1255  1.4748
 7961SOL    HW235520   1.895   4.644  14.567  0.2292  3.5855  1.6636
 7962SOL     OW35521   2.842   2.163   6.037 -0.2925 -0.4038 -0.3279
 7962SOL    HW135522   2.779   2.222   6.077  0.4415  0.8066 -0.9315
 7962SOL    HW235523   2.930   2.195   6.058 -0.9307  1.1398 -0.0471
 7963SOL     OW35524   4.219   2.418   4.224 -0.6001  0.0758 -0.3555
 7963SOL    HW135525   4.151   2.464   4.175  0.4594  1.4706 -0.4765
 7963SOL    HW235526   4.170   2.391   4.302 -0.4825  0.3679 -0.1822
 7964SOL     OW35527   3.561   3.432   1.485 -0.2435 -0.6222 -0.0599
 7964SOL    HW135528   3.501   3.465   1.417 -0.7414 -4.1019 -1.3186
 7964SOL    HW235529   3.507   3.392   1.554  0.1401 -1.2064 -0.0996
 7965SOL     OW35530   0.469   3.492   4.336  0.4627  0.2417  0.2749
 7965SOL    HW135531   0.539   3.452   4.388 -0.3958 -1.4685  0.1210
 7965SOL    HW235532   0.481   3.586   4.348 -3.2308  0.7357  0.2412
 7966SOL     OW35533   1.562   0.148   3.773  0.1053  0.3992  0.4150
 7966SOL    HW135534   1.585   0.056   3.755 -1.0228  0.0914  0.5651
 7966SOL    HW235535   1.518   0.168   3.691 -0.2371  0.1699  0.5452
 7967SOL     OW35536   4.072   3.226  10.399  0.2733 -0.1304 -0.3860
 7967SOL    HW135537   4.134   3.166  10.356  1.8332 -0.1175  1.8232
 7967SOL    HW235538   4.118   3.252  10.479 -1.6561  1.4466  0.1946
 7968SOL     OW35539   0.686   4.652   3.395  0.0411  0.0795  0.1263
 7968SOL    HW135540   0.656   4.647   3.486 -0.8227 -0.2514 -0.1740
 7968SOL    HW235541   0.603   4.645   3.348  0.4347 -0.0312 -0.5477
 7969SOL     OW35542   0.348   1.931   0.330  0.5056  0.3314 -0.1208
 7969SOL    HW135543   0.430   1.952   0.375  0.6860 -2.1547  0.7143
 7969SOL    HW235544   0.375   1.870   0.262  0.4693  0.8432 -0.5931
 7970SOL     OW35545   0.889   1.621   4.170  0.1697 -0.8798 -0.1913
 7970SOL    HW135546   0.892   1.661   4.257 -2.5201 -0.2554 -0.3788
 7970SOL    HW235547   0.983   1.605   4.165  0.8782  3.5757 -1.1794
 7971SOL     OW35548   3.364   1.112   6.115  0.1057  0.2358  0.3444
 7971SOL    HW135549   3.438   1.056   6.138 -0.3405 -0.3989  0.2380
 7971SOL    HW235550   3.391   1.163   6.039  1.2275  0.0177  0.5978
 7972SOL     OW35551   2.049   1.281   9.880  0.9843  0.0067  0.3997
 7972SOL    HW135552   1.969   1.240   9.847 -0.9570  2.3837  2.1762
 7972SOL    HW235553   2.092   1.296   9.796  1.1913  1.7510  0.8285
 7973SOL     OW35554   3.818   2.732   9.544  0.2324  0.4707 -0.0749
 7973SOL    HW135555   3.760   2.733   9.620  0.9712  2.0659  0.4780
 7973SOL    HW235556   3.792   2.810   9.496  1.4099  0.2449 -1.0820
 7974SOL     OW35557   2.140   0.981   4.866 -0.1051  0.5188  0.4771
 7974SOL    HW135558   2.084   0.935   4.803 -0.1483  0.4276  0.5830
 7974SOL    HW235559   2.212   1.006   4.808  0.5283 -1.5650  0.3651
 7975SOL     OW35560   0.955   3.058   4.817 -0.5641  0.5317 -0.5800
 7975SOL    HW135561   1.012   3.010   4.757  0.1471  1.0726 -0.3410
 7975SOL    HW235562   0.899   2.986   4.845 -0.8789  1.3048  0.7675
 7976SOL     OW35563   4.345   3.414   0.789  0.2368 -0.2959 -0.4384
 7976SOL    HW135564   4.380   3.461   0.713 -1.2796  1.0637 -0.3093
 7976SOL    HW235565   4.283   3.359   0.741 -1.5237 -0.6706  2.2604
 7977SOL     OW35566   0.701   3.686   9.143  0.2011  0.4550  0.2304
 7977SOL    HW135567   0.787   3.644   9.135 -0.5472 -1.4381  1.9845
 7977SOL    HW235568   0.712   3.751   9.074 -1.1934  1.8031  1.2894
 7978SOL     OW35569   4.182   3.230   9.483 -0.4301  0.3592  0.2097
 7978SOL    HW135570   4.156   3.294   9.548  1.5638  0.5635  0.8159
 7978SOL    HW235571   4.092   3.223   9.452 -0.0414 -0.7165 -0.6992
 7979SOL     OW35572   3.360   2.110   6.628  0.4553  0.0719 -0.4208
 7979SOL    HW135573   3.419   2.035   6.619  0.0769 -0.2439 -0.2215
 7979SOL    HW235574   3.361   2.117   6.724 -1.3109 -0.2019 -0.3827
 7980SOL     OW35575   3.084   1.485   4.394 -0.2578  0.1654  0.0341
 7980SOL    HW135576   3.087   1.474   4.489  0.2040 -0.8072 -0.1036
 7980SOL    HW235577   3.177   1.479   4.375 -0.0453  1.9269  0.4747
 7981SOL     OW35578   1.042   3.800   2.408  0.1963  0.0421 -0.0916
 7981SOL    HW135579   1.124   3.849   2.411 -0.5161  1.0962  1.8374
 7981SOL    HW235580   1.055   3.775   2.317 -0.1026  0.7265 -0.3227
 7982SOL     OW35581   4.142   0.310   4.170 -0.0335  0.5671 -0.5115
 7982SOL    HW135582   4.181   0.345   4.089  0.5618  3.2866  0.9314
 7982SOL    HW235583   4.075   0.247   4.145 -0.4375  0.9721 -0.4495
 7983SOL     OW35584   3.567   2.563   4.723  0.0116  0.3193  0.6331
 7983SOL    HW135585   3.494   2.588   4.780  0.2833  0.9484  0.7095
 7983SOL    HW235586   3.577   2.635   4.660 -1.5182 -2.6481 -2.9650
 7984SOL     OW35587   1.633   1.129  10.985  0.2122  0.8744  0.5482
 7984SOL    HW135588   1.688   1.198  11.023  1.5583 -0.0817  0.2878
 7984SOL    HW235589   1.620   1.072  11.061  1.4165  1.5786  1.2824
 7985SOL     OW35590   0.106   1.175   2.933  0.6563  0.3200 -0.6429
 7985SOL    HW135591   0.157   1.128   2.868  0.0889  1.0287 -1.6080
 7985SOL    HW235592   0.156   1.174   3.014 -0.8197 -0.5435  0.2675
 7986SOL     OW35593   0.568   0.303   0.878  0.1268 -0.1190  0.4870
 7986SOL    HW135594   0.485   0.277   0.839  0.0409 -1.6325  1.7009
 7986SOL    HW235595   0.591   0.381   0.826  0.0406 -0.2292  0.2840
 7987SOL     OW35596   1.722   1.243   6.204  0.3774 -0.2036 -0.1166
 7987SOL    HW135597   1.678   1.159   6.195 -0.0226  0.1660 -1.5316
 7987SOL    HW235598   1.804   1.203   6.233 -0.7491 -3.6109 -1.7066
 7988SOL     OW35599   4.120   0.692   4.193 -0.1675  0.1307 -0.2208
 7988SOL    HW135600   4.085   0.779   4.211  0.1314  0.3926 -0.8960
 7988SOL    HW235601   4.141   0.648   4.276 -0.3397  0.9561  0.2601
 7989SOL     OW35602   1.453   2.206  11.544 -0.1676  0.6476 -0.0453
 7989SOL    HW135603   1.431   2.298  11.531 -2.2539  0.0936 -0.3965
 7989SOL    HW235604   1.461   2.182  11.452 -2.5418  1.4261 -0.4352
 7990SOL     OW35605   4.658   0.879   9.093 -0.3131 -0.3605 -0.1395
 7990SOL    HW135606   4.616   0.918   9.017 -0.3731  1.7870  0.9940
 7990SOL    HW235607   0.014   0.907   9.083 -0.4948 -0.2854 -1.6129
 7991SOL     OW35608   0.495   4.499  17.726  0.1965  0.2863  0.6394
 7991SOL    HW135609   0.475   4.590  17.705 -1.3988 -0.2636 -0.1786
 7991SOL    HW235610   0.578   4.484  17.680  0.4898  0.4038  1.1265
 7992SOL     OW35611   2.413   2.844   3.047 -0.1629 -0.2578  0.1677
 7992SOL    HW135612   2.362   2.910   3.094 -0.7934 -0.1719 -0.6407
 7992SOL    HW235613   2.469   2.903   2.997 -1.7076  0.3896 -0.7690
 7993SOL     OW35614   0.373   0.079   8.520 -0.0811 -0.0426  0.0566
 7993SOL    HW135615   0.332   0.160   8.551  0.9191 -0.0813  1.4662
 7993SOL    HW235616   0.343   0.075   8.429  0.2761 -1.4392  0.0057
 7994SOL     OW35617   1.023   0.220   9.505  0.9341 -0.0261 -0.3906
 7994SOL    HW135618   1.052   0.136   9.539  1.3052 -0.0436 -0.7599
 7994SOL    HW235619   0.979   0.252   9.584  2.7144 -0.6763  0.8529
 7995SOL     OW35620   1.287   4.616   8.329  0.4111 -0.5972 -0.0595
 7995SOL    HW135621   1.248   4.591   8.245 -1.3257 -0.7445  0.8088
 7995SOL    HW235622   1.366   4.663   8.301  0.8365 -0.3275  1.6113
 7996SOL     OW35623   3.086   3.363   0.459  0.0045  0.4998 -0.1374
 7996SOL    HW135624   3.114   3.273   0.475 -2.5640 -0.1731  0.5206
 7996SOL    HW235625   2.993   3.347   0.446 -0.1712  0.3783  1.3407
 7997SOL     OW35626   2.373   1.479   9.399 -0.3887  0.3721  0.7151
 7997SOL    HW135627   2.426   1.401   9.383  0.7305  1.5318 -1.2179
 7997SOL    HW235628   2.352   1.462   9.491  0.0220 -0.1786  0.7067
 7998SOL     OW35629   4.003   0.631   6.934  1.1042 -0.0886 -0.1375
 7998SOL    HW135630   3.929   0.571   6.921  1.4719 -0.2183 -1.6001
 7998SOL    HW235631   3.960   0.716   6.927  1.3222 -0.1053 -1.5956
 7999SOL     OW35632   2.681   0.708   8.460 -0.5341  0.3338  0.1353
 7999SOL    HW135633   2.615   0.748   8.517 -0.3758 -0.7737  1.0933
 7999SOL    HW235634   2.722   0.658   8.531  0.9526  0.6553 -0.5048
 8000SOL     OW35635   0.582   3.946  13.270  0.3362  1.0042  0.1624
 8000SOL    HW135636   0.552   3.972  13.183  1.4505  1.3135 -0.1312
 8000SOL    HW235637   0.564   4.024  13.323 -1.9300 -0.1729  1.1197
 8001SOL     OW35638   1.639   0.361   2.616  0.1972  0.1926  0.4689
 8001SOL    HW135639   1.695   0.436   2.598 -0.3463  0.2744 -0.8430
 8001SOL    HW235640   1.550   0.396   2.618 -0.7647 -2.1871 -2.7737
 8002SOL     OW35641   0.988   0.421   6.332 -0.2249  0.5255 -0.6038
 8002SOL    HW135642   0.934   0.381   6.264 -0.3171  2.6942 -1.7978
 8002SOL    HW235643   0.925   0.485   6.364  1.2746  2.1131 -0.8390
 8003SOL     OW35644   1.688   3.766  10.668 -0.0155 -0.0009 -0.4123
 8003SOL    HW135645   1.594   3.783  10.663 -0.0474 -0.1992 -0.5131
 8003SOL    HW235646   1.691   3.674  10.642  0.5464  0.2680 -1.3466
 8004SOL     OW35647   4.105   1.501  17.655 -0.7647 -0.2805  0.2618
 8004SOL    HW135648   4.114   1.436  17.724  0.8455 -0.1945  0.1429
 8004SOL    HW235649   4.063   1.573  17.702  1.4107  0.5385  0.9434
 8005SOL     OW35650   3.367   0.069  17.586  0.3100 -0.1561 -0.6653
 8005SOL    HW135651   3.419   4.727  17.567  0.5728 -0.1825  0.1590
 8005SOL    HW235652   3.382   0.115  17.502  1.8760 -0.1928 -0.4184
 8006SOL     OW35653   1.944   1.452  11.894  0.2170  0.4233 -0.0236
 8006SOL    HW135654   1.989   1.479  11.973  0.8448 -0.2260 -0.1666
 8006SOL    HW235655   2.006   1.461  11.821 -1.2804  1.6704 -1.1795
 8007SOL     OW35656   0.413   0.224   4.092  0.5831 -0.1976 -0.1970
 8007SOL    HW135657   0.365   0.304   4.111 -0.1199 -0.7993  0.5438
 8007SOL    HW235658   0.403   0.216   3.997 -0.6834 -1.4262  0.0391
 8008SOL     OW35659   4.092   0.395   1.952 -0.4695 -0.0128 -0.4851
 8008SOL    HW135660   4.080   0.304   1.926  0.3316 -0.8922  2.1960
 8008SOL    HW235661   4.156   0.383   2.023 -1.1265  2.1663  0.4817
 8009SOL     OW35662   2.762   1.354   1.502  0.4825  0.6897 -0.2979
 8009SOL    HW135663   2.834   1.408   1.535 -0.1195  0.6801  1.0016
 8009SOL    HW235664   2.777   1.271   1.547  1.1133  1.3245  0.6601
 8010SOL     OW35665   3.134   4.003  10.414 -0.0790  0.2169  0.1526
 8010SOL    HW135666   3.205   4.056  10.377  1.1683 -0.0914  2.0944
 8010SOL    HW235667   3.162   3.978  10.502  1.3550 -0.5323 -0.5066
 8011SOL     OW35668   3.030   3.970   7.388  0.1764 -0.1907  0.2505
 8011SOL    HW135669   3.045   4.064   7.395  0.4814 -0.4020  2.5400
 8011SOL    HW235670   2.935   3.962   7.380  0.2589 -1.0368  0.1108
 8012SOL     OW35671   2.906   3.571   0.305  0.2696  0.6580  0.2565
 8012SOL    HW135672   2.873   3.647   0.352  0.9600  1.5946 -0.7684
 8012SOL    HW235673   2.992   3.608   0.284  0.6160 -0.2225  0.1208
 8013SOL     OW35674   4.245   3.638  10.454 -0.1253  0.3537 -0.0856
 8013SOL    HW135675   4.258   3.717  10.506 -1.4337  1.6144 -1.6783
 8013SOL    HW235676   4.161   3.647  10.407  0.1358 -1.0730 -0.8289
 8014SOL     OW35677   4.043   3.077   8.573 -0.3692  0.5731 -0.0059
 8014SOL    HW135678   3.996   2.996   8.551  0.6003 -0.0354  0.1595
 8014SOL    HW235679   4.121   3.084   8.518  0.2407 -1.1848  0.6232
 8015SOL     OW35680   1.190   2.197   4.327 -0.7053 -0.0422  0.4236
 8015SOL    HW135681   1.122   2.161   4.383 -0.8320 -0.4866 -0.0159
 8015SOL    HW235682   1.245   2.246   4.389 -0.1986 -1.4330  1.0780
 8016SOL     OW35683   2.231   0.940   5.286 -0.5022  0.0667  0.0896
 8016SOL    HW135684   2.138   0.935   5.305  0.0004  2.3810  2.9808
 8016SOL    HW235685   2.231   1.018   5.230  3.9371  0.9461  1.3168
 8017SOL     OW35686   4.187   3.227   7.165  0.5051 -0.1177  0.0412
 8017SOL    HW135687   4.245   3.177   7.107 -0.7225 -0.7792 -0.6497
 8017SOL    HW235688   4.126   3.175   7.218 -1.1224 -0.2981 -1.9714
 8018SOL     OW35689   3.881   2.436   5.320 -0.2804  0.3922  0.1658
 8018SOL    HW135690   3.967   2.474   5.304  0.3626 -1.4128 -0.6053
 8018SOL    HW235691   3.843   2.509   5.370 -1.2126 -1.2081  1.7783
 8019SOL     OW35692   0.435   4.285   4.921 -0.7660 -0.0891  1.0698
 8019SOL    HW135693   0.457   4.378   4.927  1.4952 -0.5180 -0.5556
 8019SOL    HW235694   0.402   4.283   4.831  0.3141 -0.6953  0.6793
 8020SOL     OW35695   0.288   1.366  17.107 -0.4340  0.3463 -0.5289
 8020SOL    HW135696   0.297   1.444  17.162  0.7006 -0.4059  0.3492
 8020SOL    HW235697   0.347   1.315  17.163  0.4891  0.9510 -0.9481
 8021SOL     OW35698   4.195   2.622   7.441 -0.0287  0.1877  0.3630
 8021SOL    HW135699   4.167   2.610   7.532 -0.2056 -1.2328  0.1196
 8021SOL    HW235700   4.151   2.706   7.426 -2.0692 -1.0330 -0.4855
 8022SOL     OW35701   0.207   3.466  16.002 -0.1070  0.1044  0.2301
 8022SOL    HW135702   0.249   3.470  16.088  1.3232  1.1739 -0.5080
 8022SOL    HW235703   0.265   3.416  15.945  0.7610  0.4347  0.8244
 8023SOL     OW35704   1.162   3.348   7.103  0.0398 -0.1828 -0.2706
 8023SOL    HW135705   1.115   3.424   7.137  0.2850 -0.7184  1.2249
 8023SOL    HW235706   1.160   3.297   7.184  1.4788 -1.2413 -0.8916
 8024SOL     OW35707   4.467   1.175  10.208 -0.3058 -0.6990  0.1650
 8024SOL    HW135708   4.556   1.145  10.226  0.1859  1.2989  1.0595
 8024SOL    HW235709   4.438   1.188  10.298 -3.6735  1.8513 -1.2839
 8025SOL     OW35710   3.430   0.721  12.249 -0.2420  0.7807 -0.1297
 8025SOL    HW135711   3.406   0.709  12.341 -0.8264  1.7282 -0.1480
 8025SOL    HW235712   3.384   0.804  12.232  1.1706  1.7099  0.5899
 8026SOL     OW35713   4.652   3.520   3.489  0.0488 -0.0168  0.1838
 8026SOL    HW135714   4.636   3.427   3.499 -0.2011  0.0009 -0.0669
 8026SOL    HW235715   4.617   3.558   3.570  0.7550  1.2003 -0.0846
 8027SOL     OW35716   3.734   2.794   4.216 -0.3953  0.6191 -0.3225
 8027SOL    HW135717   3.725   2.811   4.122  2.1187  1.1044 -0.4856
 8027SOL    HW235718   3.654   2.760   4.255 -0.9000  1.6007 -0.4882
 8028SOL     OW35719   3.476   1.867   2.454  0.2446 -0.4643 -0.1025
 8028SOL    HW135720   3.433   1.952   2.466 -3.3089 -2.3553  0.6459
 8028SOL    HW235721   3.570   1.879   2.464  0.1595  1.1439 -1.1440
 8029SOL     OW35722   4.113   3.952   5.793  0.0224 -0.1439 -0.5363
 8029SOL    HW135723   4.193   3.900   5.785 -0.1036 -0.5703  1.1214
 8029SOL    HW235724   4.145   4.027   5.844 -0.5663  1.0801 -1.9406
 8030SOL     OW35725   0.694   1.130   5.704 -0.0780 -0.7625  0.1700
 8030SOL    HW135726   0.724   1.212   5.666  0.9829 -1.0361  0.4091
 8030SOL    HW235727   0.653   1.081   5.633  0.1938  1.5672 -1.5767
 8031SOL     OW35728   4.412   2.725  16.670  0.0690  0.7727 -0.3152
 8031SOL    HW135729   4.317   2.729  16.664  0.0921  2.2439  0.3879
 8031SOL    HW235730   4.427   2.703  16.762 -2.0664 -0.8880 -0.3709
 8032SOL     OW35731   1.702   1.876   4.625 -0.0365 -0.2219  0.7872
 8032SOL    HW135732   1.674   1.966   4.606 -0.5928 -0.8478 -1.4511
 8032SOL    HW235733   1.660   1.870   4.710  0.7094 -0.2936  1.1530
 8033SOL     OW35734   3.472   0.884   4.241 -0.0269 -0.3586  0.5540
 8033SOL    HW135735   3.400   0.934   4.203 -0.8548 -1.3283  0.8242
 8033SOL    HW235736   3.432   0.800   4.265 -2.3380  0.2792 -1.1031
 8034SOL     OW35737   0.976   1.679   9.238 -0.1912 -0.2253  0.5226
 8034SOL    HW135738   0.980   1.760   9.288 -1.1728 -0.0784  0.3752
 8034SOL    HW235739   1.039   1.693   9.167  0.6842  0.2907  1.4141
 8035SOL     OW35740   0.491   2.537   7.985 -0.1359  0.0034  0.1402
 8035SOL    HW135741   0.510   2.443   7.976 -1.7029 -0.0572 -2.5286
 8035SOL    HW235742   0.560   2.568   7.926 -1.0026 -0.4047 -1.0880
 8036SOL     OW35743   3.729   0.124   4.740  0.7938 -0.0693 -0.3052
 8036SOL    HW135744   3.681   0.049   4.775  0.3137 -0.3289 -1.5235
 8036SOL    HW235745   3.787   0.152   4.811 -1.2260 -1.2152  1.8051
 8037SOL     OW35746   0.303   1.420   0.891 -0.3919  0.4549 -0.5630
 8037SOL    HW135747   0.398   1.429   0.885 -0.3766 -0.0832 -1.1390
 8037SOL    HW235748   0.288   1.444   0.983  1.6097  0.8090 -0.3457
 8038SOL     OW35749   3.997   3.455  10.326  0.1606 -0.4662  0.0758
 8038SOL    HW135750   4.034   3.372  10.356 -0.7897  0.2205  3.0986
 8038SOL    HW235751   4.036   3.455  10.238 -0.7446  1.1793 -0.3259
 8039SOL     OW35752   2.234   4.270   3.154  0.3456  0.0585  0.3480
 8039SOL    HW135753   2.151   4.243   3.113 -1.2318  3.1228  1.5569
 8039SOL    HW235754   2.238   4.199   3.218 -0.9645  0.5687  0.9915
 8040SOL     OW35755   0.481   1.488   1.218 -0.0279 -0.3091 -0.1813
 8040SOL    HW135756   0.485   1.393   1.230 -2.5864 -0.4383 -0.2106
 8040SOL    HW235757   0.562   1.516   1.260  0.8171 -2.5942 -0.2409
 8041SOL     OW35758   4.248   2.533  16.313  0.2902 -0.0951  0.3888
 8041SOL    HW135759   4.283   2.485  16.388  2.8008  1.9565  0.5147
 8041SOL    HW235760   4.169   2.573  16.348  2.9265  3.8705  1.8179
 8042SOL     OW35761   1.394   3.643  11.541  0.1781  0.6428  0.3320
 8042SOL    HW135762   1.473   3.601  11.576  1.3553  0.6627 -2.3111
 8042SOL    HW235763   1.367   3.569  11.486  1.0620 -0.5742  1.5113
 8043SOL     OW35764   0.131   1.111   2.202 -0.3249  0.0749  0.8438
 8043SOL    HW135765   0.088   1.113   2.116 -1.0018 -0.8612  1.1598
 8043SOL    HW235766   0.197   1.180   2.193 -1.7987  1.5534  1.2156
 8044SOL     OW35767   0.556   4.287   6.863 -0.4717 -0.6534  0.3065
 8044SOL    HW135768   0.529   4.376   6.885 -1.4200 -1.4352  2.3153
 8044SOL    HW235769   0.631   4.282   6.923 -1.0019 -2.2833  0.8491
 8045SOL     OW35770   2.847   3.473   3.455 -0.0214  0.2325  0.4126
 8045SOL    HW135771   2.883   3.407   3.396  0.5362  1.3852 -0.5431
 8045SOL    HW235772   2.868   3.453   3.546  1.8718 -0.3037 -0.1521
 8046SOL     OW35773   2.231   1.147   5.126 -0.2603 -0.0865 -0.3634
 8046SOL    HW135774   2.286   1.156   5.048  0.7101 -0.8544  0.2378
 8046SOL    HW235775   2.141   1.141   5.093 -0.4834  0.9946  0.0576
 8047SOL     OW35776   0.508   0.735   3.714 -0.0373 -0.4367 -0.2960
 8047SOL    HW135777   0.425   0.753   3.758 -0.1231  3.3181 -1.9581
 8047SOL    HW235778   0.491   0.652   3.669  0.6986  0.3060 -1.9296
 8048SOL     OW35779   0.138   1.493   6.792 -0.1587 -0.4066  0.3737
 8048SOL    HW135780   0.227   1.512   6.762 -0.9870 -0.8226 -2.3851
 8048SOL    HW235781   0.117   1.406   6.758 -0.4789 -0.6933  1.3144
 8049SOL     OW35782   3.822   0.854   5.751  0.2702  0.2265 -0.5934
 8049SOL    HW135783   3.809   0.942   5.785  0.8942 -1.3624  3.7106
 8049SOL    HW235784   3.736   0.840   5.709  0.0546 -0.9994  0.2584
 8050SOL     OW35785   3.870   2.593  13.417  0.5604 -0.0739 -0.1863
 8050SOL    HW135786   3.890   2.679  13.379 -1.6306  0.1742 -0.7669
 8050SOL    HW235787   3.779   2.605  13.444  0.0100 -1.2716 -1.5147
 8051SOL     OW35788   2.836   3.839   0.394  0.3496  0.1905 -0.0452
 8051SOL    HW135789   2.924   3.872   0.411  1.3213 -1.3757 -2.1122
 8051SOL    HW235790   2.797   3.906   0.338  0.4263  1.6029  1.5838
 8052SOL     OW35791   4.219   0.403   7.649 -0.0675 -0.3846  0.8327
 8052SOL    HW135792   4.127   0.392   7.673 -0.7795  1.2213 -1.1628
 8052SOL    HW235793   4.252   0.402   7.739 -0.7507  1.0809  1.1189
 8053SOL     OW35794   2.143   4.679   1.328  0.1044  0.1256  0.0661
 8053SOL    HW135795   2.061   4.701   1.372 -0.0304 -1.6402  0.6987
 8053SOL    HW235796   2.199   4.684   1.406  0.8086 -2.5444 -0.2512
 8054SOL     OW35797   2.387   0.313  13.086  0.4977 -0.1567  0.0470
 8054SOL    HW135798   2.342   0.397  13.080 -0.4092 -0.7111 -0.8501
 8054SOL    HW235799   2.345   0.288  13.169 -0.4882 -1.4901 -0.8560
 8055SOL     OW35800   0.103   1.422   8.740  0.1710 -0.0674 -0.0622
 8055SOL    HW135801   0.163   1.378   8.801  1.6053 -0.6453 -1.9017
 8055SOL    HW235802   0.025   1.372   8.761  1.7417 -2.6660 -0.3268
 8056SOL     OW35803   1.118   2.935   3.933  0.5038 -0.1223  0.0011
 8056SOL    HW135804   1.086   2.856   3.891 -3.0745  2.4269 -2.0922
 8056SOL    HW235805   1.042   2.988   3.909 -0.8044 -1.4475  1.2355
 8057SOL     OW35806   3.112   2.337   9.116 -0.1907 -0.0848  0.2794
 8057SOL    HW135807   3.084   2.251   9.148  1.2977  0.0371  1.8751
 8057SOL    HW235808   3.162   2.311   9.039 -0.7463 -1.4892  0.3942
 8058SOL     OW35809   4.460   1.245   9.853  0.1028  0.1683 -0.4273
 8058SOL    HW135810   4.482   1.274   9.764 -0.3496 -1.2010 -0.9762
 8058SOL    HW235811   4.499   1.158   9.859  0.1136  0.2469  0.6008
 8059SOL     OW35812   3.386   0.468   5.860 -0.3901  0.1331  0.3346
 8059SOL    HW135813   3.460   0.491   5.915  1.3149 -0.2243 -1.7988
 8059SOL    HW235814   3.318   0.506   5.916  0.0679  3.1436 -1.1379
 8060SOL     OW35815   0.889   4.084   9.857 -0.3074  0.3635 -0.1071
 8060SOL    HW135816   0.911   4.172   9.888 -0.6345 -0.0784  1.3611
 8060SOL    HW235817   0.899   4.036   9.939 -1.0076 -0.1035 -0.2967
 8061SOL     OW35818   4.437   2.715   7.308  0.6207 -0.7695 -0.1202
 8061SOL    HW135819   4.351   2.690   7.343  0.9302  0.0234  1.1943
 8061SOL    HW235820   4.489   2.717   7.388  0.7150 -0.9514 -0.1768
 8062SOL     OW35821   4.143   0.303  12.659  1.0039 -0.2054  0.3589
 8062SOL    HW135822   4.229   0.317  12.699  1.4159 -1.4177 -0.1041
 8062SOL    HW235823   4.084   0.297  12.735  0.2436  0.5497 -0.1776
 8063SOL     OW35824   3.555   2.445  16.197  0.9636 -0.0269 -0.0964
 8063SOL    HW135825   3.562   2.350  16.186  0.9027 -0.1385  0.8667
 8063SOL    HW235826   3.555   2.457  16.292  2.6092  2.0363 -0.3597
 8064SOL     OW35827   3.294   1.305   9.089 -0.4649 -0.1192  0.4140
 8064SOL    HW135828   3.199   1.293   9.089 -0.4231 -0.5169  1.2706
 8064SOL    HW235829   3.316   1.328   9.179  0.9653  0.4566 -0.0816
 8065SOL     OW35830   2.568   1.074   9.616 -0.5814 -0.3317  0.2172
 8065SOL    HW135831   2.577   1.152   9.672  0.4738 -0.9327  0.8830
 8065SOL    HW235832   2.619   1.012   9.669  1.0889 -0.6817 -1.7966
 8066SOL     OW35833   3.753   4.060   4.813  0.3918 -0.4512 -0.5182
 8066SOL    HW135834   3.846   4.036   4.818  0.5448  0.5364  1.6267
 8066SOL    HW235835   3.745   4.066   4.908  1.3080 -1.3563 -0.3874
 8067SOL     OW35836   0.032   2.521   2.082  0.4990  0.4780  0.0011
 8067SOL    HW135837   0.025   2.437   2.037 -3.8041  1.4517 -1.1325
 8067SOL    HW235838   0.125   2.544   2.076  0.8688 -1.2755 -0.8160
 8068SOL     OW35839   0.960   2.360   5.926 -0.5668 -0.0817  0.0553
 8068SOL    HW135840   0.911   2.412   5.990 -1.2586  1.9301 -2.1034
 8068SOL    HW235841   0.912   2.405   5.856 -0.2711  2.3483  1.4467
 8069SOL     OW35842   3.991   2.118  13.558  0.5676  0.2620 -0.2033
 8069SOL    HW135843   3.994   2.213  13.544  0.9191  0.1031 -1.2272
 8069SOL    HW235844   4.042   2.087  13.483 -0.1770 -0.2794 -0.4860
 8070SOL     OW35845   3.246   3.594   5.050  0.1775 -0.3367  0.0778
 8070SOL    HW135846   3.184   3.651   5.096  1.4317  1.3933 -0.3530
 8070SOL    HW235847   3.303   3.566   5.122  1.6027  0.7356 -0.6196
 8071SOL     OW35848   3.260   1.115  10.219  0.2083 -0.1396 -0.2164
 8071SOL    HW135849   3.251   1.162  10.136  1.5414  0.0890 -0.2257
 8071SOL    HW235850   3.308   1.037  10.193  1.8028  0.5520  0.6356
 8072SOL     OW35851   0.114   1.479   6.442 -0.0356 -0.3953  0.1147
 8072SOL    HW135852   0.060   1.473   6.363  1.5812 -3.0518 -0.7779
 8072SOL    HW235853   0.087   1.399   6.487  0.5918 -0.0257  1.1631
 8073SOL     OW35854   1.321   1.866  12.785  0.0391  0.1361 -0.7444
 8073SOL    HW135855   1.313   1.806  12.859 -0.6852 -1.8119 -2.3844
 8073SOL    HW235856   1.234   1.859  12.747 -0.7681  1.6369  0.8315
 8074SOL     OW35857   4.548   3.679   3.678  0.3818  0.2160 -0.4984
 8074SOL    HW135858   4.454   3.672   3.691  0.4234 -3.4064 -2.1072
 8074SOL    HW235859   4.570   3.768   3.705  1.4664  0.2202 -1.4155
 8075SOL     OW35860   2.768   4.041   8.931 -0.1868  0.0054 -0.1993
 8075SOL    HW135861   2.731   3.960   8.966  0.1361 -0.0692 -0.0243
 8075SOL    HW235862   2.850   4.010   8.892 -0.3070 -0.6430  0.0519
 8076SOL     OW35863   4.381   1.562   4.721 -0.4753  0.1535  0.1956
 8076SOL    HW135864   4.391   1.657   4.713 -0.7477  0.3387  2.0420
 8076SOL    HW235865   4.411   1.545   4.811 -2.5309  1.5047  1.1396
 8077SOL     OW35866   2.718   3.500   8.696 -0.0192  1.0734  0.1909
 8077SOL    HW135867   2.661   3.454   8.634 -0.0171  1.3251  0.0029
 8077SOL    HW235868   2.760   3.560   8.634 -0.4425 -0.6079 -1.7255
 8078SOL     OW35869   0.204   0.726   2.752  0.1264  0.2721  0.6116
 8078SOL    HW135870   0.256   0.659   2.795  1.7703  1.2612  0.1439
 8078SOL    HW235871   0.112   0.699   2.757 -0.2725  1.0915 -2.4399
 8079SOL     OW35872   3.692   0.997   4.394 -0.0206 -0.6982 -0.1900
 8079SOL    HW135873   3.701   0.937   4.468 -0.0825 -0.5057 -0.0256
 8079SOL    HW235874   3.627   0.952   4.339 -0.4803 -0.8702  0.4890
 8080SOL     OW35875   4.047   2.060   2.211 -0.1595  0.2699 -0.0389
 8080SOL    HW135876   3.987   1.985   2.202 -2.1304  1.8323  0.1455
 8080SOL    HW235877   4.059   2.067   2.306 -2.4250  1.9923  0.1293
 8081SOL     OW35878   4.115   2.750   4.158 -0.4787 -0.2466 -0.3609
 8081SOL    HW135879   4.188   2.750   4.095 -1.4871  3.0411 -1.5718
 8081SOL    HW235880   4.090   2.658   4.163  0.1369 -0.3679  0.3950
 8082SOL     OW35881   3.996   1.422   1.607 -0.3689  0.0569  0.2030
 8082SOL    HW135882   3.953   1.352   1.557 -0.0298  0.7992 -1.1199
 8082SOL    HW235883   3.920   1.466   1.645 -1.3563 -0.9224 -0.6314
 8083SOL     OW35884   0.336   0.278   8.906 -0.5090 -0.3890  0.0200
 8083SOL    HW135885   0.324   0.368   8.934  2.5893  0.1963 -0.6304
 8083SOL    HW235886   0.351   0.236   8.991  2.0466  0.3780 -0.0855
 8084SOL     OW35887   2.322   0.336   2.536  0.9113  0.0572 -0.1077
 8084SOL    HW135888   2.312   0.256   2.486 -2.8187 -0.9251  2.1890
 8084SOL    HW235889   2.405   0.363   2.496  1.6157 -0.9165  0.7004
 8085SOL     OW35890   2.076   2.693   8.429  0.0664  0.0554  0.5059
 8085SOL    HW135891   2.066   2.786   8.410 -1.4537  0.1151  1.6054
 8085SOL    HW235892   1.993   2.672   8.472 -0.3657  0.7707  0.0194
 8086SOL     OW35893   4.627   1.623   6.831  0.1687  0.0555  0.0261
 8086SOL    HW135894   4.714   1.587   6.848 -0.4981 -1.8294 -0.5306
 8086SOL    HW235895   4.642   1.668   6.748  2.1041 -3.7263 -1.6601
 8087SOL     OW35896   2.299   4.589   6.493 -0.4790 -0.4034  0.4526
 8087SOL    HW135897   2.367   4.622   6.435  1.7303 -0.3414  3.0576
 8087SOL    HW235898   2.278   4.517   6.433  2.4962  1.0174 -2.3154
 8088SOL     OW35899   4.374   4.634   6.966  0.2537  0.7306  0.6950
 8088SOL    HW135900   4.299   4.647   7.025  0.3180  1.0239  0.7096
 8088SOL    HW235901   4.336   4.679   6.891 -1.4677 -1.6158  0.1472
 8089SOL     OW35902   1.651   3.947   2.766  0.3610  0.4209  0.3275
 8089SOL    HW135903   1.618   3.871   2.814  1.1481 -0.3648 -0.3853
 8089SOL    HW235904   1.678   3.993   2.846 -1.3573  1.8854  0.0473
 8090SOL     OW35905   2.651   1.611   1.944  0.0647 -0.0728 -0.1590
 8090SOL    HW135906   2.568   1.566   1.961  0.9359 -1.5434  0.1053
 8090SOL    HW235907   2.689   1.539   1.894  1.0545 -1.0112  1.9789
 8091SOL     OW35908   1.445   0.200   1.868 -0.0042  0.8453 -0.4051
 8091SOL    HW135909   1.485   0.234   1.788 -0.2029 -2.4767 -1.9383
 8091SOL    HW235910   1.482   0.261   1.931  1.1151  0.1573 -0.4037
 8092SOL     OW35911   2.042   3.371   7.481  0.2308  0.0681 -0.3370
 8092SOL    HW135912   2.094   3.375   7.400 -0.8101 -0.4425 -1.0425
 8092SOL    HW235913   1.957   3.341   7.447 -1.5653  0.6775  3.6536
 8093SOL     OW35914   3.910   0.450   3.537  0.6906  0.1424  0.1047
 8093SOL    HW135915   3.908   0.519   3.604  0.5499  0.3461 -0.1115
 8093SOL    HW235916   3.824   0.409   3.538  0.4212  0.6513 -2.9492
 8094SOL     OW35917   1.561   2.101   3.346  0.2421 -0.1613 -0.2530
 8094SOL    HW135918   1.641   2.083   3.396 -1.0158  0.8909  2.1641
 8094SOL    HW235919   1.590   2.097   3.255 -0.4272  0.8525 -0.5129
 8095SOL     OW35920   0.424   4.082   2.760 -0.2677  0.0781  0.3002
 8095SOL    HW135921   0.511   4.048   2.741 -0.8341  0.2623 -2.5602
 8095SOL    HW235922   0.461   4.171   2.767  0.4566 -0.2824  1.0566
 8096SOL     OW35923   0.424   2.285  13.744 -0.1817 -0.5240  0.4282
 8096SOL    HW135924   0.333   2.263  13.724 -0.9477  2.7098  0.2857
 8096SOL    HW235925   0.410   2.376  13.770  0.5938 -0.0868 -0.7106
 8097SOL     OW35926   0.048   3.319   4.903  0.1349  0.0010 -0.0920
 8097SOL    HW135927   4.700   3.360   4.882  1.7077  3.7813  1.1057
 8097SOL    HW235928   0.020   3.234   4.939  0.5694 -0.8017 -1.6523
 8098SOL     OW35929   2.694   4.062   0.830 -0.0297 -0.1065 -0.2869
 8098SOL    HW135930   2.702   3.982   0.778 -2.4750  0.6794 -1.8488
 8098SOL    HW235931   2.617   4.046   0.883  0.8554 -0.8697  0.7767
 8099SOL     OW35932   3.384   3.242   3.538 -0.3351  0.2376 -0.1185
 8099SOL    HW135933   3.398   3.147   3.536  2.5070  0.6310  0.9775
 8099SOL    HW235934   3.410   3.268   3.626  0.5165 -2.2718  0.3947
 8100SOL     OW35935   0.810   1.023   4.223 -0.4704 -0.6178  0.0795
 8100SOL    HW135936   0.767   1.089   4.169 -0.8784 -0.6547  0.3581
 8100SOL    HW235937   0.732   0.988   4.267  0.5489  0.7214  2.9755
 8101SOL     OW35938   1.557   0.018   0.803  0.2804  0.1864  0.3203
 8101SOL    HW135939   1.488   0.049   0.861  1.8454  1.2517  1.6125
 8101SOL    HW235940   1.634   0.017   0.860 -0.5756 -2.3206  1.4510
 8102SOL     OW35941   2.108   0.920   9.750  0.3623  0.8855 -0.0512
 8102SOL    HW135942   2.162   0.928   9.828  0.8799  2.5780 -0.5746
 8102SOL    HW235943   2.103   0.825   9.737  3.3084  0.7561 -0.3965
 8103SOL     OW35944   4.212   3.339   5.391  0.2311  0.0352 -0.3466
 8103SOL    HW135945   4.244   3.327   5.481  2.3390  0.3912 -1.0380
 8103SOL    HW235946   4.123   3.310   5.410  1.8950 -3.9751  1.4024
 8104SOL     OW35947   0.179   0.357   9.383  0.7052 -0.2584 -0.1437
 8104SOL    HW135948   0.266   0.337   9.418  0.9327  2.4208  0.7878
 8104SOL    HW235949   0.198   0.429   9.323 -1.9563 -1.3833 -2.3250
 8105SOL     OW35950   2.373   0.756   0.778  0.0198  0.3140  0.0252
 8105SOL    HW135951   2.441   0.688   0.776  1.1211  1.4423 -0.5526
 8105SOL    HW235952   2.356   0.767   0.685 -0.0654 -0.2502 -0.0280
 8106SOL     OW35953   3.681   1.984   5.257 -0.2892 -0.1608 -0.4046
 8106SOL    HW135954   3.775   1.969   5.272 -0.4303  0.0690  0.7190
 8106SOL    HW235955   3.685   2.078   5.241 -2.7315 -0.0229 -0.1357
 8107SOL     OW35956   4.507   2.991   1.419  0.2126 -0.0478  0.0665
 8107SOL    HW135957   4.602   2.992   1.406 -0.0659 -1.2993 -1.9749
 8107SOL    HW235958   4.494   2.903   1.455  0.4475 -0.5697 -1.1293
 8108SOL     OW35959   3.523   3.899   5.491 -0.0290 -0.2795 -0.0203
 8108SOL    HW135960   3.517   3.994   5.483  0.2370 -0.3621 -1.1550
 8108SOL    HW235961   3.430   3.880   5.474 -0.6352  1.3746  1.4314
 8109SOL     OW35962   4.075   2.661   4.685 -0.2859 -0.1484  0.1587
 8109SOL    HW135963   4.094   2.634   4.595  0.3042 -0.8631  0.4949
 8109SOL    HW235964   4.136   2.605   4.734  0.8269  0.3421 -0.6663
 8110SOL     OW35965   3.719   1.297   6.968 -0.4939  0.2444  0.0458
 8110SOL    HW135966   3.799   1.255   6.935 -1.0529 -2.3111  1.9132
 8110SOL    HW235967   3.681   1.313   6.882 -0.0255  0.8454 -0.0546
 8111SOL     OW35968   1.751   1.898  14.215 -0.1953 -0.1368  0.0418
 8111SOL    HW135969   1.693   1.962  14.174  0.9120 -0.0338 -1.3602
 8111SOL    HW235970   1.687   1.830  14.236  0.2414 -1.5923 -3.3322
 8112SOL     OW35971   2.037   1.787   4.011 -0.3389 -0.1801  0.4089
 8112SOL    HW135972   2.052   1.815   4.102 -0.0992 -2.3498  1.0395
 8112SOL    HW235973   1.966   1.845   3.984 -1.4132 -2.1711 -1.0383
 8113SOL     OW35974   2.771   2.614   0.680 -0.5817  0.2037 -0.2722
 8113SOL    HW135975   2.677   2.622   0.662 -0.9735 -2.9748  0.4028
 8113SOL    HW235976   2.784   2.700   0.720  0.7034 -0.1856  0.1329
 8114SOL     OW35977   1.873   0.160   7.257  0.0416  0.6161 -0.4615
 8114SOL    HW135978   1.844   0.073   7.227 -1.0373  0.8200  0.0147
 8114SOL    HW235979   1.921   0.136   7.336 -1.2673  2.2433  0.8141
 8115SOL     OW35980   1.407   1.476   3.345  0.4690  0.5974 -0.5623
 8115SOL    HW135981   1.423   1.465   3.251 -0.1791 -0.2756 -0.5674
 8115SOL    HW235982   1.330   1.533   3.345  0.2775  0.3440  0.5599
 8116SOL     OW35983   3.217   3.366  17.151 -0.7425 -0.6065 -0.0205
 8116SOL    HW135984   3.154   3.425  17.110  0.1252  0.0104 -0.4623
 8116SOL    HW235985   3.207   3.397  17.241 -1.3493 -1.3854  0.1885
 8117SOL     OW35986   4.370   1.683   2.631  0.2529 -0.0882  0.1983
 8117SOL    HW135987   4.346   1.702   2.540  3.5120 -3.8342 -1.4287
 8117SOL    HW235988   4.338   1.765   2.670 -2.4950 -1.2201  0.3645
 8118SOL     OW35989   4.020   0.267  15.428  0.0120  0.0285  0.2876
 8118SOL    HW135990   4.034   0.176  15.403  1.7430  0.6353 -0.9791
 8118SOL    HW235991   4.088   0.309  15.374  1.4407 -2.1852  0.3665
 8119SOL     OW35992   0.964   4.199  15.251 -0.0717  0.0995 -0.8876
 8119SOL    HW135993   0.968   4.105  15.238 -2.1116 -0.0798 -0.2032
 8119SOL    HW235994   0.872   4.224  15.239  0.0776  1.0436 -0.0829
 8120SOL     OW35995   4.083   0.404   3.040  0.4503 -0.1714  0.0505
 8120SOL    HW135996   4.010   0.360   3.084 -1.0629  1.2764 -1.0296
 8120SOL    HW235997   4.149   0.335   3.052  0.8389 -0.1923 -2.2474
 8121SOL     OW35998   1.337   1.803   0.033 -0.2921  0.6741  0.3509
 8121SOL    HW135999   1.333   1.899   0.032 -1.8267  0.6076 -0.4920
 8121SOL    HW236000   1.337   1.788   0.128  2.1918  1.5639  0.4788
 8122SOL     OW36001   2.333   3.354   7.728  0.0991  0.4490  0.1776
 8122SOL    HW136002   2.420   3.341   7.689  0.2973  0.9846  0.4458
 8122SOL    HW236003   2.312   3.443   7.699  1.2592  0.8103  0.4597
 8123SOL     OW36004   0.819   2.483   4.988  0.3019  0.2033 -0.0075
 8123SOL    HW136005   0.901   2.448   4.955 -0.2263 -0.4778 -0.5798
 8123SOL    HW236006   0.782   2.399   5.016  1.1531 -0.5781 -1.2611
 8124SOL     OW36007   2.338   2.719   7.918 -0.1722  0.7770  0.3419
 8124SOL    HW136008   2.288   2.731   7.837 -1.4774 -1.6065  0.7939
 8124SOL    HW236009   2.346   2.810   7.949 -0.4002  0.3558  1.6329
 8125SOL     OW36010   4.333   3.940   9.778 -0.1353  0.3169 -0.1256
 8125SOL    HW136011   4.326   3.909   9.688  0.8482 -2.1369  0.6502
 8125SOL    HW236012   4.254   3.993   9.791 -0.3434  0.7938 -3.2252
 8126SOL     OW36013   2.913   3.192   6.409 -0.1024 -0.1499  0.0178
 8126SOL    HW136014   2.887   3.114   6.458 -1.4157  0.3340  0.0966
 8126SOL    HW236015   2.958   3.238   6.480  0.9280 -0.7617 -0.2520
 8127SOL     OW36016   3.458   0.821   2.109  0.3716 -0.3261  0.0573
 8127SOL    HW136017   3.511   0.823   2.189  0.4733 -1.9361  0.0283
 8127SOL    HW236018   3.467   0.911   2.078 -1.3595 -0.4487 -0.7871
 8128SOL     OW36019   2.197   3.685   3.415  0.6405 -0.0882 -0.1230
 8128SOL    HW136020   2.266   3.658   3.355  0.2279  0.2230 -0.7322
 8128SOL    HW236021   2.212   3.610   3.473 -1.2484 -1.3513 -1.2413
 8129SOL     OW36022   1.180   1.760  11.058  0.6018  0.7345 -0.3783
 8129SOL    HW136023   1.108   1.786  11.001 -0.2960 -0.3411  0.2925
 8129SOL    HW236024   1.185   1.665  11.054  0.7427  0.6282  1.9828
 8130SOL     OW36025   1.963   0.450   5.373 -0.2239 -0.6422 -0.0832
 8130SOL    HW136026   2.040   0.480   5.326  0.1529  1.6189  1.9932
 8130SOL    HW236027   1.910   0.429   5.296  0.8232 -1.9756 -0.4281
 8131SOL     OW36028   3.498   2.823   9.457  0.3488 -0.8014 -0.4220
 8131SOL    HW136029   3.414   2.869   9.452  0.2962 -0.5947  2.2000
 8131SOL    HW236030   3.483   2.730   9.446  1.9080 -1.2200  0.9795
 8132SOL     OW36031   1.080   1.400  10.351  0.4019  0.3310  0.0796
 8132SOL    HW136032   1.093   1.369  10.440  3.5073 -1.3285 -0.9313
 8132SOL    HW236033   1.056   1.490  10.376  1.1330  0.5245  0.1016
 8133SOL     OW36034   0.700   1.180   4.766  0.7703  0.1833 -0.1489
 8133SOL    HW136035   0.738   1.162   4.680  1.0560 -1.6288  0.3532
 8133SOL    HW236036   0.654   1.261   4.745 -0.2446  0.0706  1.6332
 8134SOL     OW36037   3.944   4.075   7.538  0.4724  0.3623  0.0084
 8134SOL    HW136038   3.967   3.996   7.587 -1.5783 -0.8653 -0.9855
 8134SOL    HW236039   4.026   4.097   7.495  0.0321  1.1450 -0.4390
 8135SOL     OW36040   0.720   3.818  16.827 -0.2344 -0.3162  0.8155
 8135SOL    HW136041   0.668   3.787  16.902  0.7202 -0.9540  1.2239
 8135SOL    HW236042   0.755   3.739  16.786  0.4830 -0.1226  1.0399
 8136SOL     OW36043   1.518   1.719   6.741 -0.7502  0.1950  0.6510
 8136SOL    HW136044   1.566   1.691   6.663 -0.3511  1.0933  0.5806
 8136SOL    HW236045   1.491   1.630   6.767 -0.5914 -0.1253 -0.2807
 8137SOL     OW36046   4.069   3.210   5.957  0.2228  0.2425 -0.1627
 8137SOL    HW136047   4.033   3.154   5.888 -0.3407 -0.5582  0.7832
 8137SOL    HW236048   4.161   3.220   5.932  0.5622  0.9416  1.3631
 8138SOL     OW36049   1.864   4.079   3.912  0.5836  0.1093 -0.1230
 8138SOL    HW136050   1.889   4.167   3.884  0.4551 -0.3717 -1.7405
 8138SOL    HW236051   1.814   4.110   3.987  1.4664 -1.0570  0.9365
 8139SOL     OW36052   2.618   4.242   8.808 -0.2000  0.2835  0.1559
 8139SOL    HW136053   2.536   4.234   8.857  0.6362 -1.9975  1.1463
 8139SOL    HW236054   2.669   4.188   8.868  1.2238  1.9293  0.4047
 8140SOL     OW36055   4.664   1.786  12.235 -0.3214 -0.3167  0.1540
 8140SOL    HW136056   4.707   1.713  12.279 -0.5859  1.1164  2.8045
 8140SOL    HW236057   4.631   1.737  12.160  0.0713 -1.5227  0.7735
 8141SOL     OW36058   3.470   3.797  12.289 -0.2994 -0.2917 -0.5776
 8141SOL    HW136059   3.494   3.706  12.309 -0.8645  0.2698  2.5669
 8141SOL    HW236060   3.378   3.789  12.266 -0.6536 -2.8847  1.7366
 8142SOL     OW36061   0.712   4.652   2.633  0.3890 -0.0251  0.0048
 8142SOL    HW136062   0.686   4.572   2.586  2.4973 -0.8656  0.3109
 8142SOL    HW236063   0.806   4.659   2.621  0.2349  0.1071 -1.1877
 8143SOL     OW36064   2.968   2.648   5.125  0.5080 -0.0122 -0.3429
 8143SOL    HW136065   2.904   2.695   5.179  1.5462  1.0142  0.0007
 8143SOL    HW236066   3.021   2.713   5.078 -2.0498  2.1164 -0.3607
 8144SOL     OW36067   3.805   0.527   7.434 -0.4708 -0.1087 -0.1530
 8144SOL    HW136068   3.830   0.569   7.352 -1.6324 -0.6248 -0.7725
 8144SOL    HW236069   3.775   0.596   7.493 -1.9589  0.6466 -1.8043
 8145SOL     OW36070   2.346   3.972   4.866  0.0237 -0.0392 -0.9795
 8145SOL    HW136071   2.365   3.883   4.894 -0.3683  0.8808  2.2801
 8145SOL    HW236072   2.251   3.964   4.857 -0.2064  1.5975 -0.2126
 8146SOL     OW36073   0.924   2.668   8.742  0.0193 -0.3483  0.4646
 8146SOL    HW136074   1.002   2.723   8.732 -0.7392  0.8680  1.2161
 8146SOL    HW236075   0.879   2.714   8.813  0.6637  1.7325 -0.4858
 8147SOL     OW36076   4.665   2.864  10.715  0.1508  0.0419 -0.7920
 8147SOL    HW136077   4.637   2.780  10.679 -0.5801  0.6104 -1.5167
 8147SOL    HW236078   4.605   2.928  10.678  1.6750  2.6877  1.2515
 8148SOL     OW36079   0.420   0.500   5.198 -0.3318  0.5709  0.1417
 8148SOL    HW136080   0.416   0.404   5.199  0.0457  0.5671  1.7138
 8148SOL    HW236081   0.430   0.524   5.106  1.5565 -2.3320 -0.4123
 8149SOL     OW36082   0.348   0.234   7.904  0.4814  0.2420 -0.1996
 8149SOL    HW136083   0.260   0.208   7.930  0.6309 -0.9912 -0.9667
 8149SOL    HW236084   0.390   0.153   7.931  0.2453 -0.2228 -1.2059
 8150SOL     OW36085   2.012   0.979   4.278  0.2289  0.2133 -0.1922
 8150SOL    HW136086   2.078   1.027   4.227 -1.8251  1.4822 -1.6550
 8150SOL    HW236087   1.991   1.033   4.354  1.7709  1.0465 -0.3391
 8151SOL     OW36088   1.635   2.135   5.746 -0.6959 -0.8493 -0.5975
 8151SOL    HW136089   1.720   2.175   5.728 -0.7061  1.0474  3.4259
 8151SOL    HW236090   1.628   2.082   5.667 -2.2183 -1.0198 -0.3432
 8152SOL     OW36091   0.207   4.023   2.321  0.1076  0.0117  0.2249
 8152SOL    HW136092   0.179   4.061   2.238 -0.4351 -0.2514  0.2941
 8152SOL    HW236093   0.287   3.983   2.286  0.7953  1.2803  0.3145
 8153SOL     OW36094   4.554   4.075  12.940 -0.0895 -1.0013 -0.6085
 8153SOL    HW136095   4.605   4.155  12.931 -0.8573 -0.7017 -2.1077
 8153SOL    HW236096   4.480   4.106  12.993  0.2726 -0.0835 -0.6486
 8154SOL     OW36097   3.960   1.289   0.285  0.0001  0.0896 -0.0650
 8154SOL    HW136098   3.985   1.271   0.194 -1.9465  1.0506 -0.7903
 8154SOL    HW236099   3.965   1.206   0.332  0.0269  1.1002  1.7484
 8155SOL     OW36100   1.846   4.612  13.762  0.0460 -0.1151  0.7204
 8155SOL    HW136101   1.834   4.536  13.820  0.2967 -0.7371 -0.0409
 8155SOL    HW236102   1.869   4.679  13.826 -1.3610 -0.8858  2.0285
 8156SOL     OW36103   1.489   2.751   2.744  0.2728 -0.4190  0.2880
 8156SOL    HW136104   1.540   2.826   2.715 -0.1925 -0.4184 -0.5187
 8156SOL    HW236105   1.406   2.798   2.745  0.2752 -0.4742  3.5747
 8157SOL     OW36106   2.059   0.122   8.535  0.3908 -0.3775 -0.8102
 8157SOL    HW136107   1.993   0.053   8.543  0.2668 -0.1802 -0.1921
 8157SOL    HW236108   2.045   0.160   8.448  2.8899 -2.1390 -1.9986
 8158SOL     OW36109   0.494   0.215   3.021  0.4610  0.3841  0.0370
 8158SOL    HW136110   0.509   0.146   2.956  2.1672 -0.4543  1.3276
 8158SOL    HW236111   0.414   0.187   3.067  0.2095 -0.3371 -0.8280
 8159SOL     OW36112   4.462   3.928   8.892 -0.7678  0.5648  0.0470
 8159SOL    HW136113   4.377   3.932   8.935 -0.5815  0.3386  0.4358
 8159SOL    HW236114   4.457   3.847   8.841  0.1262  0.9813 -0.7082
 8160SOL     OW36115   4.417   1.038   8.006  0.3327  0.1327  0.1537
 8160SOL    HW136116   4.461   1.036   7.921  0.9072  0.1106  0.4560
 8160SOL    HW236117   4.357   1.111   7.993 -1.5074 -1.2029  1.1099
 8161SOL     OW36118   4.394   0.242  12.775  0.1963  0.5136  0.4558
 8161SOL    HW136119   4.382   0.156  12.815  1.9721 -1.3662 -2.9717
 8161SOL    HW236120   4.473   0.279  12.814 -0.4357  0.5158  1.7210
 8162SOL     OW36121   2.557   4.483   9.064  0.5405  0.1415 -0.0251
 8162SOL    HW136122   2.527   4.392   9.061 -0.8011  0.6620 -2.4236
 8162SOL    HW236123   2.565   4.510   9.155 -0.4419  0.3280  0.0085
 8163SOL     OW36124   1.275   3.898   0.396 -0.2958  0.1949 -0.2944
 8163SOL    HW136125   1.204   3.845   0.361 -2.3505  1.5760  1.8332
 8163SOL    HW236126   1.284   3.857   0.482 -1.0383 -2.0793 -1.3090
 8164SOL     OW36127   0.740   0.795   8.980  0.0943  0.5314  0.2378
 8164SOL    HW136128   0.652   0.820   9.007 -0.3221 -1.6098  0.9250
 8164SOL    HW236129   0.774   0.754   9.060  0.6561 -1.8430 -1.2136
 8165SOL     OW36130   1.887   1.495   6.350 -0.3278 -0.1863 -0.4033
 8165SOL    HW136131   1.901   1.404   6.324 -3.3922  0.0185 -2.7048
 8165SOL    HW236132   1.981   1.514   6.350 -0.3926  0.1475 -0.4083
 8166SOL     OW36133   2.677   1.250  15.741 -0.0950  0.4998 -0.1188
 8166SOL    HW136134   2.614   1.181  15.724 -0.7163  0.8261  0.8563
 8166SOL    HW236135   2.644   1.320  15.684 -2.3959 -0.8057 -0.3413
 8167SOL     OW36136   2.572   1.339  10.241 -0.5256 -0.1128 -0.2730
 8167SOL    HW136137   2.510   1.315  10.311  0.3094 -0.6061  0.3026
 8167SOL    HW236138   2.555   1.262  10.187 -0.3786 -0.2487 -0.1279
 8168SOL     OW36139   4.053   2.221   3.100  0.0249 -0.4095 -0.1306
 8168SOL    HW136140   4.087   2.306   3.130 -2.2568 -0.1186  1.6150
 8168SOL    HW236141   4.121   2.164   3.135  0.5667 -0.3074 -1.0167
 8169SOL     OW36142   2.852   2.689   5.786 -0.3496  0.1136  0.1393
 8169SOL    HW136143   2.796   2.631   5.735 -1.9640  1.1061  0.7737
 8169SOL    HW236144   2.790   2.730   5.846 -2.3939 -2.9293  0.1105
 8170SOL     OW36145   3.922   0.656   4.002  0.1027  0.1514  0.3257
 8170SOL    HW136146   3.994   0.656   4.066  1.6393 -0.2533 -1.3895
 8170SOL    HW236147   3.865   0.720   4.043  1.9818  0.5327  2.3178
 8171SOL     OW36148   3.396   3.815  13.935  0.0300  0.2563  0.9379
 8171SOL    HW136149   3.410   3.721  13.935 -0.5708  0.1731  0.1628
 8171SOL    HW236150   3.301   3.808  13.929  0.0302  2.8677 -2.0054
 8172SOL     OW36151   1.219   1.065  16.997 -0.1257  0.2141  0.2602
 8172SOL    HW136152   1.184   1.017  16.922  0.3498 -2.2799  1.6387
 8172SOL    HW236153   1.201   1.153  16.963 -0.2159  0.3715  0.7086
 8173SOL     OW36154   1.252   4.487   7.339  0.4557  0.1890 -0.2252
 8173SOL    HW136155   1.266   4.402   7.296  1.1858 -0.8885  2.1136
 8173SOL    HW236156   1.209   4.469   7.423 -2.1568  4.4171 -0.6838
 8174SOL     OW36157   1.200   4.293   9.063 -0.0057  0.0938  0.0116
 8174SOL    HW136158   1.229   4.215   9.110  2.3887  1.9526  1.6272
 8174SOL    HW236159   1.239   4.277   8.977  2.4781  0.1222  1.1530
 8175SOL     OW36160   4.162   2.353   4.876  0.3615 -0.0089 -0.1466
 8175SOL    HW136161   4.132   2.425   4.932 -1.1204  0.2350 -1.2696
 8175SOL    HW236162   4.084   2.297   4.886  0.2453  0.0616 -0.6769
 8176SOL     OW36163   4.623   3.459   0.336  0.1095  0.4826  0.3286
 8176SOL    HW136164   4.665   3.421   0.413 -3.0692  0.2285  1.9511
 8176SOL    HW236165   4.702   3.483   0.288  0.1004 -0.5017 -0.1748
 8177SOL     OW36166   0.888   3.630   0.338 -0.1207  0.7413 -0.2020
 8177SOL    HW136167   0.897   3.545   0.380  0.0227  1.3444  0.9730
 8177SOL    HW236168   0.848   3.607   0.254 -1.1669 -0.0635  0.5176
 8178SOL     OW36169   3.021   0.891   5.363 -0.2158 -0.2892  0.4811
 8178SOL    HW136170   3.027   0.820   5.426  1.6347 -1.8056 -1.4252
 8178SOL    HW236171   3.066   0.963   5.408 -1.1044 -0.7084  2.0320
 8179SOL     OW36172   1.615   1.829   3.244 -0.3810 -0.7064 -0.3580
 8179SOL    HW136173   1.525   1.852   3.221 -0.2890 -1.5196 -1.5610
 8179SOL    HW236174   1.619   1.756   3.181 -2.1708 -1.9514  0.9816
 8180SOL     OW36175   2.532   3.498   5.396  0.4490 -0.2770  0.0142
 8180SOL    HW136176   2.564   3.497   5.306 -2.4952  1.0775 -1.0122
 8180SOL    HW236177   2.581   3.424   5.433 -0.7346 -0.7839  0.5366
 8181SOL     OW36178   1.446   2.768  11.492  0.1542 -0.1700 -0.2007
 8181SOL    HW136179   1.529   2.719  11.492  0.5630  0.5282  0.1505
 8181SOL    HW236180   1.454   2.794  11.584  1.9917 -1.0996 -0.0982
 8182SOL     OW36181   0.676   1.037   2.558 -0.7949 -0.0549  0.4775
 8182SOL    HW136182   0.722   1.099   2.501  1.6562 -1.5419  0.8229
 8182SOL    HW236183   0.727   0.956   2.550 -0.7430  0.2444 -2.3054
 8183SOL     OW36184   1.466   4.512  10.993 -0.1000  0.1332  0.1152
 8183SOL    HW136185   1.499   4.601  10.995  1.6022 -0.4872  0.0701
 8183SOL    HW236186   1.535   4.469  11.044  2.0430  1.1219 -1.9173
 8184SOL     OW36187   1.727   0.970   7.245  0.3565  0.2206  0.1083
 8184SOL    HW136188   1.635   0.952   7.263 -0.0116  0.8929 -1.1462
 8184SOL    HW236189   1.769   0.884   7.253 -1.5787 -0.6169  1.4068
 8185SOL     OW36190   2.597   3.675   9.595  0.4180  0.2330 -0.0176
 8185SOL    HW136191   2.539   3.723   9.536  3.2511  0.7169 -2.3908
 8185SOL    HW236192   2.628   3.604   9.539  0.1600 -0.9414  1.3323
 8186SOL     OW36193   3.011   3.086   3.110 -0.0584  0.1834 -0.5824
 8186SOL    HW136194   3.097   3.051   3.135 -0.2437 -0.1725 -0.4338
 8186SOL    HW236195   3.007   3.151   3.179 -0.2593  1.2401 -1.5865
 8187SOL     OW36196   3.217   3.822   6.935  0.4067 -0.6777 -0.4796
 8187SOL    HW136197   3.150   3.889   6.943 -1.0810 -2.1696 -0.4974
 8187SOL    HW236198   3.177   3.752   6.987 -0.9041  0.2987 -0.1954
 8188SOL     OW36199   0.511   0.178   8.219  0.1798  0.3180  0.2086
 8188SOL    HW136200   0.506   0.099   8.164  0.8205  0.3729  0.0775
 8188SOL    HW236201   0.575   0.155   8.285  0.3937 -0.5958 -0.3136
 8189SOL     OW36202   4.458   2.226   8.237  0.3669  1.1402  0.5715
 8189SOL    HW136203   4.537   2.179   8.264  0.4603  0.3811 -1.0041
 8189SOL    HW236204   4.446   2.275   8.319 -0.6760  1.5066  0.2091
 8190SOL     OW36205   3.319   2.429  10.425  0.4350  0.4591 -0.0970
 8190SOL    HW136206   3.226   2.407  10.418  0.6215 -0.3522  0.0385
 8190SOL    HW236207   3.311   2.509  10.478 -0.5112 -0.1847  0.7318
 8191SOL     OW36208   3.055   3.689  17.591 -0.4282  0.0085  0.0483
 8191SOL    HW136209   2.996   3.648  17.654  0.8057 -0.2093  1.0360
 8191SOL    HW236210   3.009   3.773  17.580  0.8059  0.3170 -2.7984
 8192SOL     OW36211   3.321   1.458   7.161 -0.0132 -0.4122  0.5284
 8192SOL    HW136212   3.348   1.505   7.240 -0.8430  0.0002  0.5681
 8192SOL    HW236213   3.405   1.462   7.114  0.9488  0.3268  2.3101
 8193SOL     OW36214   3.963   1.486   8.239 -0.0550 -0.5076  0.4718
 8193SOL    HW136215   3.972   1.558   8.302  1.4752 -1.1263  0.9692
 8193SOL    HW236216   4.021   1.419   8.275  1.2338  1.5762  2.3097
 8194SOL     OW36217   0.134   3.194   5.313 -0.4138  0.4027 -0.6337
 8194SOL    HW136218   0.076   3.200   5.237 -0.2195  1.9916 -0.6668
 8194SOL    HW236219   0.120   3.105   5.346  0.8584 -0.0801 -1.4169
 8195SOL     OW36220   2.458   0.249   6.279 -0.2939  0.1460  0.5615
 8195SOL    HW136221   2.380   0.304   6.290 -0.8799 -0.0775 -2.4020
 8195SOL    HW236222   2.489   0.272   6.367  0.7608  0.6507  0.0583
 8196SOL     OW36223   4.457   2.542   2.622 -0.3505  0.2855 -0.0192
 8196SOL    HW136224   4.473   2.451   2.595  0.8112  0.3661  0.4120
 8196SOL    HW236225   4.525   2.584   2.571 -2.0892  2.6441 -0.3884
 8197SOL     OW36226   3.053   2.055   2.751 -0.1381  0.1740  0.2576
 8197SOL    HW136227   3.012   1.998   2.816  2.3200  1.1403  2.6822
 8197SOL    HW236228   2.979   2.073   2.694  0.2146 -1.6332 -0.7730
 8198SOL     OW36229   4.233   4.117   8.588  0.2749 -0.2613  0.5281
 8198SOL    HW136230   4.261   4.034   8.627  1.9127 -0.3132 -0.7631
 8198SOL    HW236231   4.158   4.087   8.536  0.8124 -0.2071 -0.2702
 8199SOL     OW36232   3.451   1.039   5.527  0.1742  0.4816 -0.0491
 8199SOL    HW136233   3.442   1.071   5.617  1.8363  0.4880  0.1006
 8199SOL    HW236234   3.373   1.083   5.492 -0.0913  0.6096  0.7052
 8200SOL     OW36235   1.532   1.441   4.000  0.2507  0.0314 -0.1375
 8200SOL    HW136236   1.485   1.491   4.067  0.8987  0.4308  0.0175
 8200SOL    HW236237   1.501   1.357   4.036  0.4354 -0.8667 -2.0738
 8201SOL     OW36238   3.471   3.171  17.488 -0.5663 -0.6444  1.1740
 8201SOL    HW136239   3.539   3.127  17.539 -0.5320 -0.4767  1.2717
 8201SOL    HW236240   3.514   3.169  17.402  0.4388  2.9132  1.5901
 8202SOL     OW36241   1.162   2.513   3.628  0.2914 -0.4063 -0.3522
 8202SOL    HW136242   1.079   2.464   3.636  0.2908 -0.2517  0.6766
 8202SOL    HW236243   1.232   2.457   3.661  0.0136 -0.6032 -0.0971
 8203SOL     OW36244   1.019   3.489   3.117  0.0214 -0.0886 -0.0873
 8203SOL    HW136245   0.958   3.558   3.092  0.8021  1.3035  1.8219
 8203SOL    HW236246   1.029   3.496   3.212  0.4377 -1.5793 -0.0138
 8204SOL     OW36247   2.874   3.067  17.166  0.4493  0.2930 -0.2779
 8204SOL    HW136248   2.968   3.055  17.172  0.2767 -0.2329  1.4892
 8204SOL    HW236249   2.848   3.018  17.088  0.4467 -1.5201  0.8663
 8205SOL     OW36250   1.069   1.377   7.561 -0.3098 -0.4865  0.1250
 8205SOL    HW136251   1.076   1.358   7.467  1.0030 -1.5341  0.4424
 8205SOL    HW236252   0.976   1.395   7.568 -0.0589  0.7205  0.3668
 8206SOL     OW36253   0.288   4.643  15.178  0.1507  0.3497  0.0091
 8206SOL    HW136254   0.305   4.554  15.207  2.4316  0.8383  0.1630
 8206SOL    HW236255   0.280   4.641  15.083 -1.5086 -1.5041  0.1884
 8207SOL     OW36256   3.457   1.582   8.467 -0.1644 -0.3056  0.3466
 8207SOL    HW136257   3.523   1.648   8.445 -1.1058  0.2941 -0.6307
 8207SOL    HW236258   3.509   1.508   8.499 -1.9488 -1.7983 -0.1940
 8208SOL     OW36259   4.084   3.671  15.448 -0.3658  0.0984 -0.0897
 8208SOL    HW136260   4.158   3.661  15.388  2.2853 -0.5299  3.2558
 8208SOL    HW236261   4.094   3.765  15.467  1.1689 -0.0524 -0.1123
 8209SOL     OW36262   1.863   2.503   5.257  0.1208 -0.4567 -0.4260
 8209SOL    HW136263   1.865   2.593   5.226  1.7838 -0.4317 -0.2412
 8209SOL    HW236264   1.954   2.474   5.261  1.0692  2.6096  0.3728
 8210SOL     OW36265   0.957   1.467  12.107  0.5606 -0.0178 -0.0755
 8210SOL    HW136266   0.974   1.426  12.192 -0.6756  2.1302  1.1842
 8210SOL    HW236267   0.945   1.557  12.136 -1.1160  0.0855 -1.1278
 8211SOL     OW36268   1.135   3.889   6.611 -0.0634 -0.2032  0.6614
 8211SOL    HW136269   1.122   3.952   6.540 -1.2645 -0.7850  0.3656
 8211SOL    HW236270   1.210   3.836   6.583 -1.7888 -3.0696  1.4839
 8212SOL     OW36271   0.585   3.043  13.596 -0.2666  0.2130 -0.1321
 8212SOL    HW136272   0.507   3.095  13.579 -0.8533 -0.5274  0.2611
 8212SOL    HW236273   0.625   3.094  13.666 -2.1080  1.1825  0.2045
 8213SOL     OW36274   3.649   2.754  11.593 -0.3330 -0.1337 -0.2573
 8213SOL    HW136275   3.658   2.778  11.501  1.3444  3.4950  0.8356
 8213SOL    HW236276   3.719   2.810  11.627 -1.1922  1.3974 -0.9997
 8214SOL     OW36277   3.723   2.652  10.697  0.2398  0.1830  0.0073
 8214SOL    HW136278   3.719   2.738  10.739 -2.2039  0.5166 -0.9223
 8214SOL    HW236279   3.659   2.606  10.753 -1.5065  0.0295 -2.1380
 8215SOL     OW36280   4.507   4.515   3.675 -0.0725 -0.0820  0.4653
 8215SOL    HW136281   4.424   4.515   3.723  0.8149  1.2680  2.0236
 8215SOL    HW236282   4.526   4.422   3.681 -1.5735 -0.4175 -0.1529
 8216SOL     OW36283   3.876   3.298   3.552 -0.5094  0.0110 -0.1009
 8216SOL    HW136284   3.904   3.272   3.640  1.4162 -0.7765 -0.9380
 8216SOL    HW236285   3.848   3.388   3.565  0.3623  0.1728  0.6506
 8217SOL     OW36286   2.052   0.263  17.190 -0.6363 -0.0185 -0.2015
 8217SOL    HW136287   2.099   0.273  17.273 -0.6156  1.8195 -0.4297
 8217SOL    HW236288   2.122   0.277  17.126 -0.9539  1.3449 -0.2434
 8218SOL     OW36289   4.693   2.942  11.086 -0.4718  0.0512  0.5154
 8218SOL    HW136290   4.735   2.890  11.155 -0.2562 -0.2041  0.1885
 8218SOL    HW236291   0.020   2.925  11.016 -1.0261 -2.5854  0.6620
 8219SOL     OW36292   1.492   3.942   8.669  0.0340 -0.2296  0.1584
 8219SOL    HW136293   1.409   3.895   8.661  0.2542 -0.2407 -2.1527
 8219SOL    HW236294   1.554   3.878   8.635  1.0647  1.3475 -0.9456
 8220SOL     OW36295   3.006   1.533   2.698 -0.1660 -0.2192 -0.1602
 8220SOL    HW136296   3.058   1.509   2.775 -2.0820  1.7168  1.7221
 8220SOL    HW236297   3.078   1.568   2.644  0.1908  0.0501  0.4860
 8221SOL     OW36298   0.247   1.464  17.505 -0.0711  0.0960 -0.0914
 8221SOL    HW136299   0.232   1.516  17.426 -0.0592 -0.3836 -0.4109
 8221SOL    HW236300   0.189   1.395  17.472 -0.2623 -0.1096  0.6665
 8222SOL     OW36301   0.957   1.659   3.103 -0.5382 -0.3456  0.0727
 8222SOL    HW136302   0.985   1.586   3.048  2.6941  0.8990  0.0236
 8222SOL    HW236303   0.862   1.649   3.097 -0.7527  1.3790  0.7408
 8223SOL     OW36304   1.910   2.351   2.706  0.2413 -0.4973  0.1651
 8223SOL    HW136305   1.969   2.373   2.634 -0.3579 -0.2345 -0.2485
 8223SOL    HW236306   1.966   2.289   2.753 -0.5851 -0.0308  1.7714
 8224SOL     OW36307   2.320   2.078   6.030 -0.3462 -0.3302 -0.1311
 8224SOL    HW136308   2.250   2.143   6.033 -0.5225 -0.4258 -2.3582
 8224SOL    HW236309   2.301   2.037   6.114  0.0078  0.1311  0.1731
 8225SOL     OW36310   1.501   2.084   4.689  0.0769  0.2077 -0.4968
 8225SOL    HW136311   1.446   2.139   4.746  0.9389  1.1570 -0.5883
 8225SOL    HW236312   1.507   2.149   4.620 -2.4213 -0.3695 -1.2813
 8226SOL     OW36313   1.834   0.721   7.269 -0.3225  0.3240 -0.5135
 8226SOL    HW136314   1.822   0.638   7.314  1.1734 -0.1291 -0.9717
 8226SOL    HW236315   1.927   0.731   7.252 -0.4577 -0.3789 -1.6424
 8227SOL     OW36316   1.737   2.433  16.932 -0.4174 -0.0696  0.3903
 8227SOL    HW136317   1.769   2.457  17.019  1.3666 -1.0441 -0.0093
 8227SOL    HW236318   1.803   2.481  16.883 -0.7725 -1.7927 -1.7871
 8228SOL     OW36319   0.184   0.284  11.049  0.0974  0.1868  1.1607
 8228SOL    HW136320   0.188   0.245  11.136  0.5687 -0.2081  0.9641
 8228SOL    HW236321   0.126   0.357  11.069  0.6609  1.6712 -2.5704
 8229SOL     OW36322   0.371   0.904   5.648  0.3156  0.4083  0.1389
 8229SOL    HW136323   0.319   0.961   5.592 -0.4151  1.3880  1.8033
 8229SOL    HW236324   0.441   0.959   5.685 -1.9150  1.6122  2.6195
 8230SOL     OW36325   3.403   0.680   3.961 -0.1577 -0.2068 -0.6858
 8230SOL    HW136326   3.324   0.671   3.907 -0.2311  1.2785 -0.8368
 8230SOL    HW236327   3.471   0.702   3.897  1.2311 -1.5727  0.3421
 8231SOL     OW36328   1.824   4.721  12.408  0.2869  0.4914 -0.0940
 8231SOL    HW136329   1.900   0.018  12.457 -0.7272  0.7721  1.2993
 8231SOL    HW236330   1.816   4.631  12.437  1.3216  0.2275 -0.6146
 8232SOL     OW36331   4.713   3.212  12.371 -0.6314 -0.6644  0.2347
 8232SOL    HW136332   0.051   3.273  12.363 -0.5636 -0.7750  0.0019
 8232SOL    HW236333   4.640   3.268  12.396 -1.6903 -2.3054  0.8060
 8233SOL     OW36334   0.619   2.854  14.940  0.1404  0.1687 -0.4503
 8233SOL    HW136335   0.525   2.874  14.935 -0.0755 -0.3439  1.3862
 8233SOL    HW236336   0.635   2.794  15.013  0.4892  0.2817 -0.4375
 8234SOL     OW36337   2.794   3.628   6.137  0.0789  0.0651 -0.3460
 8234SOL    HW136338   2.855   3.571   6.184  0.0547 -0.2488 -0.6943
 8234SOL    HW236339   2.802   3.595   6.048  3.2322  0.1888 -0.1400
 8235SOL     OW36340   2.296   4.242   4.555 -0.8352 -0.6071 -0.3516
 8235SOL    HW136341   2.269   4.152   4.540  0.4812 -0.9451 -0.6613
 8235SOL    HW236342   2.237   4.267   4.626 -0.1777 -1.9165  0.6516
 8236SOL     OW36343   2.663   4.609   9.555 -0.4368 -0.1958  0.3488
 8236SOL    HW136344   2.745   4.655   9.539 -0.6736  0.3485  0.6996
 8236SOL    HW236345   2.677   4.577   9.644 -1.8124  0.8039  0.9179
 8237SOL     OW36346   0.947   0.790   5.530 -0.6894 -0.5239 -0.1444
 8237SOL    HW136347   0.956   0.804   5.625  1.7053  0.5445 -0.5417
 8237SOL    HW236348   1.029   0.743   5.519  0.0058  0.9884 -1.5005
 8238SOL     OW36349   3.358   2.952   7.262 -0.0258 -0.7938 -0.5494
 8238SOL    HW136350   3.319   2.975   7.177  1.5804 -0.4585 -1.1887
 8238SOL    HW236351   3.286   2.904   7.303 -0.6298  1.3859  0.8950
 8239SOL     OW36352   3.903   1.613  11.566  0.5382  0.4344  0.2037
 8239SOL    HW136353   3.905   1.603  11.661  0.3022  1.2468  0.2909
 8239SOL    HW236354   3.857   1.697  11.560  0.3527  0.3725  0.6950
 8240SOL     OW36355   4.441   0.787   5.221  0.0571  0.1331 -0.0851
 8240SOL    HW136356   4.372   0.755   5.278  0.5696 -1.0912 -0.1398
 8240SOL    HW236357   4.506   0.722   5.247 -1.5201 -0.7147  1.6745
 8241SOL     OW36358   3.533   4.689   9.895  0.1590  0.1148  0.0088
 8241SOL    HW136359   3.464   4.651   9.949  0.7398 -1.3574 -0.2969
 8241SOL    HW236360   3.615   4.659   9.933  0.8656  2.5961  0.4302
 8242SOL     OW36361   0.611   2.481   9.226 -0.0618 -0.1891 -0.2062
 8242SOL    HW136362   0.575   2.557   9.181 -0.4737 -0.1765  0.1415
 8242SOL    HW236363   0.542   2.421   9.196  1.7605 -2.1395 -0.5188
 8243SOL     OW36364   0.447   2.631  12.630  0.2217 -0.0916 -0.5599
 8243SOL    HW136365   0.502   2.585  12.693 -0.6032 -1.9578 -1.1968
 8243SOL    HW236366   0.391   2.555  12.615 -0.1950  0.6342 -2.7912
 8244SOL     OW36367   3.824   1.400  10.162  0.2008 -0.5262 -0.1906
 8244SOL    HW136368   3.875   1.320  10.152  0.3941 -0.2449 -1.3482
 8244SOL    HW236369   3.740   1.365  10.131 -0.6606  1.0261  0.3726
 8245SOL     OW36370   0.697   3.835   7.654  0.6153  0.3396 -0.5728
 8245SOL    HW136371   0.762   3.765   7.642  2.2163  1.4724  1.3113
 8245SOL    HW236372   0.638   3.791   7.714  1.7176 -0.3243  0.0371
 8246SOL     OW36373   0.240   2.545   3.134  0.6585 -0.2466  0.1831
 8246SOL    HW136374   0.334   2.558   3.120  1.1289 -1.5610  2.1022
 8246SOL    HW236375   0.231   2.576   3.224  1.0172  0.4427 -0.0096
 8247SOL     OW36376   0.386   1.700   5.846  0.2350  0.1244 -0.4722
 8247SOL    HW136377   0.298   1.693   5.809  0.1458  1.1349 -0.4452
 8247SOL    HW236378   0.416   1.626   5.793  1.4635 -0.1062  0.5445
 8248SOL     OW36379   2.013   4.370   8.579 -0.1839 -0.6556  0.5070
 8248SOL    HW136380   2.071   4.420   8.636 -0.2387  0.5854 -0.5234
 8248SOL    HW236381   2.026   4.415   8.495 -0.9910 -0.6019  0.4121
 8249SOL     OW36382   1.150   1.436   4.427 -0.1164  0.0838  0.2557
 8249SOL    HW136383   1.086   1.374   4.394  1.1926 -1.1777  0.1266
 8249SOL    HW236384   1.151   1.506   4.361  1.8652 -0.1422  0.0474
 8250SOL     OW36385   4.684   2.405   6.010  0.1229  0.4183 -0.2572
 8250SOL    HW136386   0.041   2.425   5.994  0.5751 -0.7787  0.8238
 8250SOL    HW236387   4.645   2.420   5.924 -0.1585  2.8834  0.3113
 8251SOL     OW36388   1.113   4.057   5.240 -0.5523 -0.2230  0.0289
 8251SOL    HW136389   1.036   4.092   5.194  0.8078  0.3432 -1.8198
 8251SOL    HW236390   1.079   4.039   5.327 -0.1053 -1.4779 -0.0541
 8252SOL     OW36391   0.215   4.043  12.536  0.2939 -0.3692 -0.0035
 8252SOL    HW136392   0.138   4.089  12.504 -0.8198 -1.3647  1.2426
 8252SOL    HW236393   0.201   4.059  12.630 -0.8103  1.8495 -0.5585
 8253SOL     OW36394   0.139   4.181   9.410 -0.1050  0.2055  0.0114
 8253SOL    HW136395   0.102   4.153   9.494 -2.1657  0.4543 -0.8052
 8253SOL    HW236396   0.100   4.119   9.347 -0.6937  1.0595 -0.4570
 8254SOL     OW36397   2.636   4.177   7.288  0.7619 -0.1727  0.1910
 8254SOL    HW136398   2.721   4.187   7.245  0.7060  1.9053  0.5610
 8254SOL    HW236399   2.586   4.185   7.207  0.1085  0.8691  0.6996
 8255SOL     OW36400   0.015   1.897   9.913  0.3298  0.1566 -0.2306
 8255SOL    HW136401   0.011   1.943   9.997  2.5044  1.0789 -0.6501
 8255SOL    HW236402   0.094   1.845   9.925 -0.5599 -1.3868 -1.0449
 8256SOL     OW36403   2.670   4.120   2.329 -0.3189 -0.0288 -0.5840
 8256SOL    HW136404   2.677   4.145   2.237 -2.0556 -0.9907 -0.9764
 8256SOL    HW236405   2.700   4.200   2.372  1.8757 -1.8327  1.2842
 8257SOL     OW36406   2.283   1.798   8.106  0.2686 -0.0746 -0.4580
 8257SOL    HW136407   2.225   1.854   8.054 -2.6334  0.4445  3.2653
 8257SOL    HW236408   2.225   1.726   8.131  1.0832 -0.9085 -0.9891
 8258SOL     OW36409   1.330   2.743   8.039  0.4861 -0.5415 -0.4572
 8258SOL    HW136410   1.256   2.686   8.061 -0.9163  0.8507 -1.5422
 8258SOL    HW236411   1.396   2.683   8.006 -0.3596 -1.5590 -0.2908
 8259SOL     OW36412   0.092   2.336   3.249  0.8811 -0.9853 -0.2884
 8259SOL    HW136413   0.149   2.342   3.326 -2.0507 -0.9094  1.8771
 8259SOL    HW236414   0.138   2.386   3.182  2.6595 -1.2570  0.7193
 8260SOL     OW36415   3.386   4.534   1.683  0.3682 -0.2981  0.5122
 8260SOL    HW136416   3.431   4.451   1.665  1.4550  0.4101 -0.0662
 8260SOL    HW236417   3.439   4.575   1.751  1.4667 -0.2509 -0.3615
 8261SOL     OW36418   2.865   4.267   8.225  0.0855 -0.4609 -0.1887
 8261SOL    HW136419   2.800   4.252   8.156 -1.6681  1.5378  1.0099
 8261SOL    HW236420   2.807   4.308   8.289 -1.2108 -0.0254 -1.6487
 8262SOL     OW36421   0.111   2.886   5.358  0.2359  0.0270 -0.3894
 8262SOL    HW136422   0.048   2.836   5.410 -1.3381  0.9104 -1.4482
 8262SOL    HW236423   0.191   2.864   5.407  1.3575  1.8359 -1.4005
 8263SOL     OW36424   3.852   1.370   4.731  0.2535  0.2553  0.1071
 8263SOL    HW136425   3.936   1.353   4.773  0.6078 -2.3976 -1.6848
 8263SOL    HW236426   3.807   1.287   4.742  2.0417 -0.6218  0.8431
 8264SOL     OW36427   3.800   2.314   6.060  0.0888 -0.3898  0.0274
 8264SOL    HW136428   3.773   2.298   5.970  1.2428 -3.0317  0.1493
 8264SOL    HW236429   3.812   2.408   6.045 -0.9216 -0.5651 -1.7978
 8265SOL     OW36430   3.760   0.849   4.100  0.1053 -0.0996  0.2709
 8265SOL    HW136431   3.751   0.888   4.013  0.6522 -0.6913 -0.0551
 8265SOL    HW236432   3.666   0.846   4.121  0.0046 -0.3143 -0.2256
 8266SOL     OW36433   2.907   2.392   6.614 -0.7509 -0.1021 -0.1674
 8266SOL    HW136434   2.872   2.382   6.526 -1.5472 -0.8491  0.2332
 8266SOL    HW236435   2.937   2.304   6.637  2.1101  0.9882  0.2656
 8267SOL     OW36436   4.101   4.166   4.243  0.1369 -0.0923 -0.3435
 8267SOL    HW136437   4.185   4.120   4.249  0.2893  0.2461  0.1368
 8267SOL    HW236438   4.087   4.151   4.150  0.9845  0.4553 -0.5525
 8268SOL     OW36439   1.096   2.051   2.876 -0.4175 -0.8534 -0.4459
 8268SOL    HW136440   1.022   2.036   2.817 -0.7639  1.3201 -0.5748
 8268SOL    HW236441   1.134   2.125   2.829  2.1815 -2.5105 -0.9601
 8269SOL     OW36442   2.162   3.462   8.521  0.5759 -0.4040  0.3310
 8269SOL    HW136443   2.137   3.555   8.516  1.0841 -0.3789 -1.7123
 8269SOL    HW236444   2.076   3.419   8.520 -0.2214  1.1722  0.6397
 8270SOL     OW36445   2.252   1.830   5.658 -0.0075  0.2376  0.0904
 8270SOL    HW136446   2.309   1.753   5.655 -0.4365 -0.1525  2.0926
 8270SOL    HW236447   2.301   1.876   5.726 -1.3477  0.2363  1.0554
 8271SOL     OW36448   0.581   3.884   4.787 -0.1660 -0.3141 -0.2506
 8271SOL    HW136449   0.603   3.971   4.822  0.5696  0.3106 -2.2614
 8271SOL    HW236450   0.668   3.851   4.811 -0.7925 -1.5008  0.3940
 8272SOL     OW36451   3.496   1.841   5.480  0.2165  0.4008 -0.0304
 8272SOL    HW136452   3.490   1.747   5.461  0.8441  0.4720 -0.5855
 8272SOL    HW236453   3.528   1.862   5.392 -0.2092  2.4777  0.3190
 8273SOL     OW36454   2.437   1.182   3.986  0.3130  0.0810 -0.1974
 8273SOL    HW136455   2.407   1.270   4.011  1.6563  0.5272 -0.1867
 8273SOL    HW236456   2.521   1.171   4.031  0.1551 -1.1753 -0.2104
 8274SOL     OW36457   4.440   3.477   6.165 -0.0681  0.1341 -0.3699
 8274SOL    HW136458   4.495   3.492   6.242 -1.2771 -1.4615  0.7860
 8274SOL    HW236459   4.498   3.440   6.100  0.2642 -0.7316  0.4338
 8275SOL     OW36460   3.863   0.395  14.229 -0.3733  0.2613  0.1501
 8275SOL    HW136461   3.883   0.348  14.310  1.2420  1.5492  0.4879
 8275SOL    HW236462   3.920   0.360  14.161 -0.7238 -2.6714  1.3645
 8276SOL     OW36463   2.994   0.079   3.120 -0.7666  0.2192  0.0639
 8276SOL    HW136464   3.019   0.141   3.052 -1.1978 -0.7897 -1.0140
 8276SOL    HW236465   2.970   4.731   3.079  0.2438 -1.6239  3.1646
 8277SOL     OW36466   4.734   2.013  12.514 -0.2328  0.2988  0.5531
 8277SOL    HW136467   4.679   2.092  12.519 -0.4182  0.1273  1.1262
 8277SOL    HW236468   4.676   1.954  12.561 -2.0206  1.7330  0.1505
 8278SOL     OW36469   2.497   2.723  12.703 -0.4732 -0.1252  0.2319
 8278SOL    HW136470   2.406   2.753  12.705 -0.1631  0.7987  0.4255
 8278SOL    HW236471   2.525   2.754  12.789  0.5469  1.5496 -0.7151
 8279SOL     OW36472   3.975   3.603   4.669  0.0104 -0.4219 -0.4276
 8279SOL    HW136473   3.883   3.592   4.693  0.0251 -0.2577 -0.2940
 8279SOL    HW236474   3.966   3.668   4.600 -1.0021 -0.3665 -0.2349
 8280SOL     OW36475   2.307   0.329   3.679 -0.3805  0.1319  0.2027
 8280SOL    HW136476   2.344   0.273   3.610  0.0889 -1.2839  1.6017
 8280SOL    HW236477   2.213   0.337   3.662 -0.4823 -0.9461  0.2661
 8281SOL     OW36478   1.130   1.408   6.856 -0.0028 -0.4027  0.4673
 8281SOL    HW136479   1.142   1.409   6.951  1.8324  1.4893  0.2069
 8281SOL    HW236480   1.214   1.371   6.828  0.9647  1.5666  0.7773
 8282SOL     OW36481   1.490   1.281   6.328 -0.2211  0.1075 -0.1336
 8282SOL    HW136482   1.573   1.262   6.285 -0.7534 -0.9860 -0.6660
 8282SOL    HW236483   1.454   1.338   6.260  0.2665 -0.4222 -0.8310
 8283SOL     OW36484   2.732   0.764   5.500  0.4028  0.3395  0.9440
 8283SOL    HW136485   2.671   0.820   5.454  0.4828 -0.4277 -0.0877
 8283SOL    HW236486   2.760   0.700   5.435 -0.2187 -0.6324  1.6453
 8284SOL     OW36487   1.943   4.675   1.513 -0.0173 -0.1706  0.1063
 8284SOL    HW136488   1.863   4.624   1.529  0.9833 -1.8462 -0.2548
 8284SOL    HW236489   2.010   4.637   1.570  1.1144  3.5914  1.2636
 8285SOL     OW36490   1.866   2.948   8.358 -0.7108 -0.2214 -0.3429
 8285SOL    HW136491   1.922   3.022   8.381 -0.2590 -0.8138  0.4883
 8285SOL    HW236492   1.783   2.979   8.392 -1.8493 -3.0275 -0.6047
 8286SOL     OW36493   0.866   1.880   1.516 -0.0652 -0.1479  0.4588
 8286SOL    HW136494   0.926   1.888   1.590  2.6115 -3.2915 -1.3828
 8286SOL    HW236495   0.804   1.812   1.545 -1.2216  0.0578 -1.4980
 8287SOL     OW36496   0.141   1.128   8.755 -0.0925 -0.8315  0.4801
 8287SOL    HW136497   0.084   1.089   8.688  0.3643 -1.2425  0.3347
 8287SOL    HW236498   0.095   1.086   8.827 -0.2353 -1.2160  0.1633
 8288SOL     OW36499   1.863   1.112   3.277  0.2809  0.3317 -0.0510
 8288SOL    HW136500   1.848   1.199   3.314  0.7692 -0.7658  2.7725
 8288SOL    HW236501   1.861   1.063   3.359 -0.2139 -2.3506 -1.6801
 8289SOL     OW36502   0.492   0.604  10.435  0.8012  0.6290  0.3054
 8289SOL    HW136503   0.552   0.539  10.399  0.3165  0.1297  0.3974
 8289SOL    HW236504   0.417   0.590  10.377 -0.3963 -2.7581  2.6703
 8290SOL     OW36505   1.680   1.201   4.267 -0.2390  0.3514 -0.4187
 8290SOL    HW136506   1.598   1.232   4.305 -1.2876 -0.8398 -1.7195
 8290SOL    HW236507   1.735   1.279   4.273 -0.4737  0.5162 -0.4111
 8291SOL     OW36508   0.656   0.944   7.617  0.0928 -1.1953 -0.2368
 8291SOL    HW136509   0.690   1.034   7.618 -3.4592  0.1850 -2.9100
 8291SOL    HW236510   0.700   0.905   7.692  0.7845 -0.9128 -0.4941
 8292SOL     OW36511   3.792   4.394   4.704  1.2604 -0.0372 -0.4812
 8292SOL    HW136512   3.789   4.476   4.655  3.3708  1.1497  1.3697
 8292SOL    HW236513   3.838   4.334   4.645  1.4799  0.1910 -0.5413
 8293SOL     OW36514   3.459   4.392   5.178 -0.5700 -0.2682  0.3444
 8293SOL    HW136515   3.366   4.388   5.159 -0.4785 -1.3864  0.1191
 8293SOL    HW236516   3.491   4.355   5.096  0.0546  0.9239  0.0435
 8294SOL     OW36517   0.412   4.651   7.304 -0.0105  0.0438  0.3977
 8294SOL    HW136518   0.396   4.718   7.369 -2.4137  0.6996 -0.8794
 8294SOL    HW236519   0.367   4.694   7.231 -0.2791  0.8213  1.0280
 8295SOL     OW36520   0.874   2.924  16.631 -0.4077 -0.7126  0.4327
 8295SOL    HW136521   0.877   2.943  16.537 -0.3462 -0.6763  0.4420
 8295SOL    HW236522   0.963   2.893  16.649 -0.3573 -1.3353 -0.8656
 8296SOL     OW36523   2.948   4.154   3.953 -0.1931 -0.6747  0.1400
 8296SOL    HW136524   2.923   4.123   4.039  1.7806 -1.5445  0.4046
 8296SOL    HW236525   2.977   4.073   3.911  4.3756  0.7990  0.3848
 8297SOL     OW36526   4.092   4.237  14.273  0.9079 -0.0968 -0.4649
 8297SOL    HW136527   4.147   4.159  14.267  0.7680 -0.3524  1.4299
 8297SOL    HW236528   4.069   4.236  14.180  0.2697 -0.2178 -0.3067
 8298SOL     OW36529   0.370   2.297   4.909  0.5340  0.1871  0.2733
 8298SOL    HW136530   0.335   2.292   4.821  0.2462  0.4209  0.3758
 8298SOL    HW236531   0.403   2.387   4.908 -2.6752  1.3711  1.1996
 8299SOL     OW36532   3.755   1.628   3.775 -0.3982  0.0285  0.4406
 8299SOL    HW136533   3.662   1.615   3.795 -0.5165 -1.2390 -0.9215
 8299SOL    HW236534   3.779   1.554   3.719 -0.4845  1.1855 -1.1275
 8300SOL     OW36535   1.654   3.417   9.641  0.6239 -0.0950  0.2738
 8300SOL    HW136536   1.592   3.471   9.592  0.8586 -0.8221 -0.8310
 8300SOL    HW236537   1.657   3.351   9.572 -0.8222  0.5758 -0.4269
 8301SOL     OW36538   0.960   1.158   5.441  0.3236 -0.2191 -0.0378
 8301SOL    HW136539   0.952   1.210   5.520  1.2744  0.1728 -0.2007
 8301SOL    HW236540   0.877   1.111   5.437  0.8714 -1.2842  1.2247
 8302SOL     OW36541   0.563   4.147   7.251  0.3061  0.0474  0.0722
 8302SOL    HW136542   0.491   4.207   7.271 -0.9288 -1.7240  0.8867
 8302SOL    HW236543   0.597   4.125   7.338 -3.4723  0.4720  1.6337
 8303SOL     OW36544   0.416   4.603   2.178 -0.1007  0.3814  0.0444
 8303SOL    HW136545   0.344   4.542   2.161 -0.6911  1.6465 -2.1245
 8303SOL    HW236546   0.357   4.679   2.188 -0.0583  0.4472 -0.2054
 8304SOL     OW36547   0.447   3.511   2.126  0.0199 -0.2983  0.0333
 8304SOL    HW136548   0.537   3.482   2.143  0.5201 -0.3371 -2.6914
 8304SOL    HW236549   0.415   3.544   2.210 -0.0755  1.6715 -0.7854
 8305SOL     OW36550   3.027   4.441  12.865 -0.1391 -0.7676  0.0744
 8305SOL    HW136551   3.102   4.496  12.887 -0.3367 -0.2630 -0.5157
 8305SOL    HW236552   3.003   4.397  12.947  2.3553 -2.9752 -0.3641
 8306SOL     OW36553   2.502   0.495   0.523 -1.0761 -0.4982 -0.4464
 8306SOL    HW136554   2.528   0.418   0.472 -0.3515 -1.9011  1.9839
 8306SOL    HW236555   2.446   0.447   0.584 -0.2654  0.0670  0.7351
 8307SOL     OW36556   2.066   2.207   6.515 -0.0432  0.5224  0.0217
 8307SOL    HW136557   2.054   2.142   6.584  0.1974 -0.4740 -0.8841
 8307SOL    HW236558   1.973   2.210   6.490 -0.1947 -0.6182  0.4694
 8308SOL     OW36559   0.357   1.904  12.097 -0.0176  0.3684 -0.0174
 8308SOL    HW136560   0.285   1.950  12.140 -1.8582 -0.5579 -2.1015
 8308SOL    HW236561   0.312   1.885  12.015 -2.3414  0.3588  1.2727
 8309SOL     OW36562   1.794   1.875   3.891  0.6745 -0.5400  0.1054
 8309SOL    HW136563   1.721   1.818   3.915  0.4894 -1.5450 -2.8039
 8309SOL    HW236564   1.835   1.809   3.835 -0.0545  2.0230 -3.4962
 8310SOL     OW36565   3.568   3.421   7.232 -0.1894  0.8055 -0.3373
 8310SOL    HW136566   3.639   3.356   7.234  0.3400  1.3691 -0.7291
 8310SOL    HW236567   3.491   3.374   7.262  0.9613 -1.7842 -1.4278
 8311SOL     OW36568   4.584   2.437   5.774 -0.3725  0.3739  0.0631
 8311SOL    HW136569   4.530   2.366   5.738 -0.0757  0.4142 -0.4571
 8311SOL    HW236570   4.669   2.408   5.741 -0.4624  0.7836 -0.5296
 8312SOL     OW36571   3.188   3.181  10.842  0.0206  0.5531  0.2367
 8312SOL    HW136572   3.194   3.091  10.810  0.4626  0.3031  1.0050
 8312SOL    HW236573   3.107   3.218  10.808 -0.1601 -0.8067 -0.8317
 8313SOL     OW36574   4.216   0.412   5.719  0.4037 -0.2571  0.0375
 8313SOL    HW136575   4.197   0.438   5.629  0.7701  0.9870  0.3104
 8313SOL    HW236576   4.285   0.346   5.725  0.5386 -0.1473 -0.3211
 8314SOL     OW36577   0.635   4.646   4.540  0.5574  0.5190 -0.0402
 8314SOL    HW136578   0.705   4.609   4.594  0.8860  0.6948 -0.3469
 8314SOL    HW236579   0.684   4.696   4.474 -0.2044  1.6406  0.2418
 8315SOL     OW36580   4.416   2.512   9.839 -0.5510  0.9266  0.0126
 8315SOL    HW136581   4.324   2.522   9.813 -0.5717  0.7080 -0.0027
 8315SOL    HW236582   4.460   2.524   9.754 -0.0756 -2.1393 -0.1799
 8316SOL     OW36583   2.372   4.072   5.350 -0.2898 -0.6280  0.5425
 8316SOL    HW136584   2.383   4.105   5.261  2.4897  0.6394  1.3626
 8316SOL    HW236585   2.284   4.099   5.375 -0.8521 -0.7300 -1.3529
 8317SOL     OW36586   3.927   3.203   8.102  0.0648 -0.5216 -0.2098
 8317SOL    HW136587   3.907   3.173   8.013 -1.7218 -1.5802  0.5339
 8317SOL    HW236588   3.845   3.241   8.133  1.4826  1.4407  1.0951
 8318SOL     OW36589   2.940   3.920  17.545 -0.5138 -0.3082 -0.3113
 8318SOL    HW136590   2.904   4.000  17.582 -0.7649 -0.0695 -1.0678
 8318SOL    HW236591   2.884   3.908  17.468  0.7001 -1.9001 -0.9388
 8319SOL     OW36592   2.276   1.608  13.615  0.4485 -1.0925  0.0897
 8319SOL    HW136593   2.200   1.653  13.653  0.0420 -0.5628 -1.3616
 8319SOL    HW236594   2.257   1.617  13.522  0.9204  0.0535  0.0990
 8320SOL     OW36595   0.595   2.765   2.238  0.0942  0.8215  0.1810
 8320SOL    HW136596   0.585   2.825   2.164 -0.2592 -1.4301 -1.5897
 8320SOL    HW236597   0.594   2.679   2.196 -1.5768  0.5827  0.7201
 8321SOL     OW36598   0.599   3.876   8.194  0.0455  0.5134  0.4647
 8321SOL    HW136599   0.693   3.878   8.182 -0.2725 -2.7132 -2.4619
 8321SOL    HW236600   0.560   3.878   8.106 -1.2753  1.9683  1.0643
 8322SOL     OW36601   2.271   0.097   2.341 -0.2236  0.2391 -0.4817
 8322SOL    HW136602   2.289   0.163   2.275 -2.2896  1.7342  0.4492
 8322SOL    HW236603   2.307   0.020   2.295 -2.1578  0.3364 -2.1418
 8323SOL     OW36604   2.398   3.002   8.864  0.0994 -0.2166  0.5329
 8323SOL    HW136605   2.473   3.056   8.835 -0.2352  0.6188  1.2226
 8323SOL    HW236606   2.334   3.006   8.793  0.1536 -2.5727  0.3571
 8324SOL     OW36607   3.898   3.681  10.211  0.3972  0.9232 -0.2536
 8324SOL    HW136608   3.984   3.722  10.204  0.0031  1.9157  0.8736
 8324SOL    HW236609   3.922   3.607  10.267 -3.6624 -1.0433 -1.1112
 8325SOL     OW36610   2.209   1.710  14.921  0.2152  0.2367  0.3583
 8325SOL    HW136611   2.202   1.615  14.932  4.0137  0.0305  0.9950
 8325SOL    HW236612   2.157   1.731  14.844 -0.4297 -2.4728  0.0553
 8326SOL     OW36613   1.207   4.051   9.232 -0.2777 -0.4917  0.0678
 8326SOL    HW136614   1.157   4.003   9.298  0.6988 -1.5762  0.0139
 8326SOL    HW236615   1.234   3.980   9.174  2.5444  0.7857 -0.1702
 8327SOL     OW36616   2.431   1.920  11.096 -0.6974 -0.9371 -0.5917
 8327SOL    HW136617   2.397   2.005  11.123  1.6303 -0.7681  1.7751
 8327SOL    HW236618   2.404   1.868  11.171 -0.3623  0.8341  0.7433
 8328SOL     OW36619   3.664   1.822   3.574  0.0728  0.2450 -0.3693
 8328SOL    HW136620   3.700   1.755   3.632  0.5933  0.4958 -0.4033
 8328SOL    HW236621   3.623   1.878   3.641 -1.9934 -1.7709  0.0500
 8329SOL     OW36622   1.509   4.132   4.317 -0.0706 -0.1642  0.0999
 8329SOL    HW136623   1.460   4.214   4.314  1.8480  0.9579 -0.5749
 8329SOL    HW236624   1.447   4.063   4.294 -0.0300 -0.4744  0.9268
 8330SOL     OW36625   2.791   0.496   1.664  0.1639 -0.1099  0.7982
 8330SOL    HW136626   2.858   0.561   1.645 -0.5001 -0.1450 -1.7010
 8330SOL    HW236627   2.824   0.423   1.613 -1.5912 -0.0062 -0.4813
 8331SOL     OW36628   2.408   2.794   6.741  0.3719  0.2831  0.0929
 8331SOL    HW136629   2.384   2.737   6.814  0.7994 -1.2368 -0.9564
 8331SOL    HW236630   2.503   2.783   6.746  0.3797 -0.5687 -2.2906
 8332SOL     OW36631   4.198   2.606   8.534 -0.7138  0.5709  0.7623
 8332SOL    HW136632   4.115   2.630   8.493 -1.4157 -2.0543  0.6666
 8332SOL    HW236633   4.177   2.594   8.626 -2.1080 -1.5870  0.1840
 8333SOL     OW36634   2.464   1.986   5.833 -0.8604  0.0217  0.3455
 8333SOL    HW136635   2.406   2.008   5.906  2.9699  0.1139  3.3077
 8333SOL    HW236636   2.554   1.987   5.864 -1.3509  1.6311  1.7257
 8334SOL     OW36637   4.637   4.696   5.515 -0.1275  0.2891 -0.0092
 8334SOL    HW136638   4.573   4.641   5.470  0.3503  0.8250 -1.3782
 8334SOL    HW236639   4.583   4.714   5.592  1.8497 -1.2552  1.7248
 8335SOL     OW36640   4.198   4.540   6.553  0.7453 -0.3745 -0.0124
 8335SOL    HW136641   4.201   4.603   6.625  1.0687 -0.8544  0.3997
 8335SOL    HW236642   4.291   4.549   6.535  0.4851 -0.2192 -1.2653
 8336SOL     OW36643   4.087   0.601   4.453 -0.2567 -0.0370 -0.1383
 8336SOL    HW136644   4.085   0.673   4.516 -1.1409 -0.3533  0.1912
 8336SOL    HW236645   4.100   0.517   4.497 -1.2958  0.5797  1.3296
 8337SOL     OW36646   0.275   0.953   6.923  0.0059 -0.1793 -0.2728
 8337SOL    HW136647   0.245   0.997   7.002 -1.9841 -0.8537 -0.6602
 8337SOL    HW236648   0.352   1.005   6.901  0.4478 -0.2551  1.1244
 8338SOL     OW36649   4.050   1.523   3.145  0.4360  0.1919 -0.1868
 8338SOL    HW136650   4.111   1.539   3.073  1.4526  0.1335  0.6640
 8338SOL    HW236651   4.108   1.465   3.194  0.3836  1.7200  1.6688
 8339SOL     OW36652   2.766   0.063   3.301 -0.6157 -0.2119  0.1087
 8339SOL    HW136653   2.847   0.068   3.250 -1.0574 -1.5043 -0.7156
 8339SOL    HW236654   2.713   4.726   3.267 -1.2426  0.0180  0.5842
 8340SOL     OW36655   0.167   3.342   3.478 -0.2216 -0.0784 -0.2623
 8340SOL    HW136656   0.255   3.305   3.478 -0.3431 -0.3671 -0.4176
 8340SOL    HW236657   0.151   3.362   3.570 -1.0751  0.5422 -0.5463
 8341SOL     OW36658   2.054   2.632   5.832  0.3816  0.2074 -0.4603
 8341SOL    HW136659   2.094   2.708   5.874 -1.9387  1.5435 -0.6210
 8341SOL    HW236660   1.974   2.671   5.797  0.0653  0.6675  0.7664
 8342SOL     OW36661   1.891   0.785   7.549 -0.2730 -0.9038 -0.5078
 8342SOL    HW136662   1.805   0.749   7.526 -1.4737  1.0314  0.9693
 8342SOL    HW236663   1.937   0.705   7.575  0.0209 -1.1644 -1.8322
 8343SOL     OW36664   1.475   1.960   1.778  0.0400  0.3385 -0.2303
 8343SOL    HW136665   1.520   1.920   1.704  2.1777  0.5744  0.9401
 8343SOL    HW236666   1.443   1.877   1.814  0.2176  0.4384  0.1551
 8344SOL     OW36667   3.036   1.294  12.176  0.3700  0.1668 -0.2474
 8344SOL    HW136668   3.062   1.253  12.259  0.1549  2.0132  0.7341
 8344SOL    HW236669   3.025   1.384  12.206  0.6659 -0.0694  0.5587
 8345SOL     OW36670   4.671   0.441   6.687 -0.4313 -0.5340  0.2367
 8345SOL    HW136671   4.680   0.476   6.776 -3.2452  3.5587 -1.0942
 8345SOL    HW236672   4.677   0.347   6.704 -0.1581 -0.7040 -0.8322
 8346SOL     OW36673   2.273   0.726   3.814 -0.6435 -0.2467  0.2876
 8346SOL    HW136674   2.278   0.737   3.909  2.8404 -3.3268  0.4301
 8346SOL    HW236675   2.292   0.816   3.788 -2.3893 -0.0383 -0.3268
 8347SOL     OW36676   2.166   3.611   1.619 -0.1196  0.5453  0.0291
 8347SOL    HW136677   2.080   3.650   1.603  1.0058  2.6145 -0.9918
 8347SOL    HW236678   2.143   3.577   1.706  0.4059 -0.1757 -0.1195
 8348SOL     OW36679   1.973   2.059  10.610  0.3628 -0.1111 -0.0968
 8348SOL    HW136680   2.031   1.994  10.652 -0.2355 -0.3883  0.3049
 8348SOL    HW236681   1.971   2.028  10.519 -1.0470  0.0986 -0.1317
 8349SOL     OW36682   0.510   0.171  10.307 -0.0359 -0.2792 -0.0596
 8349SOL    HW136683   0.476   0.101  10.251 -1.6991  0.9023 -0.5267
 8349SOL    HW236684   0.492   0.148  10.398 -3.5586 -0.0837 -0.7019
 8350SOL     OW36685   2.527   0.001  16.165 -0.4480  0.1865  0.1464
 8350SOL    HW136686   2.530   0.073  16.102  1.8399  0.6895  0.8360
 8350SOL    HW236687   2.481   4.670  16.112 -0.0361 -0.8366  1.0721
 8351SOL     OW36688   3.005   3.840   3.875 -0.1583  0.3474  0.9543
 8351SOL    HW136689   2.929   3.784   3.860 -1.0974  1.6553  0.8326
 8351SOL    HW236690   2.994   3.900   3.802 -0.9353 -1.3559 -0.3257
 8352SOL     OW36691   0.377   4.132   9.564 -0.0143 -0.0246 -0.1491
 8352SOL    HW136692   0.343   4.190   9.496 -0.2210  0.3949  0.3121
 8352SOL    HW236693   0.301   4.076   9.578 -0.1412 -0.0303 -0.8382
 8353SOL     OW36694   1.647   4.148   2.573 -0.8134  0.0278 -0.4784
 8353SOL    HW136695   1.614   4.085   2.637  0.0369 -0.2204 -0.2914
 8353SOL    HW236696   1.710   4.093   2.528 -0.4541 -1.2529  1.5782
 8354SOL     OW36697   3.619   0.467   9.465  0.0052 -0.1970  0.7338
 8354SOL    HW136698   3.582   0.423   9.542 -2.6496 -1.8333 -1.4914
 8354SOL    HW236699   3.694   0.514   9.502  0.8643 -0.3927 -0.7896
 8355SOL     OW36700   3.631   2.254  11.696  0.5361  0.1840  0.3203
 8355SOL    HW136701   3.632   2.341  11.655  1.9455 -0.9815 -2.0999
 8355SOL    HW236702   3.599   2.279  11.783  0.8346 -0.2107  0.5388
 8356SOL     OW36703   2.862   0.623   3.825  0.1942  0.0803 -0.4180
 8356SOL    HW136704   2.792   0.582   3.773 -1.6265  1.4263  0.9579
 8356SOL    HW236705   2.830   0.593   3.910  2.7565 -1.8553 -0.1477
 8357SOL     OW36706   2.469   2.513  17.611 -0.0245 -0.1544  0.4449
 8357SOL    HW136707   2.468   2.557  17.696 -0.1052 -0.2507  0.4944
 8357SOL    HW236708   2.549   2.461  17.615 -0.3027 -0.4236  2.3079
 8358SOL     OW36709   1.575   1.300   9.759 -0.8852  0.2388 -0.5794
 8358SOL    HW136710   1.482   1.289   9.776 -0.1447 -1.5730  2.1905
 8358SOL    HW236711   1.614   1.298   9.846 -1.1752 -1.2082 -0.4850
 8359SOL     OW36712   0.584   1.736   0.489 -0.5245  0.0999 -0.0116
 8359SOL    HW136713   0.590   1.831   0.479 -0.1689  0.3459  2.4633
 8359SOL    HW236714   0.516   1.725   0.555 -0.1961  1.7260  0.6026
 8360SOL     OW36715   2.377   4.457   0.810 -0.4390  0.2716 -0.2973
 8360SOL    HW136716   2.423   4.506   0.878 -0.7203 -0.9696  0.8040
 8360SOL    HW236717   2.360   4.373   0.854 -2.8428  0.0881 -1.6004
 8361SOL     OW36718   0.413   3.039  13.862 -0.1180 -0.0266 -0.6761
 8361SOL    HW136719   0.353   3.056  13.789 -0.5733  0.7116 -0.1229
 8361SOL    HW236720   0.348   3.047  13.932  0.8979  2.0485  0.0087
 8362SOL     OW36721   0.926   2.885   4.451 -0.1003 -0.2291 -0.1382
 8362SOL    HW136722   0.907   2.944   4.378 -1.3896  0.5072  0.8059
 8362SOL    HW236723   1.001   2.934   4.487  0.2522  0.7665 -2.2408
 8363SOL     OW36724   2.394   0.883  10.301  0.0609  0.4564  0.0686
 8363SOL    HW136725   2.434   0.871  10.387  1.5240 -0.9254 -0.7950
 8363SOL    HW236726   2.470   0.880  10.242  0.6477  0.1086  0.8440
 8364SOL     OW36727   4.675   1.700  15.718  0.5104  0.0004 -0.1164
 8364SOL    HW136728   4.611   1.663  15.657 -0.4205  2.0558 -0.3971
 8364SOL    HW236729   0.019   1.704  15.666  0.5577 -0.6017 -0.0922
 8365SOL     OW36730   1.144   4.390   5.554  0.5391  0.3537  0.3310
 8365SOL    HW136731   1.181   4.443   5.484 -1.8109 -0.1533 -1.2860
 8365SOL    HW236732   1.184   4.429   5.632  0.2742 -1.8856  1.5767
 8366SOL     OW36733   3.577   3.134  16.740 -0.3897 -0.4016  0.2857
 8366SOL    HW136734   3.559   3.065  16.803  1.1798  0.0951  1.2910
 8366SOL    HW236735   3.668   3.134  16.710 -0.8182  2.1938 -1.0810
 8367SOL     OW36736   1.369   0.158   0.622 -0.5349  0.2924 -0.2667
 8367SOL    HW136737   1.339   0.072   0.595 -1.4349  0.1338  1.2813
 8367SOL    HW236738   1.445   0.131   0.674 -0.5203 -1.8548 -1.4346
 8368SOL     OW36739   2.275   2.560   8.923  0.1577  0.0311  0.0534
 8368SOL    HW136740   2.258   2.603   8.839 -1.3898 -0.2724  0.2068
 8368SOL    HW236741   2.362   2.524   8.911  0.2981 -0.0297  1.3029
 8369SOL     OW36742   2.442   0.667   2.166 -0.2429 -0.0361 -0.3808
 8369SOL    HW136743   2.462   0.752   2.206 -0.9248 -0.2756  0.4902
 8369SOL    HW236744   2.422   0.692   2.076 -0.1511 -1.9288 -0.9189
 8370SOL     OW36745   2.125   3.705   6.749 -0.3390 -0.4903  0.0793
 8370SOL    HW136746   2.166   3.662   6.674 -0.2031 -0.5701  0.1989
 8370SOL    HW236747   2.054   3.642   6.746  0.0310 -0.8476 -1.1044
 8371SOL     OW36748   3.978   2.456  10.418  0.8329  0.0587 -0.2362
 8371SOL    HW136749   3.945   2.522  10.357 -0.3716 -0.8012 -0.5058
 8371SOL    HW236750   3.948   2.381  10.368 -1.3866  0.9068 -0.1626
 8372SOL     OW36751   0.794   4.662   9.186  0.0420  0.0423  0.0194
 8372SOL    HW136752   0.850   0.004   9.196  0.3753 -0.3839  1.4508
 8372SOL    HW236753   0.778   4.666   9.092  1.8317  1.8002 -0.2131
 8373SOL     OW36754   3.395   1.179  16.801  0.2959  0.4957 -0.3149
 8373SOL    HW136755   3.444   1.259  16.821  0.0200  0.4003  0.7354
 8373SOL    HW236756   3.368   1.164  16.892  0.5490  1.4368 -0.0752
 8374SOL     OW36757   4.026   3.785   8.273  0.2948  0.2187  0.1744
 8374SOL    HW136758   3.999   3.737   8.351  1.1954  0.2837  0.5303
 8374SOL    HW236759   4.118   3.761   8.261  0.7942  0.2038  3.8456
 8375SOL     OW36760   1.758   2.872   7.059  0.6976  0.3638  0.4344
 8375SOL    HW136761   1.825   2.917   7.110  1.3873 -0.3073  0.1278
 8375SOL    HW236762   1.683   2.932   7.061 -1.3040 -2.2650  3.2597
 8376SOL     OW36763   3.395   1.124   9.706 -0.3827 -0.1936 -0.2128
 8376SOL    HW136764   3.457   1.052   9.708 -0.9585 -0.6675  0.9027
 8376SOL    HW236765   3.431   1.182   9.639 -1.3762  0.3637 -0.2580
 8377SOL     OW36766   0.786   4.105  13.070 -0.3097  0.0600 -0.3214
 8377SOL    HW136767   0.703   4.071  13.037  0.6605 -0.2552 -2.4180
 8377SOL    HW236768   0.804   4.041  13.139 -0.3473  0.5678  0.1633
 8378SOL     OW36769   0.472   0.504   3.528  0.0607 -0.0555  0.4409
 8378SOL    HW136770   0.538   0.438   3.510 -0.8903 -0.0839 -3.1325
 8378SOL    HW236771   0.478   0.564   3.453  3.2982  0.2133  0.9244
 8379SOL     OW36772   4.703   1.700   3.394  0.1434 -0.2645  0.1827
 8379SOL    HW136773   4.641   1.641   3.437  0.9068 -0.3351  1.1817
 8379SOL    HW236774   0.056   1.667   3.410 -0.9791 -2.3108  2.2057
 8380SOL     OW36775   2.188   2.545   5.570  0.3079 -0.3289  0.3796
 8380SOL    HW136776   2.177   2.503   5.655  1.0909 -0.4669  0.4116
 8380SOL    HW236777   2.181   2.470   5.511 -1.5012 -0.2640  0.5175
 8381SOL     OW36778   0.284   2.278   5.445  0.7400  0.3838  0.2025
 8381SOL    HW136779   0.243   2.361   5.422 -2.9260 -1.9100 -1.4451
 8381SOL    HW236780   0.310   2.259   5.355  0.4268  1.3982 -0.0966
 8382SOL     OW36781   0.078   2.332   8.413  0.1793  0.0005  0.5509
 8382SOL    HW136782   4.720   2.350   8.404  0.0041 -1.5486 -0.9343
 8382SOL    HW236783   0.118   2.407   8.369  0.6843  0.0837  1.1476
 8383SOL     OW36784   3.282   0.180  15.379  0.1936 -0.3622 -0.2026
 8383SOL    HW136785   3.365   0.225  15.396  1.2649 -1.8160 -1.5465
 8383SOL    HW236786   3.281   0.103  15.436  1.5488 -1.6081 -1.8848
 8384SOL     OW36787   1.192   2.782   6.560 -0.6356  0.0865 -0.0443
 8384SOL    HW136788   1.132   2.811   6.492  0.6647  0.4325 -1.0619
 8384SOL    HW236789   1.277   2.805   6.522 -1.2697  0.8922 -0.9561
 8385SOL     OW36790   1.135   3.485   0.045  0.2110  0.0739 -0.0803
 8385SOL    HW136791   1.092   3.399   0.048  0.8067 -0.2719 -1.3876
 8385SOL    HW236792   1.224   3.461   0.069  0.5816  0.4250 -1.1345
 8386SOL     OW36793   0.691   4.057   9.618 -0.4832 -0.2066 -0.1956
 8386SOL    HW136794   0.706   4.046   9.524  2.4976  1.2302  0.0879
 8386SOL    HW236795   0.602   4.024   9.622 -0.1964 -0.8363  0.8461
 8387SOL     OW36796   1.079   0.931   7.023  0.4583 -0.0148 -0.0452
 8387SOL    HW136797   1.001   0.986   7.023  1.1272  0.9183 -1.4131
 8387SOL    HW236798   1.079   0.897   7.113  0.0964  3.0729  1.1204
 8388SOL     OW36799   2.931   4.460   9.608  0.1071  0.4308  0.4735
 8388SOL    HW136800   2.903   4.374   9.639  3.5307 -0.7470  0.3240
 8388SOL    HW236801   2.938   4.443   9.514  0.5303  0.8135  0.4331
 8389SOL     OW36802   3.144   4.218   7.888 -0.0385  0.0127 -0.3230
 8389SOL    HW136803   3.227   4.262   7.871 -0.1199 -0.5868 -2.2835
 8389SOL    HW236804   3.130   4.176   7.803 -0.0052 -0.4209 -0.1124
 8390SOL     OW36805   3.709   3.593  17.406  0.5212  0.6091  0.2232
 8390SOL    HW136806   3.624   3.569  17.368  0.4012  0.2165  0.7409
 8390SOL    HW236807   3.770   3.598  17.332  1.0941 -1.3281  0.5598
 8391SOL     OW36808   1.892   3.580  15.877 -0.1872  0.1081 -0.1099
 8391SOL    HW136809   1.931   3.499  15.910 -0.0015 -0.9367 -2.9202
 8391SOL    HW236810   1.873   3.558  15.786 -0.3582  1.0133 -0.2947
 8392SOL     OW36811   2.078   4.050   3.044 -0.2097  0.2418 -0.3327
 8392SOL    HW136812   2.116   3.987   2.983 -0.7425 -0.0285 -0.3824
 8392SOL    HW236813   2.116   4.023   3.128 -0.7605 -0.4016 -0.2958
 8393SOL     OW36814   4.205   2.593   2.721  0.4926 -0.4982  0.1660
 8393SOL    HW136815   4.215   2.529   2.792  1.8808  0.6630  1.0000
 8393SOL    HW236816   4.285   2.582   2.670  2.1038 -0.0855  2.5958
 8394SOL     OW36817   4.160   2.162   1.800  0.4930  0.9556 -0.1045
 8394SOL    HW136818   4.109   2.157   1.719  2.0769  1.0640 -1.1127
 8394SOL    HW236819   4.116   2.087   1.840 -0.3281  0.4994 -1.8403
 8395SOL     OW36820   1.157   0.377   2.131 -0.0923 -0.1609  0.0776
 8395SOL    HW136821   1.170   0.310   2.064  0.6577  2.0451 -2.0004
 8395SOL    HW236822   1.188   0.335   2.211  1.5967 -2.3469 -1.7417
 8396SOL     OW36823   0.227   4.461   6.641  0.0527 -0.1164  0.5628
 8396SOL    HW136824   0.253   4.379   6.684 -0.8339 -0.4085  0.5478
 8396SOL    HW236825   0.131   4.453   6.645  0.0468 -0.6057 -0.7095
 8397SOL     OW36826   0.171   1.838   4.754 -0.5253 -0.0041 -0.2552
 8397SOL    HW136827   0.235   1.861   4.822 -1.8292 -3.3182  2.0856
 8397SOL    HW236828   0.155   1.924   4.714  0.5412  1.0483  1.5924
 8398SOL     OW36829   0.261   2.690  17.339  0.2561  0.0423  0.3416
 8398SOL    HW136830   0.265   2.709  17.246 -1.3997 -1.3055  0.0074
 8398SOL    HW236831   0.341   2.737  17.364 -0.8110  2.1904 -0.2978
 8399SOL     OW36832   0.970   1.251  12.319  0.8786  0.1530  0.0266
 8399SOL    HW136833   0.954   1.160  12.291  0.5155 -0.3905  1.9859
 8399SOL    HW236834   0.889   1.298  12.340  0.3457 -0.8571  0.2511
 8400SOL     OW36835   0.088   2.313  12.093  0.3509 -0.0319 -0.0568
 8400SOL    HW136836   0.033   2.235  12.085 -0.2018  0.3102  0.4534
 8400SOL    HW236837   0.178   2.283  12.104  0.3146  1.0730  3.3099
 8401SOL     OW36838   1.435   3.498   6.190  0.4667 -0.0813 -0.0082
 8401SOL    HW136839   1.350   3.459   6.168 -0.4111  1.3326  0.8062
 8401SOL    HW236840   1.411   3.576   6.240  2.5126  0.4127  0.1942
 8402SOL     OW36841   2.277   3.066   3.827  0.1808  0.3364  0.0813
 8402SOL    HW136842   2.249   3.155   3.843 -1.7949 -0.1602 -0.7103
 8402SOL    HW236843   2.372   3.076   3.814  0.7982 -1.6471  2.9081
 8403SOL     OW36844   0.515   0.805   3.047  0.5066 -0.0283 -0.0259
 8403SOL    HW136845   0.544   0.874   2.988 -0.3873 -0.8200 -1.4086
 8403SOL    HW236846   0.522   0.725   2.994  1.6203  0.1523 -0.1508
 8404SOL     OW36847   2.404   0.612   5.421 -0.2688  0.3675  0.3018
 8404SOL    HW136848   2.451   0.529   5.408 -1.7909 -0.3557 -0.5701
 8404SOL    HW236849   2.360   0.596   5.504 -2.5036 -2.5605 -1.4393
 8405SOL     OW36850   3.383   4.169   7.558 -0.3745  0.1089 -0.4051
 8405SOL    HW136851   3.476   4.187   7.572 -0.9095  1.3758  1.5246
 8405SOL    HW236852   3.349   4.256   7.581  0.8611  0.2806  0.7688
 8406SOL     OW36853   2.866   0.990   6.785 -0.2679 -0.1728 -0.0083
 8406SOL    HW136854   2.881   0.927   6.856 -0.4666  1.0777  1.1389
 8406SOL    HW236855   2.951   0.999   6.743 -0.7007 -0.8612 -1.0381
 8407SOL     OW36856   0.765   0.315   2.223 -0.2746 -0.9027 -0.4867
 8407SOL    HW136857   0.696   0.253   2.245 -0.4324  0.3584  2.5960
 8407SOL    HW236858   0.730   0.356   2.144  0.7048 -0.2785 -0.6090
 8408SOL     OW36859   0.816   2.107   0.407 -0.1547 -0.1447 -0.1194
 8408SOL    HW136860   0.879   2.166   0.448 -2.2514  1.1194  1.2864
 8408SOL    HW236861   0.758   2.153   0.347  0.1873 -1.4701 -1.4756
 8409SOL     OW36862   1.680   2.957   1.621 -0.2206 -0.6576 -0.0135
 8409SOL    HW136863   1.674   2.952   1.525 -0.3813 -1.0589  0.0173
 8409SOL    HW236864   1.615   2.900   1.661 -0.0248  0.5517  2.0178
 8410SOL     OW36865   1.443   1.716   3.692  0.4915 -0.2913 -0.5936
 8410SOL    HW136866   1.415   1.627   3.671 -1.4545 -0.5720  3.0968
 8410SOL    HW236867   1.403   1.761   3.618  0.4751 -0.1911 -0.5233
 8411SOL     OW36868   1.468   2.533  16.555 -0.2839 -0.2895  0.1339
 8411SOL    HW136869   1.499   2.528  16.646  1.3131 -1.7663 -0.5009
 8411SOL    HW236870   1.389   2.586  16.563  0.8921  1.9975 -3.1891
 8412SOL     OW36871   0.987   1.726   4.402 -0.2873 -0.0988 -0.5015
 8412SOL    HW136872   1.082   1.715   4.398 -0.2784 -1.0066  2.2452
 8412SOL    HW236873   0.972   1.689   4.489  1.5636 -0.4755 -0.3252
 8413SOL     OW36874   0.840   2.555   5.767  0.2657 -0.9216 -0.1841
 8413SOL    HW136875   0.814   2.621   5.831 -1.5663  0.2657 -2.1514
 8413SOL    HW236876   0.759   2.542   5.718  0.2960 -0.0568 -0.4466
 8414SOL     OW36877   2.478   0.955   5.832  0.2669 -0.3516 -0.4589
 8414SOL    HW136878   2.431   0.933   5.912 -0.1023  0.9320 -0.3239
 8414SOL    HW236879   2.411   0.931   5.768  0.2201  1.6811 -1.1963
 8415SOL     OW36880   2.318   3.969   6.360 -0.2336 -0.0136  0.7222
 8415SOL    HW136881   2.250   3.995   6.422 -1.1518 -1.0942  0.1743
 8415SOL    HW236882   2.261   3.957   6.284 -0.0884 -0.1028  0.6287
 8416SOL     OW36883   2.266   2.422  16.579 -0.5896 -0.2987 -0.2979
 8416SOL    HW136884   2.184   2.450  16.539 -1.1634  0.4594  1.4100
 8416SOL    HW236885   2.268   2.463  16.666  1.3163 -0.6074 -0.2071
 8417SOL     OW36886   2.478   4.683   6.323 -0.4927 -0.1930  0.4264
 8417SOL    HW136887   2.549   4.669   6.261 -0.6366 -1.8190  0.6382
 8417SOL    HW236888   2.464   0.041   6.310 -0.2335  0.2237  3.0882
 8418SOL     OW36889   1.002   2.271   2.516  0.4492 -0.6280  0.3578
 8418SOL    HW136890   1.020   2.203   2.451  1.6976  0.6950 -0.6998
 8418SOL    HW236891   1.077   2.250   2.571 -0.7273  0.8746  2.5306
 8419SOL     OW36892   2.959   1.644  16.307  0.0083 -0.5059  0.0029
 8419SOL    HW136893   3.004   1.703  16.246 -1.1178  1.8427  1.4554
 8419SOL    HW236894   2.917   1.586  16.243  1.2353 -1.7440  0.3272
 8420SOL     OW36895   4.689   2.401   3.679 -0.0062  0.0507 -0.2022
 8420SOL    HW136896   4.654   2.462   3.613 -1.8222  1.7374  2.2936
 8420SOL    HW236897   0.044   2.395   3.649 -0.5082 -0.2743 -1.6342
 8421SOL     OW36898   4.357   4.232   4.107  0.2024  0.0428 -0.2064
 8421SOL    HW136899   4.370   4.309   4.052  0.4586  0.6099  0.6582
 8421SOL    HW236900   4.343   4.272   4.193  0.6265  2.1989 -1.1349
 8422SOL     OW36901   3.216   0.299   9.066 -0.2689 -0.0242 -0.0829
 8422SOL    HW136902   3.143   0.285   9.125  0.4506  0.4631  0.9114
 8422SOL    HW236903   3.172   0.272   8.985 -1.5574  0.1320  0.5649
 8423SOL     OW36904   0.096   0.130   4.750  0.0100  0.3115  0.6659
 8423SOL    HW136905   0.062   0.139   4.839  1.5924  2.6943  1.0293
 8423SOL    HW236906   0.019   0.151   4.698 -0.3408 -0.6799  0.7856
 8424SOL     OW36907   1.691   0.923   4.699 -0.6928  0.3866  0.1876
 8424SOL    HW136908   1.625   0.907   4.631 -0.4091  0.7047 -0.1627
 8424SOL    HW236909   1.651   0.992   4.751  0.0756  0.2293  0.9785
 8425SOL     OW36910   2.755   1.372   2.654 -0.2492  0.5311  0.2849
 8425SOL    HW136911   2.685   1.432   2.628  0.0277  1.5185  1.8472
 8425SOL    HW236912   2.829   1.433   2.660 -0.9260  1.4558 -0.6810
 8426SOL     OW36913   2.917   3.711  15.610  0.4103 -0.0545 -0.2552
 8426SOL    HW136914   2.910   3.740  15.519  1.4778  0.9650 -0.0121
 8426SOL    HW236915   2.843   3.757  15.648  0.4841  0.3498 -0.6055
 8427SOL     OW36916   1.028   4.577   6.923 -0.1118 -0.0832  0.0918
 8427SOL    HW136917   1.120   4.554   6.935  0.1965  0.8352 -0.4851
 8427SOL    HW236918   0.991   4.488   6.923  2.5452 -1.1980  1.0837
 8428SOL     OW36919   2.128   4.482   5.794 -0.0890  0.0312  0.0416
 8428SOL    HW136920   2.062   4.521   5.852 -0.9499 -1.9616  0.4071
 8428SOL    HW236921   2.195   4.550   5.799  0.4274 -0.4810  0.0633
 8429SOL     OW36922   1.635   3.316   3.509 -0.0198 -0.4288 -0.5697
 8429SOL    HW136923   1.542   3.328   3.489 -0.0320 -0.0914 -0.3034
 8429SOL    HW236924   1.666   3.401   3.478  1.0215 -0.2010  1.1559
 8430SOL     OW36925   1.477   4.530   8.879  0.1139 -0.0197  0.3146
 8430SOL    HW136926   1.434   4.444   8.882  1.9804 -1.0282 -2.1789
 8430SOL    HW236927   1.549   4.513   8.940 -1.5489  0.0120  2.2802
 8431SOL     OW36928   2.865   0.312   8.037  0.0913  0.4864  0.1531
 8431SOL    HW136929   2.774   0.305   8.063  0.8358  1.6300  3.1679
 8431SOL    HW236930   2.908   0.313   8.123 -0.9116  1.7250  0.6526
 8432SOL     OW36931   2.777   2.765   5.303  0.0428  0.2476 -0.2474
 8432SOL    HW136932   2.810   2.752   5.392 -0.8161 -3.3155 -0.4190
 8432SOL    HW236933   2.698   2.819   5.312  0.0025  0.1063  0.2707
 8433SOL     OW36934   1.864   2.690   1.769  0.1268  0.1233 -0.1211
 8433SOL    HW136935   1.860   2.608   1.818 -1.9144  0.1617 -0.2349
 8433SOL    HW236936   1.802   2.746   1.815  1.7288  1.0622  0.8995
 8434SOL     OW36937   3.056   0.166   4.627  0.0075 -0.6503  0.3192
 8434SOL    HW136938   3.075   0.238   4.567  0.4144 -1.6225 -0.7292
 8434SOL    HW236939   3.015   0.213   4.699  2.0684  0.0430  1.0377
 8435SOL     OW36940   1.690   2.219   9.817  0.4201 -0.2468  0.4166
 8435SOL    HW136941   1.762   2.221   9.754  0.4856 -0.9513  0.4688
 8435SOL    HW236942   1.640   2.141   9.791  0.8913 -0.2628 -0.4442
 8436SOL     OW36943   2.964   1.587   7.764  0.5766 -0.0171  0.0290
 8436SOL    HW136944   2.999   1.675   7.751 -2.7877  1.0724 -1.7053
 8436SOL    HW236945   3.006   1.573   7.849  2.0367  0.7345 -0.5837
 8437SOL     OW36946   0.558   1.170   2.115 -0.1434 -0.0239 -0.0179
 8437SOL    HW136947   0.529   1.233   2.181  3.1248  1.8654 -0.4068
 8437SOL    HW236948   0.488   1.174   2.049 -1.0920  1.7040  1.0993
 8438SOL     OW36949   1.120   0.914   2.883 -0.0549 -0.4669 -0.2623
 8438SOL    HW136950   1.079   0.927   2.968 -1.2469 -0.0552 -0.9092
 8438SOL    HW236951   1.136   0.820   2.887  1.8528 -0.3180 -3.4222
 8439SOL     OW36952   2.112   1.140   5.623  0.1410 -0.0023 -0.4068
 8439SOL    HW136953   2.053   1.109   5.691 -2.1634  0.1584 -2.3522
 8439SOL    HW236954   2.170   1.065   5.610 -0.2072 -0.1547 -1.0354
 8440SOL     OW36955   2.171   4.726   7.997  0.1991 -0.1289  0.8467
 8440SOL    HW136956   2.159   4.704   7.905  1.6360  1.2301  0.3265
 8440SOL    HW236957   2.258   0.029   7.989  0.7882 -1.4961  0.5609
 8441SOL     OW36958   1.646   1.050  13.351 -0.8560  0.6005  0.0890
 8441SOL    HW136959   1.578   1.024  13.413  0.8525 -1.3320  1.1457
 8441SOL    HW236960   1.700   0.974  13.329 -2.4622 -0.0815 -1.4938
 8442SOL     OW36961   0.591   2.680  10.726  0.6828  0.0615 -0.1907
 8442SOL    HW136962   0.659   2.727  10.774 -0.2015 -1.7600  2.8231
 8442SOL    HW236963   0.541   2.757  10.700 -0.1015  0.0185  1.1840
 8443SOL     OW36964   0.678   0.622  13.464  0.0856 -0.0826  0.4515
 8443SOL    HW136965   0.731   0.550  13.430 -0.3202  0.0647 -0.4751
 8443SOL    HW236966   0.673   0.590  13.554  0.8495 -1.8580 -0.1273
 8444SOL     OW36967   2.315   1.403  12.746  0.2376  0.3611  0.0980
 8444SOL    HW136968   2.294   1.474  12.685  0.0366  0.2428  0.0304
 8444SOL    HW236969   2.411   1.403  12.751  0.2353 -0.9177  0.0296
 8445SOL     OW36970   4.534   4.452   7.086 -0.7224  0.2881  0.2343
 8445SOL    HW136971   4.487   4.521   7.038  1.6855  1.0420 -1.0683
 8445SOL    HW236972   4.589   4.414   7.017 -1.9160  0.7510 -0.9713
 8446SOL     OW36973   1.390   3.974  14.071  0.7376 -0.1162  0.1839
 8446SOL    HW136974   1.409   4.053  14.121  2.5268 -1.6204  1.8415
 8446SOL    HW236975   1.415   3.906  14.133  1.5882 -0.4707 -0.5435
 8447SOL     OW36976   4.485   2.768   0.322 -0.5332 -0.0392 -0.4654
 8447SOL    HW136977   4.398   2.806   0.309  1.4818  4.9783  0.8597
 8447SOL    HW236978   4.511   2.800   0.408 -2.0592 -0.9040  0.2979
 8448SOL     OW36979   2.310   1.712   6.867 -0.0934 -0.6931 -0.1521
 8448SOL    HW136980   2.315   1.730   6.773  0.8634 -0.3219 -0.0351
 8448SOL    HW236981   2.364   1.633   6.878 -1.8732 -2.1114 -1.4766
 8449SOL     OW36982   0.877   3.418  10.934 -0.1823 -0.4501 -0.0974
 8449SOL    HW136983   0.929   3.493  10.905 -0.5955 -0.1321 -0.0115
 8449SOL    HW236984   0.928   3.393  11.011 -0.3703  2.1480  0.8728
 8450SOL     OW36985   1.453   2.223   6.812  0.3128 -0.3215  0.3920
 8450SOL    HW136986   1.418   2.161   6.748  0.6078 -0.3714  0.2791
 8450SOL    HW236987   1.547   2.218   6.798  0.1591  0.0780 -0.7672
 8451SOL     OW36988   3.995   1.897   9.194  0.0815 -0.0985  0.1248
 8451SOL    HW136989   4.023   1.989   9.198 -0.1261 -0.1040  1.6657
 8451SOL    HW236990   4.082   1.868   9.166  0.3785 -0.2224  1.1581
 8452SOL     OW36991   1.371   2.237   8.307  0.0346  0.3278 -0.0912
 8452SOL    HW136992   1.308   2.166   8.307  0.5990 -0.1775  3.1525
 8452SOL    HW236993   1.456   2.193   8.295 -0.7407 -1.0572 -0.4413
 8453SOL     OW36994   1.739   4.438  13.323 -0.1861 -0.3653 -0.0824
 8453SOL    HW136995   1.643   4.437  13.325 -0.2531  5.1687 -0.1290
 8453SOL    HW236996   1.746   4.513  13.383  0.8076 -1.4388  1.1287
 8454SOL     OW36997   1.013   4.697   2.636  0.1851 -0.1410  0.0937
 8454SOL    HW136998   1.077   4.731   2.698  2.5570 -2.9009 -0.8493
 8454SOL    HW236999   1.064   4.627   2.594  1.4253  1.2142 -0.6452
 8455SOL     OW37000   4.544   0.845   3.235  0.0672 -0.7649  0.0203
 8455SOL    HW137001   4.461   0.884   3.259  1.2916  0.9597  1.4313
 8455SOL    HW237002   4.598   0.922   3.213  0.4201 -1.0051  0.0515
 8456SOL     OW37003   4.296   1.297   8.664  0.4367 -0.0533 -0.1851
 8456SOL    HW137004   4.343   1.332   8.740 -0.8837 -0.3583  0.7792
 8456SOL    HW237005   4.360   1.311   8.594  1.1323 -2.5030 -0.0646
 8457SOL     OW37006   1.757   1.661   6.946 -0.5720 -0.3125 -0.0455
 8457SOL    HW137007   1.842   1.666   6.990  0.1959 -0.3017 -1.5243
 8457SOL    HW237008   1.788   1.591   6.888 -0.6950 -0.3565 -0.0585
 8458SOL     OW37009   1.338   0.638   1.546  0.0588  0.0423  0.0256
 8458SOL    HW137010   1.309   0.664   1.459  0.6801 -0.8031 -0.4373
 8458SOL    HW237011   1.264   0.605   1.596 -0.5837 -0.3782 -1.1963
 8459SOL     OW37012   1.742   4.183  17.058  0.0256 -0.2112  0.3025
 8459SOL    HW137013   1.825   4.230  17.046 -0.1958  0.8728  2.9581
 8459SOL    HW237014   1.721   4.223  17.143 -0.2454  1.6123 -0.6431
 8460SOL     OW37015   0.581   2.780   8.826  0.1019  0.2693  0.4570
 8460SOL    HW137016   0.569   2.697   8.781 -1.4234 -0.3367  1.9877
 8460SOL    HW237017   0.543   2.851   8.774 -2.5483 -2.0146 -0.6825
 8461SOL     OW37018   4.463   4.156  17.480 -0.4190  0.1236  0.0199
 8461SOL    HW137019   4.476   4.160  17.385 -0.5505 -0.4857 -0.0190
 8461SOL    HW237020   4.473   4.061  17.481  2.0708  0.3608 -0.8043
 8462SOL     OW37021   3.545   4.221   4.982  0.5111  0.2250  0.8383
 8462SOL    HW137022   3.605   4.277   4.933  0.3114  0.3267  0.7082
 8462SOL    HW237023   3.594   4.140   5.000  1.3663  0.4858 -0.3351
 8463SOL     OW37024   4.336   0.737  11.445  0.0572  0.5799  0.1998
 8463SOL    HW137025   4.244   0.711  11.438  0.1284  0.2750  0.3861
 8463SOL    HW237026   4.343   0.784  11.362 -1.1073 -1.0691 -0.8449
 8464SOL     OW37027   1.641   3.046   3.606  0.1624 -0.6117 -0.3457
 8464SOL    HW137028   1.579   3.113   3.633 -0.1861 -1.2497  0.4426
 8464SOL    HW237029   1.604   3.007   3.527  1.0793  1.8026 -1.9500
 8465SOL     OW37030   3.485   0.458   8.260  0.2628 -0.2665  0.5087
 8465SOL    HW137031   3.497   0.470   8.166  1.0715 -0.7905  0.5391
 8465SOL    HW237032   3.510   0.546   8.288  0.1171 -0.4290  1.1402
 8466SOL     OW37033   1.141   3.503   2.379  0.0482 -0.5988 -1.0114
 8466SOL    HW137034   1.207   3.529   2.443 -0.4867  2.8730 -1.8711
 8466SOL    HW237035   1.117   3.414   2.407 -0.3198 -0.6658 -1.5359
 8467SOL     OW37036   4.344   4.722  11.818  0.5058  0.5651  0.3847
 8467SOL    HW137037   4.413   0.019  11.761  0.5106  1.9166  1.1756
 8467SOL    HW237038   4.274   4.695  11.758  0.2660  0.0955  0.8665
 8468SOL     OW37039   2.541   2.400  13.789 -0.5812  0.1160 -0.0135
 8468SOL    HW137040   2.473   2.340  13.822 -0.2520  0.4773  1.3140
 8468SOL    HW237041   2.514   2.397  13.697 -0.9931 -3.2046  0.1987
 8469SOL     OW37042   3.020   1.922   9.978  0.0285 -0.4584 -0.5374
 8469SOL    HW137043   3.064   1.960   9.902  0.4815 -1.5274 -0.8096
 8469SOL    HW237044   3.092   1.928  10.041  1.5885  2.3832 -2.5520
 8470SOL     OW37045   1.870   0.913  13.283 -0.0239 -0.0500  0.6332
 8470SOL    HW137046   1.915   0.883  13.204 -3.9343 -2.6991 -0.5725
 8470SOL    HW237047   1.930   0.978  13.319 -0.2653 -0.3992  1.6667
 8471SOL     OW37048   1.339   0.963   5.184  0.1455  0.2767 -0.3163
 8471SOL    HW137049   1.293   0.979   5.267  2.0139 -1.0091  0.9694
 8471SOL    HW237050   1.426   1.000   5.197  1.1308 -2.5288  1.1845
 8472SOL     OW37051   3.708   1.913  10.955  0.2071  0.0156  1.2351
 8472SOL    HW137052   3.782   1.852  10.949 -1.8279 -2.1593 -1.5908
 8472SOL    HW237053   3.634   1.853  10.941  1.8188 -2.0201  1.4006
 8473SOL     OW37054   2.588   2.584  15.156 -0.3020  0.0135  0.5481
 8473SOL    HW137055   2.668   2.536  15.176  1.1997  2.1871 -0.1763
 8473SOL    HW237056   2.530   2.512  15.130 -2.2873  0.6108  3.3538
 8474SOL     OW37057   3.152   2.203  11.048 -0.5848  0.2430 -0.4419
 8474SOL    HW137058   3.219   2.178  10.984 -1.0725 -0.6312 -0.6046
 8474SOL    HW237059   3.085   2.146  11.011 -1.1614  1.2819 -1.0124
 8475SOL     OW37060   0.806   3.380   3.934  0.7286  0.1677  0.4186
 8475SOL    HW137061   0.809   3.439   4.010 -5.1277 -0.5625  1.1850
 8475SOL    HW237062   0.811   3.294   3.976 -0.4087 -1.0715 -2.0010
 8476SOL     OW37063   1.144   2.721   2.503 -0.2316 -0.1651  0.3738
 8476SOL    HW137064   1.061   2.684   2.475 -1.4783 -1.1584  5.3902
 8476SOL    HW237065   1.196   2.643   2.523 -0.5663 -0.9841 -1.9781
 8477SOL     OW37066   0.013   1.962  15.440  0.6208  0.0262  0.4854
 8477SOL    HW137067   0.043   1.872  15.454 -0.3482 -0.6992 -2.2044
 8477SOL    HW237068   4.711   1.967  15.529  1.9469  2.0762  0.9314
 8478SOL     OW37069   3.746   2.513   3.171  0.2380  0.1765 -0.1146
 8478SOL    HW137070   3.815   2.506   3.237  0.7324 -1.5734 -0.8035
 8478SOL    HW237071   3.727   2.421   3.152 -1.6756  0.3215  1.0093
 8479SOL     OW37072   0.280   3.680   0.755 -0.3042  0.2578  0.1528
 8479SOL    HW137073   0.264   3.759   0.703  1.2670  0.0883 -0.5905
 8479SOL    HW237074   0.282   3.720   0.842  3.0813  2.7693 -1.1229
 8480SOL     OW37075   4.302   1.724   8.004  0.5222  0.0066 -0.0510
 8480SOL    HW137076   4.217   1.760   8.029  1.7303  0.9977  2.6328
 8480SOL    HW237077   4.359   1.797   7.978  0.1811  0.0092 -0.8060
 8481SOL     OW37078   1.464   2.328   4.344  0.0089  0.3493 -0.0818
 8481SOL    HW137079   1.493   2.356   4.431 -0.2689 -1.1725  0.4860
 8481SOL    HW237080   1.465   2.233   4.340 -0.9285  0.3898 -1.5544
 8482SOL     OW37081   3.674   2.830   7.380  0.0865 -0.2020  0.6925
 8482SOL    HW137082   3.733   2.755   7.381  0.9972  0.5190  1.4901
 8482SOL    HW237083   3.635   2.813   7.294  0.1770  1.4681  0.3240
 8483SOL     OW37084   2.276   3.438   6.099 -0.4341  0.1497 -0.0165
 8483SOL    HW137085   2.292   3.353   6.139  0.0079 -0.6153 -1.8435
 8483SOL    HW237086   2.322   3.433   6.016  1.7638  2.4025  1.0692
 8484SOL     OW37087   4.714   0.315   2.981  0.3762 -0.6405 -0.5386
 8484SOL    HW137088   4.716   0.219   2.974  0.4646 -0.6380 -0.5569
 8484SOL    HW237089   4.672   0.340   2.899  0.7376 -0.2235 -0.5994
 8485SOL     OW37090   1.294   3.139  11.354  0.0837 -0.1976  0.0427
 8485SOL    HW137091   1.360   3.108  11.415  0.0328 -0.1475  0.1243
 8485SOL    HW237092   1.346   3.135  11.274  0.0802  2.4366 -0.0913
 8486SOL     OW37093   4.511   1.967   5.855  0.2714 -0.0667  0.3166
 8486SOL    HW137094   4.487   2.003   5.940 -3.1261  0.7516 -0.9560
 8486SOL    HW237095   4.441   1.901   5.852  1.1366 -0.9481 -0.4735
 8487SOL     OW37096   4.625   3.267   6.299 -0.2907  0.7497  0.2292
 8487SOL    HW137097   4.579   3.232   6.375 -1.4275  0.1394 -0.7246
 8487SOL    HW237098   4.692   3.315   6.347 -0.5478  0.6837  0.6487
 8488SOL     OW37099   0.704   4.692   6.371 -0.1536  0.2590 -0.1448
 8488SOL    HW137100   0.639   4.657   6.432  0.1891  0.0731  0.1153
 8488SOL    HW237101   0.653   0.030   6.337 -3.3691 -2.4867 -1.3739
 8489SOL     OW37102   4.038   1.032  16.282 -0.2810 -0.2826  0.2958
 8489SOL    HW137103   4.062   0.950  16.238  0.0556 -0.2663  0.4450
 8489SOL    HW237104   3.997   1.075  16.206 -0.1206 -1.8941 -0.6977
 8490SOL     OW37105   4.334   2.782   2.085  0.3114 -0.0387 -0.4311
 8490SOL    HW137106   4.427   2.787   2.065  0.3347 -1.4549 -0.6586
 8490SOL    HW237107   4.344   2.750   2.175  0.8601 -1.8855 -1.1535
 8491SOL     OW37108   3.366   1.501   6.793 -0.7541 -1.0291  0.0204
 8491SOL    HW137109   3.290   1.500   6.851  0.6454  1.1919  1.8537
 8491SOL    HW237110   3.321   1.486   6.709 -1.6284 -2.6802  0.7905
 8492SOL     OW37111   0.478   3.388  16.781 -0.3863 -0.1936 -0.2545
 8492SOL    HW137112   0.513   3.363  16.866 -0.8932  0.6884  0.2092
 8492SOL    HW237113   0.561   3.401  16.735  2.1483 -1.6269  3.9843
 8493SOL     OW37114   4.098   0.542   1.669  0.4359 -1.0282  0.6159
 8493SOL    HW137115   4.095   0.536   1.764 -2.7894  1.3000  0.6629
 8493SOL    HW237116   4.004   0.551   1.655  1.0342  2.6751 -1.1312
 8494SOL     OW37117   2.873   3.562   7.550  0.2820 -0.3076  0.4963
 8494SOL    HW137118   2.872   3.468   7.571 -1.0899 -0.4320 -0.1443
 8494SOL    HW237119   2.962   3.583   7.578 -0.0900  1.4079  0.3664
 8495SOL     OW37120   2.018   2.353   8.031  0.0364 -0.1097 -0.0554
 8495SOL    HW137121   1.942   2.351   8.089 -0.5287  1.6154 -0.7172
 8495SOL    HW237122   2.066   2.414   8.087  0.1356 -0.6753  0.4649
 8496SOL     OW37123   1.220   1.355  16.838 -0.2340 -0.6050  0.2146
 8496SOL    HW137124   1.212   1.342  16.743 -1.6164  1.7194  0.0295
 8496SOL    HW237125   1.276   1.280  16.860  1.5113  0.0184 -2.0192
 8497SOL     OW37126   0.277   2.182   9.685 -0.0350 -0.0936 -0.1623
 8497SOL    HW137127   0.240   2.221   9.764  0.8947  1.2299 -0.3587
 8497SOL    HW237128   0.323   2.106   9.721 -1.0056 -1.0064 -0.8595
 8498SOL     OW37129   3.069   2.904   6.786 -0.3240 -0.3359 -0.0936
 8498SOL    HW137130   2.991   2.953   6.812  0.7715  2.6187 -2.4378
 8498SOL    HW237131   3.028   2.830   6.741  0.2519 -1.1853  0.7671
 8499SOL     OW37132   1.920   1.999   2.624 -0.3121  0.1876 -0.8188
 8499SOL    HW137133   1.985   2.061   2.657 -2.1968  1.5243  0.3988
 8499SOL    HW237134   1.975   1.923   2.610 -0.0674  0.1902  0.1308
 8500SOL     OW37135   0.058   0.229   7.087  0.1361 -0.2644  0.0114
 8500SOL    HW137136   0.024   0.287   7.019  1.5634 -0.1249 -0.5802
 8500SOL    HW237137   4.728   0.161   7.071  0.4460 -0.3541 -0.9027
 8501SOL     OW37138   4.239   3.698   7.517 -0.0358 -0.7522  0.1968
 8501SOL    HW137139   4.321   3.649   7.524  0.6327  0.0312 -2.3782
 8501SOL    HW237140   4.268   3.763   7.581  0.4866 -0.7823 -0.0081
 8502SOL     OW37141   3.674   0.707   7.583  0.1454 -0.3652 -0.1485
 8502SOL    HW137142   3.662   0.731   7.674 -0.6129 -0.4069 -0.2362
 8502SOL    HW237143   3.650   0.784   7.531 -0.3347 -1.3291 -1.3755
 8503SOL     OW37144   3.038   1.939   3.017 -0.2615  0.3726  0.8661
 8503SOL    HW137145   3.012   1.886   3.092 -1.2403  0.1401  0.3593
 8503SOL    HW237146   2.997   2.021   3.044  0.1594  1.1823 -0.9435
 8504SOL     OW37147   3.994   3.548   2.915  0.4559  0.4692  0.3359
 8504SOL    HW137148   4.087   3.567   2.904  0.7390 -1.3523 -0.3664
 8504SOL    HW237149   3.986   3.473   2.856  2.4733  0.1612  0.4447
 8505SOL     OW37150   3.415   1.945   1.630 -0.3513  0.1492  0.1262
 8505SOL    HW137151   3.323   1.931   1.652  0.2239 -0.6952  1.9427
 8505SOL    HW237152   3.427   1.892   1.550 -2.4597 -2.4905  1.5661
 8506SOL     OW37153   0.940   1.308   3.090 -0.0210 -0.1387 -0.0485
 8506SOL    HW137154   0.882   1.298   3.166  0.1020 -0.9229 -0.0588
 8506SOL    HW237155   0.879   1.325   3.019 -0.3892  3.0263  1.0219
 8507SOL     OW37156   0.533   1.005   8.085 -0.3683 -0.0869 -0.3203
 8507SOL    HW137157   0.607   0.993   8.145  0.2935 -1.1732 -1.3613
 8507SOL    HW237158   0.555   1.090   8.048  1.2191 -0.3528  0.0232
 8508SOL     OW37159   1.740   0.376   8.712  0.1748 -0.5200  0.6320
 8508SOL    HW137160   1.746   0.384   8.617  1.0966 -1.2375  0.6372
 8508SOL    HW237161   1.657   0.423   8.719 -0.3658 -1.3415 -0.3351
 8509SOL     OW37162   1.917   4.551  11.926 -0.1409 -0.6520 -0.0929
 8509SOL    HW137163   1.995   4.563  11.979  0.1758 -0.2470 -0.6578
 8509SOL    HW237164   1.857   4.614  11.966  0.7617  1.1558 -1.6388
 8510SOL     OW37165   0.029   3.297  11.027  0.4286  0.8419  0.0342
 8510SOL    HW137166   0.124   3.305  11.018  0.3079  2.4368  0.0910
 8510SOL    HW237167   0.021   3.371  11.087  1.5802  1.3175 -0.4014
 8511SOL     OW37168   4.575   1.594   8.844 -0.0209 -0.0423 -0.0782
 8511SOL    HW137169   4.646   1.567   8.785 -1.6458  0.0470 -2.0901
 8511SOL    HW237170   4.632   1.638   8.907 -0.7352  1.0860 -0.2257
 8512SOL     OW37171   2.802   2.542   3.744  0.2649  0.1756  0.0083
 8512SOL    HW137172   2.816   2.505   3.832 -1.8442 -0.2403  0.1890
 8512SOL    HW237173   2.755   2.621   3.772  0.5586  0.7741 -1.2014
 8513SOL     OW37174   2.456   4.293   5.609 -0.2546  0.0577  0.2789
 8513SOL    HW137175   2.477   4.363   5.547 -0.7268  1.5059  1.7767
 8513SOL    HW237176   2.519   4.319   5.676 -0.1015  0.4367 -0.0101
 8514SOL     OW37177   3.870   1.310   2.900  0.1397  0.5871 -0.2960
 8514SOL    HW137178   3.913   1.395   2.906  0.1342  0.6819 -1.7356
 8514SOL    HW237179   3.952   1.263   2.891 -0.5169 -0.8697  1.2363
 8515SOL     OW37180   4.270   0.352  17.049 -0.0331  0.1092 -0.3639
 8515SOL    HW137181   4.342   0.330  16.990  1.5184  0.6717  1.3547
 8515SOL    HW237182   4.202   0.316  16.992  1.0892  0.2343 -1.7778
 8516SOL     OW37183   0.636   2.311   9.674 -0.3112 -0.0161  0.5210
 8516SOL    HW137184   0.567   2.282   9.613  0.8679  1.5064 -1.5228
 8516SOL    HW237185   0.598   2.286   9.759 -0.4428  0.9860  0.7627
 8517SOL     OW37186   1.053   0.417  16.208  0.5381 -0.2447 -0.0365
 8517SOL    HW137187   1.105   0.367  16.145  1.2743  0.4703 -0.0013
 8517SOL    HW237188   0.969   0.378  16.186  0.5973 -0.3756 -0.0295
 8518SOL     OW37189   3.448   3.962   8.102 -0.3766 -0.1658  0.2198
 8518SOL    HW137190   3.370   3.937   8.153  0.3948 -0.1994  1.3867
 8518SOL    HW237191   3.521   3.961   8.164 -0.3066 -0.6360  0.1251
 8519SOL     OW37192   3.439   2.915   2.989  0.3100  0.0324 -0.1657
 8519SOL    HW137193   3.527   2.950   2.976 -0.2383  1.7016  0.5626
 8519SOL    HW237194   3.428   2.922   3.084 -0.9337  1.6845 -0.4393
 8520SOL     OW37195   0.186   4.734  10.169  0.0268  0.2579  0.7297
 8520SOL    HW137196   0.274   4.696  10.175 -0.7536 -1.4908  0.8191
 8520SOL    HW237197   0.199   0.091  10.192  1.0132 -0.6961  4.0712
 8521SOL     OW37198   2.588   1.239   2.836  0.5790  0.7489  0.4681
 8521SOL    HW137199   2.610   1.284   2.918  1.3245 -0.0095  0.6771
 8521SOL    HW237200   2.634   1.298   2.776  0.4539  1.0024  0.6237
 8522SOL     OW37201   2.440   2.210   9.064 -0.1372  0.1928 -0.3973
 8522SOL    HW137202   2.440   2.197   8.969 -1.5103  0.6723 -0.4655
 8522SOL    HW237203   2.449   2.125   9.106  1.3513  0.9914  0.9160
 8523SOL     OW37204   4.281   2.808   7.072 -0.0552  0.0110  0.1718
 8523SOL    HW137205   4.355   2.794   7.131  0.7188  0.6871 -0.6467
 8523SOL    HW237206   4.262   2.716   7.053 -0.1364 -0.4117  2.2121
 8524SOL     OW37207   2.612   0.045   6.067  0.4897 -0.2105 -0.1381
 8524SOL    HW137208   2.541   0.102   6.039 -0.2613 -0.0003  2.1797
 8524SOL    HW237209   2.684   0.091   6.025 -0.2744 -0.7834 -2.0886
 8525SOL     OW37210   0.247   4.500   3.072  1.1753  0.2108  0.0957
 8525SOL    HW137211   0.206   4.414   3.088  1.9661 -0.5588 -2.0134
 8525SOL    HW237212   0.226   4.517   2.980 -1.6823 -0.9937  0.5005
 8526SOL     OW37213   1.048   1.406   2.729  0.4255  0.1951  0.0287
 8526SOL    HW137214   1.115   1.369   2.672 -0.0294 -0.0933 -0.3152
 8526SOL    HW237215   0.990   1.330   2.732  0.0661  0.4685 -0.0184
 8527SOL     OW37216   1.489   1.444   6.738  0.1623 -0.0380  0.0626
 8527SOL    HW137217   1.553   1.389   6.694  2.1757  0.8286  1.9524
 8527SOL    HW237218   1.411   1.389   6.726 -0.0588  0.1308  0.7689
 8528SOL     OW37219   4.549   0.519   6.138 -0.0635 -0.2069  0.2136
 8528SOL    HW137220   4.623   0.475   6.178 -0.5682 -1.2011  0.0526
 8528SOL    HW237221   4.564   0.489   6.048  1.0771  0.3565  0.2232
 8529SOL     OW37222   1.980   0.739   3.405  0.2737 -0.0480 -0.5510
 8529SOL    HW137223   2.043   0.699   3.465 -0.6190 -2.0995 -0.9617
 8529SOL    HW237224   1.954   0.818   3.453  1.9127  1.4741 -2.1784
 8530SOL     OW37225   3.979   2.705   3.049  0.5563 -0.1318  0.2335
 8530SOL    HW137226   3.967   2.758   2.971  3.0271 -0.0970 -0.1368
 8530SOL    HW237227   3.935   2.758   3.115  0.4668  0.1746 -0.0731
 8531SOL     OW37228   1.179   4.235   4.936 -0.0492  0.1312 -0.3663
 8531SOL    HW137229   1.175   4.327   4.908  1.8597  0.6342  1.0048
 8531SOL    HW237230   1.181   4.240   5.031  0.9648  0.0612 -0.3863
 8532SOL     OW37231   0.815   0.370   9.098 -0.3242 -0.5688 -0.8484
 8532SOL    HW137232   0.835   0.331   9.012 -0.0870  0.5473 -1.3058
 8532SOL    HW237233   0.865   0.450   9.081 -1.7625  0.2747 -1.0120
 8533SOL     OW37234   1.998   0.226   5.906 -0.1006 -0.7017 -0.6578
 8533SOL    HW137235   2.023   0.134   5.907  0.0265 -0.6273  1.3645
 8533SOL    HW237236   2.057   0.263   5.840  0.0705  0.1128 -0.0419
 8534SOL     OW37237   0.588   1.653   0.991  0.0603  0.0610  0.7743
 8534SOL    HW137238   0.547   1.592   1.051  1.6095 -1.1641  0.5970
 8534SOL    HW237239   0.675   1.671   1.027  1.3121 -0.8893 -1.7443
 8535SOL     OW37240   2.853   3.307   7.664 -0.2777 -0.0514 -0.4859
 8535SOL    HW137241   2.878   3.316   7.756  0.0676  2.9237 -0.8739
 8535SOL    HW237242   2.863   3.214   7.643  1.9699  0.1448 -0.2416
 8536SOL     OW37243   4.219   0.712   5.355  0.3988  0.5700  0.1330
 8536SOL    HW137244   4.146   0.747   5.303 -0.1547 -2.4988 -1.1233
 8536SOL    HW237245   4.191   0.727   5.446 -2.6666  1.1739 -0.9041
 8537SOL     OW37246   2.346   0.569   1.425 -0.0222 -0.0555  0.0397
 8537SOL    HW137247   2.267   0.600   1.470  1.1268  1.3771  1.0551
 8537SOL    HW237248   2.415   0.591   1.487 -1.5469 -0.1201  1.7789
 8538SOL     OW37249   1.711   4.166   4.127 -0.2941  0.0022 -0.3262
 8538SOL    HW137250   1.636   4.169   4.187 -0.6586 -0.6676 -0.7400
 8538SOL    HW237251   1.768   4.234   4.161  0.7340 -1.1102  0.1678
 8539SOL     OW37252   2.016   1.362   5.099 -0.3945 -0.1192  0.0775
 8539SOL    HW137253   2.104   1.397   5.108  0.1329 -2.1896  2.9763
 8539SOL    HW237254   1.993   1.369   5.192 -1.3423  1.8169 -0.3202
 8540SOL     OW37255   3.164   2.187   6.903 -0.1559 -0.4688  0.0420
 8540SOL    HW137256   3.242   2.228   6.941  0.3774 -0.0558 -1.5004
 8540SOL    HW237257   3.107   2.262   6.890 -0.0730 -0.5068 -0.5300
 8541SOL     OW37258   2.500   1.546   3.534  0.6555  0.1713 -0.5891
 8541SOL    HW137259   2.459   1.478   3.588  1.3190  1.7803  1.9360
 8541SOL    HW237260   2.447   1.537   3.455 -1.1455 -1.8461  0.8479
 8542SOL     OW37261   3.077   1.146   9.382  1.1976  0.0922 -0.4052
 8542SOL    HW137262   3.057   1.175   9.293 -0.1312 -1.0319 -0.4711
 8542SOL    HW237263   3.059   1.052   9.380 -0.1812  0.3609  0.1521
 8543SOL     OW37264   1.883   2.157   5.447  0.1293 -0.2633 -0.5783
 8543SOL    HW137265   1.939   2.230   5.474 -0.4850  0.1661 -0.4686
 8543SOL    HW237266   1.949   2.090   5.468 -1.7949 -1.8632  0.3348
 8544SOL     OW37267   2.609   2.805   4.252  0.0519  0.3773 -0.0339
 8544SOL    HW137268   2.611   2.724   4.304 -0.6598  1.4071  1.5696
 8544SOL    HW237269   2.523   2.832   4.286 -0.4194 -1.0280 -0.0685
 8545SOL     OW37270   4.344   3.999   5.306 -0.3223 -0.0115  0.0891
 8545SOL    HW137271   4.314   3.962   5.389 -1.3053 -0.3835 -0.4293
 8545SOL    HW237272   4.436   4.015   5.324 -0.4012  0.9204 -0.2918
 8546SOL     OW37273   2.425   2.252   8.136 -0.0263  0.5715  0.5500
 8546SOL    HW137274   2.405   2.343   8.113  0.9426  0.3684 -1.1078
 8546SOL    HW237275   2.385   2.204   8.064  0.8962  1.2350 -0.4172
 8547SOL     OW37276   0.285   0.773   4.233 -0.1442  0.0819 -0.7092
 8547SOL    HW137277   0.205   0.741   4.192  0.1393 -0.1705 -1.0662
 8547SOL    HW237278   0.347   0.714   4.191 -0.0831 -0.6637  0.4301
 8548SOL     OW37279   3.694   3.532   1.206  0.6714 -0.1280 -0.3109
 8548SOL    HW137280   3.678   3.554   1.114  2.0219 -0.6226 -0.6523
 8548SOL    HW237281   3.710   3.438   1.198  1.8383 -0.0216  0.6506
 8549SOL     OW37282   2.342   3.339  15.338  0.1497 -0.2058 -0.0110
 8549SOL    HW137283   2.327   3.246  15.321  2.2157 -0.3445 -1.1438
 8549SOL    HW237284   2.275   3.352  15.405 -0.0418  0.6489 -0.3615
 8550SOL     OW37285   0.180   3.199   9.109 -0.1273  0.1046 -0.4389
 8550SOL    HW137286   0.179   3.119   9.057 -3.2106 -1.9656  2.7801
 8550SOL    HW237287   0.267   3.232   9.088 -0.6600  2.4750  1.1409
 8551SOL     OW37288   0.300   0.021   6.678  0.4571  0.4824 -0.6976
 8551SOL    HW137289   0.316   4.663   6.665 -1.5167 -0.0532  0.6614
 8551SOL    HW237290   0.352   0.042   6.756  1.5938  1.3532 -1.6887
 8552SOL     OW37291   4.268   2.345   7.781 -0.1686 -0.0129  0.5519
 8552SOL    HW137292   4.286   2.314   7.693 -1.1134 -1.1273  0.7554
 8552SOL    HW237293   4.294   2.269   7.832  1.6863  0.2197 -0.0524
 8553SOL     OW37294   0.221   1.221  14.110 -0.6481  0.0350 -0.1981
 8553SOL    HW137295   0.180   1.137  14.132  0.4559 -0.6623 -0.7816
 8553SOL    HW237296   0.216   1.274  14.189 -0.7864  0.2407 -0.3415
 8554SOL     OW37297   3.569   1.665   4.530 -0.2038  0.2690  0.1731
 8554SOL    HW137298   3.497   1.659   4.593  1.3988  0.1509  2.0031
 8554SOL    HW237299   3.599   1.576   4.547  0.1738  0.2861 -0.4321
 8555SOL     OW37300   1.549   0.998   2.939 -0.1076 -0.2111  0.1874
 8555SOL    HW137301   1.485   0.991   3.011 -1.7522 -0.2537 -1.2780
 8555SOL    HW237302   1.510   0.930   2.884 -1.2323 -0.3792  1.1846
 8556SOL     OW37303   0.078   2.551   6.398  0.0318 -0.1637 -0.3497
 8556SOL    HW137304   0.032   2.476   6.436 -0.2713 -0.2401 -0.8639
 8556SOL    HW237305   0.149   2.567   6.461 -1.5617  0.2380  1.3555
 8557SOL     OW37306   2.691   1.886   1.914 -0.1196  0.1122 -0.2055
 8557SOL    HW137307   2.631   1.942   1.962  0.5486  0.1767  0.5629
 8557SOL    HW237308   2.651   1.799   1.924 -0.4619  0.0845 -1.8463
 8558SOL     OW37309   0.178   4.577   9.013  0.2222 -0.5498  0.2868
 8558SOL    HW137310   0.203   4.485   9.007  0.3945 -0.7385  3.5928
 8558SOL    HW237311   0.246   4.608   9.074  1.3348  0.5328 -1.5266
 8559SOL     OW37312   2.277   1.082   8.312 -0.3368 -0.1656  0.1418
 8559SOL    HW137313   2.200   1.134   8.287  0.9642  1.6361 -0.0421
 8559SOL    HW237314   2.322   1.088   8.228 -4.4658  0.5347 -2.0677
 8560SOL     OW37315   1.325   1.562   2.290 -0.7359 -0.1934  0.2848
 8560SOL    HW137316   1.400   1.506   2.269 -0.1464 -0.1293  2.2460
 8560SOL    HW237317   1.357   1.606   2.368  2.1661 -2.0350  0.1429
 8561SOL     OW37318   2.577   1.118  10.109 -0.0703  0.3373 -0.5695
 8561SOL    HW137319   2.658   1.110  10.059  1.8490 -1.1708  2.8146
 8561SOL    HW237320   2.568   1.023  10.107  0.7370  0.2451 -0.0220
 8562SOL     OW37321   1.562   0.288   5.634 -0.3793 -0.0889  0.5152
 8562SOL    HW137322   1.548   0.204   5.678 -0.6372 -0.4230 -0.2003
 8562SOL    HW237323   1.553   0.355   5.701 -0.5739  0.7261 -0.3185
 8563SOL     OW37324   2.105   4.568   7.520  0.1998 -0.8025 -0.5635
 8563SOL    HW137325   2.013   4.587   7.537  0.3187  0.5976 -1.5410
 8563SOL    HW237326   2.108   4.508   7.446  1.4060 -3.0344  1.2772
 8564SOL     OW37327   1.332   4.518   2.855  0.4396 -0.2543  0.4621
 8564SOL    HW137328   1.243   4.553   2.857  0.9573  1.1529 -1.7044
 8564SOL    HW237329   1.333   4.458   2.780 -3.0916 -1.5997  1.5243
 8565SOL     OW37330   1.644   4.711  17.551 -0.0296 -0.5494 -0.0463
 8565SOL    HW137331   1.633   0.009  17.640 -0.4662  1.1147 -0.7223
 8565SOL    HW237332   1.652   0.062  17.511 -1.0021 -1.3702 -2.0847
 8566SOL     OW37333   3.112   1.072   9.734 -0.1698  0.2560 -0.1582
 8566SOL    HW137334   3.183   1.082   9.671  2.2933 -0.2327  2.5196
 8566SOL    HW237335   3.063   1.154   9.742 -1.8192 -0.9294  2.0125
 8567SOL     OW37336   2.404   4.416   0.532 -0.2205 -0.0838  0.6254
 8567SOL    HW137337   2.337   4.350   0.545 -2.1749  1.9725  0.9299
 8567SOL    HW237338   2.416   4.446   0.623 -0.9064  1.5503  0.1727
 8568SOL     OW37339   3.843   1.633   3.250  0.3665 -0.4747  0.3988
 8568SOL    HW137340   3.898   1.706   3.279  0.8380  0.2522 -2.3106
 8568SOL    HW237341   3.907   1.595   3.191 -1.0576  0.0390 -1.4954
 8569SOL     OW37342   1.730   2.026   2.059  0.2259  0.0351 -0.4532
 8569SOL    HW137343   1.820   2.051   2.039  0.7240  0.3813  2.2452
 8569SOL    HW237344   1.686   2.092   2.005  0.5911  0.9834  0.3905
 8570SOL     OW37345   4.433   0.133   2.589  0.6611 -0.0366 -0.2736
 8570SOL    HW137346   4.370   0.125   2.661 -0.0774  0.8281 -0.8243
 8570SOL    HW237347   4.468   0.220   2.605 -2.4260  0.8361  1.5855
 8571SOL     OW37348   0.009   1.421   9.767 -0.2230  0.6154 -0.0871
 8571SOL    HW137349   4.672   1.391   9.711  0.6060  0.2640 -0.9701
 8571SOL    HW237350   0.031   1.343   9.817 -1.1131  1.0557  0.9945
 8572SOL     OW37351   0.356   4.530   9.531  0.2744  0.4762  0.5193
 8572SOL    HW137352   0.332   4.491   9.447  2.6024 -0.2516  0.2045
 8572SOL    HW237353   0.304   4.478   9.592  0.1319  1.7995  1.5194
 8573SOL     OW37354   2.770   3.699   6.691  0.2110 -0.3293  0.3085
 8573SOL    HW137355   2.718   3.619   6.698  2.2226 -1.9528 -3.5158
 8573SOL    HW237356   2.779   3.710   6.596 -1.3113 -0.4916  0.1452
 8574SOL     OW37357   3.091   4.058  15.011 -0.1513  0.2972  0.3351
 8574SOL    HW137358   3.156   4.018  14.953  1.4300  1.0937  1.5541
 8574SOL    HW237359   3.042   4.095  14.938  0.7961  1.3664  0.2425
 8575SOL     OW37360   0.066   4.138   5.056  0.1924 -0.1313 -0.1123
 8575SOL    HW137361   0.031   4.170   5.140  1.3494  0.3985  0.1701
 8575SOL    HW237362   4.731   4.162   4.995 -0.6282 -0.2858  0.7654
 8576SOL     OW37363   1.040   0.573   4.036 -0.1675 -0.2685 -0.3259
 8576SOL    HW137364   1.012   0.486   4.065  0.4517 -0.5161 -0.4791
 8576SOL    HW237365   0.959   0.619   4.013  0.0302  0.3280  0.1903
 8577SOL     OW37366   3.717   3.016  17.583 -0.0826  0.1030 -0.2331
 8577SOL    HW137367   3.799   2.991  17.627  0.6567  1.6719 -0.7289
 8577SOL    HW237368   3.676   2.930  17.589  1.5321 -0.5579  1.6473
 8578SOL     OW37369   2.914   4.435   9.350  0.4023 -0.1807  0.7555
 8578SOL    HW137370   2.894   4.504   9.286  0.2957  2.1695  3.3217
 8578SOL    HW237371   2.854   4.371   9.311 -0.1198 -1.0635  2.9779
 8579SOL     OW37372   0.281   2.507   8.315  0.2629  0.3310  0.0591
 8579SOL    HW137373   0.259   2.569   8.246  0.1242  1.0963  0.7843
 8579SOL    HW237374   0.372   2.531   8.334  0.0149  0.2363  1.4296
 8580SOL     OW37375   1.915   1.824   5.779  0.1695 -0.6419  0.0583
 8580SOL    HW137376   1.921   1.765   5.703 -0.1782  0.1464 -0.5803
 8580SOL    HW237377   1.982   1.888   5.756  3.1256 -3.5017  0.6775
 8581SOL     OW37378   1.192   2.133   5.301  0.3988  0.4419  0.7151
 8581SOL    HW137379   1.220   2.207   5.246  1.2044 -0.1919  0.2768
 8581SOL    HW237380   1.096   2.134   5.300  0.3890  0.3501  2.1208
 8582SOL     OW37381   1.150   4.096   1.322 -0.1672 -0.0761  0.2815
 8582SOL    HW137382   1.088   4.104   1.395 -0.9325  0.2279 -0.4119
 8582SOL    HW237383   1.169   4.003   1.308 -1.5676 -0.2966 -0.1123
 8583SOL     OW37384   4.429   3.689   3.961  0.3892  0.1664  0.3848
 8583SOL    HW137385   4.382   3.650   3.888 -1.9967  3.0325  0.4029
 8583SOL    HW237386   4.351   3.695   4.015 -2.0590  0.1506 -3.1785
 8584SOL     OW37387   1.018   2.974   3.449  0.2952 -0.2502 -0.5069
 8584SOL    HW137388   1.107   2.971   3.484  0.5339 -0.4412 -1.1378
 8584SOL    HW237389   1.021   2.901   3.387  1.0219 -2.3868  2.0499
 8585SOL     OW37390   3.621   1.313   5.345  0.5715 -0.6445  0.0648
 8585SOL    HW137391   3.611   1.397   5.389 -1.2038 -1.7619  1.8430
 8585SOL    HW237392   3.635   1.338   5.254 -1.1478  1.8595  0.4905
 8586SOL     OW37393   1.478   4.036   8.936  0.0406  0.0564 -0.2742
 8586SOL    HW137394   1.492   3.979   8.860  2.7621 -0.3947  0.5704
 8586SOL    HW237395   1.420   3.977   8.984 -0.3623  0.3376 -0.4142
 8587SOL     OW37396   4.031   2.074  13.827  0.0818  0.2128  0.2454
 8587SOL    HW137397   4.097   2.006  13.844  0.6165 -0.1369 -3.2372
 8587SOL    HW237398   4.036   2.080  13.732 -1.1760  1.9438  0.2966
 8588SOL     OW37399   2.670   2.657  13.687  0.2886  0.3645  0.0307
 8588SOL    HW137400   2.648   2.566  13.709 -0.0864  0.3400 -0.4468
 8588SOL    HW237401   2.763   2.662  13.708  0.1647  0.9869  0.4029
 8589SOL     OW37402   1.073   3.926   7.951 -0.5522 -0.0987  0.7692
 8589SOL    HW137403   1.122   3.847   7.973  1.8667  0.5815 -2.0540
 8589SOL    HW237404   1.125   3.987   8.004  0.0832  0.5682 -0.5936
 8590SOL     OW37405   4.632   0.938   4.529  0.0425  0.5747  1.0171
 8590SOL    HW137406   4.670   0.972   4.610 -1.0078 -0.8277  2.1015
 8590SOL    HW237407   4.710   0.924   4.476 -0.5310  0.3009  0.2363
 8591SOL     OW37408   1.741   4.579   1.647  0.4020  0.2422  0.0903
 8591SOL    HW137409   1.662   4.525   1.639  1.0973 -0.8597  0.6304
 8591SOL    HW237410   1.702   4.647   1.702  0.9549  1.8342 -1.4639
 8592SOL     OW37411   0.688   0.698   2.313  0.3013 -0.6732 -0.1837
 8592SOL    HW137412   0.640   0.777   2.289  0.7759 -0.4220 -0.2973
 8592SOL    HW237413   0.677   0.646   2.233 -0.3198 -0.4280 -0.2577
 8593SOL     OW37414   2.322   0.098  17.287 -0.2908  0.1175  0.0084
 8593SOL    HW137415   2.381   0.159  17.243 -1.1679  0.0560 -1.2405
 8593SOL    HW237416   2.309   0.148  17.367  2.3070 -0.9184  1.0984
 8594SOL     OW37417   4.027   4.241   9.317  0.4330  0.1227 -0.2401
 8594SOL    HW137418   3.945   4.252   9.269 -0.5035 -0.4531  1.2418
 8594SOL    HW237419   4.088   4.286   9.258 -1.5984 -1.2501 -3.3930
 8595SOL     OW37420   4.608   2.645   6.241  0.1072  0.2954  0.8066
 8595SOL    HW137421   4.689   2.595   6.239 -0.4228 -0.5840  1.6722
 8595SOL    HW237422   4.619   2.678   6.330 -1.1634  1.0155  0.7015
 8596SOL     OW37423   1.577   4.709   7.165  0.1490  0.0738  0.0906
 8596SOL    HW137424   1.527   4.729   7.086  1.7016  2.1329 -0.3783
 8596SOL    HW237425   1.545   0.047   7.218 -0.3114  1.3671 -1.9688
 8597SOL     OW37426   1.692   0.554   7.466 -0.0570  0.0009 -0.1871
 8597SOL    HW137427   1.721   0.483   7.524 -2.1183 -2.4651 -2.1965
 8597SOL    HW237428   1.671   0.502   7.388 -0.6889  0.2262 -0.1698
 8598SOL     OW37429   3.514   0.459   7.997 -0.0738  0.3181 -0.1986
 8598SOL    HW137430   3.544   0.375   7.961 -2.7093 -0.1045 -1.3954
 8598SOL    HW237431   3.422   0.434   8.005 -0.8231  2.6431 -1.5122
 8599SOL     OW37432   3.502   0.346   1.095  0.2021  0.4689 -0.3913
 8599SOL    HW137433   3.470   0.267   1.051  1.9521  0.1840 -1.1352
 8599SOL    HW237434   3.587   0.355   1.052  0.4913 -0.3454  0.0127
 8600SOL     OW37435   3.536   1.267   8.283 -0.2853  0.1521 -0.8757
 8600SOL    HW137436   3.535   1.281   8.378  0.3254  0.2936 -0.8929
 8600SOL    HW237437   3.631   1.260   8.271 -0.4635 -2.3538 -0.6754
 8601SOL     OW37438   2.791   2.005   8.202 -0.8958 -0.3666  0.0481
 8601SOL    HW137439   2.777   2.006   8.296 -0.5963 -0.0016  0.0876
 8601SOL    HW237440   2.786   2.098   8.182 -1.7455 -0.3328  0.4190
 8602SOL     OW37441   3.626   0.462   5.994  0.2503 -0.1807  0.1004
 8602SOL    HW137442   3.688   0.397   5.960 -0.5493 -1.7672  1.6749
 8602SOL    HW237443   3.666   0.488   6.076  1.0666 -0.2922 -0.2551
 8603SOL     OW37444   1.351   0.933   3.111  0.7723 -0.2857  0.2617
 8603SOL    HW137445   1.384   0.891   3.191 -0.7531 -0.9519  0.5384
 8603SOL    HW237446   1.259   0.907   3.117  0.6392  0.0632 -0.2763
 8604SOL     OW37447   2.397   4.568  16.890 -0.2397  0.1050 -0.5031
 8604SOL    HW137448   2.456   4.493  16.892  2.6998  2.3851 -1.3206
 8604SOL    HW237449   2.389   4.584  16.984  0.0781 -1.3916 -0.2178
 8605SOL     OW37450   1.073   1.059   4.756 -0.0633 -0.3778  0.4180
 8605SOL    HW137451   1.164   1.035   4.738 -0.1892 -1.1797  0.8654
 8605SOL    HW237452   1.065   1.058   4.852  2.9864 -0.7836  0.6598
 8606SOL     OW37453   4.014   4.691   7.894  0.3889 -0.2187  0.3934
 8606SOL    HW137454   3.922   4.683   7.872  0.0883 -1.7865  2.2462
 8606SOL    HW237455   4.014   0.045   7.929  0.9689  0.5658 -1.6484
 8607SOL     OW37456   4.471   0.913   2.899 -0.2790 -0.8606  0.0155
 8607SOL    HW137457   4.567   0.909   2.905 -0.2131  2.0044  1.0420
 8607SOL    HW237458   4.466   0.898   2.804  0.0581 -1.2814  0.0630
 8608SOL     OW37459   1.878   0.860  13.578  0.5106 -0.1080  0.2335
 8608SOL    HW137460   1.843   0.823  13.498  2.0070  1.3448 -1.0986
 8608SOL    HW237461   1.809   0.916  13.614  1.4137  1.2990 -0.2060
 8609SOL     OW37462   2.622   4.259   8.531  0.1013 -0.8762 -0.0651
 8609SOL    HW137463   2.527   4.250   8.538 -0.2050  1.7335 -0.9746
 8609SOL    HW237464   2.652   4.250   8.621 -0.4484  1.6829  0.3836
 8610SOL     OW37465   0.576   1.225   1.185 -0.3308 -0.0382  0.4649
 8610SOL    HW137466   0.630   1.188   1.254 -1.0830 -1.0988  0.4902
 8610SOL    HW237467   0.507   1.159   1.184  0.8166 -1.2251  0.2542
 8611SOL     OW37468   1.643   4.178   4.968  0.5632 -0.4488 -0.2564
 8611SOL    HW137469   1.625   4.269   4.944 -1.9574 -0.6495  0.9088
 8611SOL    HW237470   1.555   4.146   4.948  1.6062 -1.8715 -2.5869
 8612SOL     OW37471   1.157   4.500   2.489 -0.0208 -0.0001  0.2809
 8612SOL    HW137472   1.249   4.480   2.472  0.1999 -0.5093  2.1572
 8612SOL    HW237473   1.124   4.508   2.399  1.5957 -0.5792 -0.3698
 8613SOL     OW37474   1.774   4.133   9.411  0.2929 -0.5718 -0.5047
 8613SOL    HW137475   1.782   4.117   9.317  1.4576 -0.4503 -0.4266
 8613SOL    HW237476   1.708   4.064   9.414 -0.4058  0.1434  0.4013
 8614SOL     OW37477   4.182   0.219  16.449  0.6786 -0.4424  0.0096
 8614SOL    HW137478   4.249   0.163  16.488 -1.0490  0.4395  4.2253
 8614SOL    HW237479   4.195   0.190  16.359 -1.5616 -1.2361 -0.0546
 8615SOL     OW37480   0.074   4.376  11.767  0.6203 -0.1364 -0.2789
 8615SOL    HW137481   0.161   4.357  11.731  1.1287  1.6918 -0.0088
 8615SOL    HW237482   0.022   4.337  11.697  2.2462 -1.2855 -0.8597
 8616SOL     OW37483   1.061   0.928  15.332 -0.2079  0.0897 -0.4901
 8616SOL    HW137484   1.021   0.960  15.413  2.8806  1.3202  0.5862
 8616SOL    HW237485   1.130   0.875  15.372  2.0954  2.0560 -1.8025
 8617SOL     OW37486   1.391   0.176   3.999  0.5319 -0.2235  0.2822
 8617SOL    HW137487   1.444   0.250   4.028 -0.6574  1.1732 -1.1142
 8617SOL    HW237488   1.430   0.144   3.917  0.2534 -0.3495  0.1960
 8618SOL     OW37489   4.129   1.320  16.352 -0.0133 -0.3481  0.6185
 8618SOL    HW137490   4.214   1.349  16.319 -1.1315 -0.8632 -2.6332
 8618SOL    HW237491   4.121   1.245  16.294  2.8627  1.7953 -2.5647
 8619SOL     OW37492   2.950   3.338   3.679  0.0203 -0.4112  0.2747
 8619SOL    HW137493   2.907   3.255   3.659 -1.4338  0.6015 -0.8486
 8619SOL    HW237494   3.039   3.303   3.673  0.5857  1.4704 -2.0851
 8620SOL     OW37495   3.046   1.838  16.124 -0.1760 -0.7744  0.1960
 8620SOL    HW137496   3.133   1.877  16.109 -0.7498  1.5925  3.1089
 8620SOL    HW237497   2.988   1.914  16.116  2.3677  1.4156  2.5622
 8621SOL     OW37498   3.340   2.588   2.829  0.5390 -0.2341 -0.2075
 8621SOL    HW137499   3.361   2.547   2.745 -3.0024 -1.2230 -0.5944
 8621SOL    HW237500   3.418   2.568   2.881 -0.4172 -1.8588  0.6029
 8622SOL     OW37501   0.905   2.620   4.377  0.4825 -0.2131  0.3902
 8622SOL    HW137502   0.903   2.694   4.317 -1.8949 -0.3753  0.2626
 8622SOL    HW237503   0.988   2.625   4.424  1.1717 -0.8583 -0.7684
 8623SOL     OW37504   3.048   3.811   9.136  0.4340 -0.5881 -0.4837
 8623SOL    HW137505   2.970   3.794   9.190 -0.1626  0.8460 -0.8833
 8623SOL    HW237506   3.019   3.835   9.048  0.0952  0.2829 -0.1377
 8624SOL     OW37507   1.887   0.626   6.050  0.6042 -0.1331 -0.0073
 8624SOL    HW137508   1.893   0.704   5.994 -2.2531  0.5596  0.6581
 8624SOL    HW237509   1.910   0.554   5.992  0.5568  1.1897 -1.6705
 8625SOL     OW37510   4.571   4.731   6.709  0.3762 -0.1856 -0.2465
 8625SOL    HW137511   4.625   0.075   6.708 -0.1976  0.1972 -0.7242
 8625SOL    HW237512   4.609   4.672   6.644 -1.9474 -3.3866  1.3296
 8626SOL     OW37513   3.996   4.393   4.333 -1.1225 -0.0278  0.3137
 8626SOL    HW137514   4.012   4.315   4.280 -2.9163  0.9793 -1.7109
 8626SOL    HW237515   4.006   4.351   4.419  1.8531  0.4091  0.1823
 8627SOL     OW37516   2.620   3.382   1.457 -0.0520 -0.3959  0.2084
 8627SOL    HW137517   2.601   3.404   1.366 -0.0864 -0.2980  0.2395
 8627SOL    HW237518   2.712   3.358   1.446  0.0854 -0.0974  0.7391
 8628SOL     OW37519   3.636   3.110   4.657  0.1594 -0.3283 -0.2131
 8628SOL    HW137520   3.625   3.186   4.600 -1.0295 -1.6464 -1.6996
 8628SOL    HW237521   3.727   3.091   4.633  0.4430  1.8876 -0.8478
 8629SOL     OW37522   4.060   3.485  11.991 -0.1044  0.7454  0.0244
 8629SOL    HW137523   4.096   3.553  12.048  1.4503  1.4657 -1.8144
 8629SOL    HW237524   4.012   3.543  11.932  1.5687  0.1702 -1.9129
 8630SOL     OW37525   0.116   4.323   1.239  0.2034  0.6903 -0.0704
 8630SOL    HW137526   0.070   4.407   1.244 -0.9675 -0.0270  1.2520
 8630SOL    HW237527   0.191   4.341   1.296  0.9784  3.0152 -1.8501
 8631SOL     OW37528   2.112   1.683   7.873  0.1762  0.1383  0.0862
 8631SOL    HW137529   2.095   1.610   7.814  1.0226 -1.6571  2.1047
 8631SOL    HW237530   2.026   1.684   7.917  0.0627  0.3928 -0.1366
 8632SOL     OW37531   0.000   1.391   3.510 -0.0772  0.0109  0.6258
 8632SOL    HW137532   0.063   1.435   3.567 -0.3253 -0.9742  1.6510
 8632SOL    HW237533   4.675   1.380   3.583  0.5567 -0.8757  1.0248
 8633SOL     OW37534   3.721   2.516   0.227  0.3320 -0.2976  0.1000
 8633SOL    HW137535   3.686   2.603   0.205 -0.6797 -0.5552  0.6959
 8633SOL    HW237536   3.691   2.499   0.316  0.0845 -0.8281 -0.0826
 8634SOL     OW37537   1.602   3.851   7.836 -1.1023 -0.2267 -0.5463
 8634SOL    HW137538   1.597   3.932   7.887 -2.1308 -0.3956 -0.3687
 8634SOL    HW237539   1.674   3.861   7.774 -0.7983  0.1383 -0.1418
 8635SOL     OW37540   4.061   4.466   7.165  0.1430  0.0620  0.1258
 8635SOL    HW137541   4.099   4.461   7.078  1.4259 -0.9306  0.7349
 8635SOL    HW237542   4.123   4.407   7.209  1.1843  0.7690 -0.3908
 8636SOL     OW37543   4.478   4.204  15.263  0.6079  0.2826  0.3262
 8636SOL    HW137544   4.398   4.255  15.249 -1.0284 -2.6279 -0.8762
 8636SOL    HW237545   4.443   4.116  15.280 -2.9917  1.7028  0.2178
 8637SOL     OW37546   1.257   0.186   9.861 -0.1563  0.5596  0.2667
 8637SOL    HW137547   1.169   0.193   9.896  0.2357  0.3067  1.2996
 8637SOL    HW237548   1.315   0.150   9.929  2.1465 -1.6556 -2.8664
 8638SOL     OW37549   0.519   4.719   9.692  0.2818 -0.1155  0.0184
 8638SOL    HW137550   0.459   4.645   9.679  0.5027 -0.5829  1.7106
 8638SOL    HW237551   0.542   4.718   9.599  0.3717 -1.1894  0.0531
 8639SOL     OW37552   1.592   0.596   9.720  0.4021 -0.3550  0.0801
 8639SOL    HW137553   1.645   0.597   9.800 -2.0083  0.4734  1.6747
 8639SOL    HW237554   1.514   0.645   9.747  0.9317  0.5954 -0.0942
 8640SOL     OW37555   0.022   0.202   6.082  0.2946  0.3623  0.5303
 8640SOL    HW137556   0.003   0.199   6.175  0.4688 -1.7325  0.4924
 8640SOL    HW237557   4.714   0.283   6.055  1.3370  0.5573 -0.5985
 8641SOL     OW37558   1.234   0.887   6.640  0.6235  0.0472 -0.0186
 8641SOL    HW137559   1.285   0.937   6.576  1.2145  0.3883  0.7340
 8641SOL    HW237560   1.250   0.936   6.720 -0.3903  1.2513 -0.5472
 8642SOL     OW37561   1.035   2.470   5.420  0.3527 -0.3978  0.5580
 8642SOL    HW137562   0.996   2.530   5.356  1.4083  0.7647  0.9951
 8642SOL    HW237563   0.997   2.388   5.390  0.4454 -0.0897 -0.4251
 8643SOL     OW37564   1.642   2.916   2.601  0.1271 -0.3205 -0.4006
 8643SOL    HW137565   1.603   2.916   2.514 -1.4736 -0.9409  0.3151
 8643SOL    HW237566   1.697   2.993   2.615  0.6184 -0.6305 -0.6830
 8644SOL     OW37567   1.412   1.976   6.680 -0.3006  0.0912 -0.0738
 8644SOL    HW137568   1.447   1.887   6.680 -0.8721 -0.1209  1.2245
 8644SOL    HW237569   1.329   1.965   6.633 -1.2066  2.5179  0.9566
 8645SOL     OW37570   2.067   0.628   0.556  0.2828 -0.1001  0.3491
 8645SOL    HW137571   2.070   0.537   0.529 -0.6629 -0.1612  0.4447
 8645SOL    HW237572   2.150   0.666   0.527 -1.2288  2.3039 -0.8300
 8646SOL     OW37573   1.082   3.938   5.503 -0.2767 -0.6583 -0.0853
 8646SOL    HW137574   0.993   3.960   5.529  0.9263  3.6969  0.2558
 8646SOL    HW237575   1.104   3.895   5.586 -0.8465 -0.3755  0.2068
 8647SOL     OW37576   2.387   2.482   2.932 -0.2860 -0.1306  0.4095
 8647SOL    HW137577   2.341   2.406   2.968 -1.4290  1.2689  1.9425
 8647SOL    HW237578   2.312   2.540   2.917  0.1920  0.1384 -0.8760
 8648SOL     OW37579   4.692   3.050   2.051 -0.5549  0.3359 -0.2519
 8648SOL    HW137580   4.677   2.997   2.129 -0.1389  0.5049 -0.0586
 8648SOL    HW237581   0.047   3.083   2.049  0.2616 -1.9843 -2.0350
 8649SOL     OW37582   2.523   0.384   4.576 -0.0344 -0.0537  0.3475
 8649SOL    HW137583   2.497   0.441   4.647  2.1149  0.6487  0.5797
 8649SOL    HW237584   2.495   0.434   4.499 -2.5479 -3.3919 -0.9191
 8650SOL     OW37585   3.178   2.859   4.475  0.4414 -0.5885  0.0338
 8650SOL    HW137586   3.184   2.936   4.531  1.5343 -0.3253 -0.4484
 8650SOL    HW237587   3.248   2.885   4.415  0.6410  1.3488  1.0852
 8651SOL     OW37588   2.605   3.317   6.964 -0.0112 -0.1199  0.2932
 8651SOL    HW137589   2.643   3.243   6.917  0.9748 -1.4803  3.2649
 8651SOL    HW237590   2.533   3.279   7.016  1.4544 -0.3665  2.1544
 8652SOL     OW37591   1.482   2.770   1.440  0.1872 -0.0630 -0.3721
 8652SOL    HW137592   1.517   2.825   1.370  3.2617 -1.0420  0.3981
 8652SOL    HW237593   1.555   2.712   1.461  0.8466  0.8544 -0.1323
 8653SOL     OW37594   4.171   3.665  12.151  0.0309  0.4418 -0.5460
 8653SOL    HW137595   4.203   3.649  12.240  0.5602  0.6231 -0.7049
 8653SOL    HW237596   4.245   3.722  12.131 -0.3958  0.7954 -1.1110
 8654SOL     OW37597   1.435   3.654   7.779  0.1714  0.2038 -0.2418
 8654SOL    HW137598   1.510   3.712   7.797  1.2344 -1.1261 -0.3892
 8654SOL    HW237599   1.459   3.578   7.832 -0.5141  0.2742  0.1595
 8655SOL     OW37600   1.338   3.790  16.029  0.1674 -0.9175 -0.1087
 8655SOL    HW137601   1.378   3.837  15.957  1.4373 -1.2334  0.3827
 8655SOL    HW237602   1.326   3.858  16.095 -0.9482  0.1596 -1.4270
 8656SOL     OW37603   3.342   2.042   4.694  0.2281 -0.2759  0.1517
 8656SOL    HW137604   3.327   2.056   4.601 -0.7967 -0.8502  0.2271
 8656SOL    HW237605   3.317   2.129   4.725  0.4957 -0.1760  0.0859
 8657SOL     OW37606   1.586   3.085  11.771  0.4265 -0.1030 -0.1584
 8657SOL    HW137607   1.619   3.158  11.824 -1.1645 -0.0761  0.8016
 8657SOL    HW237608   1.507   3.060  11.820  1.4572 -2.0943  0.4556
 8658SOL     OW37609   1.123   1.181  16.374  0.1594 -0.7004 -0.6739
 8658SOL    HW137610   1.128   1.253  16.311  2.4434  0.6742  1.0583
 8658SOL    HW237611   1.216   1.159  16.373  0.0347 -1.2439  0.8026
 8659SOL     OW37612   0.998   4.480   5.182  0.0244  0.0823 -0.7620
 8659SOL    HW137613   0.986   4.423   5.258  0.2813 -0.4171 -1.0929
 8659SOL    HW237614   1.043   4.553   5.225  3.7425 -2.0953 -0.8894
 8660SOL     OW37615   4.166   4.543  17.328  0.3419 -0.0864 -0.8231
 8660SOL    HW137616   4.255   4.544  17.294  0.3284 -0.0386 -0.8578
 8660SOL    HW237617   4.169   4.490  17.407 -2.4240 -0.7604 -1.1695
 8661SOL     OW37618   3.872   4.520  17.286  0.7540 -0.8436 -0.3862
 8661SOL    HW137619   3.894   4.541  17.377  0.5369 -0.4626 -0.4228
 8661SOL    HW237620   3.960   4.524  17.249  1.0507 -0.7229  0.3313
 8662SOL     OW37621   1.856   2.766  12.579 -0.3096 -0.0255 -0.7467
 8662SOL    HW137622   1.921   2.768  12.509 -0.8329  1.0430 -1.2029
 8662SOL    HW237623   1.913   2.729  12.647  0.3256  0.2879 -1.1078
 8663SOL     OW37624   3.093   1.247  11.904 -0.3024  0.1589 -0.0867
 8663SOL    HW137625   3.009   1.203  11.892  0.0689 -0.6338  0.2462
 8663SOL    HW237626   3.074   1.279  11.992  0.3633 -0.0219  0.1225
 8664SOL     OW37627   2.156   4.115  16.717 -0.5475  0.2542 -0.0656
 8664SOL    HW137628   2.168   4.077  16.630  0.8445 -0.1636  0.3150
 8664SOL    HW237629   2.240   4.149  16.746 -0.6044 -0.3504  0.7866
 8665SOL     OW37630   0.699   2.374   7.208  0.4653 -0.5432 -0.2709
 8665SOL    HW137631   0.705   2.444   7.144  0.7565  0.5111  0.9175
 8665SOL    HW237632   0.789   2.368   7.239  0.2411 -2.7501 -0.0465
 8666SOL     OW37633   4.189   3.717   6.374 -0.3971  0.2218 -0.0536
 8666SOL    HW137634   4.160   3.750   6.288  2.2663  1.6938 -0.3705
 8666SOL    HW237635   4.134   3.772   6.430  0.2722 -0.3028  1.1199
 8667SOL     OW37636   2.921   2.672   2.754  0.1821 -0.3100 -0.0678
 8667SOL    HW137637   2.845   2.699   2.805  0.1222 -1.3304  0.3865
 8667SOL    HW237638   2.990   2.735   2.774 -0.3080 -0.4111  1.9360
 8668SOL     OW37639   1.250   1.448   7.110  0.0215 -0.1900 -0.2182
 8668SOL    HW137640   1.328   1.503   7.101 -0.2192  0.4896  1.9902
 8668SOL    HW237641   1.271   1.407   7.194 -1.8832 -1.4798 -0.3638
 8669SOL     OW37642   4.445   4.729  12.749 -0.4470 -0.5963 -0.2072
 8669SOL    HW137643   4.533   4.700  12.774  0.9306  2.8154 -1.0570
 8669SOL    HW237644   4.429   4.683  12.666 -1.2257 -1.6444  0.5288
 8670SOL     OW37645   0.684   4.394  17.279  0.0783 -0.1280  0.1896
 8670SOL    HW137646   0.593   4.414  17.258  0.5530 -1.5237 -3.1951
 8670SOL    HW237647   0.698   4.328  17.212  0.8937  2.2452 -1.9722
 8671SOL     OW37648   3.398   0.223   8.409 -0.5502  0.4564 -0.1558
 8671SOL    HW137649   3.330   0.270   8.456  0.2191 -0.4350  1.8443
 8671SOL    HW237650   3.434   0.301   8.366  0.3727  0.1083 -0.0230
 8672SOL     OW37651   3.188   0.905   2.536 -0.0138 -0.0562  0.7974
 8672SOL    HW137652   3.169   0.944   2.450 -0.6003 -2.5074 -0.1806
 8672SOL    HW237653   3.174   0.815   2.505  0.7444 -0.2087  0.9058
 8673SOL     OW37654   3.522   3.679   9.063  0.5222  0.4775 -0.1059
 8673SOL    HW137655   3.434   3.688   9.025  0.8012  1.6070 -0.4765
 8673SOL    HW237656   3.512   3.736   9.139 -0.6257 -0.3402  0.3498
 8674SOL     OW37657   4.527   3.262   5.118 -0.2881  0.2024 -0.9793
 8674SOL    HW137658   4.454   3.223   5.165 -0.0427  0.0596 -0.7154
 8674SOL    HW237659   4.587   3.189   5.100 -1.5755 -1.3577  1.0068
 8675SOL     OW37660   2.119   4.005   6.154  0.0909  0.3493 -0.5903
 8675SOL    HW137661   2.068   4.056   6.090  1.4428 -0.0567 -2.0054
 8675SOL    HW237662   2.053   3.940   6.177 -0.5695  0.8803 -0.9903
 8676SOL     OW37663   3.109   3.039   0.421 -0.3242 -0.2688  0.6509
 8676SOL    HW137664   3.171   3.095   0.376 -0.9205 -0.6146 -0.6067
 8676SOL    HW237665   3.024   3.069   0.388 -0.2664 -0.2377  0.5315
 8677SOL     OW37666   4.359   2.099   9.260  0.0617 -0.3988 -0.2602
 8677SOL    HW137667   4.426   2.030   9.258 -0.7370 -1.2032  0.7934
 8677SOL    HW237668   4.420   2.173   9.258  0.3460 -0.4575  5.1995
 8678SOL     OW37669   4.289   3.100   4.723  0.3781 -0.4043  0.0523
 8678SOL    HW137670   4.377   3.091   4.686  1.0769 -1.6657  1.9869
 8678SOL    HW237671   4.292   3.177   4.779 -1.3385 -2.2429  2.6960
 8679SOL     OW37672   2.922   4.689   8.049  0.1572  0.2530  0.1035
 8679SOL    HW137673   2.984   0.014   8.010  1.3545 -0.5575  0.7282
 8679SOL    HW237674   2.965   4.603   8.047  0.0196  0.1262  2.2184
 8680SOL     OW37675   4.293   3.008   8.453 -0.4588 -0.0064 -0.8169
 8680SOL    HW137676   4.286   2.966   8.538 -0.3290  0.6605 -0.4793
 8680SOL    HW237677   4.387   3.021   8.460 -0.4558 -0.2872 -0.3324
 8681SOL     OW37678   3.602   3.086   3.709 -0.2514 -0.1261  0.0493
 8681SOL    HW137679   3.533   3.023   3.688  0.1964 -0.6947  0.3077
 8681SOL    HW237680   3.649   3.091   3.626 -0.1641 -0.8944  0.0568
 8682SOL     OW37681   0.632   2.847   7.275 -0.2345  0.2759 -0.5161
 8682SOL    HW137682   0.646   2.901   7.353  0.4267 -0.5547 -0.0671
 8682SOL    HW237683   0.629   2.764   7.322 -0.2441  1.3501  1.3693
 8683SOL     OW37684   3.744   3.280  11.397  0.3578 -0.2352 -0.3792
 8683SOL    HW137685   3.723   3.277  11.304 -1.6869 -1.3030  0.1288
 8683SOL    HW237686   3.673   3.329  11.439  2.3558  0.8608  1.7615
 8684SOL     OW37687   4.546   3.928   4.786  0.2779  0.4805 -0.3144
 8684SOL    HW137688   4.484   3.871   4.833 -0.0875 -0.5835 -2.0598
 8684SOL    HW237689   4.621   3.869   4.779 -1.0419 -1.2671  0.0629
 8685SOL     OW37690   2.757   1.937   6.246 -0.5796  0.6406  0.9043
 8685SOL    HW137691   2.837   1.916   6.296 -0.1606 -1.5322 -0.6866
 8685SOL    HW237692   2.791   1.993   6.177  1.8673  1.5973  2.8591
 8686SOL     OW37693   1.295   2.456   5.485  0.0855  0.6331  0.3522
 8686SOL    HW137694   1.339   2.422   5.407  0.1272 -2.3989  1.7328
 8686SOL    HW237695   1.201   2.440   5.477  0.2683 -1.6910  2.9333
 8687SOL     OW37696   0.313   4.320   8.910  0.3128 -0.0495 -0.0426
 8687SOL    HW137697   0.230   4.300   8.953  0.2078 -1.0921 -0.7413
 8687SOL    HW237698   0.375   4.327   8.982  1.0553 -0.4846 -0.6443
 8688SOL     OW37699   0.993   0.256   7.857  0.6441  0.0666 -0.0951
 8688SOL    HW137700   1.044   0.224   7.782 -1.0191 -1.0280 -0.7584
 8688SOL    HW237701   1.017   0.349   7.865 -0.5075  0.4132 -0.7255
 8689SOL     OW37702   1.949   1.791   1.994  0.1343  0.2139 -0.0013
 8689SOL    HW137703   1.966   1.847   2.069 -0.2328 -0.9416  0.9419
 8689SOL    HW237704   2.003   1.713   2.007 -0.6179 -0.4492 -0.8364
 8690SOL     OW37705   1.510   3.520  15.733 -0.1604  0.3119  0.1678
 8690SOL    HW137706   1.449   3.583  15.695 -1.5215  1.7383  4.7392
 8690SOL    HW237707   1.538   3.476  15.653 -2.9281  1.6324 -1.5107
 8691SOL     OW37708   3.897   0.902   8.470  0.3405 -0.0884 -0.0911
 8691SOL    HW137709   3.889   0.874   8.379  2.4472  1.9332 -0.8919
 8691SOL    HW237710   3.991   0.901   8.489  0.5684 -0.2105 -1.2754
 8692SOL     OW37711   2.811   1.654   2.276  0.4696 -0.0775  0.4238
 8692SOL    HW137712   2.881   1.600   2.313 -2.3279 -3.4715  0.7984
 8692SOL    HW237713   2.765   1.586   2.227 -2.9501  1.5328  1.4003
 8693SOL     OW37714   0.194   0.541   4.457 -0.2300 -0.0807 -0.3753
 8693SOL    HW137715   0.128   0.537   4.527 -0.6735 -1.2255 -0.8500
 8693SOL    HW237716   0.131   0.524   4.387  0.6635  1.3619 -1.5197
 8694SOL     OW37717   3.787   2.951  12.789 -0.4238  0.1273 -0.1398
 8694SOL    HW137718   3.871   2.975  12.829  0.2582 -2.3126 -0.1226
 8694SOL    HW237719   3.731   2.997  12.852 -0.4238 -0.4018  0.2479
 8695SOL     OW37720   2.438   4.718   8.688 -0.0008 -0.3220 -0.3835
 8695SOL    HW137721   2.365   0.045   8.688 -1.6681 -2.2777 -2.3723
 8695SOL    HW237722   2.439   4.699   8.782  1.3657  0.1000 -0.3186
 8696SOL     OW37723   3.705   2.516   5.837 -0.9327 -0.0751 -0.2325
 8696SOL    HW137724   3.616   2.527   5.803 -0.3064 -1.6715 -2.3727
 8696SOL    HW237725   3.685   2.511   5.931  1.0237  1.5109  0.2660
 8697SOL     OW37726   2.577   1.807   6.760 -0.2320 -0.0703 -0.1643
 8697SOL    HW137727   2.626   1.889   6.752 -0.2488 -0.2504 -2.1148
 8697SOL    HW237728   2.536   1.815   6.846  1.1051  0.0365  0.4621
 8698SOL     OW37729   4.495   3.897   1.130  0.5220  0.0956 -0.3932
 8698SOL    HW137730   4.461   3.979   1.165  0.9298 -0.9725  2.5099
 8698SOL    HW237731   4.582   3.904   1.168  0.1228  1.5512  0.2433
 8699SOL     OW37732   2.509   2.602   3.946  0.0355 -0.3688 -0.2785
 8699SOL    HW137733   2.456   2.681   3.932  0.3967 -0.0724  0.0146
 8699SOL    HW237734   2.592   2.645   3.967 -0.6170  1.9607 -2.4379
 8700SOL     OW37735   2.520   3.800   6.432 -0.3520 -0.1672  0.0014
 8700SOL    HW137736   2.522   3.725   6.373  3.0017 -1.2720  1.5349
 8700SOL    HW237737   2.454   3.853   6.387 -1.6384 -1.6776  0.1143
 8701SOL     OW37738   2.457   1.246   4.370 -0.2520  0.1155 -0.1806
 8701SOL    HW137739   2.546   1.256   4.334 -0.1802  0.7642  0.1762
 8701SOL    HW237740   2.435   1.339   4.364  1.0613  0.5279  1.3664
 8702SOL     OW37741   1.768   0.126   5.092 -0.3251 -0.0466  0.1326
 8702SOL    HW137742   1.779   0.047   5.038  1.7989  0.6182 -0.3796
 8702SOL    HW237743   1.718   0.096   5.168 -0.9730  1.8537  0.4661
 8703SOL     OW37744   1.634   4.630   3.695  0.0584  0.0766 -0.5782
 8703SOL    HW137745   1.667   4.580   3.620  1.2491  0.9592 -0.6415
 8703SOL    HW237746   1.541   4.613   3.680  0.3578 -0.1744 -2.1710
 8704SOL     OW37747   4.286   3.203   3.297  0.0234 -0.3078 -0.2888
 8704SOL    HW137748   4.305   3.289   3.260 -0.7383  0.0164  0.0715
 8704SOL    HW237749   4.243   3.167   3.219 -1.8810  1.2662  0.0126
 8705SOL     OW37750   2.039   4.473   9.240  0.1071  0.1228 -0.5703
 8705SOL    HW137751   1.946   4.497   9.248  0.1113 -0.0619  0.0043
 8705SOL    HW237752   2.056   4.446   9.330  1.4956  0.7483 -0.6459
 8706SOL     OW37753   2.022   0.543   6.273 -0.7823 -0.4514 -0.1799
 8706SOL    HW137754   2.002   0.450   6.265  0.3292 -0.9703  2.8287
 8706SOL    HW237755   1.967   0.591   6.212  1.5161  2.4487  0.0624
 8707SOL     OW37756   1.008   4.175   8.778  0.3358  0.0328 -0.9701
 8707SOL    HW137757   0.914   4.192   8.774  0.0666 -1.5231 -1.6432
 8707SOL    HW237758   1.031   4.265   8.799 -1.7620  0.2961  0.2232
 8708SOL     OW37759   2.162   0.468  15.237  0.1635  0.5394 -0.2832
 8708SOL    HW137760   2.209   0.385  15.242 -1.7882 -0.5553 -0.0974
 8708SOL    HW237761   2.122   0.456  15.323  0.4148 -0.0633 -0.2495
 8709SOL     OW37762   1.455   2.951  12.016  0.0824 -0.2889  0.7899
 8709SOL    HW137763   1.525   2.908  12.066  1.6458  0.2594 -0.9498
 8709SOL    HW237764   1.416   2.996  12.091 -1.7769 -0.2643 -0.2029
 8710SOL     OW37765   2.862   3.297  11.741 -0.8485  0.0976 -0.2611
 8710SOL    HW137766   2.826   3.224  11.690  0.7422  1.2913 -3.1023
 8710SOL    HW237767   2.896   3.254  11.819  0.2376  1.4650  0.0189
 8711SOL     OW37768   3.938   4.278   2.544  0.0666  0.6388  0.4652
 8711SOL    HW137769   3.890   4.298   2.624  2.4667  0.4894  1.9467
 8711SOL    HW237770   3.866   4.279   2.482  1.9079 -1.6356 -1.7090
 8712SOL     OW37771   2.460   1.251   3.171  0.2248 -0.5784  0.1982
 8712SOL    HW137772   2.556   1.248   3.166  0.2235  1.6213 -1.1758
 8712SOL    HW237773   2.435   1.159   3.165 -0.9795 -0.2170 -0.2234
 8713SOL     OW37774   3.108   3.279   5.611  0.0927  0.4329  0.8992
 8713SOL    HW137775   3.141   3.348   5.553 -1.1549  0.9346  0.7955
 8713SOL    HW237776   3.084   3.335   5.685  0.8658 -0.3177  1.7199
 8714SOL     OW37777   1.050   4.038  17.401 -0.3466 -0.4454  0.9756
 8714SOL    HW137778   0.959   4.056  17.425 -0.4738  3.1971 -2.2780
 8714SOL    HW237779   1.098   4.098  17.457 -2.2112  0.6197  1.4511
 8715SOL     OW37780   0.051   1.168  16.720 -0.8180 -0.2766 -0.7878
 8715SOL    HW137781   0.108   1.239  16.752  1.1644 -1.5665 -1.4305
 8715SOL    HW237782   0.064   1.179  16.626 -1.0015  2.2566 -0.5002
 8716SOL     OW37783   2.442   1.494  16.549  0.2237 -0.0649 -0.5437
 8716SOL    HW137784   2.404   1.503  16.636 -0.0973 -1.2784 -0.5569
 8716SOL    HW237785   2.497   1.572  16.548 -0.7727  0.6473  0.1457
 8717SOL     OW37786   1.588   4.192   3.415  0.0677  0.1188 -0.0519
 8717SOL    HW137787   1.647   4.207   3.489  0.8953 -1.4892 -0.3996
 8717SOL    HW237788   1.626   4.120   3.365  0.3067 -0.4794  0.9874
 8718SOL     OW37789   0.831   3.789  11.722 -0.5437  0.2491  0.4655
 8718SOL    HW137790   0.765   3.819  11.661 -0.2480  0.2074  0.1261
 8718SOL    HW237791   0.782   3.794  11.804 -0.7996  1.1591  0.2552
 8719SOL     OW37792   2.999   0.938  13.110  0.1884  0.2911  0.2327
 8719SOL    HW137793   2.917   0.960  13.154 -0.2542  1.9568 -1.4384
 8719SOL    HW237794   3.059   0.916  13.181  0.5410  0.1810 -0.1000
 8720SOL     OW37795   1.352   1.823   5.388  0.1410 -0.1050 -0.0828
 8720SOL    HW137796   1.417   1.757   5.364 -2.4166 -2.4895 -0.4090
 8720SOL    HW237797   1.411   1.878   5.440  0.8165  0.0419 -1.0032
 8721SOL     OW37798   3.697   3.195   3.351  0.0469  0.0339 -0.0297
 8721SOL    HW137799   3.638   3.125   3.380 -0.1763 -0.0160 -0.6105
 8721SOL    HW237800   3.724   3.226   3.438 -0.3990 -1.0867  0.5222
 8722SOL     OW37801   4.684   2.003   8.698 -0.1091  0.7975 -0.1737
 8722SOL    HW137802   4.659   2.013   8.790  1.2457 -1.8373  0.4734
 8722SOL    HW237803   0.041   2.028   8.690 -0.0520  0.9406  0.8666
 8723SOL     OW37804   0.571   4.180   5.432 -0.0493 -0.0845 -0.1677
 8723SOL    HW137805   0.567   4.149   5.341  1.0801  0.3017 -0.3423
 8723SOL    HW237806   0.570   4.101   5.486  2.5546  1.0232  1.4334
 8724SOL     OW37807   0.358   4.630  12.126  0.0405 -0.4900  0.7318
 8724SOL    HW137808   0.362   4.586  12.041 -0.6942  0.2562  0.3166
 8724SOL    HW237809   0.449   4.633  12.155  0.6520  0.4915 -1.2624
 8725SOL     OW37810   3.835   4.163   3.795 -0.2381  0.8309  0.2813
 8725SOL    HW137811   3.775   4.141   3.866 -0.4183 -0.7492 -0.3688
 8725SOL    HW237812   3.791   4.120   3.722 -0.0138  0.7706  0.1799
 8726SOL     OW37813   4.208   0.386   4.568 -0.0612  0.3138 -0.0651
 8726SOL    HW137814   4.246   0.402   4.654 -2.3863  2.0323  0.6194
 8726SOL    HW237815   4.283   0.331   4.542 -0.4595 -1.6078  2.8923
 8727SOL     OW37816   3.119   4.086   8.824 -0.3906  0.1950  0.1585
 8727SOL    HW137817   3.126   4.119   8.735 -0.7225  1.6503  0.6745
 8727SOL    HW237818   3.209   4.090   8.855 -1.1724 -0.1392  2.4991
 8728SOL     OW37819   1.162   0.344   9.189 -0.1516  0.4311  0.1311
 8728SOL    HW137820   1.175   0.413   9.254  0.5932  1.5546 -1.2150
 8728SOL    HW237821   1.161   0.381   9.101  0.2307  1.8613  0.7396
 8729SOL     OW37822   0.251   1.450  13.959 -0.6283 -0.0144  0.5338
 8729SOL    HW137823   0.227   1.370  14.005  1.3487 -0.3612  0.9574
 8729SOL    HW237824   0.336   1.432  13.920 -0.7343  1.4718 -0.3603
 8730SOL     OW37825   4.378   4.614  15.722  0.0867  0.1866 -0.4566
 8730SOL    HW137826   4.463   4.627  15.763 -0.1771  1.1644 -0.2199
 8730SOL    HW237827   4.342   4.699  15.745  0.0180  0.7910 -2.7552
 8731SOL     OW37828   4.694   3.685   4.876 -0.1428  0.0769  0.2093
 8731SOL    HW137829   4.682   3.730   4.960 -0.6560  0.4274 -0.0528
 8731SOL    HW237830   4.661   3.596   4.887 -0.1246 -0.1896 -1.8677
 8732SOL     OW37831   4.561   0.599   7.919 -0.1358  0.7080  0.2509
 8732SOL    HW137832   4.623   0.543   7.967 -0.9705  0.7100  1.3196
 8732SOL    HW237833   4.613   0.680   7.918 -0.5994  0.9866 -1.6477
 8733SOL     OW37834   0.788   0.009   4.336  0.3649 -0.0243  0.4962
 8733SOL    HW137835   0.773   0.065   4.260  1.9843 -0.0378  0.1791
 8733SOL    HW237836   0.876   0.039   4.359  0.3550 -0.6317  1.3432
 8734SOL     OW37837   4.612   0.192  12.230  0.2853 -0.4792 -0.9582
 8734SOL    HW137838   4.608   0.152  12.317 -1.7308  3.8824  0.9765
 8734SOL    HW237839   4.680   0.259  12.239 -0.6450  0.7721 -3.1203
 8735SOL     OW37840   0.752   4.634   2.940 -0.1501  0.1946 -0.2667
 8735SOL    HW137841   0.765   4.663   2.850  2.7034 -1.3826 -0.3736
 8735SOL    HW237842   0.738   4.540   2.925  1.4030 -0.3494  1.6750
 8736SOL     OW37843   2.005   4.191   8.226  0.1846 -0.0359  0.3763
 8736SOL    HW137844   1.939   4.257   8.205  0.6899  0.5857  0.7552
 8736SOL    HW237845   2.063   4.200   8.150 -1.1688 -0.6984 -0.7356
 8737SOL     OW37846   0.971   1.951   2.628 -0.0904 -0.4406 -0.1799
 8737SOL    HW137847   1.065   1.966   2.615 -0.2648 -1.6760 -2.6964
 8737SOL    HW237848   0.974   1.859   2.655 -1.1623 -0.8903 -1.6351
 8738SOL     OW37849   3.513   2.940  10.817 -0.1157  0.0037 -0.6439
 8738SOL    HW137850   3.470   2.858  10.843  0.0194 -0.0492 -0.5842
 8738SOL    HW237851   3.448   2.975  10.756  0.5737 -0.8767 -1.8849
 8739SOL     OW37852   3.936   3.541   7.648  0.6381 -0.2563 -0.0215
 8739SOL    HW137853   3.844   3.534   7.674  0.9190  0.2673  1.1349
 8739SOL    HW237854   3.948   3.454   7.610 -1.2123 -0.4194 -0.2179
 8740SOL     OW37855   2.800   0.462  11.949 -0.8106  0.1903 -0.0602
 8740SOL    HW137856   2.797   0.418  12.034  2.1460  1.1601  0.5765
 8740SOL    HW237857   2.713   0.488  11.920 -0.6831 -0.7923 -1.2851
 8741SOL     OW37858   0.332   1.579  17.281 -0.8428 -0.3637 -0.4207
 8741SOL    HW137859   0.382   1.641  17.334 -2.6862  1.3824 -0.7337
 8741SOL    HW237860   0.359   1.623  17.201 -0.2316 -1.2967 -0.7265
 8742SOL     OW37861   2.166   4.124   2.041  0.3560 -0.5841  0.3419
 8742SOL    HW137862   2.166   4.029   2.030 -0.2721 -0.3375 -1.8566
 8742SOL    HW237863   2.166   4.118   2.136 -2.7289 -1.7343  0.2726
 8743SOL     OW37864   3.200   0.998  16.509  0.2036 -0.9005 -0.5093
 8743SOL    HW137865   3.205   0.934  16.580  0.2657 -1.3079 -0.8853
 8743SOL    HW237866   3.106   1.019  16.509  0.3796 -0.1777  1.5427
 8744SOL     OW37867   3.036   2.628   0.611  0.1272 -0.0137 -0.1831
 8744SOL    HW137868   2.946   2.660   0.620  0.0939  0.7257 -3.1262
 8744SOL    HW237869   3.086   2.709   0.612  0.0654  0.0377 -1.5558
 8745SOL     OW37870   1.033   1.423   2.433  0.1950 -0.1144  0.4734
 8745SOL    HW137871   1.108   1.378   2.473 -0.0488 -0.7935  0.1788
 8745SOL    HW237872   1.079   1.474   2.367 -0.4347  1.0782  0.9669
 8746SOL     OW37873   3.455   3.985   4.460 -0.3280 -0.2567  0.5593
 8746SOL    HW137874   3.425   3.914   4.516  0.0052 -2.3538 -1.8964
 8746SOL    HW237875   3.539   4.012   4.498 -0.6195 -0.9596  1.6903
 8747SOL     OW37876   0.114   2.554   5.111 -0.5549  0.1617  0.0567
 8747SOL    HW137877   0.066   2.632   5.084 -0.2323 -0.1061 -1.2998
 8747SOL    HW237878   0.206   2.580   5.101 -0.4008 -0.2517  0.4130
 8748SOL     OW37879   1.743   0.160   2.803  0.4432  0.0508 -0.1466
 8748SOL    HW137880   1.729   0.235   2.745 -2.6312 -0.0454  0.4716
 8748SOL    HW237881   1.703   0.096   2.745  2.4454  0.3456 -1.8686
 8749SOL     OW37882   3.709   2.754   0.462 -0.1089  0.4241  0.2314
 8749SOL    HW137883   3.735   2.704   0.539 -1.4191 -0.7697 -0.0838
 8749SOL    HW237884   3.627   2.785   0.500 -0.4447  0.3649 -0.4428
 8750SOL     OW37885   1.872   0.076  13.954 -0.1820 -0.2142 -0.1320
 8750SOL    HW137886   1.785   0.114  13.942  0.5451  1.3592 -0.4580
 8750SOL    HW237887   1.927   0.153  13.967  0.5585 -0.4895 -1.5858
 8751SOL     OW37888   4.227   0.823   3.353  0.7136  0.0616  0.5596
 8751SOL    HW137889   4.145   0.784   3.323  1.5769  0.6028 -2.5050
 8751SOL    HW237890   4.249   0.867   3.271 -0.9266  1.3288  0.7970
 8752SOL     OW37891   0.652   1.204   7.935  0.6343 -0.0804  0.1847
 8752SOL    HW137892   0.577   1.195   7.876  0.8708  2.1683 -0.4670
 8752SOL    HW237893   0.715   1.160   7.878  2.9115  1.4633  1.5243
 8753SOL     OW37894   0.588   2.605   9.483 -0.3194  0.2705 -0.1011
 8753SOL    HW137895   0.591   2.544   9.409  1.4905  0.2238  0.0112
 8753SOL    HW237896   0.496   2.631   9.472 -0.7711 -1.3183 -0.0855
 8754SOL     OW37897   2.590   1.503   5.271 -0.5266  0.4956  0.0904
 8754SOL    HW137898   2.631   1.422   5.242 -1.4782  0.4968 -1.2714
 8754SOL    HW237899   2.507   1.464   5.301 -0.2516 -0.3047 -0.2081
 8755SOL     OW37900   3.284   2.566   6.649  0.2886  0.2219 -0.2061
 8755SOL    HW137901   3.324   2.609   6.725 -0.0855 -1.8779  1.1844
 8755SOL    HW237902   3.334   2.485   6.641 -0.7978 -0.3398 -1.3833
 8756SOL     OW37903   3.388   3.359  11.855 -0.2805  0.2346  0.5817
 8756SOL    HW137904   3.410   3.268  11.837 -1.5360  0.2747 -1.1596
 8756SOL    HW237905   3.472   3.401  11.871 -0.7754  1.0691  1.0492
 8757SOL     OW37906   0.731   1.194   5.098 -0.2179  0.0670  0.2842
 8757SOL    HW137907   0.733   1.287   5.074  0.4849  0.1975  0.8536
 8757SOL    HW237908   0.817   1.198   5.139 -1.6571  2.8429  3.0471
 8758SOL     OW37909   0.215   0.840   9.258 -0.4725  0.3673 -0.3333
 8758SOL    HW137910   0.136   0.839   9.313  0.7089  0.5544  1.3629
 8758SOL    HW237911   0.269   0.902   9.306  0.2137 -0.1216 -0.4801
 8759SOL     OW37912   0.321   4.362   0.338  0.4316 -0.6569 -0.6889
 8759SOL    HW137913   0.410   4.382   0.366 -0.7407  1.8176  1.2301
 8759SOL    HW237914   0.344   4.288   0.281 -1.3246 -1.6659 -0.1017
 8760SOL     OW37915   4.301   1.571   6.291  0.1149  0.4437  0.2673
 8760SOL    HW137916   4.351   1.646   6.260 -0.8397  1.7790  1.9430
 8760SOL    HW237917   4.325   1.563   6.384  0.6652 -3.1757 -0.1585
 8761SOL     OW37918   4.452   4.687   6.195 -0.5119 -0.4330 -0.1187
 8761SOL    HW137919   4.364   4.688   6.233 -1.4545  1.5012 -2.3432
 8761SOL    HW237920   4.492   4.683   6.281  0.6257  0.4128 -0.6163
 8762SOL     OW37921   2.645   2.268   2.291 -0.2463 -0.0698  0.0419
 8762SOL    HW137922   2.693   2.349   2.309 -0.8534  0.6347 -1.4761
 8762SOL    HW237923   2.598   2.248   2.372 -1.0157  1.1436 -0.1012
 8763SOL     OW37924   2.695   3.185   2.450  0.0504  0.0103 -0.6227
 8763SOL    HW137925   2.613   3.136   2.443  0.9312 -1.6638  0.9465
 8763SOL    HW237926   2.720   3.156   2.537  3.4943  0.6421 -1.3975
 8764SOL     OW37927   4.597   1.022   9.833 -0.3063 -0.4168  0.4821
 8764SOL    HW137928   4.666   0.998   9.895  0.2877 -1.5947 -0.6386
 8764SOL    HW237929   4.635   0.994   9.750 -3.8080  0.3047 -1.3898
 8765SOL     OW37930   4.336   3.589  10.767 -0.0664 -0.0687 -0.3953
 8765SOL    HW137931   4.241   3.599  10.754 -0.6670 -0.8777  3.4674
 8765SOL    HW237932   4.333   3.530  10.841 -2.3981 -1.3760 -1.5192
 8766SOL     OW37933   3.785   1.493   1.756  0.3812 -0.3248  0.9276
 8766SOL    HW137934   3.764   1.458   1.842 -0.2994 -0.1803  0.8187
 8766SOL    HW237935   3.700   1.515   1.717 -0.1280 -0.6449  1.8626
 8767SOL     OW37936   2.463   0.928   3.492  0.2679 -0.3282 -0.4034
 8767SOL    HW137937   2.405   0.869   3.540  0.0134 -0.5378 -0.9664
 8767SOL    HW237938   2.427   1.016   3.503  2.6441  0.8899 -2.3830
 8768SOL     OW37939   0.328   3.059  13.338 -0.2730  0.3542  0.4015
 8768SOL    HW137940   0.325   3.135  13.397 -0.1732  0.2648  0.5224
 8768SOL    HW237941   0.275   3.102  13.271 -1.5629 -3.3529 -0.9619
 8769SOL     OW37942   3.581   4.535   9.674 -0.5206  0.2151 -0.2045
 8769SOL    HW137943   3.509   4.479   9.704 -0.3585  0.2444  0.2402
 8769SOL    HW237944   3.599   4.592   9.749 -0.2002 -2.0145  1.4139
 8770SOL     OW37945   1.059   0.396  16.782 -0.1793  0.0619  0.3599
 8770SOL    HW137946   1.137   0.355  16.820 -0.4352 -0.4927  0.2962
 8770SOL    HW237947   1.089   0.382  16.692  0.0359 -1.1493  0.6191
 8771SOL     OW37948   2.202   4.060  15.294  0.4653 -0.1372  0.0952
 8771SOL    HW137949   2.116   4.046  15.255  0.6111  1.1513 -0.6835
 8771SOL    HW237950   2.180   4.049  15.386  0.3566 -2.0244 -0.1440
 8772SOL     OW37951   2.043   2.793   5.497 -0.3593  0.0124  0.0808
 8772SOL    HW137952   2.109   2.726   5.515  1.5049  2.1440  1.2653
 8772SOL    HW237953   2.011   2.815   5.585 -0.7914  1.1449 -0.3589
 8773SOL     OW37954   0.433   3.432   5.817  0.3296 -0.0073  0.6774
 8773SOL    HW137955   0.516   3.479   5.828 -0.5699  1.8116 -0.3447
 8773SOL    HW237956   0.386   3.474   5.745  1.8402  0.3671 -0.0947
 8774SOL     OW37957   0.530   2.160   7.291  0.4411 -0.6695 -0.4902
 8774SOL    HW137958   0.579   2.241   7.284 -1.0657  0.1033 -2.2616
 8774SOL    HW237959   0.600   2.100   7.317  0.9477 -0.2733 -0.9448
 8775SOL     OW37960   2.851   1.051  13.703 -0.4500 -0.2643  0.0419
 8775SOL    HW137961   2.940   1.073  13.676 -1.2523  2.4418 -0.4361
 8775SOL    HW237962   2.793   1.036  13.629  0.4916 -0.7945 -0.5769
 8776SOL     OW37963   1.312   1.008   1.222 -0.0419 -0.7021 -0.0142
 8776SOL    HW137964   1.379   1.009   1.290  1.5555  1.6157 -1.6476
 8776SOL    HW237965   1.367   1.017   1.145  2.4840 -1.4730  1.7068
 8777SOL     OW37966   1.321   0.016   8.877 -0.7653  0.4222 -0.5080
 8777SOL    HW137967   1.369   0.032   8.958 -2.0914  0.0208  0.3637
 8777SOL    HW237968   1.352   4.663   8.858 -1.1134  0.7907 -2.7108
 8778SOL     OW37969   4.238   3.230   4.399 -0.0757  0.3129  0.1860
 8778SOL    HW137970   4.178   3.184   4.341 -1.8242  2.4123  0.3261
 8778SOL    HW237971   4.179   3.284   4.452  1.0376  0.4906  1.2465
 8779SOL     OW37972   1.550   2.384   8.830  0.3962  0.1813 -0.3917
 8779SOL    HW137973   1.576   2.347   8.914  2.4594 -1.1087 -1.6017
 8779SOL    HW237974   1.475   2.328   8.809  0.3369  0.0239  0.2291
 8780SOL     OW37975   4.268   3.820   5.507  1.0877  0.2079 -0.7182
 8780SOL    HW137976   4.276   3.752   5.439  0.4473 -0.9574  0.3661
 8780SOL    HW237977   4.220   3.778   5.578  0.8924 -0.3047 -1.1481
 8781SOL     OW37978   1.191   3.681   6.328  0.0245  0.0477  0.1194
 8781SOL    HW137979   1.110   3.727   6.353  0.2285 -0.4841  1.7485
 8781SOL    HW237980   1.260   3.729   6.374 -1.4156  0.5086  1.8179
 8782SOL     OW37981   3.145   1.552   3.228  0.2945  0.0508 -0.4139
 8782SOL    HW137982   3.218   1.590   3.277  0.1292 -2.7642  2.0322
 8782SOL    HW237983   3.172   1.465   3.199  0.2936  0.6375 -2.1202
 8783SOL     OW37984   4.313   2.006   8.623  0.0428 -0.6503  0.5164
 8783SOL    HW137985   4.331   2.043   8.709 -2.0644 -0.5668  0.9082
 8783SOL    HW237986   4.278   2.081   8.576 -0.9579 -2.1093 -1.0428
 8784SOL     OW37987   4.657   3.607   9.312  0.3371 -0.3564 -0.0920
 8784SOL    HW137988   0.001   3.658   9.327 -2.9456  4.3738  1.3828
 8784SOL    HW237989   4.632   3.603   9.404  0.5239  1.8373  0.0527
 8785SOL     OW37990   2.023   4.493   3.755 -0.3479  0.0105  0.0356
 8785SOL    HW137991   2.099   4.459   3.803  0.1377  1.3807  0.2449
 8785SOL    HW237992   1.988   4.408   3.728  0.9986  0.1504 -2.1247
 8786SOL     OW37993   2.123   1.564   3.698  0.2411 -0.4131 -0.4932
 8786SOL    HW137994   2.099   1.494   3.758 -1.8049  0.2165 -0.5720
 8786SOL    HW237995   2.178   1.608   3.762 -2.7544  2.4960  0.0540
 8787SOL     OW37996   2.541   2.405  10.933  0.2382 -0.7348 -0.2788
 8787SOL    HW137997   2.594   2.373  10.860  0.3027 -0.3776 -0.3894
 8787SOL    HW237998   2.581   2.487  10.964 -1.7423 -0.7345  2.2111
 8788SOL     OW37999   1.536   1.320   2.183 -0.0528  0.4143  0.0053
 8788SOL    HW138000   1.570   1.252   2.124 -1.1956 -0.4641  0.3611
 8788SOL    HW238001   1.574   1.396   2.138 -0.2466 -0.9990 -2.5637
 8789SOL     OW38002   2.860   1.943   7.470  0.3420  0.1341  0.5141
 8789SOL    HW138003   2.938   1.901   7.506 -0.2854 -0.9940  0.5670
 8789SOL    HW238004   2.806   1.911   7.543  0.3172  0.8863  0.8272
 8790SOL     OW38005   4.511   3.527   8.500  0.1981  0.3036 -0.6257
 8790SOL    HW138006   4.525   3.572   8.584  0.3581  0.0648 -0.5234
 8790SOL    HW238007   4.462   3.452   8.533  2.9558 -1.2030  0.0558
 8791SOL     OW38008   3.801   2.807   6.621  0.1929 -0.0246 -0.2004
 8791SOL    HW138009   3.820   2.724   6.576 -0.1808  0.1761 -0.7199
 8791SOL    HW238010   3.854   2.856   6.558  0.2756  1.9797  1.4566
 8792SOL     OW38011   0.768   4.448   7.681  0.3301 -0.3586 -0.2490
 8792SOL    HW138012   0.758   4.517   7.615  3.1819 -0.4845 -0.8418
 8792SOL    HW238013   0.692   4.395   7.657  0.9035 -1.8899  1.4045
 8793SOL     OW38014   3.986   4.063   7.888 -0.3476 -0.3734 -0.1685
 8793SOL    HW138015   4.037   4.034   7.812 -3.2292 -1.9044 -1.5337
 8793SOL    HW238016   3.948   3.982   7.922 -1.1719  0.5207  1.0651
 8794SOL     OW38017   0.858   2.718   9.596  0.2379  0.0047  0.2355
 8794SOL    HW138018   0.767   2.705   9.567  0.8870 -0.1479 -1.6641
 8794SOL    HW238019   0.863   2.641   9.653  1.5667  0.1154  0.2488
 8795SOL     OW38020   3.771   2.125   7.503 -0.4512 -0.4904  0.5312
 8795SOL    HW138021   3.843   2.159   7.450 -0.7340  1.4347  1.3829
 8795SOL    HW238022   3.781   2.033   7.478 -0.4126 -0.4222  0.2964
 8796SOL     OW38023   1.831   2.873  10.102 -0.4011  0.4201 -0.2649
 8796SOL    HW138024   1.788   2.787  10.101  1.6444 -0.6109 -0.6436
 8796SOL    HW238025   1.911   2.843  10.145 -0.8516  0.6600  0.7453
 8797SOL     OW38026   4.182   3.909  11.965 -0.0869  0.2935 -0.5163
 8797SOL    HW138027   4.175   3.999  11.997  4.1837  0.0469  1.0877
 8797SOL    HW238028   4.096   3.871  11.984 -2.5335  5.4609 -1.2077
 8798SOL     OW38029   1.209   3.184   1.788 -0.1022 -0.1741 -0.6170
 8798SOL    HW138030   1.228   3.093   1.764 -0.2222 -1.0436  2.5360
 8798SOL    HW238031   1.153   3.181   1.865  1.5791 -0.1100  0.6250
 8799SOL     OW38032   2.228   0.041   6.700 -0.3811  0.1902  0.1749
 8799SOL    HW138033   2.144   0.050   6.655  0.3289 -0.8726 -1.3622
 8799SOL    HW238034   2.264   4.716   6.636  1.5316  0.3092  1.1216
 8800SOL     OW38035   1.719   3.915   6.717  0.4325 -0.5177  0.0870
 8800SOL    HW138036   1.695   3.822   6.713  1.3274 -0.6645 -1.9190
 8800SOL    HW238037   1.763   3.920   6.801 -3.4719  1.9903  1.9877
 8801SOL     OW38038   4.392   2.402  16.559 -0.2006 -0.0404  0.0763
 8801SOL    HW138039   4.422   2.419  16.648 -0.5815 -4.8829  1.0845
 8801SOL    HW238040   4.462   2.441  16.506  1.5460 -1.8595  1.0754
 8802SOL     OW38041   1.828   4.006  16.584  0.4744 -0.0296 -0.6577
 8802SOL    HW138042   1.737   3.977  16.576  0.8801 -1.0962 -1.4051
 8802SOL    HW238043   1.835   4.075  16.650 -1.0254 -1.4246  0.9638
 8803SOL     OW38044   0.776   3.219  10.771 -0.2191  0.5394  0.1305
 8803SOL    HW138045   0.805   3.285  10.835  0.3727  1.2366 -0.8612
 8803SOL    HW238046   0.696   3.266  10.748 -1.0639  0.6724  3.3358
 8804SOL     OW38047   4.614   2.730  14.450 -0.0715  0.0887  0.1078
 8804SOL    HW138048   4.642   2.670  14.519  1.2275  1.3036  0.6399
 8804SOL    HW238049   4.548   2.674  14.409 -0.0725  0.0552  0.1561
 8805SOL     OW38050   3.298   4.261   5.949 -0.1596  0.1479 -0.3260
 8805SOL    HW138051   3.204   4.278   5.956  0.0882  1.9870 -1.4019
 8805SOL    HW238052   3.309   4.175   5.910 -0.2405 -0.2663  0.5674
 8806SOL     OW38053   3.742   0.505   6.986 -0.8216 -0.6418 -0.3579
 8806SOL    HW138054   3.660   0.475   6.948 -0.5624  0.4759 -1.7795
 8806SOL    HW238055   3.777   0.429   7.032 -1.9198  0.1134  1.7050
 8807SOL     OW38056   4.709   3.713   0.757  0.3688 -0.0656 -0.0719
 8807SOL    HW138057   0.019   3.782   0.710  0.4271  1.1021  1.6919
 8807SOL    HW238058   4.621   3.749   0.758  0.2393 -0.4405  2.1997
 8808SOL     OW38059   4.286   3.914   3.057 -0.0685  0.2750  0.0311
 8808SOL    HW138060   4.204   3.962   3.042  0.0609  0.3243 -0.5266
 8808SOL    HW238061   4.341   3.990   3.037 -0.3837  0.6044  0.4179
 8809SOL     OW38062   1.620   4.194   1.171  0.6556  0.9884 -0.1804
 8809SOL    HW138063   1.529   4.219   1.185  0.1371 -1.0581  0.0957
 8809SOL    HW238064   1.653   4.282   1.153  1.0898  1.3501  2.3858
 8810SOL     OW38065   0.296   0.273   0.761  0.3396  0.0198  0.9330
 8810SOL    HW138066   0.240   0.197   0.779 -0.4478  0.9727  2.5407
 8810SOL    HW238067   0.299   0.287   0.667  4.2057  1.8853  1.3293
 8811SOL     OW38068   0.673   4.514   6.024 -0.4014  0.4529  0.3696
 8811SOL    HW138069   0.703   4.507   5.933 -0.5979  0.5739  0.2940
 8811SOL    HW238070   0.605   4.583   6.022  0.3199  1.1886  1.2957
 8812SOL     OW38071   2.308   2.359   0.759 -0.1979 -0.1754  0.0676
 8812SOL    HW138072   2.326   2.302   0.833  0.1661 -0.1067  0.0347
 8812SOL    HW238073   2.370   2.341   0.688  1.3930  1.3163  1.0697
 8813SOL     OW38074   2.716   1.047   2.283  0.3146 -0.1644  0.3755
 8813SOL    HW138075   2.783   1.069   2.347 -0.5174  0.3428  1.0660
 8813SOL    HW238076   2.638   1.070   2.334 -0.0077  0.4363 -0.3689
 8814SOL     OW38077   3.753   1.397  17.064 -0.2742 -0.2200 -0.2498
 8814SOL    HW138078   3.727   1.407  16.972  0.6803  2.6288 -0.2160
 8814SOL    HW238079   3.818   1.464  17.084  0.3040 -0.8464 -0.0288
 8815SOL     OW38080   2.493   0.905  15.237 -0.8199  0.0923  0.7193
 8815SOL    HW138081   2.421   0.845  15.254  0.0113 -1.5490 -1.5413
 8815SOL    HW238082   2.519   0.941  15.322  1.4589 -0.1025  0.1170
 8816SOL     OW38083   3.740   3.437   3.231  0.5843  0.1546 -0.3461
 8816SOL    HW138084   3.727   3.356   3.280  0.9683 -0.1645 -0.7653
 8816SOL    HW238085   3.835   3.430   3.216  0.8979  1.3517  1.0838
 8817SOL     OW38086   4.635   0.378   8.102 -0.2958  0.8088  0.0015
 8817SOL    HW138087   4.648   0.450   8.164 -0.0549  1.4516 -0.7930
 8817SOL    HW238088   4.566   0.330   8.148  0.0224 -0.2575 -0.6431
 8818SOL     OW38089   3.621   2.750  13.915 -0.0139 -0.0383 -0.2285
 8818SOL    HW138090   3.577   2.713  13.992  1.1634  2.3230  1.5696
 8818SOL    HW238091   3.698   2.695  13.924  0.8043  1.1367 -0.1434
 8819SOL     OW38092   2.171   3.661   7.198 -0.5590 -0.3918 -0.3599
 8819SOL    HW138093   2.179   3.622   7.110 -1.4699  0.0827 -0.6468
 8819SOL    HW238094   2.204   3.579   7.236 -0.0011 -0.1794 -0.3905
 8820SOL     OW38095   1.048   1.666  17.309 -0.6220 -0.5615  0.5778
 8820SOL    HW138096   1.023   1.626  17.226 -0.9823  2.1326 -0.6028
 8820SOL    HW238097   1.136   1.693  17.284 -0.8888  1.3030  1.6609
 8821SOL     OW38098   1.026   0.577   3.026 -0.4439  0.5392  0.7181
 8821SOL    HW138099   1.083   0.571   3.103 -0.6738  0.7808  0.9080
 8821SOL    HW238100   0.976   0.496   3.036  1.3962 -0.6957 -0.2481
 8822SOL     OW38101   0.424   1.239   6.715 -0.6325 -0.4440  0.2819
 8822SOL    HW138102   0.490   1.292   6.671 -0.4652 -1.2159 -0.3899
 8822SOL    HW238103   0.449   1.247   6.807  0.3140  0.5276 -0.0588
 8823SOL     OW38104   4.148   2.735  16.691 -0.2374  0.7220 -0.0598
 8823SOL    HW138105   4.073   2.778  16.732 -2.0204  0.5476 -3.0612
 8823SOL    HW238106   4.128   2.741  16.597  3.1004 -0.7960 -0.8668
 8824SOL     OW38107   4.267   2.347   9.421  0.1630  0.4841 -0.1019
 8824SOL    HW138108   4.353   2.327   9.385  0.0012  0.1047 -0.2760
 8824SOL    HW238109   4.282   2.312   9.509  2.8416  1.0484 -0.3350
 8825SOL     OW38110   1.691   2.700   2.281  0.1294 -0.2345 -0.1881
 8825SOL    HW138111   1.638   2.620   2.274 -1.4789  0.6399  2.1138
 8825SOL    HW238112   1.621   2.764   2.271  1.2692  0.9585 -0.4437
 8826SOL     OW38113   1.211   1.885   8.640  0.3960 -0.2589  0.5733
 8826SOL    HW138114   1.137   1.827   8.658 -1.0310  1.9199  1.8423
 8826SOL    HW238115   1.230   1.903   8.732 -0.0061 -1.2507  0.8513
 8827SOL     OW38116   3.508   0.463  16.893  0.2860  0.6028  0.0077
 8827SOL    HW138117   3.481   0.534  16.951 -0.2188  1.7007 -1.5456
 8827SOL    HW238118   3.514   0.518  16.814  0.4780  0.4247 -0.1022
 8828SOL     OW38119   1.980   0.490  16.309  0.1114  0.2941  0.0377
 8828SOL    HW138120   1.954   0.456  16.394 -1.2595 -1.9640 -1.2828
 8828SOL    HW238121   1.894   0.524  16.280 -1.2010 -3.4842 -0.4363
 8829SOL     OW38122   3.138   4.641  11.271 -0.4284  0.9120  0.0469
 8829SOL    HW138123   3.129   4.556  11.314  0.6742  0.7763  0.0049
 8829SOL    HW238124   3.102   4.697  11.340 -0.0331  0.9954  0.1839
 8830SOL     OW38125   4.189   0.086  17.353  0.0577  0.3244 -0.5936
 8830SOL    HW138126   4.130   0.119  17.284 -3.5851 -1.5158  1.6591
 8830SOL    HW238127   4.189   4.726  17.350  0.8319  0.3101 -0.0249
 8831SOL     OW38128   2.692   3.436   1.734 -0.0275 -0.0283  0.4193
 8831SOL    HW138129   2.688   3.426   1.639  0.9101 -2.0315  0.5956
 8831SOL    HW238130   2.599   3.449   1.755  0.1265 -0.7583  1.6102
 8832SOL     OW38131   2.890   1.998   9.029 -0.5513 -0.2518 -0.8069
 8832SOL    HW138132   2.803   2.011   9.064 -1.6728 -2.5973 -2.6905
 8832SOL    HW238133   2.952   2.015   9.100  1.6911 -2.3648 -2.2650
 8833SOL     OW38134   2.372   0.502   7.167  0.7665  0.0544 -0.3394
 8833SOL    HW138135   2.438   0.450   7.213  0.3655 -0.6908 -0.6141
 8833SOL    HW238136   2.300   0.471   7.221 -0.3778  0.6408 -1.5411
 8834SOL     OW38137   1.821   2.835   0.460  0.3928 -0.6080 -0.4389
 8834SOL    HW138138   1.904   2.827   0.506 -0.3980 -0.1982  1.0571
 8834SOL    HW238139   1.851   2.891   0.387  0.1332  0.0330 -0.0581
 8835SOL     OW38140   4.111   3.667   8.881 -0.6563 -0.1436  0.3868
 8835SOL    HW138141   4.050   3.623   8.823  1.1618 -1.4139 -0.5424
 8835SOL    HW238142   4.052   3.734   8.916 -1.0978 -0.6991  0.6980
 8836SOL     OW38143   4.230   1.060  11.770 -0.1825 -0.3238  0.5282
 8836SOL    HW138144   4.294   0.993  11.748 -1.4866 -1.4622  0.1662
 8836SOL    HW238145   4.149   1.013  11.750 -0.7087 -0.0110  1.8974
 8837SOL     OW38146   1.305   3.864   1.300 -0.1406 -0.0950 -0.3117
 8837SOL    HW138147   1.270   3.850   1.388 -2.3968 -2.5319 -1.5625
 8837SOL    HW238148   1.399   3.875   1.315 -0.1647  0.6405 -0.7095
 8838SOL     OW38149   1.509   1.927  13.160 -0.2664 -0.1636  0.6445
 8838SOL    HW138150   1.537   1.994  13.098 -3.0842  0.4555  0.0297
 8838SOL    HW238151   1.488   1.977  13.238  1.1870 -0.7436  1.3960
 8839SOL     OW38152   0.473   3.305   8.591 -0.0187 -0.1197 -0.4467
 8839SOL    HW138153   0.494   3.354   8.671  0.6188 -2.6482  0.9210
 8839SOL    HW238154   0.496   3.373   8.528  0.1556 -0.9376 -1.2506
 8840SOL     OW38155   1.514   1.661   5.955  0.0829  0.2257  0.5118
 8840SOL    HW138156   1.579   1.609   6.003  2.1027  0.7669 -1.6522
 8840SOL    HW238157   1.474   1.706   6.030  0.1920  0.4077  0.4582
 8841SOL     OW38158   0.694   2.359   3.511 -0.3539 -0.8238 -0.4629
 8841SOL    HW138159   0.691   2.266   3.534  0.0739 -0.4795  0.9230
 8841SOL    HW238160   0.671   2.365   3.418  1.0218 -0.3174 -0.7813
 8842SOL     OW38161   2.752   4.371   1.024  0.0926  0.1478 -0.1527
 8842SOL    HW138162   2.755   4.446   0.964 -0.0375  1.7639  1.8678
 8842SOL    HW238163   2.664   4.378   1.062  0.3466 -0.8438  0.5878
 8843SOL     OW38164   3.257   3.195   7.676 -0.1591  0.3694 -0.0425
 8843SOL    HW138165   3.315   3.270   7.686  1.3534 -1.0494  1.7007
 8843SOL    HW238166   3.207   3.210   7.595  0.8851  1.6832 -0.4555
 8844SOL     OW38167   0.220   4.427   5.103  0.1510 -0.2558  0.3259
 8844SOL    HW138168   0.192   4.362   5.167  2.8312 -1.6811  0.0507
 8844SOL    HW238169   0.290   4.385   5.052  1.0856  2.6788 -0.8650
 8845SOL     OW38170   3.688   2.328  10.690 -0.1432  0.4671  0.1224
 8845SOL    HW138171   3.633   2.378  10.750 -0.7129 -1.4414  1.1737
 8845SOL    HW238172   3.620   2.282  10.642 -1.5888  2.5013  0.2175
 8846SOL     OW38173   4.294   3.510   3.282  0.3190  0.3974  0.7442
 8846SOL    HW138174   4.233   3.573   3.244  0.1759 -0.0964  0.1347
 8846SOL    HW238175   4.382   3.548   3.278 -0.3825  1.8453 -0.9736
 8847SOL     OW38176   2.963   4.689   2.682 -0.2885 -0.7259  0.0448
 8847SOL    HW138177   2.894   4.642   2.728  0.8499 -0.9200  1.5376
 8847SOL    HW238178   2.955   4.667   2.589  0.9577 -1.0321  0.0030
 8848SOL     OW38179   3.635   0.972   9.685 -0.3924 -0.1604 -0.0205
 8848SOL    HW138180   3.692   1.006   9.754 -0.3614 -1.6176  0.6827
 8848SOL    HW238181   3.662   0.881   9.700  0.6039  0.0608 -0.4587
 8849SOL     OW38182   4.011   3.985   4.862  0.5435  0.0228 -0.3193
 8849SOL    HW138183   4.006   3.891   4.881 -1.1646 -0.1873 -1.8277
 8849SOL    HW238184   4.071   4.009   4.932  0.3384 -1.9988  0.5529
 8850SOL     OW38185   0.629   3.578   6.490  0.8556 -0.0999  0.0626
 8850SOL    HW138186   0.688   3.550   6.420  0.5659 -1.1987  0.2678
 8850SOL    HW238187   0.548   3.591   6.440  0.7933  0.0187  0.1927
 8851SOL     OW38188   1.761   3.777   5.638  0.2336 -0.3099  0.0906
 8851SOL    HW138189   1.761   3.767   5.543 -1.0833  2.1731 -0.1775
 8851SOL    HW238190   1.735   3.869   5.631  0.1477 -0.3421 -0.0190
 8852SOL     OW38191   3.575   3.690   2.307  0.5453 -0.3052  0.3234
 8852SOL    HW138192   3.668   3.692   2.287  0.1795  0.6696 -1.2983
 8852SOL    HW238193   3.573   3.733   2.392 -0.1899  0.0566  0.1225
 8853SOL     OW38194   1.110   1.387   9.663  0.2645 -0.2164  0.1907
 8853SOL    HW138195   1.057   1.441   9.721 -0.0367 -1.0714  0.7114
 8853SOL    HW238196   1.056   1.352   9.592  0.5781 -1.1305  0.3936
 8854SOL     OW38197   1.608   2.467   1.655 -0.1382 -0.5903 -0.3346
 8854SOL    HW138198   1.516   2.463   1.629  0.3791 -3.9963 -1.5815
 8854SOL    HW238199   1.630   2.549   1.611  2.1226 -1.2244 -0.4136
 8855SOL     OW38200   1.647   2.781   3.673  0.0878  0.0837 -0.2599
 8855SOL    HW138201   1.738   2.767   3.647  0.3511  1.6559 -0.1998
 8855SOL    HW238202   1.620   2.868   3.643  2.0756  1.1821  1.1461
 8856SOL     OW38203   1.823   1.976   1.625  0.0156 -0.1941 -0.2252
 8856SOL    HW138204   1.768   2.052   1.646  1.1686  0.9879 -1.5084
 8856SOL    HW238205   1.909   2.018   1.622  0.5844 -1.3515 -0.2419
 8857SOL     OW38206   4.253   1.421  10.862 -0.0518  0.0700 -0.0737
 8857SOL    HW138207   4.225   1.476  10.935 -0.7649 -1.8824  1.1442
 8857SOL    HW238208   4.344   1.448  10.868  0.0419 -0.1712 -0.4009
 8858SOL     OW38209   3.463   0.326  16.612 -0.5634 -0.0864 -0.6887
 8858SOL    HW138210   3.555   0.352  16.600 -0.1594 -0.7030  1.1539
 8858SOL    HW238211   3.459   0.232  16.627  0.0671  0.1694  1.0409
 8859SOL     OW38212   3.557   1.891   7.329  0.1546 -0.6726  0.1386
 8859SOL    HW138213   3.636   1.884   7.383  0.7692 -1.3474 -0.8511
 8859SOL    HW238214   3.550   1.799   7.303 -1.1006 -0.4402 -0.3497
 8860SOL     OW38215   3.062   1.713   6.629  0.4143  0.9244  0.1358
 8860SOL    HW138216   3.082   1.688   6.719 -1.9861 -0.3588  0.3025
 8860SOL    HW238217   3.150   1.747   6.610  0.5862  1.3555  1.6706
 8861SOL     OW38218   0.873   0.362   7.289  0.3665  0.1258 -0.0349
 8861SOL    HW138219   0.796   0.311   7.263 -0.0508 -0.3920  2.2231
 8861SOL    HW238220   0.922   0.301   7.344 -1.0215 -0.6126  0.3791
 8862SOL     OW38221   2.354   0.847   8.020 -0.0563 -0.4021 -0.7210
 8862SOL    HW138222   2.368   0.753   8.031  0.9701 -0.3324 -1.4151
 8862SOL    HW238223   2.258   0.841   8.019 -0.1289  0.8317 -2.2754
 8863SOL     OW38224   1.309   0.795   2.169 -0.8566 -0.0929  0.0705
 8863SOL    HW138225   1.356   0.870   2.207  1.0192 -2.1859  1.8686
 8863SOL    HW238226   1.318   0.734   2.243 -0.4241 -0.3491 -0.1936
 8864SOL     OW38227   0.501   0.188   7.066 -0.1024  0.2363 -0.1074
 8864SOL    HW138228   0.532   0.256   7.007 -1.0871 -1.0357 -2.1353
 8864SOL    HW238229   0.566   0.184   7.136 -0.5468 -2.0332  0.1987
 8865SOL     OW38230   2.689   0.532   4.032 -0.5365 -0.6485 -0.1331
 8865SOL    HW138231   2.663   0.448   4.071 -1.2793 -1.6929 -2.8226
 8865SOL    HW238232   2.616   0.533   3.970  0.0581  0.5780 -0.8078
 8866SOL     OW38233   3.576   4.247  17.360 -0.0714  0.3932  0.4070
 8866SOL    HW138234   3.604   4.267  17.449  0.5360 -0.5616  0.4269
 8866SOL    HW238235   3.484   4.271  17.369 -0.6028 -0.9315 -1.3445
 8867SOL     OW38236   2.826   0.953   4.436 -0.2498 -0.4731  0.2110
 8867SOL    HW138237   2.812   0.863   4.467  0.4891  0.1044  2.1905
 8867SOL    HW238238   2.859   0.949   4.346  1.0816 -1.2781  0.7292
 8868SOL     OW38239   0.856   0.589   1.637  0.0347 -0.2269  0.0237
 8868SOL    HW138240   0.837   0.596   1.543  0.3540 -3.2525 -0.2790
 8868SOL    HW238241   0.950   0.607   1.639  0.3278 -2.1587  2.9982
 8869SOL     OW38242   4.074   0.240  11.720  0.2077 -0.2876  0.7283
 8869SOL    HW138243   4.040   0.329  11.707 -2.7199 -1.3361  1.0506
 8869SOL    HW238244   4.149   0.266  11.773  1.3727  0.8984 -1.5039
 8870SOL     OW38245   4.145   4.464  17.025  0.1341  0.2049  0.5256
 8870SOL    HW138246   4.158   4.539  16.967  0.0822  0.1641  0.4598
 8870SOL    HW238247   4.152   4.498  17.114  2.9601 -1.4445  0.9107
 8871SOL     OW38248   1.775   4.193  15.627  0.6402  0.7333  0.7013
 8871SOL    HW138249   1.773   4.245  15.708 -2.5795 -0.0850  1.1734
 8871SOL    HW238250   1.764   4.104  15.660 -2.2298  0.1266 -1.9799
 8872SOL     OW38251   4.669   0.496   7.683 -0.1450 -0.5991 -0.1641
 8872SOL    HW138252   4.607   0.514   7.753 -3.0903  3.1049 -3.7152
 8872SOL    HW238253   4.729   0.444   7.735  0.5561  0.3649  0.0039
 8873SOL     OW38254   1.050   0.522   7.182 -1.2271 -0.7489  0.3896
 8873SOL    HW138255   1.002   0.456   7.232 -0.4525  0.0202  2.1237
 8873SOL    HW238256   0.983   0.591   7.178 -0.5226 -0.0111  1.5864
 8874SOL     OW38257   3.331   3.960   3.274  0.3694  0.8384  0.2419
 8874SOL    HW138258   3.302   3.932   3.361 -0.3677 -0.4689 -0.4385
 8874SOL    HW238259   3.424   3.979   3.288 -0.0833  2.4632  1.1491
 8875SOL     OW38260   2.066   2.424   2.466 -0.1766 -0.3675  0.2310
 8875SOL    HW138261   2.122   2.487   2.511  0.1035 -1.1176  0.9385
 8875SOL    HW238262   2.108   2.343   2.496 -1.1512 -1.7996 -2.3019
 8876SOL     OW38263   3.954   1.147   4.031  0.2928  0.5977  0.1860
 8876SOL    HW138264   4.042   1.183   4.036  0.6502 -0.5397  1.9679
 8876SOL    HW238265   3.965   1.087   3.957  1.1075 -0.2954  1.0372
 8877SOL     OW38266   2.298   2.214   0.984  0.5093  0.0345 -0.0798
 8877SOL    HW138267   2.291   2.239   1.076  0.2716 -2.2948  0.5346
 8877SOL    HW238268   2.387   2.181   0.991 -0.1026 -0.9527  3.2905
 8878SOL     OW38269   0.067   2.617  12.939  0.3691  0.5913  1.0352
 8878SOL    HW138270   0.006   2.662  12.881  2.3917  1.1947 -0.6280
 8878SOL    HW238271   0.052   2.529  12.904 -0.7111  0.8508  0.8490
 8879SOL     OW38272   1.292   0.305   5.785 -0.6733 -0.1142  0.6701
 8879SOL    HW138273   1.284   0.373   5.718 -0.2387 -1.5834 -0.8662
 8879SOL    HW238274   1.270   0.366   5.856  2.2672 -0.3028  1.7485
 8880SOL     OW38275   0.052   0.308   5.453 -0.2257  0.2155  0.1419
 8880SOL    HW138276   0.096   0.387   5.419 -2.0416  1.3446  0.4295
 8880SOL    HW238277   0.100   0.249   5.394  0.8324 -0.0330  1.2475
 8881SOL     OW38278   0.159   2.079  13.526  0.2267 -0.4011 -0.0051
 8881SOL    HW138279   0.177   2.076  13.620 -0.9759  3.2510  0.3392
 8881SOL    HW238280   0.231   2.021  13.498 -1.2590 -0.7270 -3.1582
 8882SOL     OW38281   3.081   0.310   6.305  0.6126  0.5035  0.4559
 8882SOL    HW138282   3.021   0.292   6.377 -1.1212  2.0374 -0.6189
 8882SOL    HW238283   3.164   0.281   6.342  0.8257  1.3724  0.6697
 8883SOL     OW38284   4.411   4.425   3.033  0.4435  0.2504 -0.2458
 8883SOL    HW138285   4.345   4.479   2.989  0.5558 -1.3660 -2.4152
 8883SOL    HW238286   4.384   4.422   3.124 -3.9632 -1.2344 -1.6108
 8884SOL     OW38287   4.438   2.124   5.279  0.4946 -0.2536 -0.1087
 8884SOL    HW138288   4.513   2.068   5.257  0.8776  0.8458 -1.5679
 8884SOL    HW238289   4.463   2.202   5.230 -3.3969  0.7782 -0.4506
 8885SOL     OW38290   4.022   2.525   2.069 -0.2607  0.7683  0.0968
 8885SOL    HW138291   4.065   2.441   2.088 -0.0431  0.6502 -0.9423
 8885SOL    HW238292   3.972   2.506   1.990 -0.9232 -0.4253  0.7891
 8886SOL     OW38293   1.120   0.620   8.389  0.2791  0.0573 -0.3681
 8886SOL    HW138294   1.154   0.531   8.399 -1.0361 -0.4368 -0.3071
 8886SOL    HW238295   1.044   0.621   8.446  0.3302  0.4222 -0.3045
 8887SOL     OW38296   2.281   2.977  12.513 -0.2150 -0.4556  0.0993
 8887SOL    HW138297   2.194   3.013  12.496  0.6317  1.4691 -0.0963
 8887SOL    HW238298   2.265   2.913  12.583  0.2562  1.6694  2.1376
 8888SOL     OW38299   2.281   3.039   3.143 -0.5650 -0.3336 -0.6032
 8888SOL    HW138300   2.281   3.124   3.187 -1.6467  0.5802 -2.3606
 8888SOL    HW238301   2.211   2.995   3.191 -0.6017 -1.9788 -2.1548
 8889SOL     OW38302   2.191   0.992   0.565 -0.4626  0.5617 -0.3800
 8889SOL    HW138303   2.271   1.034   0.595 -0.7951  1.7186 -1.0751
 8889SOL    HW238304   2.227   0.933   0.499  0.0642 -0.1972  0.5991
 8890SOL     OW38305   4.062   3.233   0.253  0.0083  0.5257  0.5428
 8890SOL    HW138306   4.023   3.149   0.276 -0.8480  0.6853 -0.3601
 8890SOL    HW238307   4.147   3.221   0.296 -0.2482 -2.6527  0.1274
 8891SOL     OW38308   1.021   0.247   7.023 -0.0501 -0.6038  0.1831
 8891SOL    HW138309   1.096   0.194   6.994 -0.7193 -0.0636 -2.5404
 8891SOL    HW238310   0.973   0.182   7.074 -3.3634  1.2993 -0.5748
 8892SOL     OW38311   3.299   3.351   7.339 -0.0090  0.4334  0.1599
 8892SOL    HW138312   3.215   3.317   7.368  1.5993 -1.4764  2.4917
 8892SOL    HW238313   3.282   3.369   7.246  0.5321  2.4800  0.4633
 8893SOL     OW38314   1.612   2.961   8.423 -0.2661 -0.1512  0.0381
 8893SOL    HW138315   1.542   2.917   8.375  0.4082  0.4513 -1.4963
 8893SOL    HW238316   1.564   2.989   8.501 -1.6381 -2.1254 -0.0873
 8894SOL     OW38317   4.431   2.424   4.854 -0.0059 -0.5406  0.0260
 8894SOL    HW138318   4.451   2.335   4.824 -1.8121 -0.3576 -1.7347
 8894SOL    HW238319   4.341   2.413   4.885 -1.4365  1.6113 -3.3680
 8895SOL     OW38320   2.800   0.427   9.638  0.5793  0.3429  0.5364
 8895SOL    HW138321   2.830   0.376   9.714 -1.7084 -1.1831  0.4156
 8895SOL    HW238322   2.811   0.367   9.564  0.5831  1.0656 -0.0445
 8896SOL     OW38323   4.046   0.216  15.717 -0.1900 -0.0189 -0.7213
 8896SOL    HW138324   4.062   0.297  15.668  0.5545 -0.4245 -1.1373
 8896SOL    HW238325   3.953   0.198  15.706 -0.2507 -1.0281  1.6176
 8897SOL     OW38326   3.101   3.737   8.456  0.3995  0.6124  0.5275
 8897SOL    HW138327   3.112   3.666   8.392  2.1147  0.9777  0.4091
 8897SOL    HW238328   3.006   3.747   8.450  0.2998 -0.9507 -0.5799
 8898SOL     OW38329   0.629   3.126  16.475  0.3186  0.1684 -1.0191
 8898SOL    HW138330   0.608   3.047  16.524  0.0500 -0.6502 -2.4872
 8898SOL    HW238331   0.669   3.184  16.541 -1.6361  0.1177  0.2144
 8899SOL     OW38332   0.245   2.592   3.576 -0.8820  0.4405  0.1547
 8899SOL    HW138333   0.233   2.660   3.642  1.4386 -0.6828  1.7068
 8899SOL    HW238334   0.185   2.620   3.507 -0.9891 -0.2083 -0.0144
 8900SOL     OW38335   1.580   1.065   5.226  0.4153 -0.2082 -0.4019
 8900SOL    HW138336   1.554   1.134   5.287  1.4302  1.0784 -1.4207
 8900SOL    HW238337   1.597   1.003   5.297  0.9849 -1.2489 -1.4341
 8901SOL     OW38338   3.232   1.226   9.979  0.6239 -0.1502  0.0869
 8901SOL    HW138339   3.290   1.180   9.917  0.2066 -0.5404 -0.0118
 8901SOL    HW238340   3.149   1.256   9.943  1.0074 -0.2083 -0.8337
 8902SOL     OW38341   0.456   3.079  15.123 -0.3862 -0.4750 -0.5451
 8902SOL    HW138342   0.409   3.084  15.206  0.2495 -0.2487 -0.2014
 8902SOL    HW238343   0.400   3.025  15.067 -2.4412  0.6539  0.4133
 8903SOL     OW38344   0.922   3.771  15.138 -0.9107 -0.2091 -0.4865
 8903SOL    HW138345   0.977   3.839  15.178 -0.4800 -0.6616 -0.3176
 8903SOL    HW238346   0.868   3.823  15.079  3.0663  1.1106 -2.9588
 8904SOL     OW38347   4.269   4.597  13.384  0.1257 -0.2364 -0.1649
 8904SOL    HW138348   4.179   4.620  13.364  0.1604  1.1448  1.2923
 8904SOL    HW238349   4.277   4.517  13.332  1.1356 -0.5337  0.4359
 8905SOL     OW38350   0.138   4.048  12.809  0.5318  0.0961  0.1232
 8905SOL    HW138351   0.167   4.139  12.815 -0.1586  0.1446  2.6687
 8905SOL    HW238352   0.112   4.021  12.897  0.6654  2.7977  0.9845
 8906SOL     OW38353   1.256   0.507   4.318 -0.4377 -0.1152 -0.4796
 8906SOL    HW138354   1.280   0.452   4.243 -0.9704 -2.8665  1.3622
 8906SOL    HW238355   1.243   0.445   4.390 -1.1425 -0.6648 -1.0730
 8907SOL     OW38356   1.873   0.978   3.550  0.2727 -0.5500  0.2345
 8907SOL    HW138357   1.815   0.907   3.574  2.4029 -2.4453 -0.1857
 8907SOL    HW238358   1.879   1.015   3.638  0.3640 -1.0253  0.4274
 8908SOL     OW38359   3.229   3.443  14.278  0.3629  0.6588 -0.2619
 8908SOL    HW138360   3.301   3.395  14.320  0.7496  1.0125 -0.5269
 8908SOL    HW238361   3.168   3.370  14.273  1.0104  0.0947  0.0236
 8909SOL     OW38362   1.418   0.111  16.337  0.5100  0.0411 -0.0820
 8909SOL    HW138363   1.376   0.183  16.384  0.0165 -0.4383  0.2179
 8909SOL    HW238364   1.508   0.099  16.367  0.8175 -1.0980 -1.4715
 8910SOL     OW38365   1.700   1.311   6.607  0.4338 -0.1237 -0.6466
 8910SOL    HW138366   1.791   1.331   6.627  0.1946  1.6927 -1.3135
 8910SOL    HW238367   1.711   1.271   6.520  0.6401  0.5502 -0.9274
 8911SOL     OW38368   0.269   0.351   0.512 -0.0317 -0.3071  0.0124
 8911SOL    HW138369   0.353   0.386   0.483 -0.6132  0.2444 -0.9910
 8911SOL    HW238370   0.218   0.413   0.460  0.7753  0.3500  0.0035
 8912SOL     OW38371   1.866   3.466   8.412 -0.3243 -0.3524  0.2549
 8912SOL    HW138372   1.812   3.514   8.350  0.3369  0.9722  0.7169
 8912SOL    HW238373   1.830   3.460   8.500  0.7255 -1.0895  0.6419
 8913SOL     OW38374   0.043   2.222   9.939  0.1324  0.3631 -0.9935
 8913SOL    HW138375   0.121   2.274   9.921  0.1517  1.2779  1.7350
 8913SOL    HW238376   4.727   2.271  10.004  1.5351  1.7643 -0.9557
 8914SOL     OW38377   0.174   3.605   4.428 -0.1516 -0.5256 -0.0124
 8914SOL    HW138378   0.268   3.596   4.410 -0.2810  0.7406 -1.3043
 8914SOL    HW238379   0.156   3.527   4.481 -1.2274 -0.7914 -0.7631
 8915SOL     OW38380   2.706   0.175   9.183 -0.3416  0.3403 -0.3525
 8915SOL    HW138381   2.646   0.219   9.244  1.2580  1.8290  0.1595
 8915SOL    HW238382   2.675   0.206   9.098  0.7747 -1.7857 -1.5173
 8916SOL     OW38383   2.759   0.508   2.638  0.5207  0.4625 -0.4087
 8916SOL    HW138384   2.779   0.599   2.618  0.6609  0.7612  1.1106
 8916SOL    HW238385   2.801   0.463   2.564  0.2256 -1.1879  0.4113
 8917SOL     OW38386   0.698   1.620   6.075  0.2991  0.1336  0.0572
 8917SOL    HW138387   0.604   1.608   6.061  0.3471 -1.9318  1.5092
 8917SOL    HW238388   0.732   1.624   5.985  0.8437 -2.0496  0.1699
 8918SOL     OW38389   2.194   1.116   2.158 -0.3759 -0.3116  0.7755
 8918SOL    HW138390   2.160   1.160   2.236 -1.3329 -0.2357  0.3207
 8918SOL    HW238391   2.123   1.058   2.130 -0.9717  0.8688 -0.1514
 8919SOL     OW38392   1.211   3.839   1.550 -0.4000  0.0820 -0.2597
 8919SOL    HW138393   1.191   3.749   1.574 -0.1300 -0.3215 -1.5527
 8919SOL    HW238394   1.261   3.857   1.630 -0.2470  0.4580 -0.4391
 8920SOL     OW38395   1.773   2.272   3.237  0.2095  0.2422  0.1902
 8920SOL    HW138396   1.867   2.266   3.251  0.7961 -1.9447 -4.7271
 8920SOL    HW238397   1.744   2.263   3.328  0.2571 -2.7624 -0.1188
 8921SOL     OW38398   2.062   1.511   3.984 -0.2042  0.6752 -0.5596
 8921SOL    HW138399   1.977   1.467   3.977  0.0489 -0.5182  3.4422
 8921SOL    HW238400   2.031   1.601   3.981  1.1582  1.0961 -1.8324
 8922SOL     OW38401   2.621   4.418  16.949  0.6434 -0.1936  0.0834
 8922SOL    HW138402   2.673   4.342  16.976  1.8115  1.4445  2.4402
 8922SOL    HW238403   2.691   4.480  16.928  0.7719  0.1455  1.5043
 8923SOL     OW38404   1.238   1.185   9.819  0.3285  0.0266 -0.3778
 8923SOL    HW138405   1.242   1.235   9.900 -1.5723  0.7515 -0.7313
 8923SOL    HW238406   1.197   1.246   9.758  1.2702 -1.2089 -2.2370
 8924SOL     OW38407   3.908   0.663   3.724  0.0592 -0.3680  0.2079
 8924SOL    HW138408   3.913   0.645   3.818 -0.2469  2.2094  0.6930
 8924SOL    HW238409   3.991   0.709   3.712 -0.7336  1.0042  0.0437
 8925SOL     OW38410   2.923   1.185  15.630 -0.0351 -0.3926  0.0183
 8925SOL    HW138411   2.835   1.216  15.652  0.3591  0.8671 -0.1579
 8925SOL    HW238412   2.944   1.149  15.716  0.9314  1.3319  0.5107
 8926SOL     OW38413   4.252   2.834   5.808  0.5528  0.4029  0.0402
 8926SOL    HW138414   4.259   2.742   5.832  0.1163  0.7186  1.3867
 8926SOL    HW238415   4.287   2.880   5.884 -0.6793 -0.5317  1.1756
 8927SOL     OW38416   1.559   2.627   5.087  0.5216  0.9753 -0.5667
 8927SOL    HW138417   1.607   2.704   5.119  1.4250  0.5341 -0.8446
 8927SOL    HW238418   1.485   2.632   5.147  2.3073  0.5544  1.6482
 8928SOL     OW38419   2.165   3.562   9.091 -0.1262  0.5124 -0.0095
 8928SOL    HW138420   2.096   3.564   9.157  0.0848  0.9096  0.2062
 8928SOL    HW238421   2.236   3.506   9.124 -1.4082 -1.0761  0.0015
 8929SOL     OW38422   1.672   1.942   9.488  0.4117  0.3017 -0.0788
 8929SOL    HW138423   1.627   1.958   9.571 -0.5177 -0.8666 -0.3418
 8929SOL    HW238424   1.765   1.952   9.508  0.1746 -2.4914  2.3681
 8930SOL     OW38425   1.732   4.409   2.596 -0.3745  0.2519  0.1214
 8930SOL    HW138426   1.695   4.324   2.572 -0.3549  0.3835 -0.3625
 8930SOL    HW238427   1.824   4.393   2.579  0.0843  0.6181  2.2426
 8931SOL     OW38428   0.126   4.407   5.855 -0.4580 -0.0545 -0.6761
 8931SOL    HW138429   0.118   4.317   5.823  2.1428  0.0608 -1.6279
 8931SOL    HW238430   0.069   4.459   5.797  0.6239  0.8792 -0.9222
 8932SOL     OW38431   2.910   4.641   2.412 -0.6583  0.6705 -0.2223
 8932SOL    HW138432   2.860   4.722   2.412 -1.8969 -0.0867 -0.6898
 8932SOL    HW238433   2.944   4.644   2.322  1.5085  0.3399  0.5924
 8933SOL     OW38434   0.888   3.398   8.396  0.1591 -0.3546 -0.2489
 8933SOL    HW138435   0.831   3.471   8.373 -0.9574 -1.0068  0.4750
 8933SOL    HW238436   0.850   3.322   8.352  2.6204 -0.6385 -1.9221
 8934SOL     OW38437   2.618   1.541  16.243  0.7715  0.4967 -0.1881
 8934SOL    HW138438   2.628   1.578  16.155 -3.8311 -0.9668 -1.3260
 8934SOL    HW238439   2.531   1.570  16.270  1.2510  0.3581  1.4742
 8935SOL     OW38440   1.550   3.586  17.148  0.0768  0.0789 -0.0549
 8935SOL    HW138441   1.606   3.660  17.169  0.4358 -0.2408  0.1307
 8935SOL    HW238442   1.463   3.619  17.126 -0.1115 -0.7698 -0.6120
 8936SOL     OW38443   2.109   0.193   6.363 -0.7287 -0.1244  0.3448
 8936SOL    HW138444   2.074   0.172   6.450 -2.0784  2.7272  0.4908
 8936SOL    HW238445   2.098   0.103   6.333  2.3305  0.0307 -1.2362
 8937SOL     OW38446   1.200   0.461   5.543  0.2565 -0.2534  0.1741
 8937SOL    HW138447   1.215   0.543   5.496  0.7748  0.4114  1.4865
 8937SOL    HW238448   1.138   0.487   5.611 -0.3499  0.5475 -0.6930
 8938SOL     OW38449   4.039   3.535   4.198 -0.1307 -0.2582 -0.1075
 8938SOL    HW138450   4.090   3.605   4.239 -0.3683 -0.6918  0.9383
 8938SOL    HW238451   4.062   3.462   4.256  2.0623  0.4465 -0.1006
 8939SOL     OW38452   3.133   3.202   2.075 -0.5704  0.3418 -0.0778
 8939SOL    HW138453   3.060   3.161   2.029  1.3258 -2.9810 -0.1537
 8939SOL    HW238454   3.165   3.137   2.138 -1.1831  0.1766  0.0616
 8940SOL     OW38455   3.626   1.017  15.668  0.4461  0.1174 -0.0833
 8940SOL    HW138456   3.625   0.926  15.697 -0.7792 -0.4393 -1.8924
 8940SOL    HW238457   3.712   1.054  15.689  0.9433 -1.7760  1.1557
 8941SOL     OW38458   2.518   2.747  11.867  0.1979  0.0404  0.0365
 8941SOL    HW138459   2.491   2.794  11.946 -0.8911 -1.2760  0.4471
 8941SOL    HW238460   2.495   2.817  11.805  0.3997  0.2464  0.1976
 8942SOL     OW38461   0.106   4.660   7.412 -0.1821 -0.2681  0.0650
 8942SOL    HW138462   0.141   4.619   7.490  1.9522  0.2397 -0.6297
 8942SOL    HW238463   0.070   4.581   7.371 -0.8110 -0.6092  1.2630
 8943SOL     OW38464   0.234   0.983   7.671  0.5281 -0.7258  0.0224
 8943SOL    HW138465   0.231   0.892   7.641  0.9026 -0.8140  0.2525
 8943SOL    HW238466   0.235   1.035   7.591 -2.6766  0.5462  0.8078
 8944SOL     OW38467   1.560   0.311   1.654 -0.2502 -0.0117 -0.1299
 8944SOL    HW138468   1.591   0.399   1.632  1.4041 -1.1113 -2.1301
 8944SOL    HW238469   1.514   0.275   1.578 -1.2982 -0.1330  0.5636
 8945SOL     OW38470   1.699   1.341  11.852 -0.1789 -0.5252 -0.0207
 8945SOL    HW138471   1.772   1.392  11.887  0.5614 -1.7399  0.2080
 8945SOL    HW238472   1.684   1.294  11.934 -0.6882  0.4661  0.4502
 8946SOL     OW38473   3.728   3.089   1.830 -0.3195  0.0651 -0.3644
 8946SOL    HW138474   3.765   3.033   1.899  0.6941 -1.0455 -1.8199
 8946SOL    HW238475   3.633   3.076   1.840 -0.6498  3.3829  0.9092
 8947SOL     OW38476   1.643   3.542   3.724 -0.1985  0.0346  0.0148
 8947SOL    HW138477   1.584   3.595   3.670 -0.5725 -2.2224 -1.7784
 8947SOL    HW238478   1.729   3.576   3.699  0.6324 -1.4766  0.8347
 8948SOL     OW38479   3.882   1.094   1.970  0.1560 -0.4590  0.1248
 8948SOL    HW138480   3.829   1.070   2.046  0.8284 -0.1661  0.6803
 8948SOL    HW238481   3.903   1.186   1.984  0.5709 -0.3414 -1.2459
 8949SOL     OW38482   2.789   1.966   4.609  0.6482  0.1731  0.5363
 8949SOL    HW138483   2.744   2.001   4.686 -0.0663  0.4229 -0.0014
 8949SOL    HW238484   2.878   1.939   4.631  0.6489 -1.4525 -1.4548
 8950SOL     OW38485   0.095   2.239  14.276 -0.1673  0.4566  0.7917
 8950SOL    HW138486   0.012   2.272  14.311 -1.7977 -0.3594 -2.2527
 8950SOL    HW238487   0.077   2.266  14.186 -1.1229  0.7172  1.0556
 8951SOL     OW38488   0.209   1.615  10.963  0.1546  0.1764  0.0251
 8951SOL    HW138489   0.156   1.694  10.960 -3.4957 -2.1798  1.5250
 8951SOL    HW238490   0.144   1.544  10.956  1.2725 -0.8654  0.2733
 8952SOL     OW38491   2.259   4.198   9.292 -0.0111  0.1439  0.3229
 8952SOL    HW138492   2.200   4.229   9.223 -1.8222  1.1292  2.3081
 8952SOL    HW238493   2.204   4.157   9.359  1.0818  0.3901  1.3660
 8953SOL     OW38494   3.460   1.882   4.383 -0.0659  0.0210  0.4446
 8953SOL    HW138495   3.496   1.847   4.302 -1.1958 -1.6201  0.6498
 8953SOL    HW238496   3.504   1.819   4.441 -0.4958  1.1277  1.9750
 8954SOL     OW38497   3.443   2.489   2.279 -0.8132  0.9304  0.0998
 8954SOL    HW138498   3.396   2.477   2.197 -1.6183 -0.4136  0.7516
 8954SOL    HW238499   3.494   2.566   2.252 -0.1944 -0.1636 -1.8691
 8955SOL     OW38500   1.592   0.050  15.158  0.3241  0.3602  0.0801
 8955SOL    HW138501   1.498   0.061  15.171 -0.5467 -2.0209 -4.1058
 8955SOL    HW238502   1.591   4.719  15.089  1.8092  1.5376 -1.0805
 8956SOL     OW38503   2.994   0.328   9.204 -0.2987 -0.1162 -0.5960
 8956SOL    HW138504   2.948   0.412   9.197  0.4687  0.4280  1.0490
 8956SOL    HW238505   2.918   0.274   9.227 -0.3084 -0.6722 -1.9471
 8957SOL     OW38506   2.347   3.102   2.532  0.3812 -0.1208 -0.4668
 8957SOL    HW138507   2.394   3.119   2.614  0.5163 -2.9359  0.0451
 8957SOL    HW238508   2.273   3.057   2.574 -0.4282  0.8296 -0.8894
 8958SOL     OW38509   2.629   2.834   9.029 -0.1479  0.6282 -0.4624
 8958SOL    HW138510   2.552   2.860   8.979  1.3895 -0.2854 -3.3073
 8958SOL    HW238511   2.642   2.903   9.094 -0.1317  0.7003 -0.5417
 8959SOL     OW38512   3.679   0.940   3.858  0.2966 -0.1086  0.0889
 8959SOL    HW138513   3.639   1.015   3.903  1.6461  0.1868  0.7887
 8959SOL    HW238514   3.739   0.983   3.797 -2.3945  0.3516 -2.2328
 8960SOL     OW38515   1.390   2.458  10.901 -0.0650 -0.1770 -0.0174
 8960SOL    HW138516   1.470   2.440  10.951  0.4032  1.4286 -0.1993
 8960SOL    HW238517   1.334   2.396  10.948  1.6450 -0.6330  1.4231
 8961SOL     OW38518   1.428   2.457   3.420  0.4883  0.6689 -0.0982
 8961SOL    HW138519   1.379   2.518   3.365  0.7910  0.7962 -0.2244
 8961SOL    HW238520   1.388   2.371   3.405  0.1381  0.8073  0.0385
 8962SOL     OW38521   1.650   3.721   4.012 -0.1044  0.3817 -0.1951
 8962SOL    HW138522   1.745   3.728   4.023  0.0384  1.4628 -2.2034
 8962SOL    HW238523   1.626   3.671   4.091  1.3539 -0.9454 -0.5732
 8963SOL     OW38524   0.655   4.401   3.162  0.3547  0.1091 -0.6021
 8963SOL    HW138525   0.718   4.345   3.209 -2.5289 -0.7598  2.2761
 8963SOL    HW238526   0.650   4.356   3.078 -1.4035  0.6665 -0.7898
 8964SOL     OW38527   3.488   4.619   1.946  0.0997 -0.3315 -0.0084
 8964SOL    HW138528   3.452   4.707   1.935 -2.1080 -1.0448  1.5217
 8964SOL    HW238529   3.578   4.649   1.935 -0.0949  0.6708  1.1031
 8965SOL     OW38530   1.426   2.029   8.583 -0.2797  0.2669 -0.3189
 8965SOL    HW138531   1.389   2.113   8.611  1.5925  0.6704  0.9821
 8965SOL    HW238532   1.352   1.973   8.561  0.2781 -0.5422 -0.1228
 8966SOL     OW38533   2.135   3.887   4.085 -0.6105  0.4417 -0.1221
 8966SOL    HW138534   2.096   3.898   4.172  0.7798  0.4170  0.5003
 8966SOL    HW238535   2.227   3.867   4.101 -0.9220  0.0568  1.1668
 8967SOL     OW38536   2.595   2.018   5.206 -0.4555 -0.3923  0.4164
 8967SOL    HW138537   2.517   2.017   5.151 -0.6835 -1.8145  0.7505
 8967SOL    HW238538   2.623   2.109   5.206  0.6378 -0.7264  2.6810
 8968SOL     OW38539   2.746   2.042  13.292 -0.4703  0.2948  0.0035
 8968SOL    HW138540   2.681   2.030  13.362  0.4276  1.2218  0.9840
 8968SOL    HW238541   2.820   1.992  13.326 -0.2288  2.3782  2.5633
 8969SOL     OW38542   2.084   4.402   6.956 -0.2923  0.4164  0.1606
 8969SOL    HW138543   2.159   4.350   6.927 -0.5797  1.0261 -1.6642
 8969SOL    HW238544   2.113   4.491   6.936  0.3853  0.2322  0.3150
 8970SOL     OW38545   0.629   2.085   3.927  0.2327 -0.4467 -0.5430
 8970SOL    HW138546   0.639   2.102   4.021  2.1453 -0.8041 -0.6759
 8970SOL    HW238547   0.547   2.036   3.933 -0.1560  0.0755 -1.7686
 8971SOL     OW38548   0.110   1.229   1.645  0.0849  0.1615 -0.3362
 8971SOL    HW138549   0.146   1.141   1.654 -2.2747 -0.8642 -0.9838
 8971SOL    HW238550   0.052   1.215   1.570  0.0784  0.5377 -0.4023
 8972SOL     OW38551   2.382   0.526  13.942  0.3815  0.0653 -0.1534
 8972SOL    HW138552   2.467   0.511  13.982 -0.1426 -0.9238  0.5930
 8972SOL    HW238553   2.404   0.572  13.861 -2.1386 -1.3418 -1.6631
 8973SOL     OW38554   4.093   2.478   9.192 -0.1094  0.1039  0.3878
 8973SOL    HW138555   4.142   2.553   9.160 -1.8147  0.7985 -0.6110
 8973SOL    HW238556   4.106   2.482   9.286  0.1867 -2.3757  0.4530
 8974SOL     OW38557   2.152   4.257   4.801 -0.2055 -0.1338  0.3279
 8974SOL    HW138558   2.088   4.186   4.793 -0.8250  0.1381  2.8021
 8974SOL    HW238559   2.184   4.237   4.889 -2.4573 -3.0135  0.4715
 8975SOL     OW38560   4.302   3.384   7.651  0.6698  0.4261  0.3483
 8975SOL    HW138561   4.385   3.431   7.661  0.6064  0.8043 -0.8489
 8975SOL    HW238562   4.254   3.441   7.592 -0.1022 -0.1572  0.4162
 8976SOL     OW38563   1.228   1.298  12.333 -0.2805 -0.2500 -0.3255
 8976SOL    HW138564   1.262   1.259  12.252  1.5255 -2.5431  1.5644
 8976SOL    HW238565   1.140   1.262  12.334 -0.6519  0.6370 -0.5164
 8977SOL     OW38566   3.498   4.438   4.733 -0.2531  0.3069 -0.3191
 8977SOL    HW138567   3.586   4.405   4.718  0.9351  1.7868  3.5394
 8977SOL    HW238568   3.521   4.523   4.770 -1.6280  1.1873 -1.4726
 8978SOL     OW38569   0.868   1.402   8.720  0.2562  0.1130  0.0049
 8978SOL    HW138570   0.819   1.447   8.789  0.0776 -3.2328  2.0757
 8978SOL    HW238571   0.939   1.359   8.768  0.0405  0.2926  0.4819
 8979SOL     OW38572   3.543   0.257   7.036  0.2928 -0.7028 -0.0188
 8979SOL    HW138573   3.568   0.208   7.115  0.2122 -0.4780  0.1464
 8979SOL    HW238574   3.498   0.324   7.088  0.6660 -0.2605 -0.2688
 8980SOL     OW38575   4.041   1.629   4.778 -0.7403  0.5877 -0.1743
 8980SOL    HW138576   4.058   1.554   4.834 -2.0342  0.0994 -0.4330
 8980SOL    HW238577   4.118   1.612   4.724  0.8299  0.3911  2.1618
 8981SOL     OW38578   0.290   0.129   4.386  0.3651  0.5973  0.1954
 8981SOL    HW138579   0.355   0.196   4.404  1.6666 -0.6760  0.2081
 8981SOL    HW238580   0.224   0.184   4.343  0.7476  1.7692  1.1130
 8982SOL     OW38581   3.134   0.128   2.855  0.3117 -0.0139  0.1768
 8982SOL    HW138582   3.182   0.059   2.901 -1.0486  0.3577  2.1790
 8982SOL    HW238583   3.140   0.091   2.767 -0.6042  1.2990 -0.4401
 8983SOL     OW38584   3.918   2.004  14.612 -0.5898  0.3356 -0.2370
 8983SOL    HW138585   3.916   1.972  14.522 -0.0778  0.1029 -0.1658
 8983SOL    HW238586   3.937   1.924  14.660 -2.2766 -0.1779 -0.4189
 8984SOL     OW38587   1.184   1.040  11.591 -0.1955 -0.1974 -0.3857
 8984SOL    HW138588   1.093   1.014  11.606 -0.2355  0.3212  0.2548
 8984SOL    HW238589   1.222   0.972  11.536  2.3190  0.4211  0.5328
 8985SOL     OW38590   3.335   1.818   9.445 -0.0992  0.2317 -0.1347
 8985SOL    HW138591   3.428   1.835   9.435 -0.0885  1.2462  1.5689
 8985SOL    HW238592   3.314   1.797   9.354  3.4328  1.1205 -1.1525
 8986SOL     OW38593   4.233   2.555   7.043 -0.2938 -0.0362 -0.3525
 8986SOL    HW138594   4.151   2.549   6.993  0.6196 -0.5836 -1.7739
 8986SOL    HW238595   4.286   2.488   6.999 -0.1124 -0.4856  0.5590
 8987SOL     OW38596   3.917   0.974   9.161 -0.0799 -0.0887  0.5377
 8987SOL    HW138597   3.904   0.987   9.255  2.6921  0.2967  0.8590
 8987SOL    HW238598   3.838   0.926   9.136  0.0911 -0.1805  0.1787
 8988SOL     OW38599   3.084   3.264  13.954  0.1987 -0.0934  0.0507
 8988SOL    HW138600   3.092   3.171  13.975  0.4588  0.2078  1.2981
 8988SOL    HW238601   3.062   3.289  14.044 -2.4980  0.3392 -0.7429
 8989SOL     OW38602   2.311   3.065   7.904  0.4554 -0.5240  0.0124
 8989SOL    HW138603   2.398   3.030   7.884  0.5650 -0.2288 -0.0324
 8989SOL    HW238604   2.333   3.157   7.889  1.9557 -1.3818 -3.1468
 8990SOL     OW38605   3.873   0.327   3.198  0.3233 -0.1045 -0.0459
 8990SOL    HW138606   3.801   0.353   3.141  1.0662 -0.0765 -0.9587
 8990SOL    HW238607   3.843   0.239   3.224 -2.7061  0.6186 -1.0711
 8991SOL     OW38608   2.599   4.197   6.757 -0.3276 -0.5699 -0.0341
 8991SOL    HW138609   2.516   4.244   6.749 -0.3104 -0.7230 -1.0692
 8991SOL    HW238610   2.582   4.134   6.687 -1.3432  0.7912 -1.0191
 8992SOL     OW38611   0.227   3.059   2.689 -0.2057  0.1972  0.1160
 8992SOL    HW138612   0.184   3.144   2.682  1.8688  1.0488 -2.0380
 8992SOL    HW238613   0.186   3.012   2.762 -1.5866  2.7096  0.9604
 8993SOL     OW38614   4.599   4.617   7.598 -0.1091  0.2404 -0.1996
 8993SOL    HW138615   4.553   4.624   7.514  0.5399 -0.3568 -0.6046
 8993SOL    HW238616   4.621   4.707   7.619  0.2867  0.4421 -1.5156
 8994SOL     OW38617   3.292   3.085  11.627 -0.2244 -0.2458  0.0109
 8994SOL    HW138618   3.383   3.114  11.622 -0.5070  0.7001  0.3819
 8994SOL    HW238619   3.285   3.097  11.722 -1.2831  0.2502 -0.1246
 8995SOL     OW38620   3.365   1.940   7.552  0.4439  0.3518 -0.5416
 8995SOL    HW138621   3.401   1.931   7.464  0.4563 -2.3898 -0.2464
 8995SOL    HW238622   3.438   1.958   7.611  0.3853 -2.2474  0.2937
 8996SOL     OW38623   4.285   3.671   3.714 -0.2004 -0.4627 -0.3118
 8996SOL    HW138624   4.237   3.610   3.658 -0.3377  0.2478 -0.9528
 8996SOL    HW238625   4.226   3.745   3.703 -0.9426 -1.1877 -1.2596
 8997SOL     OW38626   1.630   1.273   5.833  0.3208  0.3107 -0.0458
 8997SOL    HW138627   1.682   1.323   5.896  0.2899  0.3208 -0.0286
 8997SOL    HW238628   1.686   1.273   5.755  0.2434  1.8973 -0.0990
 8998SOL     OW38629   1.230   2.393   9.466 -0.3899  0.0239 -0.1705
 8998SOL    HW138630   1.318   2.369   9.497 -0.4484 -0.5629 -0.4493
 8998SOL    HW238631   1.198   2.303   9.464  0.9934 -0.4782 -0.2171
 8999SOL     OW38632   4.052   3.976   9.784 -0.0532  0.6436 -0.0731
 8999SOL    HW138633   3.990   4.016   9.845 -0.0222  1.2496 -0.4393
 8999SOL    HW238634   4.026   4.011   9.699 -1.4449  2.3047  1.0361
 9000SOL     OW38635   2.891   4.358  12.235 -0.1943 -0.1282 -0.5028
 9000SOL    HW138636   2.980   4.382  12.210 -0.4388  2.5657  1.2343
 9000SOL    HW238637   2.880   4.310  12.153 -2.0833 -0.8528  0.1734
 9001SOL     OW38638   2.635   1.628   5.016  0.6092  0.5531  0.5444
 9001SOL    HW138639   2.605   1.596   5.100 -0.9511 -2.3440 -1.1125
 9001SOL    HW238640   2.686   1.701   5.053  1.8153  0.2492 -0.5024
 9002SOL     OW38641   1.470   2.212  10.191 -0.0328  0.1119 -0.5303
 9002SOL    HW138642   1.426   2.165  10.262  1.0442  1.4856  1.0583
 9002SOL    HW238643   1.551   2.225  10.240 -1.4452  0.2080  1.7536
 9003SOL     OW38644   3.030   0.588   8.359  0.3306 -0.6196 -0.2522
 9003SOL    HW138645   3.069   0.648   8.296 -0.2296 -0.4444 -0.4340
 9003SOL    HW238646   2.992   0.519   8.305  0.2490  0.0541 -1.0524
 9004SOL     OW38647   2.372   3.900   4.210  0.0070  0.6069 -0.3200
 9004SOL    HW138648   2.431   3.872   4.279 -0.2394  1.1592  0.1167
 9004SOL    HW238649   2.441   3.908   4.144  0.2095  0.3268 -0.1377
 9005SOL     OW38650   4.190   0.845   9.157  0.4924 -0.3904 -0.6343
 9005SOL    HW138651   4.096   0.860   9.145  1.2424  3.3984 -1.7232
 9005SOL    HW238652   4.217   0.936   9.165 -2.7287  0.4129  1.1978
 9006SOL     OW38653   3.113   1.651   5.841  0.0174  0.0372 -0.2700
 9006SOL    HW138654   3.141   1.560   5.829 -0.3372 -0.2288  0.8909
 9006SOL    HW238655   3.129   1.693   5.757 -0.1989 -0.4766 -0.5699
 9007SOL     OW38656   2.100   1.586   1.338 -0.1405  0.0513  0.3934
 9007SOL    HW138657   2.066   1.675   1.334  2.7144  1.1362  0.1582
 9007SOL    HW238658   2.036   1.556   1.273 -0.2151  0.8729  0.0845
 9008SOL     OW38659   0.362   3.131   4.354 -0.3107 -0.0026  0.4507
 9008SOL    HW138660   0.310   3.062   4.313 -1.0419  0.1393  1.1415
 9008SOL    HW238661   0.297   3.164   4.416 -0.2806  1.4545 -0.3043
 9009SOL     OW38662   4.505   3.408   7.834 -0.1163  0.0962 -0.3592
 9009SOL    HW138663   4.483   3.500   7.850 -0.4330 -0.0649  0.1079
 9009SOL    HW238664   4.453   3.361   7.899 -1.0889 -0.3882 -1.4893
 9010SOL     OW38665   1.088   3.587   5.442  1.3815 -0.0317 -0.2215
 9010SOL    HW138666   1.066   3.575   5.349  3.6658  0.5562 -0.8620
 9010SOL    HW238667   1.136   3.671   5.441  1.1564  0.0815 -1.4343
 9011SOL     OW38668   3.839   4.038   5.767  0.7978  0.2075  0.8562
 9011SOL    HW138669   3.929   4.038   5.735  0.5934 -1.0833  0.2610
 9011SOL    HW238670   3.816   4.130   5.778 -0.9505 -0.1246 -0.0879
 9012SOL     OW38671   1.837   0.190   4.647 -0.3473 -0.0977 -0.2804
 9012SOL    HW138672   1.845   0.099   4.677  1.6672 -0.1477 -0.9646
 9012SOL    HW238673   1.915   0.237   4.676 -2.1031  0.5815  3.4184
 9013SOL     OW38674   2.709   0.911   9.769  0.2785 -0.2923  0.5970
 9013SOL    HW138675   2.769   0.972   9.812  1.2080 -1.0093  0.3133
 9013SOL    HW238676   2.747   0.834   9.812  1.0020 -0.7767 -0.9107
 9014SOL     OW38677   3.112   1.820   7.609 -0.2592  0.3596  0.4048
 9014SOL    HW138678   3.185   1.869   7.571 -1.7962  3.3510  1.3616
 9014SOL    HW238679   3.095   1.757   7.539 -2.1056  0.7795  0.4958
 9015SOL     OW38680   3.972   0.373   0.601  0.3569  0.2235 -0.0464
 9015SOL    HW138681   3.905   0.433   0.568 -0.4320  0.4696  2.0266
 9015SOL    HW238682   3.947   0.333   0.685  0.4158 -0.6486 -0.4362
 9016SOL     OW38683   1.296   4.247  17.254 -0.2122 -0.1407 -0.8033
 9016SOL    HW138684   1.224   4.186  17.235  1.9114 -3.1480  0.9160
 9016SOL    HW238685   1.307   4.240  17.348 -1.1220  1.3347 -0.5886
 9017SOL     OW38686   2.880   4.711   8.901  0.4954  0.1779 -0.4574
 9017SOL    HW138687   2.849   4.713   8.991 -0.8658 -1.4379 -0.8878
 9017SOL    HW238688   2.826   4.639   8.869 -0.7045  1.7168 -1.8660
 9018SOL     OW38689   1.684   1.967   5.421  0.5718 -1.2116 -0.3182
 9018SOL    HW138690   1.736   2.047   5.412 -1.5321  0.5272  3.0594
 9018SOL    HW238691   1.603   2.003   5.384  0.1981 -2.6724 -0.9324
 9019SOL     OW38692   4.148   2.070  13.344  0.1273 -0.2880  0.1115
 9019SOL    HW138693   4.151   2.047  13.251 -1.7173 -0.6435  0.1295
 9019SOL    HW238694   4.186   2.157  13.347  0.7650 -0.5542 -0.2441
 9020SOL     OW38695   3.271   1.911   7.184 -0.0370 -0.6328 -0.1381
 9020SOL    HW138696   3.234   1.998   7.198  0.7356 -0.5501  1.3720
 9020SOL    HW238697   3.267   1.871   7.271 -0.0461  2.1184  1.1286
 9021SOL     OW38698   3.447   0.411   8.986  0.2973 -0.0594  0.9297
 9021SOL    HW138699   3.364   0.376   9.017 -1.0947  1.2842 -1.2360
 9021SOL    HW238700   3.470   0.460   9.065 -0.0981  1.2445  0.2369
 9022SOL     OW38701   1.259   2.238   2.745 -0.7710 -0.2738  0.0022
 9022SOL    HW138702   1.298   2.313   2.701 -0.8040  0.4612  1.2095
 9022SOL    HW238703   1.335   2.183   2.765 -1.1391 -0.7229  0.1718
 9023SOL     OW38704   3.668   2.866   3.950 -0.2013 -0.0418 -0.3035
 9023SOL    HW138705   3.689   2.921   3.875  1.9054 -0.9498 -0.3687
 9023SOL    HW238706   3.581   2.835   3.926  0.0782 -0.6823 -0.4775
 9024SOL     OW38707   0.313   1.281  12.487 -0.2995  0.1325  0.3776
 9024SOL    HW138708   0.305   1.344  12.558 -4.0151 -0.7599  0.7236
 9024SOL    HW238709   0.220   1.265  12.476 -0.4007  1.2480 -0.4449
 9025SOL     OW38710   3.138   0.374   4.454  0.3765  0.0012  0.4698
 9025SOL    HW138711   3.155   0.468   4.450  1.0673 -0.1010  1.1026
 9025SOL    HW238712   3.227   0.342   4.438  0.2107 -0.4413  0.4172
 9026SOL     OW38713   0.880   4.527   3.774  0.0326  0.5787 -0.2144
 9026SOL    HW138714   0.829   4.479   3.840 -0.5211 -0.3733 -1.3164
 9026SOL    HW238715   0.805   4.575   3.739  0.0613  3.2343  3.3839
 9027SOL     OW38716   2.437   2.600   5.647  0.4191 -0.2029 -0.5169
 9027SOL    HW138717   2.425   2.691   5.620 -1.5402 -0.7563 -1.4741
 9027SOL    HW238718   2.353   2.565   5.618  0.4229 -0.7305  0.1130
 9028SOL     OW38719   0.199   3.060   7.648  0.7030  0.4389  0.4589
 9028SOL    HW138720   0.250   3.139   7.668 -0.9666  1.2217  1.6085
 9028SOL    HW238721   0.111   3.086   7.676 -0.1269 -1.8102 -0.0455
 9029SOL     OW38722   1.620   1.201  12.075  0.0414  0.0323 -0.0156
 9029SOL    HW138723   1.545   1.260  12.070 -0.8960 -1.2401 -0.7680
 9029SOL    HW238724   1.626   1.182  12.169  0.7699  1.5225  0.2504
 9030SOL     OW38725   3.223   4.500   4.341 -0.4526  0.2524 -0.5230
 9030SOL    HW138726   3.279   4.575   4.319  0.4288  0.1716  1.4994
 9030SOL    HW238727   3.261   4.427   4.292 -0.7015 -0.5499  0.5030
 9031SOL     OW38728   2.857   0.324   5.359 -0.1362 -0.2288  0.6147
 9031SOL    HW138729   2.910   0.263   5.410 -2.4686 -1.3950  1.6007
 9031SOL    HW238730   2.923   0.393   5.349 -0.3819  0.0213  0.7240
 9032SOL     OW38731   4.152   2.521  17.423  0.0370 -0.3601 -0.2483
 9032SOL    HW138732   4.215   2.460  17.384 -0.4483 -0.7280 -0.4603
 9032SOL    HW238733   4.075   2.465  17.433 -1.1323  0.7178 -3.2882
 9033SOL     OW38734   2.081   3.682   7.581  0.0637  0.0897 -0.3931
 9033SOL    HW138735   2.019   3.645   7.645 -1.2209  1.4153 -0.8692
 9033SOL    HW238736   2.114   3.600   7.545  0.9299  0.9894 -1.6427
 9034SOL     OW38737   4.493   1.316   2.540  0.1324  0.3169  0.4950
 9034SOL    HW138738   4.483   1.355   2.453  0.5227 -1.4550 -0.3355
 9034SOL    HW238739   4.417   1.257   2.540  0.1284  0.3230  0.7439
 9035SOL     OW38740   3.045   4.117   8.345  0.1201 -0.5973 -0.0486
 9035SOL    HW138741   2.991   4.166   8.283 -0.0412  0.5529  1.0087
 9035SOL    HW238742   2.980   4.076   8.402 -0.8226  0.2090 -0.5679
 9036SOL     OW38743   3.762   2.075   4.029  0.4239 -0.2495 -0.1281
 9036SOL    HW138744   3.820   2.044   4.099  1.0260 -0.9876 -0.9496
 9036SOL    HW238745   3.817   2.143   3.988  0.3934 -0.1907 -0.0708
 9037SOL     OW38746   2.491   2.314   5.980  0.3316 -0.5755 -0.1705
 9037SOL    HW138747   2.561   2.339   6.040 -0.6433  1.1517  0.2162
 9037SOL    HW238748   2.468   2.230   6.020  1.3839  0.5322  2.7672
 9038SOL     OW38749   4.721   3.603   3.115 -0.1343 -0.2422 -0.5071
 9038SOL    HW138750   0.072   3.607   3.156 -0.2023  1.1376 -0.5140
 9038SOL    HW238751   0.011   3.604   3.023  1.5211 -0.4322 -0.0636
 9039SOL     OW38752   2.035   0.546   4.834 -0.5853  0.3706  0.0084
 9039SOL    HW138753   2.066   0.632   4.862  0.1053  0.5799 -1.3521
 9039SOL    HW238754   2.109   0.491   4.860 -2.8098 -2.3652  0.5259
 9040SOL     OW38755   1.537   0.398   4.071 -0.1627  0.1868  0.0690
 9040SOL    HW138756   1.622   0.361   4.048 -0.6591 -0.1049 -1.3545
 9040SOL    HW238757   1.562   0.427   4.158 -1.8570  0.8974  0.3260
 9041SOL     OW38758   1.157   3.810   3.581  0.4356 -0.2663  0.1782
 9041SOL    HW138759   1.098   3.737   3.597  1.3655 -1.4587 -1.7784
 9041SOL    HW238760   1.185   3.830   3.671 -0.7913  0.0665  0.4771
 9042SOL     OW38761   0.454   3.249   5.051  0.3239 -0.0019  0.0492
 9042SOL    HW138762   0.371   3.225   5.092 -0.7898  1.0626 -1.5460
 9042SOL    HW238763   0.426   3.307   4.980 -1.8262 -0.7398  0.2904
 9043SOL     OW38764   0.458   1.994   6.911 -0.0021  0.6248 -0.0561
 9043SOL    HW138765   0.552   1.985   6.923 -0.3555 -1.3470  1.2165
 9043SOL    HW238766   0.452   1.928   6.841 -0.3306  0.6380 -0.0417
 9044SOL     OW38767   2.817   1.139  12.146  0.1631  0.0311  0.0043
 9044SOL    HW138768   2.795   1.169  12.058  0.6047 -0.9530 -0.4459
 9044SOL    HW238769   2.898   1.187  12.165  0.0117  1.4271 -2.8822
 9045SOL     OW38770   1.763   1.594   5.712 -0.4866 -0.6068 -0.2786
 9045SOL    HW138771   1.728   1.651   5.780  0.3236  1.6746 -1.7640
 9045SOL    HW238772   1.726   1.642   5.638  4.1113  2.8651 -0.3523
 9046SOL     OW38773   3.343   4.190   2.598  0.0475  0.0680  0.2185
 9046SOL    HW138774   3.294   4.174   2.517 -2.4593 -0.8901  1.9245
 9046SOL    HW238775   3.329   4.109   2.646  0.5365 -0.6091 -0.7874
 9047SOL     OW38776   1.249   2.905   2.242 -0.2819  0.0649  0.0890
 9047SOL    HW138777   1.213   2.904   2.153  0.4998  0.4987 -0.2353
 9047SOL    HW238778   1.215   2.826   2.283  1.4488 -1.8973 -2.1921
 9048SOL     OW38779   0.812   3.432   3.679 -0.5081  0.2372 -0.0622
 9048SOL    HW138780   0.831   3.405   3.769 -2.6607 -1.2417 -0.0461
 9048SOL    HW238781   0.820   3.345   3.640 -1.0255 -0.2068  0.8350
 9049SOL     OW38782   3.162   4.337   5.531  0.4700 -0.0077  0.3497
 9049SOL    HW138783   3.201   4.387   5.460 -0.0590  3.0720  2.2220
 9049SOL    HW238784   3.216   4.368   5.604  2.3042 -0.9902 -0.5956
 9050SOL     OW38785   4.280   0.191   5.450  0.4729  0.6861  0.7762
 9050SOL    HW138786   4.354   0.244   5.477  0.9428 -0.2809  1.4149
 9050SOL    HW238787   4.248   0.248   5.381  0.7220  0.0391  0.1232
 9051SOL     OW38788   0.591   2.674  11.397 -0.1658  0.2425  0.6488
 9051SOL    HW138789   0.549   2.739  11.453 -0.8670  0.8197 -0.5525
 9051SOL    HW238790   0.663   2.648  11.454  1.0652  0.3808 -0.8667
 9052SOL     OW38791   3.951   3.315   4.410 -0.6501  0.6886  0.6012
 9052SOL    HW138792   4.010   3.324   4.484 -0.0235  1.4600  0.0130
 9052SOL    HW238793   3.874   3.347   4.457 -0.6968 -1.9326  2.3118
 9053SOL     OW38794   0.921   3.095  17.024  0.1662 -0.1748  0.2412
 9053SOL    HW138795   0.868   3.060  17.095 -0.2908 -0.4336 -0.2246
 9053SOL    HW238796   0.863   3.077  16.950 -1.8706  2.3455  1.2306
 9054SOL     OW38797   2.490   3.516   2.292  0.3733 -0.1613 -0.2218
 9054SOL    HW138798   2.442   3.436   2.312 -2.7042  1.2316 -1.9535
 9054SOL    HW238799   2.533   3.481   2.214 -0.4120 -1.2271 -0.1798
 9055SOL     OW38800   4.052   1.253  15.291  0.1914 -0.0707  0.0991
 9055SOL    HW138801   4.143   1.227  15.276  0.9364  3.3227 -1.1110
 9055SOL    HW238802   4.052   1.346  15.270 -1.5245 -0.1575 -0.2659
 9056SOL     OW38803   4.530   3.253   1.897  0.2172 -0.2036  0.1208
 9056SOL    HW138804   4.439   3.267   1.924  0.0893  0.4752 -0.6623
 9056SOL    HW238805   4.543   3.189   1.967  1.4786 -0.5303 -0.4278
 9057SOL     OW38806   1.881   1.761  11.939  0.6045  0.1265  0.0963
 9057SOL    HW138807   1.896   1.671  11.911 -0.8218  0.2524 -1.1292
 9057SOL    HW238808   1.807   1.785  11.882  1.7258  1.4461 -0.7984
 9058SOL     OW38809   4.225   0.340   5.999 -0.1749  0.2633 -0.5214
 9058SOL    HW138810   4.141   0.331   6.042  1.3080 -1.4688  1.9935
 9058SOL    HW238811   4.222   0.429   5.964  0.0775  0.9735  1.2879
 9059SOL     OW38812   1.463   2.942   6.501  0.3754 -0.0508 -0.1827
 9059SOL    HW138813   1.393   2.997   6.466 -1.2167 -0.4723  2.3540
 9059SOL    HW238814   1.458   2.873   6.435 -1.5249 -1.7990  1.8080
 9060SOL     OW38815   4.656   3.155   6.767  0.1686  0.2662  0.0810
 9060SOL    HW138816   4.712   3.194   6.700  0.8256 -1.4981 -0.4147
 9060SOL    HW238817   4.626   3.078   6.718 -0.1575 -0.8060  1.9949
 9061SOL     OW38818   0.180   4.731   9.341 -0.4416 -0.4646  0.4400
 9061SOL    HW138819   0.144   4.643   9.358 -2.3115  0.2162  0.0284
 9061SOL    HW238820   0.250   4.734   9.406  0.9314  2.2667 -1.1911
 9062SOL     OW38821   1.515   3.075   1.936  0.0229  0.2370  0.5099
 9062SOL    HW138822   1.432   3.083   1.982 -0.2191 -1.9097  0.4304
 9062SOL    HW238823   1.560   3.156   1.961 -0.1907  1.2214 -2.2129
 9063SOL     OW38824   1.815   2.935  11.699  0.1729  0.1956  0.0009
 9063SOL    HW138825   1.890   2.946  11.758 -0.2572 -2.7472  1.1030
 9063SOL    HW238826   1.741   2.978  11.741 -0.4196  0.2345 -1.0714
 9064SOL     OW38827   0.079   0.734   4.062 -0.2793  0.0046 -0.8391
 9064SOL    HW138828   0.004   0.728   4.004  1.4258  1.5649 -3.2114
 9064SOL    HW238829   0.040   0.814   4.095  1.7175 -0.1198  1.8243
 9065SOL     OW38830   3.800   3.435   0.736 -0.3281  0.3193  0.4082
 9065SOL    HW138831   3.741   3.400   0.803  2.1959 -0.8199  2.0013
 9065SOL    HW238832   3.883   3.400   0.766 -2.2206 -2.2929  2.5916
 9066SOL     OW38833   0.823   2.236   6.400 -1.0020 -0.4043  0.5032
 9066SOL    HW138834   0.907   2.260   6.438 -0.4737  1.1831 -1.7190
 9066SOL    HW238835   0.764   2.222   6.475  0.3153  0.1030  1.6232
 9067SOL     OW38836   2.358   2.832   4.353 -0.2576 -0.0749 -0.4944
 9067SOL    HW138837   2.274   2.803   4.319 -0.3741 -1.9163  1.3553
 9067SOL    HW238838   2.336   2.873   4.437 -2.1146 -0.2198 -0.9139
 9068SOL     OW38839   1.856   4.480  12.538  0.0806  0.0927  0.4361
 9068SOL    HW138840   1.798   4.508  12.608 -2.0090  2.1446 -2.1195
 9068SOL    HW238841   1.889   4.396  12.571 -0.1927  0.0337  0.5616
 9069SOL     OW38842   1.521   1.579   6.466  0.1015  0.0773 -0.7144
 9069SOL    HW138843   1.539   1.489   6.436 -0.4316  0.1482 -1.2529
 9069SOL    HW238844   1.426   1.584   6.464  0.2627  3.3785  0.7219
 9070SOL     OW38845   1.938   3.588   2.730 -0.0466  0.2160 -0.3035
 9070SOL    HW138846   2.016   3.639   2.710 -0.8472  1.2704 -0.7576
 9070SOL    HW238847   1.977   3.527   2.794  1.7967  2.0974  0.3509
 9071SOL     OW38848   4.731   0.807   2.237 -0.1359  0.2895  0.2056
 9071SOL    HW138849   4.718   0.847   2.323 -0.6522 -2.0553  1.2125
 9071SOL    HW238850   0.089   0.812   2.219  0.0697  0.0413  1.2409
 9072SOL     OW38851   3.650   2.206  13.278  0.9881  0.1703 -0.6634
 9072SOL    HW138852   3.683   2.240  13.361 -0.8198  2.2745 -0.7860
 9072SOL    HW238853   3.658   2.285  13.225  0.4512  1.1355  0.6733
 9073SOL     OW38854   0.311   3.519  15.181 -0.3206 -0.3619  0.1247
 9073SOL    HW138855   0.314   3.521  15.277 -1.9200 -2.0662  0.2091
 9073SOL    HW238856   0.389   3.464  15.171  0.2503  0.5971 -0.6360
 9074SOL     OW38857   4.242   0.294   6.679  0.4075 -0.0449 -0.2556
 9074SOL    HW138858   4.204   0.329   6.760  1.2074 -0.8593  0.4695
 9074SOL    HW238859   4.263   0.378   6.638  3.0311 -0.2989  0.5555
 9075SOL     OW38860   0.887   3.028   9.925  0.1170  0.6469 -0.2382
 9075SOL    HW138861   0.956   3.064   9.869  1.3590  1.1196  1.5747
 9075SOL    HW238862   0.812   3.046   9.869 -1.6230 -0.2282  1.8150
 9076SOL     OW38863   4.687   4.302   6.126  0.3614 -0.0571 -0.0990
 9076SOL    HW138864   4.698   4.224   6.072  0.9629 -1.5706  2.2401
 9076SOL    HW238865   0.001   4.367   6.075  2.5565 -2.9691 -1.6479
 9077SOL     OW38866   1.145   1.791   4.900 -0.0850 -0.2431 -0.3573
 9077SOL    HW138867   1.237   1.800   4.922 -0.2565  0.4489  0.0606
 9077SOL    HW238868   1.143   1.846   4.821 -2.0780 -0.1224 -0.2399
 9078SOL     OW38869   1.907   2.806  13.051  0.7989  0.4647  1.1581
 9078SOL    HW138870   1.832   2.862  13.072 -0.7460 -1.0970 -0.1801
 9078SOL    HW238871   1.860   2.724  13.061 -0.3840  0.7737 -1.7666
 9079SOL     OW38872   2.450   1.336   8.508 -0.6477  0.7785  0.0490
 9079SOL    HW138873   2.465   1.408   8.446 -0.2879  0.7104  0.0554
 9079SOL    HW238874   2.523   1.346   8.569 -0.1067 -1.9071 -0.1804
 9080SOL     OW38875   3.166   2.156   7.290 -0.4504  0.2074 -0.0663
 9080SOL    HW138876   3.197   2.242   7.262 -1.4831  1.8096  3.7169
 9080SOL    HW238877   3.157   2.175   7.384 -1.1464 -2.1907  0.3539
 9081SOL     OW38878   4.207   0.466  12.884  0.0913 -0.1092 -0.3617
 9081SOL    HW138879   4.266   0.392  12.899  1.2918  1.0291  0.4612
 9081SOL    HW238880   4.257   0.514  12.818  0.9496  1.8702  1.7876
 9082SOL     OW38881   1.894   1.486   9.290  0.0622  0.2193  0.4512
 9082SOL    HW138882   1.919   1.477   9.382 -3.6267 -0.3167  1.3998
 9082SOL    HW238883   1.825   1.551   9.285  1.5712  1.7540 -0.6995
 9083SOL     OW38884   0.622   3.102  17.096  0.3272 -0.4932 -0.5851
 9083SOL    HW138885   0.651   3.058  17.015 -1.8774 -1.1090 -1.0554
 9083SOL    HW238886   0.629   3.191  17.063 -1.2200  0.1913  0.9503
 9084SOL     OW38887   1.659   3.673  16.220 -0.3583  0.1518  0.2088
 9084SOL    HW138888   1.630   3.680  16.129  1.0367  0.7301 -0.1824
 9084SOL    HW238889   1.663   3.766  16.241 -1.5306 -0.1185  1.6880
 9085SOL     OW38890   0.861   0.024  16.050  0.0255 -0.0399  0.5488
 9085SOL    HW138891   0.918   4.733  16.123  0.2160  2.9467  1.4950
 9085SOL    HW238892   0.796   4.690  16.054 -1.3841  1.1940 -0.9796
 9086SOL     OW38893   0.940   3.267   5.350 -0.1592 -0.8603  0.0296
 9086SOL    HW138894   0.961   3.313   5.269 -0.9547 -1.5148 -0.5388
 9086SOL    HW238895   0.873   3.213   5.308 -3.3381  3.2510 -0.1123
 9087SOL     OW38896   3.819   1.733   5.411  0.2337  0.0243 -0.3064
 9087SOL    HW138897   3.906   1.707   5.439 -0.0875 -3.2929 -2.3732
 9087SOL    HW238898   3.839   1.815   5.367  0.3576 -0.2941 -0.8371
 9088SOL     OW38899   3.637   3.199   6.922  0.1872 -0.2896 -0.2281
 9088SOL    HW138900   3.641   3.294   6.915 -1.8063 -0.2603 -1.1065
 9088SOL    HW238901   3.698   3.182   6.994  2.3659  0.7154 -1.8390
 9089SOL     OW38902   1.539   4.065   4.574 -0.1944  0.0595  0.2182
 9089SOL    HW138903   1.563   4.147   4.618 -1.1340  0.2071  0.4402
 9089SOL    HW238904   1.531   4.093   4.483 -0.3843  1.1886  0.5816
 9090SOL     OW38905   3.163   0.126   2.263 -0.1458 -0.1882  0.2622
 9090SOL    HW138906   3.115   0.169   2.192 -0.9423 -1.4197  0.0643
 9090SOL    HW238907   3.251   0.118   2.225 -1.4821 -0.6944 -2.7648
 9091SOL     OW38908   4.431   1.756   0.943  0.0872 -0.5717  0.0262
 9091SOL    HW138909   4.487   1.750   1.021  2.7167 -0.7579 -1.8774
 9091SOL    HW238910   4.345   1.764   0.985 -0.6444 -1.3072 -1.3142
 9092SOL     OW38911   0.171   0.528   0.350  0.4155  0.6727 -0.5008
 9092SOL    HW138912   0.142   0.614   0.381  0.7736  0.5809  0.0834
 9092SOL    HW238913   0.118   0.521   0.270 -0.5997  2.6477 -0.0055
 9093SOL     OW38914   0.213   0.179  11.279  0.0079  0.3823  0.3709
 9093SOL    HW138915   0.291   0.141  11.320 -1.3311 -2.5846  0.2360
 9093SOL    HW238916   0.147   0.170  11.349  1.8190  1.2803  2.1925
 9094SOL     OW38917   3.904   3.490   9.763 -0.1753 -0.4676  0.1035
 9094SOL    HW138918   3.953   3.573   9.768 -2.0239  0.5447  1.1904
 9094SOL    HW238919   3.834   3.510   9.825 -1.1397  2.0644 -1.7882
 9095SOL     OW38920   2.133   2.491   8.264 -0.0052 -0.0364  0.3738
 9095SOL    HW138921   2.040   2.510   8.280 -0.0961  0.3340 -0.5457
 9095SOL    HW238922   2.163   2.529   8.346 -1.1645  0.6048  0.5044
 9096SOL     OW38923   1.633   0.405   7.959 -0.6982 -0.4231  0.2365
 9096SOL    HW138924   1.635   0.317   7.996 -2.0985  0.5737  2.6492
 9096SOL    HW238925   1.706   0.451   8.000 -1.5853  2.3542 -1.3052
 9097SOL     OW38926   3.498   0.243   9.887 -0.2970 -0.2437  0.5780
 9097SOL    HW138927   3.448   0.262   9.807 -2.7173  2.2387  2.6687
 9097SOL    HW238928   3.513   0.149   9.881  1.4751  0.1391 -1.2151
 9098SOL     OW38929   1.489   4.085   2.955  0.2565  0.3340 -0.7528
 9098SOL    HW138930   1.418   4.100   3.016 -0.1510 -2.3801 -0.5664
 9098SOL    HW238931   1.520   4.174   2.936 -1.2428  1.4264  2.0681
 9099SOL     OW38932   0.593   1.275   3.757  0.2538 -0.0778  0.0083
 9099SOL    HW138933   0.632   1.188   3.759 -1.6733 -0.9650 -0.2902
 9099SOL    HW238934   0.629   1.309   3.676 -0.8457  2.4928  0.6027
 9100SOL     OW38935   2.201   0.210  13.316  0.4005  0.5265  0.4464
 9100SOL    HW138936   2.169   0.185  13.403 -3.2295 -0.1334 -1.0561
 9100SOL    HW238937   2.122   0.201  13.263  0.5230  2.0070  0.0258
 9101SOL     OW38938   4.666   2.130  16.788  0.3352 -0.0972 -0.9444
 9101SOL    HW138939   4.729   2.134  16.860  0.2080  0.2077 -0.8477
 9101SOL    HW238940   4.687   2.044  16.752 -1.1906 -0.0385 -1.9817
 9102SOL     OW38941   1.057   4.273   6.893 -0.2185  0.0310  0.3672
 9102SOL    HW138942   1.038   4.317   6.810  1.2115  0.7630  0.4371
 9102SOL    HW238943   1.034   4.185   6.861  0.9162 -0.5173  1.0406
 9103SOL     OW38944   3.218   1.914   6.909 -0.4834  0.3429  0.0857
 9103SOL    HW138945   3.209   2.009   6.898 -0.0707  0.2523 -0.9367
 9103SOL    HW238946   3.217   1.906   7.005 -0.2094 -0.1784  0.0472
 9104SOL     OW38947   0.564   3.375   3.479 -0.2209 -0.4091 -0.1534
 9104SOL    HW138948   0.575   3.467   3.504  2.0093 -0.5089 -0.8391
 9104SOL    HW238949   0.647   3.337   3.508  0.4866  2.3678  1.4142
 9105SOL     OW38950   2.399   2.236   5.704  0.5613  0.2014  0.5470
 9105SOL    HW138951   2.437   2.156   5.742  2.1838  0.7407  0.0773
 9105SOL    HW238952   2.371   2.283   5.782  1.4539  1.1777  0.2813
 9106SOL     OW38953   0.084   1.062  13.364 -0.5643  0.0286 -0.0358
 9106SOL    HW138954   0.138   0.990  13.332  1.4951  1.7389 -0.3947
 9106SOL    HW238955   0.135   1.142  13.350  1.4726 -1.4580 -1.0920
 9107SOL     OW38956   2.120   1.823   2.572 -0.2444  0.0888  0.0197
 9107SOL    HW138957   2.126   1.763   2.647 -1.0189  1.0642  0.8784
 9107SOL    HW238958   2.174   1.776   2.509  0.2394  1.0167 -0.2483
 9108SOL     OW38959   0.452   2.811  13.468 -0.4198  0.4603 -0.0466
 9108SOL    HW138960   0.542   2.844  13.476  0.0348 -0.6668 -0.5218
 9108SOL    HW238961   0.411   2.865  13.400  1.7997  1.3977 -0.6332
 9109SOL     OW38962   1.681   4.142  11.957  0.4540 -0.0685  0.4559
 9109SOL    HW138963   1.651   4.230  11.980  1.7769  0.1068  1.5009
 9109SOL    HW238964   1.703   4.136  11.864  2.5671  2.1187  0.8285
 9110SOL     OW38965   0.765   0.577   3.989  0.3853 -0.0246 -0.3511
 9110SOL    HW138966   0.739   0.548   4.077  1.4016 -0.9234 -0.3487
 9110SOL    HW238967   0.696   0.640   3.970 -0.4916 -1.1177 -0.7628
 9111SOL     OW38968   1.219   1.670   3.197 -0.3478  0.7221 -0.0770
 9111SOL    HW138969   1.209   1.610   3.123 -2.8914 -0.2263  1.0323
 9111SOL    HW238970   1.135   1.716   3.190 -1.1355 -1.0448 -2.3823
 9112SOL     OW38971   1.137   4.012   0.933 -0.2303 -0.5241 -0.1422
 9112SOL    HW138972   1.107   3.962   0.857  0.5223 -0.8881 -0.2061
 9112SOL    HW238973   1.049   4.035   0.963  0.7159  1.7876  0.8802
 9113SOL     OW38974   2.908   3.083   3.617  0.5526 -0.5032  0.2074
 9113SOL    HW138975   2.964   3.021   3.663  1.4174  0.9472  1.1178
 9113SOL    HW238976   2.844   3.025   3.576 -0.1317  0.0530  0.4791
 9114SOL     OW38977   0.023   2.788  11.310  1.1791  0.3889  0.0624
 9114SOL    HW138978   0.072   2.845  11.370 -0.3831 -0.4305  2.1181
 9114SOL    HW238979   0.067   2.704  11.325  2.2460  1.3338  2.2662
 9115SOL     OW38980   4.109   3.003   5.283 -0.1454 -0.2197 -0.3379
 9115SOL    HW138981   4.033   2.953   5.254 -0.3772  0.2160 -0.4903
 9115SOL    HW238982   4.124   2.958   5.366  3.6532 -0.0457 -0.9272
 9116SOL     OW38983   4.251   4.393   5.695 -0.1297 -0.0769  0.7264
 9116SOL    HW138984   4.268   4.353   5.609 -1.1295  0.5093  0.2573
 9116SOL    HW238985   4.192   4.467   5.682 -0.3628 -0.3583  0.1852
 9117SOL     OW38986   3.134   2.777   5.834  0.6626 -0.2057 -0.7454
 9117SOL    HW138987   3.160   2.738   5.750 -0.6131 -0.5756 -0.9675
 9117SOL    HW238988   3.045   2.742   5.829  0.2469  0.8878 -0.8471
 9118SOL     OW38989   4.073   2.683   5.347  0.0315 -0.1010 -0.4181
 9118SOL    HW138990   4.013   2.745   5.306 -0.1382 -1.1572 -1.7722
 9118SOL    HW238991   4.123   2.734   5.411 -0.7214 -0.6129  0.5738
 9119SOL     OW38992   3.696   4.194  10.299 -0.0542 -0.2098 -0.2223
 9119SOL    HW138993   3.635   4.220  10.368  1.3543 -1.2143  1.3901
 9119SOL    HW238994   3.675   4.101  10.288  1.4875 -0.4716 -0.8882
 9120SOL     OW38995   3.664   4.622   5.243 -0.0407  0.6065  0.7352
 9120SOL    HW138996   3.666   4.548   5.183 -0.7496 -0.6593  2.3039
 9120SOL    HW238997   3.586   4.665   5.207  0.1926  0.6799  0.3177
 9121SOL     OW38998   0.034   1.391   2.498 -0.6208 -0.2765  0.2386
 9121SOL    HW138999   0.005   1.482   2.504 -1.1318 -0.4017 -0.3833
 9121SOL    HW239000   4.686   1.348   2.513  0.5112 -3.2589 -2.0878
 9122SOL     OW39001   4.164   1.329   4.039  0.1192  0.1332 -0.1943
 9122SOL    HW139002   4.136   1.407   3.991 -1.3604  0.5163  1.2809
 9122SOL    HW239003   4.231   1.369   4.095  0.1675 -1.7309  1.0658
 9123SOL     OW39004   4.602   3.865   0.078 -0.0100  0.0328  0.7832
 9123SOL    HW139005   4.576   3.793   0.136  1.3571  0.5186  2.0141
 9123SOL    HW239006   4.542   3.930   0.114 -0.1535 -0.0383  0.6722
 9124SOL     OW39007   4.617   2.993   4.391 -0.2258 -0.1569  0.1200
 9124SOL    HW139008   4.557   3.044   4.336 -0.6294 -0.1169  0.6007
 9124SOL    HW239009   4.691   3.046   4.362 -1.7174  1.0580 -1.4850
 9125SOL     OW39010   3.561   1.976   6.492  0.1115 -0.2418  0.2352
 9125SOL    HW139011   3.647   2.010   6.516  0.0661  0.4576 -0.5926
 9125SOL    HW239012   3.555   1.998   6.399  0.6215 -1.2300 -0.0262
 9126SOL     OW39013   0.729   1.209   7.515 -0.2238 -0.0203 -0.4947
 9126SOL    HW139014   0.767   1.294   7.492  1.7434 -0.5189  0.9756
 9126SOL    HW239015   0.635   1.226   7.524 -0.4447 -2.1159  1.0788
 9127SOL     OW39016   1.867   3.401   2.101  0.3585  0.2075  0.0121
 9127SOL    HW139017   1.875   3.320   2.151 -0.7408  1.0562  1.5804
 9127SOL    HW239018   1.946   3.399   2.047 -1.3716  0.1940 -2.5165
 9128SOL     OW39019   2.954   2.855   4.287 -0.3537 -0.8577  0.3725
 9128SOL    HW139020   2.957   2.766   4.252 -2.4138  0.0879 -2.1857
 9128SOL    HW239021   2.996   2.840   4.372  0.6039  2.6405  0.5096
 9129SOL     OW39022   4.564   2.419   5.426  0.6272 -0.2263  0.1328
 9129SOL    HW139023   4.536   2.441   5.337  1.6064 -1.4771 -0.4773
 9129SOL    HW239024   4.477   2.435   5.462  0.0866 -1.0381 -0.8138
 9130SOL     OW39025   1.353   1.288   0.612 -0.0054  0.4676 -0.0729
 9130SOL    HW139026   1.260   1.287   0.632 -1.0944  0.1902 -5.0533
 9130SOL    HW239027   1.386   1.200   0.631 -0.2117 -0.1568 -2.5351
 9131SOL     OW39028   4.407   1.827   6.286 -0.7504 -0.0564  0.1621
 9131SOL    HW139029   4.470   1.865   6.347  0.4461 -0.2606 -0.9577
 9131SOL    HW239030   4.327   1.855   6.331  0.8206 -0.0458  2.9597
 9132SOL     OW39031   2.271   0.507  10.365 -0.3477  0.1210 -0.3133
 9132SOL    HW139032   2.236   0.439  10.422  1.3543  0.9119  1.6729
 9132SOL    HW239033   2.361   0.484  10.388 -0.4602 -0.5255 -0.5187
 9133SOL     OW39034   2.725   3.942   6.074 -0.1700  0.1625  0.7581
 9133SOL    HW139035   2.676   4.008   6.125  1.4457  2.4520 -0.6819
 9133SOL    HW239036   2.658   3.893   6.027 -2.3248  1.9855  1.9069
 9134SOL     OW39037   3.175   4.562   9.678  0.0898 -0.1439  0.4120
 9134SOL    HW139038   3.238   4.532   9.612  1.6141  0.5197  1.5633
 9134SOL    HW239039   3.092   4.518   9.660 -0.3584 -0.6650  3.9018
 9135SOL     OW39040   0.574   2.190   2.344 -0.4120  0.3813 -0.0238
 9135SOL    HW139041   0.597   2.270   2.390  2.2827 -1.6854  2.2614
 9135SOL    HW239042   0.652   2.137   2.362 -0.2256  0.3759 -0.8456
 9136SOL     OW39043   3.682   3.335   7.784 -0.3765 -0.5043  0.1455
 9136SOL    HW139044   3.627   3.257   7.784  2.1157 -2.2404 -0.1090
 9136SOL    HW239045   3.764   3.299   7.817  0.0333  1.4156  1.2189
 9137SOL     OW39046   3.791   1.981   1.539  0.3610 -0.3820  0.0751
 9137SOL    HW139047   3.753   1.903   1.580  0.9542  1.1896  3.5716
 9137SOL    HW239048   3.885   1.973   1.548  0.6217  0.4509 -1.9081
 9138SOL     OW39049   3.409   0.758   3.548 -0.1160  0.2036  0.4468
 9138SOL    HW139050   3.500   0.760   3.579  0.4792 -2.4901 -1.1120
 9138SOL    HW239051   3.426   0.696   3.477  0.7088  0.3349  0.5307
 9139SOL     OW39052   3.181   3.684  10.635 -0.5669 -0.1520 -0.2090
 9139SOL    HW139053   3.108   3.681  10.573 -0.0010  1.8964 -0.9975
 9139SOL    HW239054   3.200   3.590  10.640 -2.3340 -0.4788  0.1229
 9140SOL     OW39055   1.844   2.559   7.762 -0.2550 -0.8565 -0.4067
 9140SOL    HW139056   1.822   2.623   7.694 -2.6500  0.5893  1.7240
 9140SOL    HW239057   1.758   2.551   7.804 -0.3749  0.7699 -0.3533
 9141SOL     OW39058   1.361   2.418  11.205  0.5813  1.2948  0.1187
 9141SOL    HW139059   1.377   2.439  11.297 -0.5423 -1.3644  0.9225
 9141SOL    HW239060   1.375   2.323  11.204 -1.6098  0.9711  0.0716
 9142SOL     OW39061   2.370   1.090   9.216 -0.2189  0.1355  0.0263
 9142SOL    HW139062   2.384   1.064   9.125  0.1602 -3.3249  1.0513
 9142SOL    HW239063   2.289   1.040   9.227 -0.2968  0.1455 -0.5215
 9143SOL     OW39064   0.952   4.683   5.661 -0.2045  0.0078 -0.3416
 9143SOL    HW139065   0.990   4.648   5.742 -2.2986  2.5476  1.7301
 9143SOL    HW239066   0.924   0.029   5.703 -1.6542  0.7047 -2.6526
 9144SOL     OW39067   1.061   3.230  16.024 -0.3288  0.2959  0.3877
 9144SOL    HW139068   1.117   3.301  16.057  1.2373 -1.3157  1.2494
 9144SOL    HW239069   0.975   3.271  16.014  0.5342  2.0895  0.2879
 9145SOL     OW39070   2.990   0.577   1.499  0.5532 -0.5842 -0.4434
 9145SOL    HW139071   3.061   0.629   1.538  0.5116  1.3308 -2.9231
 9145SOL    HW239072   3.031   0.537   1.422 -0.1816 -1.9650 -0.1089
 9146SOL     OW39073   0.405   3.362   6.343 -0.2938  0.0038 -0.0048
 9146SOL    HW139074   0.313   3.356   6.319 -0.7314 -0.6034  1.8791
 9146SOL    HW239075   0.437   3.437   6.292  0.8038 -1.3670 -1.3396
 9147SOL     OW39076   3.565   2.150   5.914  0.0438  0.8850  0.0389
 9147SOL    HW139077   3.517   2.228   5.940 -0.2550  0.1161  1.7869
 9147SOL    HW239078   3.535   2.136   5.824 -0.6376  0.3902  0.3462
 9148SOL     OW39079   4.320   0.131  15.717  0.1884  0.5826  0.4409
 9148SOL    HW139080   4.231   0.166  15.726  0.4736  1.5095 -0.4490
 9148SOL    HW239081   4.374   0.201  15.754  0.7831  0.1867  0.3310
 9149SOL     OW39082   3.641   3.417  11.650 -0.4775  0.2742 -0.6701
 9149SOL    HW139083   3.645   3.500  11.602 -1.2411 -0.5139 -2.1056
 9149SOL    HW239084   3.638   3.434  11.744  0.5693  1.3460 -0.8203
 9150SOL     OW39085   0.041   2.241   9.516 -0.2206  0.3273  0.3476
 9150SOL    HW139086   4.733   2.221   9.599 -0.1104  0.4116  0.4253
 9150SOL    HW239087   0.118   2.287   9.549  0.2249  0.7445 -1.2910
 9151SOL     OW39088   4.358   2.293  11.346  0.2389 -0.1297  0.4783
 9151SOL    HW139089   4.299   2.327  11.279  1.8490 -0.1731 -0.9792
 9151SOL    HW239090   4.400   2.215  11.309  1.0501  0.4168  0.2539
 9152SOL     OW39091   3.336   2.159   7.794  0.0604  0.1791  0.5555
 9152SOL    HW139092   3.285   2.141   7.872 -0.5822 -1.6806 -0.2781
 9152SOL    HW239093   3.375   2.072   7.785  0.3491  0.3020  0.6215
 9153SOL     OW39094   1.251   0.569   6.969 -0.8961  0.2878  0.5873
 9153SOL    HW139095   1.164   0.611   6.967 -0.7329  0.5618 -1.1411
 9153SOL    HW239096   1.249   0.510   6.894 -0.1031  1.2761 -0.2271
 9154SOL     OW39097   1.941   1.160   8.932  0.0980 -0.0492 -0.2209
 9154SOL    HW139098   1.877   1.185   8.866  0.5198  1.3646 -0.1051
 9154SOL    HW239099   1.895   1.100   8.991  1.8242 -0.0696  1.1095
 9155SOL     OW39100   0.148   0.126  11.534 -0.0607  0.2361  0.4192
 9155SOL    HW139101   0.236   0.106  11.566  0.2940  0.1264 -0.5888
 9155SOL    HW239102   0.104   0.042  11.548  2.1612 -0.8910  0.7148
 9156SOL     OW39103   1.422   2.720   8.429 -0.0809  0.4127 -0.0265
 9156SOL    HW139104   1.415   2.674   8.512 -1.3849 -1.0270 -0.9473
 9156SOL    HW239105   1.453   2.647   8.375  0.9029  0.9610 -0.2149
 9157SOL     OW39106   2.632   1.615  14.987 -0.0439 -0.3707  0.0947
 9157SOL    HW139107   2.568   1.607  15.058 -0.4757  1.0059 -0.1305
 9157SOL    HW239108   2.589   1.679  14.930  0.7916 -1.6986 -2.0013
 9158SOL     OW39109   3.961   1.174   7.253  0.6716  0.7013 -0.1012
 9158SOL    HW139110   3.895   1.134   7.309  1.4999 -0.1168  0.2744
 9158SOL    HW239111   3.918   1.259   7.240  1.3145  0.8819 -1.1118
 9159SOL     OW39112   4.392   0.700  13.214 -0.4560 -0.1682 -0.0267
 9159SOL    HW139113   4.484   0.677  13.220 -0.0556  1.2271 -0.8528
 9159SOL    HW239114   4.381   0.768  13.280 -0.9763  1.0016 -1.3165
 9160SOL     OW39115   1.014   2.877   7.714 -0.1020 -0.1522 -0.6173
 9160SOL    HW139116   0.970   2.931   7.780  1.1941 -0.5513  0.5856
 9160SOL    HW239117   1.101   2.866   7.753 -0.0042  1.3051 -0.4317
 9161SOL     OW39118   4.007   3.826  12.730  0.1766  0.5211  0.2924
 9161SOL    HW139119   4.056   3.889  12.678  0.8618 -0.4033 -0.1587
 9161SOL    HW239120   4.044   3.756  12.678  0.0971  0.4442  0.3387
 9162SOL     OW39121   4.159   3.219  17.700  0.1564  0.3657  0.2948
 9162SOL    HW139122   4.221   3.225   0.032  0.2626 -2.2037  0.4414
 9162SOL    HW239123   4.092   3.158  17.733  0.2453 -0.6481 -1.4247
 9163SOL     OW39124   0.293   4.571   0.158  0.0651 -0.6562  0.0423
 9163SOL    HW139125   0.293   4.497   0.220  0.5792 -0.9825 -0.3551
 9163SOL    HW239126   0.384   4.557   0.134  0.6011 -0.4559  1.9279
 9164SOL     OW39127   0.682   0.248  12.313 -0.2870  0.0346 -0.0746
 9164SOL    HW139128   0.736   0.289  12.381 -0.4229 -0.6079  0.4209
 9164SOL    HW239129   0.734   0.277  12.238 -0.7663  0.9289 -0.0595
 9165SOL     OW39130   1.486   2.657  10.725  0.0593 -0.3181 -0.2728
 9165SOL    HW139131   1.458   2.665  10.634 -1.4205  1.4484  0.3516
 9165SOL    HW239132   1.431   2.598  10.777 -0.9170  2.5513  1.8812
 9166SOL     OW39133   0.998   1.737   8.351  0.1817  0.6000  0.0759
 9166SOL    HW139134   1.057   1.757   8.278  3.9615 -3.3572  2.0014
 9166SOL    HW239135   0.925   1.796   8.332 -0.5410 -0.3121  0.0205
 9167SOL     OW39136   3.346   4.463   9.496 -0.3095 -0.3978  0.3490
 9167SOL    HW139137   3.397   4.543   9.487 -1.1334 -0.0344 -1.0918
 9167SOL    HW239138   3.382   4.409   9.426  0.0334  0.6380 -0.2770
 9168SOL     OW39139   0.227   1.127  13.750 -0.2455 -0.5043 -0.3182
 9168SOL    HW139140   0.267   1.048  13.713  0.3984 -0.3593  0.0627
 9168SOL    HW239141   0.216   1.099  13.841 -0.8932 -0.8584 -0.5141
 9169SOL     OW39142   2.259   0.998   3.823  0.0106  0.1587 -0.3505
 9169SOL    HW139143   2.324   1.046   3.875  0.4737  0.5457 -1.2823
 9169SOL    HW239144   2.184   1.014   3.881  0.7004  0.4909  0.4559
 9170SOL     OW39145   2.009   3.166   0.885 -0.8426  0.3582 -0.2635
 9170SOL    HW139146   1.993   3.129   0.972  1.8853  0.8957  0.4665
 9170SOL    HW239147   2.021   3.255   0.917  0.2457  0.2746 -0.4389
 9171SOL     OW39148   1.266   0.105  13.083  0.3043 -0.8056 -0.1876
 9171SOL    HW139149   1.338   0.168  13.089 -0.0308 -0.3606 -0.8577
 9171SOL    HW239150   1.236   0.108  12.992 -0.4812  1.5474  0.1435
 9172SOL     OW39151   3.273   0.294  11.403  0.5347  0.0390  0.9235
 9172SOL    HW139152   3.180   0.299  11.427 -1.0139 -1.8192 -4.4762
 9172SOL    HW239153   3.305   0.205  11.420 -0.0101  0.2001  2.7760
 9173SOL     OW39154   0.092   1.307   4.870 -0.4023 -0.1041 -0.0941
 9173SOL    HW139155   0.179   1.311   4.829 -0.7966 -1.7119 -1.1003
 9173SOL    HW239156   0.117   1.322   4.961  0.2647  0.3658 -0.3478
 9174SOL     OW39157   1.251   1.667  10.367  0.1296 -0.0123  0.0928
 9174SOL    HW139158   1.229   1.660  10.460 -1.1557  1.4717 -0.1094
 9174SOL    HW239159   1.265   1.761  10.366 -0.2968  0.0771  1.4145
 9175SOL     OW39160   3.125   4.290   3.630  0.0452  0.3383  0.1778
 9175SOL    HW139161   3.161   4.338   3.556  3.2866 -1.6424  0.4768
 9175SOL    HW239162   3.054   4.349   3.658 -0.4746 -0.3501  0.3043
 9176SOL     OW39163   3.201   3.345   4.927  0.6680 -0.2877 -0.0790
 9176SOL    HW139164   3.202   3.428   4.975 -0.1572 -0.5544  0.3938
 9176SOL    HW239165   3.122   3.359   4.875  1.8001  2.3130 -1.0902
 9177SOL     OW39166   0.052   1.359   1.874  0.2591 -0.1589 -0.0708
 9177SOL    HW139167   0.065   1.447   1.839 -2.0226  0.6620  1.1147
 9177SOL    HW239168   0.031   1.306   1.798 -1.7214 -0.0116  0.3733
 9178SOL     OW39169   0.911   1.175   1.698 -0.7368 -0.4148  0.3967
 9178SOL    HW139170   0.929   1.088   1.663  2.5974 -0.3975  2.0358
 9178SOL    HW239171   0.816   1.184   1.705 -0.9089 -2.0316  0.0443
 9179SOL     OW39172   0.872   2.482   6.838  0.1058  0.3736 -0.7178
 9179SOL    HW139173   0.959   2.520   6.850 -0.2895  0.9014  0.5080
 9179SOL    HW239174   0.827   2.522   6.913  1.4581  0.5010  0.0338
 9180SOL     OW39175   0.037   3.668   6.896 -0.5721 -0.1170  0.1026
 9180SOL    HW139176   4.697   3.626   6.938  0.1580 -0.2683  1.2731
 9180SOL    HW239177   0.015   3.761   6.891 -1.4713 -0.3388  0.0682
 9181SOL     OW39178   4.725   0.840   7.869  0.4309 -0.5286  0.1030
 9181SOL    HW139179   0.066   0.872   7.916  0.0907  2.9951 -1.7415
 9181SOL    HW239180   0.031   0.797   7.794 -0.3924  0.5437 -0.9673
 9182SOL     OW39181   3.381   0.791  13.349  0.2673  0.2803 -0.4183
 9182SOL    HW139182   3.312   0.857  13.359 -0.3697 -0.4558  0.0931
 9182SOL    HW239183   3.349   0.710  13.389  0.3900  0.5387  0.1994
 9183SOL     OW39184   1.069   0.674   0.010 -0.5966  0.5549 -0.1922
 9183SOL    HW139185   1.052   0.589  17.710 -0.4956  0.7153 -0.5730
 9183SOL    HW239186   1.070   0.654   0.104 -0.2474  2.8218  0.2875
 9184SOL     OW39187   0.611   4.680   3.918 -0.4055 -0.1123 -0.0647
 9184SOL    HW139188   0.532   4.653   3.966 -0.2675 -1.7525 -0.7519
 9184SOL    HW239189   0.578   4.697   3.830 -0.5879  0.1015  0.0443
 9185SOL     OW39190   3.145   2.645  17.095 -0.4691 -0.0386 -0.2920
 9185SOL    HW139191   3.135   2.587  17.170 -0.0863  0.2446 -0.0187
 9185SOL    HW239192   3.057   2.683  17.087 -1.0294 -1.4105 -0.6436
 9186SOL     OW39193   1.783   0.146   2.478  0.3372 -0.1129  0.9737
 9186SOL    HW139194   1.845   0.117   2.545 -0.5609 -0.8104  1.5063
 9186SOL    HW239195   1.717   0.199   2.522  0.3469 -0.3204  1.2388
 9187SOL     OW39196   4.380   4.552   9.708 -0.7097  0.4487 -0.6768
 9187SOL    HW139197   4.405   4.609   9.782 -0.0946 -0.6338 -0.0442
 9187SOL    HW239198   4.416   4.473   9.750 -1.1417  0.6369  0.0541
 9188SOL     OW39199   3.976   1.164   9.651  0.4663  0.8504 -0.0359
 9188SOL    HW139200   3.939   1.148   9.738  1.2430 -0.6394  0.0292
 9188SOL    HW239201   4.064   1.186   9.682  0.9139  1.0484 -1.4542
 9189SOL     OW39202   4.555   1.040   7.785  0.4227  0.3254  0.3262
 9189SOL    HW139203   4.596   1.091   7.715 -0.3986  1.0628  0.3758
 9189SOL    HW239204   4.619   0.974   7.810 -1.1392 -1.6109 -0.7810
 9190SOL     OW39205   4.038   2.138   2.830  0.3081  0.3423  0.0118
 9190SOL    HW139206   4.011   2.157   2.920 -1.5391  1.0297 -0.6839
 9190SOL    HW239207   3.985   2.060   2.818 -1.5004  1.6722 -0.6518
 9191SOL     OW39208   4.348   4.045   6.195  0.0984 -0.0487  0.4217
 9191SOL    HW139209   4.294   3.966   6.187 -1.4485  0.7859  2.8525
 9191SOL    HW239210   4.436   4.006   6.193  1.4348  2.8486  2.6466
 9192SOL     OW39211   1.204   1.333   3.997  0.0554  0.1237  0.1515
 9192SOL    HW139212   1.269   1.269   3.966  0.2653  0.3159  0.1951
 9192SOL    HW239213   1.151   1.282   4.059  0.7238 -0.1873  0.4784
 9193SOL     OW39214   3.194   0.265  10.355 -0.1680 -0.8612  0.2145
 9193SOL    HW139215   3.233   0.351  10.339 -0.5370 -0.3180  2.1920
 9193SOL    HW239216   3.224   0.216  10.278  2.6015  2.5500 -0.8894
 9194SOL     OW39217   4.440   0.748   9.233  0.0699 -0.0333 -0.7053
 9194SOL    HW139218   4.356   0.791   9.218 -0.8427 -2.4874 -2.4657
 9194SOL    HW239219   4.499   0.807   9.184  1.1731 -0.1261  0.5053
 9195SOL     OW39220   4.492   4.680   8.719  0.0118  0.6653 -0.0844
 9195SOL    HW139221   4.553   4.679   8.793  1.4359  0.1635 -1.2669
 9195SOL    HW239222   4.498   4.588   8.696 -0.9376  1.0149 -1.6837
 9196SOL     OW39223   2.086   1.920   1.791 -0.1826 -0.3850 -0.0221
 9196SOL    HW139224   2.161   1.915   1.850 -0.2902 -2.9425 -0.1167
 9196SOL    HW239225   2.019   1.880   1.846  0.2839 -1.8428 -0.5186
 9197SOL     OW39226   3.079   3.091  11.440  0.4677 -0.1794  0.1423
 9197SOL    HW139227   3.157   3.080  11.495 -0.5571 -1.1346  1.4168
 9197SOL    HW239228   3.021   3.025  11.478 -0.6411  1.3877  1.1761
 9198SOL     OW39229   0.752   4.379   4.004 -0.5381  0.1046 -0.4948
 9198SOL    HW139230   0.661   4.409   3.999 -1.2096 -1.7032  1.0588
 9198SOL    HW239231   0.797   4.445   4.057  0.2972 -0.4209 -0.5496
 9199SOL     OW39232   2.213   3.778  13.075  0.7626 -0.0243  0.4855
 9199SOL    HW139233   2.190   3.701  13.023  0.4589 -0.3906  1.1589
 9199SOL    HW239234   2.308   3.770  13.070  0.5197 -1.2566 -1.8230
 9200SOL     OW39235   0.114   1.259  17.418  0.5733 -0.1417  0.7281
 9200SOL    HW139236   0.039   1.225  17.369  0.2973  0.8383  0.4768
 9200SOL    HW239237   0.169   1.182  17.402  0.4646  0.0734 -0.6531
 9201SOL     OW39238   4.484   3.206  15.810  0.4957  0.2996  0.2757
 9201SOL    HW139239   4.498   3.208  15.904 -1.1696 -2.0883  0.5664
 9201SOL    HW239240   4.432   3.287  15.804  0.3992  0.1150 -1.3636
 9202SOL     OW39241   3.883   0.297   9.880 -0.1790 -0.5997  0.3422
 9202SOL    HW139242   3.885   0.211   9.838  1.7066 -0.0606 -0.6486
 9202SOL    HW239243   3.973   0.326   9.897 -0.0648 -0.9719  0.3788
 9203SOL     OW39244   2.404   2.643   9.340 -0.0165  0.3827  0.1555
 9203SOL    HW139245   2.337   2.575   9.337  1.8743 -1.4879  0.1118
 9203SOL    HW239246   2.461   2.608   9.271 -0.3338 -1.3748  0.7888
 9204SOL     OW39247   2.265   1.368  12.287  0.1047 -0.4478 -0.1107
 9204SOL    HW139248   2.324   1.295  12.267  0.8234  0.0176  0.2895
 9204SOL    HW239249   2.274   1.430  12.214  0.6027  0.0318  0.3549
 9205SOL     OW39250   2.770   1.566   6.121  0.0909  0.1396 -0.8198
 9205SOL    HW139251   2.770   1.487   6.066 -1.0640  0.0088 -0.6256
 9205SOL    HW239252   2.854   1.605   6.096 -1.0852  2.8349 -0.6029
 9206SOL     OW39253   2.479   3.532   8.159  0.0237  0.4531 -0.0917
 9206SOL    HW139254   2.519   3.616   8.182 -0.2303  0.0389  1.8859
 9206SOL    HW239255   2.448   3.524   8.249 -1.2438  0.0098 -0.5569
 9207SOL     OW39256   1.468   3.241   9.135  0.5621 -0.5578 -0.0873
 9207SOL    HW139257   1.405   3.294   9.086  0.8324 -0.5309 -0.4106
 9207SOL    HW239258   1.474   3.162   9.082  2.1341 -0.5033  0.0050
 9208SOL     OW39259   0.559   1.188  13.792 -0.0235  0.6605 -0.7833
 9208SOL    HW139260   0.567   1.134  13.714  0.9753  0.8750 -0.8345
 9208SOL    HW239261   0.568   1.280  13.764  1.7373  0.5242 -0.6988
 9209SOL     OW39262   1.534   0.369  14.225 -0.3468  0.3703  0.0253
 9209SOL    HW139263   1.447   0.367  14.185  0.0145 -0.8788 -0.7026
 9209SOL    HW239264   1.579   0.442  14.183  0.1257 -0.1185 -0.3323
 9210SOL     OW39265   2.449   1.875   3.291  0.1903  0.5962 -0.9483
 9210SOL    HW139266   2.441   1.795   3.239  1.8937 -0.6610  0.7293
 9210SOL    HW239267   2.392   1.841   3.360  1.4504 -0.2096 -0.3007
 9211SOL     OW39268   2.251   3.720   8.892  0.2104  0.2709 -0.4044
 9211SOL    HW139269   2.323   3.673   8.850  1.8736  0.9827  1.6305
 9211SOL    HW239270   2.235   3.667   8.970 -0.3066  2.1857  0.7952
 9212SOL     OW39271   4.683   0.663   6.556  0.6418  0.2352  0.1261
 9212SOL    HW139272   4.713   0.696   6.640 -1.5714  1.6923  0.3232
 9212SOL    HW239273   4.678   0.570   6.580 -0.0465  0.1515 -0.3466
 9213SOL     OW39274   3.905   3.598  11.162  0.9445  0.9653 -0.0940
 9213SOL    HW139275   3.853   3.663  11.114  0.5215  1.4088  0.9780
 9213SOL    HW239276   3.971   3.655  11.203 -1.3271  3.5562 -0.0347
 9214SOL     OW39277   1.992   1.899   6.387  0.3385 -0.0869  0.4387
 9214SOL    HW139278   1.948   1.815   6.386  0.3640 -0.1731  4.2203
 9214SOL    HW239279   1.923   1.958   6.418 -0.5108 -1.7897  1.7959
 9215SOL     OW39280   4.434   0.796   4.422  0.6062 -0.3822  0.3912
 9215SOL    HW139281   4.436   0.818   4.329  0.3376 -0.9519  0.2535
 9215SOL    HW239282   4.514   0.841   4.451  0.9905 -0.8186  0.0122
 9216SOL     OW39283   1.263   0.173   8.255 -0.0230  0.4277  0.4154
 9216SOL    HW139284   1.289   0.151   8.344 -0.7893 -1.3619  0.2013
 9216SOL    HW239285   1.216   0.254   8.275  0.7129  1.3731 -1.6476
 9217SOL     OW39286   1.091   1.839   5.766 -0.2361 -0.1125  0.0613
 9217SOL    HW139287   1.169   1.895   5.769  0.7306 -1.6653  3.9040
 9217SOL    HW239288   1.094   1.803   5.677 -0.0270  0.6942 -0.2524
 9218SOL     OW39289   0.055   1.021   4.789  0.2117  0.4730 -0.4745
 9218SOL    HW139290   0.129   1.081   4.778  0.3748  0.4141  0.2350
 9218SOL    HW239291   0.005   1.054   4.864 -0.5763 -0.9575 -0.3676
 9219SOL     OW39292   4.669   1.486  15.889  0.1616  0.2923  0.0546
 9219SOL    HW139293   4.705   1.548  15.825 -1.7793 -0.8784 -2.1790
 9219SOL    HW239294   0.008   1.471  15.947  0.4446  0.9787 -0.1370
 9220SOL     OW39295   1.370   0.346   9.663 -0.3230 -0.1297  0.2953
 9220SOL    HW139296   1.347   0.435   9.693 -0.4925  0.1502 -0.6704
 9220SOL    HW239297   1.326   0.304   9.737 -2.9394  1.6852 -0.2084
 9221SOL     OW39298   3.548   3.222   8.704  0.0601 -0.0551  0.0900
 9221SOL    HW139299   3.495   3.297   8.733 -2.6232 -2.2623  0.9426
 9221SOL    HW239300   3.532   3.233   8.611  1.2480  1.0570  0.0216
 9222SOL     OW39301   0.045   4.539   9.575  0.0458 -0.2636  0.2081
 9222SOL    HW139302   0.045   4.483   9.652  0.5875 -0.3349  0.1544
 9222SOL    HW239303   4.722   4.613   9.592 -0.6464 -0.3756 -1.6657
 9223SOL     OW39304   1.586   1.605  11.741  0.0121 -1.0339  0.8685
 9223SOL    HW139305   1.677   1.608  11.711 -1.2170  0.5056 -2.6547
 9223SOL    HW239306   1.588   1.626  11.835 -0.4711  1.0153  0.4149
 9224SOL     OW39307   2.656   3.279  10.806 -0.2139 -0.5304 -0.5053
 9224SOL    HW139308   2.583   3.267  10.867  1.8072 -0.5003  1.9000
 9224SOL    HW239309   2.640   3.361  10.760 -0.2389 -0.0721  0.3250
 9225SOL     OW39310   2.638   3.688  16.089  0.0727  0.8434 -0.3337
 9225SOL    HW139311   2.716   3.728  16.126  0.9345 -0.6252 -0.5393
 9225SOL    HW239312   2.572   3.756  16.073 -0.6703 -0.0326 -1.0285
 9226SOL     OW39313   3.817   4.089  14.748 -0.1358  0.0092 -0.4880
 9226SOL    HW139314   3.869   4.126  14.677  0.8748 -0.3159  0.0853
 9226SOL    HW239315   3.769   4.167  14.775  2.9851  0.6522  3.1447
 9227SOL     OW39316   4.189   1.279   3.686  0.2453 -0.2272 -0.3189
 9227SOL    HW139317   4.280   1.293   3.660 -0.2963  0.0475 -2.0233
 9227SOL    HW239318   4.186   1.184   3.678  2.1359 -0.0819 -2.5299
 9228SOL     OW39319   0.162   3.930   0.758 -0.1482 -0.2137  0.1879
 9228SOL    HW139320   0.107   3.970   0.826 -0.1283 -0.0072  0.0821
 9228SOL    HW239321   0.181   4.010   0.710 -0.5642  0.1681  0.6672
 9229SOL     OW39322   0.167   2.711  16.447 -0.0012 -0.6104 -1.1265
 9229SOL    HW139323   0.080   2.726  16.485 -0.3824 -1.6234 -1.5818
 9229SOL    HW239324   0.151   2.617  16.438 -1.4919 -0.4002 -0.7492
 9230SOL     OW39325   0.285   1.362  10.654 -0.0236 -0.0218  0.0551
 9230SOL    HW139326   0.364   1.412  10.631  0.2482  0.0066  1.0883
 9230SOL    HW239327   0.311   1.351  10.745  0.0281  0.6644  0.1282
 9231SOL     OW39328   2.731   2.316   6.981 -0.1695 -0.0902  0.1870
 9231SOL    HW139329   2.764   2.226   6.978 -1.8890 -0.7025 -0.0966
 9231SOL    HW239330   2.659   2.312   7.043  1.4998 -2.2500  2.0085
 9232SOL     OW39331   1.599   3.773   0.910 -0.2884  0.2480 -0.4193
 9232SOL    HW139332   1.608   3.844   0.974  0.2103 -0.4176  0.2632
 9232SOL    HW239333   1.504   3.761   0.901 -0.6185  1.6421  1.0819
 9233SOL     OW39334   1.966   0.497   2.797  0.0474 -0.0156 -0.0921
 9233SOL    HW139335   1.926   0.509   2.883 -0.4063  0.9374 -0.4340
 9233SOL    HW239336   2.054   0.464   2.816 -0.4455 -2.5087 -2.0791
 9234SOL     OW39337   1.557   0.748  13.338 -0.2129 -0.3639 -0.0271
 9234SOL    HW139338   1.601   0.691  13.275 -0.5045 -1.8873  1.1525
 9234SOL    HW239339   1.603   0.713  13.415 -2.8535 -0.2857  1.6077
 9235SOL     OW39340   0.168   1.119   4.282  0.0021  0.0125 -0.1718
 9235SOL    HW139341   0.144   1.157   4.366 -0.2044  0.1770 -0.3083
 9235SOL    HW239342   0.237   1.177   4.249  0.0288  0.4523  0.6537
 9236SOL     OW39343   3.842   4.410   9.547 -0.4082  0.0804 -0.7111
 9236SOL    HW139344   3.759   4.427   9.593 -0.7024 -2.3745 -0.2907
 9236SOL    HW239345   3.910   4.448   9.602 -1.6236 -0.7844  1.4147
 9237SOL     OW39346   4.201   0.600  16.948 -0.3187  0.0357  0.1548
 9237SOL    HW139347   4.158   0.654  17.014 -4.0050 -1.0478 -1.3828
 9237SOL    HW239348   4.218   0.522  16.999  1.9356 -0.1297 -0.8369
 9238SOL     OW39349   2.242   0.715  10.165  0.4202 -0.6499 -0.8487
 9238SOL    HW139350   2.294   0.773  10.221 -1.0508  1.1275 -1.3043
 9238SOL    HW239351   2.258   0.634  10.214 -1.7740 -0.6174 -0.0530
 9239SOL     OW39352   4.240   1.630  15.305 -0.3554  0.1506 -0.1389
 9239SOL    HW139353   4.315   1.651  15.249 -0.5903  1.8099  0.1899
 9239SOL    HW239354   4.204   1.718  15.300 -1.2517 -0.1677  0.8195
 9240SOL     OW39355   0.645   0.388   7.505  0.3874 -0.0245 -0.0235
 9240SOL    HW139356   0.718   0.408   7.564  1.2555  1.7630 -1.6933
 9240SOL    HW239357   0.573   0.372   7.566  0.7510 -0.3960  0.3109
 9241SOL     OW39358   1.493   1.436  16.128 -0.5208  0.7213  0.4341
 9241SOL    HW139359   1.552   1.361  16.118  0.0572  1.2491 -0.1788
 9241SOL    HW239360   1.512   1.494  16.053  1.2158  1.7902  1.6963
 9242SOL     OW39361   2.654   3.885  12.468  0.3979  0.1376 -0.3042
 9242SOL    HW139362   2.599   3.871  12.545  0.1336 -0.8862 -0.6812
 9242SOL    HW239363   2.680   3.973  12.496  1.3671 -0.2705  0.0530
 9243SOL     OW39364   2.809   2.163   7.311  0.4943 -0.0115 -0.2374
 9243SOL    HW139365   2.777   2.222   7.379  1.5924  1.2933 -0.8460
 9243SOL    HW239366   2.824   2.086   7.365 -1.5462 -0.7626 -0.7265
 9244SOL     OW39367   2.275   4.340   6.373  0.1593  0.3992  0.0800
 9244SOL    HW139368   2.193   4.304   6.340  1.6936 -1.4605 -1.7595
 9244SOL    HW239369   2.314   4.362   6.288  4.6894 -1.0986  1.7416
 9245SOL     OW39370   0.324   2.981   6.828 -0.0967 -0.2125  0.1617
 9245SOL    HW139371   0.268   3.058   6.815 -1.3662 -0.9417  1.2932
 9245SOL    HW239372   0.270   2.937   6.894 -1.3981 -0.3123 -0.9711
 9246SOL     OW39373   1.182   1.993   3.136  0.0945 -0.6722  0.2893
 9246SOL    HW139374   1.223   2.077   3.155 -2.0639 -0.0603  2.1598
 9246SOL    HW239375   1.149   2.010   3.048 -0.6187 -3.0625  0.1013
 9247SOL     OW39376   0.044   2.703   8.216  0.2832  0.0287 -0.0684
 9247SOL    HW139377   0.114   2.694   8.151  0.2973  0.5333 -0.1218
 9247SOL    HW239378   4.713   2.749   8.164  0.9396  1.3591  0.2833
 9248SOL     OW39379   2.409   1.691   1.753  0.1979  0.0556  1.0173
 9248SOL    HW139380   2.328   1.699   1.704  0.8202 -1.3824 -0.2267
 9248SOL    HW239381   2.399   1.598   1.773  1.5255 -0.3608 -0.2934
 9249SOL     OW39382   2.449   4.030   8.734  0.0409 -0.7360  0.2856
 9249SOL    HW139383   2.437   4.117   8.696 -0.5705  0.6575  3.5980
 9249SOL    HW239384   2.393   4.035   8.812  0.2181 -2.6689  0.5497
 9250SOL     OW39385   1.669   0.900   0.033 -0.3271 -0.0270  0.3833
 9250SOL    HW139386   1.588   0.892   0.083 -1.0057  1.0442 -0.5500
 9250SOL    HW239387   1.654   0.964  17.704 -1.1110 -1.6484 -0.9664
 9251SOL     OW39388   3.837   2.367   1.384 -0.7992  0.1310  0.3643
 9251SOL    HW139389   3.873   2.360   1.472 -1.6906 -1.8992  0.5662
 9251SOL    HW239390   3.746   2.344   1.404 -0.3097 -3.1241 -1.1246
 9252SOL     OW39391   2.962   0.426   8.779 -0.1324 -0.1940  0.3187
 9252SOL    HW139392   2.947   0.489   8.709  1.0007 -0.1005  0.1607
 9252SOL    HW239393   2.997   0.487   8.844 -0.2088  2.2898 -1.9658
 9253SOL     OW39394   0.724   2.080   5.895 -0.1465  0.1646  0.1745
 9253SOL    HW139395   0.761   1.992   5.903  0.9168  0.6366  0.3881
 9253SOL    HW239396   0.777   2.137   5.951 -0.9784  1.5482 -0.4436
 9254SOL     OW39397   4.264   2.819   3.947  0.5285 -0.3847 -0.0801
 9254SOL    HW139398   4.331   2.751   3.934  0.8554  0.3627 -2.4129
 9254SOL    HW239399   4.311   2.893   3.987 -1.8553  1.4875 -0.7326
 9255SOL     OW39400   1.457   3.192   3.816  0.1234  0.1310 -0.1080
 9255SOL    HW139401   1.365   3.188   3.788  0.2479 -0.0221 -0.4886
 9255SOL    HW239402   1.466   3.264   3.878  4.5905  0.6915 -1.4396
 9256SOL     OW39403   1.715   2.135   7.977  0.3872  0.0799  0.4238
 9256SOL    HW139404   1.772   2.138   7.900 -1.6396 -0.5689 -1.1175
 9256SOL    HW239405   1.658   2.206   7.947  0.6730 -0.4716 -1.4000
 9257SOL     OW39406   4.432   0.479  10.989 -0.0773  0.0931 -0.1662
 9257SOL    HW139407   4.410   0.396  11.032 -1.4988 -0.1460 -1.3394
 9257SOL    HW239408   4.395   0.542  11.052 -2.5305 -0.8893 -0.6153
 9258SOL     OW39409   4.068   3.770   2.599 -0.4346 -0.0268 -0.4590
 9258SOL    HW139410   4.159   3.742   2.584 -0.4970 -0.4779  0.0136
 9258SOL    HW239411   4.074   3.865   2.597  3.5527 -0.2358  0.9989
 9259SOL     OW39412   0.028   3.570   6.066 -0.3577  0.3262 -0.1655
 9259SOL    HW139413   0.055   3.630   5.996 -2.1839  0.9985 -0.3006
 9259SOL    HW239414   4.693   3.523   6.021  1.2718 -1.7993 -0.4559
 9260SOL     OW39415   3.105   0.783   8.701  0.1834 -0.5624 -0.3308
 9260SOL    HW139416   3.092   0.875   8.676 -0.4243 -0.3419  0.7685
 9260SOL    HW239417   3.199   0.770   8.691  0.1674  0.7882 -2.1973
 9261SOL     OW39418   2.222   0.966  16.292  0.3063 -0.0691  0.6637
 9261SOL    HW139419   2.216   1.058  16.265  0.5867 -0.2179  0.0963
 9261SOL    HW239420   2.317   0.973  16.280  0.0845 -1.9996 -2.3234
 9262SOL     OW39421   4.606   0.241   4.644 -0.0333 -0.1827 -0.0112
 9262SOL    HW139422   4.581   0.322   4.599  2.8065  0.6079 -0.1348
 9262SOL    HW239423   4.529   0.235   4.701  0.5986 -1.4752  0.7051
 9263SOL     OW39424   1.443   4.468   4.733 -0.1584 -0.1607  0.3912
 9263SOL    HW139425   1.352   4.441   4.721 -0.0866  0.8308 -2.2271
 9263SOL    HW239426   1.439   4.563   4.721  1.5724 -0.3947 -2.0568
 9264SOL     OW39427   1.373   0.833   7.349 -0.4241  0.4929 -0.1704
 9264SOL    HW139428   1.357   0.739   7.360  2.0466 -0.1572 -2.1148
 9264SOL    HW239429   1.286   0.862   7.323 -1.7024 -2.7455  0.5124
 9265SOL     OW39430   1.866   4.674  16.327  0.7945  0.2914 -0.0240
 9265SOL    HW139431   1.890   4.638  16.241  3.5723  2.5187 -0.1713
 9265SOL    HW239432   1.934   4.653  16.391 -1.4601  0.4432  2.3991
 9266SOL     OW39433   2.786   0.683  13.674 -0.5822  0.4950  0.4681
 9266SOL    HW139434   2.708   0.728  13.708 -1.7265 -0.6192 -0.6518
 9266SOL    HW239435   2.815   0.643  13.756  0.3357 -0.5428 -0.3698
 9267SOL     OW39436   2.150   1.737  13.384  0.0802 -0.2361 -0.4147
 9267SOL    HW139437   2.090   1.775  13.448  0.6393  0.5482 -0.3468
 9267SOL    HW239438   2.092   1.702  13.316  0.4111  0.0045 -0.8230
 9268SOL     OW39439   4.396   0.265   9.812 -0.0068  0.1443 -0.1401
 9268SOL    HW139440   4.484   0.301   9.828  0.6804 -0.5130 -2.3205
 9268SOL    HW239441   4.389   0.299   9.723  1.3034 -1.7013 -0.9599
 9269SOL     OW39442   2.370   0.142   3.492 -0.6313 -0.1961 -0.2948
 9269SOL    HW139443   2.406   0.160   3.406  1.7428 -1.2379  0.4904
 9269SOL    HW239444   2.390   0.049   3.503 -3.0971 -0.8403 -1.1819
 9270SOL     OW39445   3.130   1.925   8.649 -0.0295  0.4091 -0.1564
 9270SOL    HW139446   3.222   1.928   8.623 -0.5514  0.0267 -2.0087
 9270SOL    HW239447   3.109   1.833   8.636 -1.1875  0.7494 -0.6919
 9271SOL     OW39448   3.894   4.424   3.868 -0.0079  0.2663  0.1971
 9271SOL    HW139449   3.875   4.330   3.864 -2.0752  0.7990 -2.5651
 9271SOL    HW239450   3.820   4.456   3.816  0.9874  2.1322 -0.0745
 9272SOL     OW39451   4.520   3.319   8.196 -0.1531  0.2682 -0.4278
 9272SOL    HW139452   4.534   3.399   8.247  0.0779  1.4505 -2.3585
 9272SOL    HW239453   4.582   3.262   8.241 -1.9861 -0.5039  1.1198
 9273SOL     OW39454   2.429   1.794  15.513 -0.4174 -0.4908  0.4096
 9273SOL    HW139455   2.438   1.878  15.467  0.2212 -1.2141 -0.7770
 9273SOL    HW239456   2.518   1.777  15.545 -1.0376 -0.2721  2.2591
 9274SOL     OW39457   1.684   1.276   7.906  0.9195 -0.6559  0.3205
 9274SOL    HW139458   1.647   1.324   7.981  0.1984 -0.6415 -0.0532
 9274SOL    HW239459   1.667   1.185   7.931  0.0787 -0.5235  0.2199
 9275SOL     OW39460   0.450   1.636   9.229 -0.1060 -0.5265  0.3211
 9275SOL    HW139461   0.431   1.592   9.146 -0.4915 -0.5544  0.4251
 9275SOL    HW239462   0.545   1.642   9.231 -0.0931 -0.7364  0.2866
 9276SOL     OW39463   3.713   3.860   6.807 -0.2867  0.3763 -0.5106
 9276SOL    HW139464   3.753   3.775   6.789  1.0927  0.6722  1.1669
 9276SOL    HW239465   3.642   3.860   6.743 -0.2804 -2.0316 -0.5303
 9277SOL     OW39466   3.455   3.257   5.188  0.2244  0.8413  0.9370
 9277SOL    HW139467   3.524   3.276   5.126 -0.5663  0.1127 -0.1632
 9277SOL    HW239468   3.433   3.345   5.218 -1.5547  0.6174  0.3185
 9278SOL     OW39469   1.395   4.242   0.768  0.7388 -0.2938 -0.1121
 9278SOL    HW139470   1.444   4.325   0.767  1.3694 -0.6920 -2.4746
 9278SOL    HW239471   1.457   4.177   0.735  0.1000 -0.1589 -1.5655
 9279SOL     OW39472   3.156   3.067  17.157  0.3445 -0.1534  0.5055
 9279SOL    HW139473   3.199   3.016  17.225  0.6862  0.6367  0.8787
 9279SOL    HW239474   3.193   3.155  17.160  0.7730 -0.3355  0.5544
 9280SOL     OW39475   4.164   4.679  16.849 -0.0127 -0.1342 -0.4888
 9280SOL    HW139476   4.171   0.035  16.820 -0.5725  0.0066 -0.1835
 9280SOL    HW239477   4.175   4.629  16.768  1.0983  1.7398 -1.5109
 9281SOL     OW39478   0.711   4.381   9.005  0.2689  0.3215  0.2591
 9281SOL    HW139479   0.717   4.446   8.936 -0.3172  1.4481  1.2618
 9281SOL    HW239480   0.794   4.398   9.051  0.4906 -0.5120  0.1674
 9282SOL     OW39481   3.252   0.187  10.101 -0.0500  0.7331 -0.0774
 9282SOL    HW139482   3.249   0.167  10.007  0.1116  0.1598  0.0408
 9282SOL    HW239483   3.303   0.268  10.096  1.3515 -0.2617 -1.7650
 9283SOL     OW39484   3.290   2.756   7.628  0.1051 -0.1959  0.7149
 9283SOL    HW139485   3.381   2.778   7.649 -0.3491  2.0046  0.4150
 9283SOL    HW239486   3.305   2.662   7.619 -2.9289 -0.7042  0.9083
 9284SOL     OW39487   2.992   4.668   6.406 -0.3109 -0.2993 -0.0521
 9284SOL    HW139488   2.949   4.587   6.430  0.3353 -0.1000  1.7682
 9284SOL    HW239489   3.084   4.651   6.428  1.2590  2.9233 -3.9464
 9285SOL     OW39490   2.726   2.345   3.547 -0.0715 -0.1127  0.1759
 9285SOL    HW139491   2.672   2.382   3.477  1.3022  1.9179  0.2112
 9285SOL    HW239492   2.746   2.421   3.602  2.0038  0.9539 -2.0619
 9286SOL     OW39493   4.048   0.085   3.050 -0.6984 -0.3866  0.5491
 9286SOL    HW139494   3.978   0.077   3.114 -0.6991  2.2783  0.9005
 9286SOL    HW239495   4.124   0.076   3.107 -0.0630  0.5246 -0.1442
 9287SOL     OW39496   1.384   0.112   2.218  0.0130 -0.3404  0.6445
 9287SOL    HW139497   1.320   0.159   2.271  0.5337  0.0045  0.9734
 9287SOL    HW239498   1.442   0.182   2.188  0.8087 -2.4685 -2.8083
 9288SOL     OW39499   3.631   0.291   4.532 -0.4714  0.1269 -0.6417
 9288SOL    HW139500   3.677   0.238   4.597 -1.7411 -1.7244 -1.2585
 9288SOL    HW239501   3.631   0.380   4.565 -1.2808  0.5517 -1.7905
 9289SOL     OW39502   0.920   3.647  15.405 -0.2076 -0.2081 -0.5965
 9289SOL    HW139503   0.876   3.719  15.452  0.4362  0.2940 -0.7516
 9289SOL    HW239504   0.918   3.687  15.318  0.0139 -3.2301 -1.9890
 9290SOL     OW39505   0.043   1.688   8.981 -0.0765  0.1201  0.0143
 9290SOL    HW139506   0.104   1.709   8.910  0.7452 -0.1831  0.6217
 9290SOL    HW239507   0.093   1.629   9.038 -1.6264 -1.0099  0.2045
 9291SOL     OW39508   4.310   1.568  13.386  0.3755 -0.7056  0.4211
 9291SOL    HW139509   4.371   1.598  13.318 -2.3920  1.3145 -1.2172
 9291SOL    HW239510   4.261   1.649  13.403 -1.0406 -1.7406  1.2791
 9292SOL     OW39511   2.927   4.597   2.152 -0.1331  0.3656 -0.1167
 9292SOL    HW139512   2.992   4.645   2.102  0.4333 -1.5171 -1.2121
 9292SOL    HW239513   2.952   4.507   2.131  2.9051  1.1660  0.0543
 9293SOL     OW39514   0.584   2.983   5.693  0.2555  0.0364 -0.0799
 9293SOL    HW139515   0.508   2.942   5.650 -0.3685  2.1491 -0.9528
 9293SOL    HW239516   0.562   2.966   5.785 -1.2215  0.7012 -0.3125
 9294SOL     OW39517   0.727   3.400  12.887 -0.1254  0.0492  0.2163
 9294SOL    HW139518   0.720   3.452  12.967  1.1049  0.1271  0.2728
 9294SOL    HW239519   0.822   3.400  12.873 -0.6180 -1.2328 -3.2336
 9295SOL     OW39520   1.102   3.589   1.625 -0.1113  0.7782  0.7234
 9295SOL    HW139521   1.066   3.570   1.711  0.1604  0.0275  0.6683
 9295SOL    HW239522   1.084   3.512   1.571  2.2439  0.0028  1.0347
 9296SOL     OW39523   2.303   1.052  12.659 -0.4898 -0.1723  0.2094
 9296SOL    HW139524   2.236   1.062  12.590 -0.8017  0.1023  0.5567
 9296SOL    HW239525   2.315   1.146  12.671 -0.3886 -0.4006  1.8338
 9297SOL     OW39526   4.227   3.106   9.100 -0.1530 -0.4462 -0.1516
 9297SOL    HW139527   4.291   3.169   9.067  1.1197 -2.0212 -0.6396
 9297SOL    HW239528   4.142   3.147   9.082  0.2338  0.7948  0.8693
 9298SOL     OW39529   3.307   1.495   1.291  0.7160  0.2644 -0.0412
 9298SOL    HW139530   3.252   1.502   1.213 -0.9686 -1.9165  0.9543
 9298SOL    HW239531   3.253   1.548   1.349 -0.0650  1.5991 -2.0060
 9299SOL     OW39532   3.997   3.029   3.523  0.6996 -0.2320 -0.1297
 9299SOL    HW139533   3.916   2.981   3.545  1.4188 -0.2852  2.4804
 9299SOL    HW239534   3.965   3.119   3.522  2.0948  0.2273 -1.6761
 9300SOL     OW39535   0.451   1.265   7.511 -0.2183  1.0864 -0.0906
 9300SOL    HW139536   0.410   1.195   7.460  0.5939 -1.3586  2.5351
 9300SOL    HW239537   0.416   1.351   7.489 -0.1508  1.2948  0.6134
 9301SOL     OW39538   1.382   4.534   5.493  0.3938 -0.1829 -0.0644
 9301SOL    HW139539   1.356   4.605   5.551 -2.3557 -1.5630  0.3646
 9301SOL    HW239540   1.477   4.544   5.492  0.0230  3.4279  2.0017
 9302SOL     OW39541   3.603   0.326   8.696  0.2926  0.2460  0.1248
 9302SOL    HW139542   3.638   0.413   8.677 -0.9616  0.6423 -0.4262
 9302SOL    HW239543   3.523   0.350   8.743  0.9089  0.0549  1.2782
 9303SOL     OW39544   3.935   2.144   7.019  0.3112  0.7005 -0.1652
 9303SOL    HW139545   3.940   2.205   6.945 -0.7578 -1.1213 -1.7520
 9303SOL    HW239546   3.849   2.168   7.055 -0.1072  1.3310 -1.5888
 9304SOL     OW39547   0.869   3.923   8.152  0.3995  0.5328  0.5104
 9304SOL    HW139548   0.907   3.924   8.064  2.1634 -0.1860  1.2630
 9304SOL    HW239549   0.938   3.961   8.206  1.0034  1.6322 -1.0508
 9305SOL     OW39550   3.975   3.813   7.996 -0.6905 -0.4294  0.5370
 9305SOL    HW139551   4.041   3.746   7.978  2.1869  1.9399  2.2509
 9305SOL    HW239552   3.991   3.817   8.090  1.3354 -1.0640  0.2133
 9306SOL     OW39553   1.489   3.292   5.248  0.4439 -0.1077  0.0610
 9306SOL    HW139554   1.444   3.340   5.317 -0.8627 -0.1771 -0.7568
 9306SOL    HW239555   1.536   3.362   5.204 -2.0998  1.2416 -0.4873
 9307SOL     OW39556   0.530   0.277  13.254  0.2708 -0.0468 -0.4023
 9307SOL    HW139557   0.562   0.257  13.342 -0.8975 -0.8030 -0.1540
 9307SOL    HW239558   0.454   0.219  13.261  0.1888 -0.0009 -0.9317
 9308SOL     OW39559   0.819   1.873   4.657 -0.0760 -0.2837 -0.2197
 9308SOL    HW139560   0.877   1.800   4.680  0.7990  0.5172  0.1149
 9308SOL    HW239561   0.864   1.923   4.590  1.1533 -1.1098 -0.0071
 9309SOL     OW39562   3.930   0.359   6.078  0.2868  0.0632 -0.3595
 9309SOL    HW139563   3.965   0.356   6.167  1.8575 -2.0277 -1.0806
 9309SOL    HW239564   3.888   0.446   6.079  0.6200  0.2052  1.2186
 9310SOL     OW39565   4.515   0.867   8.203  0.3106  0.1579 -0.0234
 9310SOL    HW139566   4.455   0.886   8.131  0.2863 -0.5196 -0.1837
 9310SOL    HW239567   4.473   0.918   8.272  1.3205 -1.5373  1.8535
 9311SOL     OW39568   1.555   1.297   7.136  0.2307  0.0219 -0.1765
 9311SOL    HW139569   1.522   1.374   7.089  0.6637  0.4082  0.1599
 9311SOL    HW239570   1.483   1.288   7.198 -0.9825 -1.6382 -1.8181
 9312SOL     OW39571   1.531   2.946  10.631  0.5496 -0.2620 -0.0766
 9312SOL    HW139572   1.436   2.931  10.627  0.3508  0.5316  1.4830
 9312SOL    HW239573   1.555   3.039  10.637  0.0992 -0.1454 -0.0370
 9313SOL     OW39574   3.356   1.428   4.352 -0.1033  0.2020  0.0766
 9313SOL    HW139575   3.441   1.472   4.354  0.3219 -0.7698  2.1532
 9313SOL    HW239576   3.371   1.336   4.371 -0.3193  0.4100  1.2317
 9314SOL     OW39577   1.580   3.436  10.084 -0.4378 -0.4198 -0.0221
 9314SOL    HW139578   1.601   3.395  10.168 -0.6249 -1.1433 -0.3358
 9314SOL    HW239579   1.531   3.366  10.042 -0.4620 -0.9617  0.9152
 9315SOL     OW39580   3.707   3.525   8.949  0.5953 -0.2133  0.2681
 9315SOL    HW139581   3.644   3.588   8.983 -1.7360 -2.2773 -0.1600
 9315SOL    HW239582   3.777   3.524   9.014 -0.7330  0.3541  1.7090
 9316SOL     OW39583   1.773   4.624  13.506 -0.9269 -0.1843  0.0648
 9316SOL    HW139584   1.833   4.698  13.495  0.4467 -1.0447  1.9039
 9316SOL    HW239585   1.786   4.604  13.598 -0.0583  2.7143  0.5819
 9317SOL     OW39586   0.136   0.597   5.047 -0.0934  0.1971  0.0703
 9317SOL    HW139587   0.129   0.674   4.991  0.7280  0.2838  0.0832
 9317SOL    HW239588   0.151   0.528   4.983  5.4157  2.1438 -0.7844
 9318SOL     OW39589   0.826   2.543   8.040  0.2708 -0.5790  0.0530
 9318SOL    HW139590   0.814   2.462   7.989 -0.8868  0.4116 -1.2320
 9318SOL    HW239591   0.810   2.613   7.977 -0.3173 -0.7028  0.0708
 9319SOL     OW39592   3.308   2.555   8.168  0.2268  0.1725 -0.1147
 9319SOL    HW139593   3.280   2.464   8.159 -1.7296  0.6736  0.9946
 9319SOL    HW239594   3.298   2.558   8.263  0.4928  0.5324 -0.0982
 9320SOL     OW39595   1.097   3.683  17.591  0.0063  0.6114 -0.0619
 9320SOL    HW139596   1.091   3.654  17.501 -1.5666 -0.0145  0.2571
 9320SOL    HW239597   1.094   3.603  17.643  0.7386  1.2959  1.0379
 9321SOL     OW39598   4.516   3.959   4.345  0.3665 -0.6694 -0.4513
 9321SOL    HW139599   4.552   3.997   4.264 -1.7479  0.7729 -0.7288
 9321SOL    HW239600   4.593   3.907   4.366 -0.3947 -1.0416  1.3691
 9322SOL     OW39601   0.759   2.697  12.402 -0.5313 -0.2257 -0.0321
 9322SOL    HW139602   0.741   2.692  12.308  2.1366  1.8467 -0.6413
 9322SOL    HW239603   0.838   2.752  12.399  0.2961 -1.3278  1.3915
 9323SOL     OW39604   3.923   2.199   4.894  0.1049  0.0064  0.3223
 9323SOL    HW139605   3.872   2.119   4.893 -0.8074  0.6083 -2.1966
 9323SOL    HW239606   3.856   2.268   4.904  2.2866  1.8666  2.0516
 9324SOL     OW39607   1.184   1.120   3.698  0.3130  0.0891  0.2610
 9324SOL    HW139608   1.274   1.088   3.687  1.0336  2.3206 -0.4277
 9324SOL    HW239609   1.147   1.044   3.742 -0.3603  0.2996  0.0509
 9325SOL     OW39610   3.667   2.326   6.871 -0.1228  0.5333  0.1995
 9325SOL    HW139611   3.746   2.276   6.849  0.7158  1.3741  1.3322
 9325SOL    HW239612   3.620   2.340   6.788 -0.5076  0.0117  0.3343
 9326SOL     OW39613   1.026   1.702   7.695 -0.8149  0.0787 -0.1216
 9326SOL    HW139614   0.969   1.753   7.752 -1.7109  0.5138 -1.4114
 9326SOL    HW239615   1.035   1.622   7.748  3.3991  0.4688 -0.2187
 9327SOL     OW39616   3.530   2.815   5.993  0.4172 -0.5086 -0.4460
 9327SOL    HW139617   3.483   2.888   6.034 -0.5757 -0.3962 -1.7558
 9327SOL    HW239618   3.479   2.777   5.920 -0.7340 -0.4859  0.3441
 9328SOL     OW39619   2.413   0.968   3.191 -0.0772 -0.0316  0.5435
 9328SOL    HW139620   2.376   0.880   3.179  0.2381 -0.0241 -0.4562
 9328SOL    HW239621   2.395   0.982   3.284  2.0410  3.2562  0.4623
 9329SOL     OW39622   4.481   2.316   7.300  0.1318  0.0474  0.0960
 9329SOL    HW139623   4.515   2.367   7.226 -0.4841  0.2327 -0.0652
 9329SOL    HW239624   4.391   2.350   7.293 -0.7234 -2.2216  0.0660
 9330SOL     OW39625   3.803   1.304   9.285  0.0306  0.1967  0.1624
 9330SOL    HW139626   3.745   1.258   9.224  0.1100  0.1683  0.1096
 9330SOL    HW239627   3.766   1.392   9.274  1.0037  0.6280  0.3106
 9331SOL     OW39628   3.936   2.488   1.817  0.3615  0.6335 -0.2064
 9331SOL    HW139629   3.949   2.403   1.775  1.2045 -0.1315  1.6337
 9331SOL    HW239630   3.963   2.541   1.741  2.3972  1.5691  1.1711
 9332SOL     OW39631   1.537   3.448  11.675 -0.2778  0.6241  0.7831
 9332SOL    HW139632   1.527   3.356  11.652 -0.4180  0.9756 -0.5923
 9332SOL    HW239633   1.568   3.435  11.765  1.3090 -0.7178  0.0372
 9333SOL     OW39634   3.808   3.603   5.720  0.2309  0.3317  0.0064
 9333SOL    HW139635   3.755   3.547   5.664  0.7467 -0.7760  0.6366
 9333SOL    HW239636   3.749   3.679   5.725 -0.7535 -0.3361 -1.3676
 9334SOL     OW39637   1.385   1.319   5.662  0.2585  0.4659 -0.3553
 9334SOL    HW139638   1.455   1.340   5.724 -1.6958 -0.3553  2.1099
 9334SOL    HW239639   1.303   1.343   5.706  0.8299  2.7633 -0.5118
 9335SOL     OW39640   4.491   0.482  17.607  0.3055 -0.2120  0.2492
 9335SOL    HW139641   4.537   0.442  17.681 -0.3946  1.6229  1.6645
 9335SOL    HW239642   4.440   0.409  17.571 -0.4182 -0.0138  0.8699
 9336SOL     OW39643   4.143   3.964  15.432 -0.0899 -0.3105 -0.5442
 9336SOL    HW139644   4.234   3.993  15.427 -0.2795  0.4320  0.3156
 9336SOL    HW239645   4.111   4.042  15.479 -0.1453 -2.0884  2.3884
 9337SOL     OW39646   3.783   1.834   9.626 -0.1563 -0.5297  0.2697
 9337SOL    HW139647   3.873   1.818   9.599 -0.8921 -0.5260 -2.1380
 9337SOL    HW239648   3.797   1.842   9.721  0.4091 -0.2372  0.1608
 9338SOL     OW39649   1.696   1.814   8.266 -0.8166 -0.1848 -0.3795
 9338SOL    HW139650   1.766   1.752   8.284 -0.4794  0.2215 -0.2772
 9338SOL    HW239651   1.638   1.813   8.341 -0.5091 -0.3830 -0.1471
 9339SOL     OW39652   2.064   1.501  16.650 -0.3032 -0.1459 -0.1237
 9339SOL    HW139653   2.066   1.406  16.650 -1.6343 -0.1718 -0.5804
 9339SOL    HW239654   2.038   1.522  16.560 -0.9019 -0.2887  0.0190
 9340SOL     OW39655   1.609   2.520  16.193 -0.2267  0.3856 -0.4953
 9340SOL    HW139656   1.669   2.513  16.119 -0.2517 -0.1258 -0.4716
 9340SOL    HW239657   1.559   2.597  16.168 -1.6004  0.4033  2.2433
 9341SOL     OW39658   1.501   2.922   3.358  0.1768  0.7416 -0.1478
 9341SOL    HW139659   1.549   2.848   3.320  1.0219  0.8077  0.7976
 9341SOL    HW239660   1.497   2.975   3.279 -1.1862  1.4832  0.4209
 9342SOL     OW39661   4.684   1.831  11.938  0.1557 -0.4101 -0.3354
 9342SOL    HW139662   4.617   1.768  11.913  0.1688 -0.8525  0.7685
 9342SOL    HW239663   4.625   1.904  11.958  0.1364  0.6879 -4.2608
 9343SOL     OW39664   0.608   3.258   8.094  0.1707  0.6985  0.5212
 9343SOL    HW139665   0.589   3.168   8.066  0.8470  1.1111 -1.2412
 9343SOL    HW239666   0.629   3.244   8.187 -0.0957 -0.9125  0.3495
 9344SOL     OW39667   4.389   2.394   8.455  0.4448  0.1162  0.6190
 9344SOL    HW139668   4.347   2.480   8.466  0.4067 -0.2542  3.4114
 9344SOL    HW239669   4.310   2.348   8.481  0.8408 -1.7526 -1.5578
 9345SOL     OW39670   2.674   2.770   6.745 -0.3825 -0.5280  0.3464
 9345SOL    HW139671   2.695   2.789   6.836  3.3787 -1.2809 -0.3456
 9345SOL    HW239672   2.693   2.676   6.743 -1.7472 -0.8084  0.8681
 9346SOL     OW39673   3.006   1.656   4.046  0.2108  0.1472 -0.4091
 9346SOL    HW139674   3.064   1.662   4.122  0.2653 -0.1709 -0.4247
 9346SOL    HW239675   3.017   1.741   4.003  0.2219  1.6841  2.6440
 9347SOL     OW39676   3.740   1.960   3.035  0.6129 -0.2433 -0.7660
 9347SOL    HW139677   3.655   1.948   3.078  1.3771  0.7396  1.0031
 9347SOL    HW239678   3.804   1.942   3.103  0.0343 -2.4041 -0.8042
 9348SOL     OW39679   3.710   0.685   5.328  1.0115  0.2631  0.0432
 9348SOL    HW139680   3.693   0.749   5.397  0.2845  0.8033 -0.6383
 9348SOL    HW239681   3.721   0.611   5.388 -0.2456  0.0051 -0.0513
 9349SOL     OW39682   2.470   2.535   4.769  0.8743 -0.1086  0.3584
 9349SOL    HW139683   2.435   2.455   4.729  0.7264  0.5137 -0.7547
 9349SOL    HW239684   2.394   2.592   4.764  0.9314  0.0583  1.4159
 9350SOL     OW39685   2.130   2.743  16.935  0.3911  0.6955 -0.4762
 9350SOL    HW139686   2.197   2.700  16.882  1.1659  1.5591 -0.2052
 9350SOL    HW239687   2.112   2.815  16.875 -0.7058  1.5365  0.8574
 9351SOL     OW39688   2.461   1.059  16.235  0.4835 -0.8418  0.9213
 9351SOL    HW139689   2.496   1.140  16.197 -0.4696 -0.7875  0.1474
 9351SOL    HW239690   2.535   1.001  16.215  0.6569 -0.6365  0.9546
 9352SOL     OW39691   4.478   0.473  13.442  0.3231  0.1893  0.0016
 9352SOL    HW139692   4.532   0.403  13.478  1.3479  1.3387  0.6976
 9352SOL    HW239693   4.412   0.420  13.397  0.0694  0.4222  0.1034
 9353SOL     OW39694   4.183   3.782   4.374  0.3963  0.0689  0.0572
 9353SOL    HW139695   4.099   3.804   4.415 -0.2380 -1.3107 -0.4963
 9353SOL    HW239696   4.168   3.790   4.280  1.4067 -2.9219 -0.3713
 9354SOL     OW39697   3.733   1.595   9.235 -0.8729  0.3831 -0.2187
 9354SOL    HW139698   3.683   1.662   9.189 -0.1137  1.1582  0.0991
 9354SOL    HW239699   3.820   1.591   9.195 -0.2457  0.6190  1.1425
 9355SOL     OW39700   3.474   3.709  14.747 -0.3140  0.0509 -0.0632
 9355SOL    HW139701   3.530   3.780  14.777  0.4415 -0.1298 -1.0348
 9355SOL    HW239702   3.505   3.709  14.656 -0.4732 -1.5124 -0.1185
 9356SOL     OW39703   3.998   0.710   5.208  0.1623  0.3912 -0.2456
 9356SOL    HW139704   3.981   0.649   5.136  1.5404  0.4757 -0.6418
 9356SOL    HW239705   3.917   0.696   5.257  0.6639  0.2131  0.5214
 9357SOL     OW39706   2.610   4.423  17.264 -0.2244  0.3153 -0.0142
 9357SOL    HW139707   2.558   4.371  17.202  2.2354  0.6966 -2.3667
 9357SOL    HW239708   2.677   4.363  17.293 -1.0508 -1.0000 -0.8255
 9358SOL     OW39709   1.090   2.572   8.042  0.1993 -0.4436  0.2213
 9358SOL    HW139710   1.005   2.608   8.015 -1.0011 -1.8521  2.1473
 9358SOL    HW239711   1.072   2.500   8.103 -3.5166  0.7668  0.5801
 9359SOL     OW39712   4.158   4.705   7.369  0.1839  0.2860  0.0865
 9359SOL    HW139713   4.119   4.636   7.423  1.5421  1.0649  2.0309
 9359SOL    HW239714   4.102   0.046   7.382  1.7002  1.5772 -1.0639
 9360SOL     OW39715   2.060   3.358   3.723 -0.0159  0.0656  0.2253
 9360SOL    HW139716   2.021   3.313   3.798 -1.2421 -1.1065 -1.1172
 9360SOL    HW239717   2.000   3.428   3.698  1.7228  1.6480  0.4762
 9361SOL     OW39718   2.435   4.135   5.096  0.0607 -0.5255  0.0261
 9361SOL    HW139719   2.418   4.094   5.012 -1.8161  0.0150  0.1356
 9361SOL    HW239720   2.517   4.097   5.127  0.4247 -1.7349 -2.4351
 9362SOL     OW39721   0.404   1.066  17.624  0.2585 -0.0770  0.1870
 9362SOL    HW139722   0.363   1.052  17.538  3.9319 -0.9123 -1.4111
 9362SOL    HW239723   0.482   1.010  17.630  0.6699  0.7024  1.9715
 9363SOL     OW39724   1.919   1.111   3.857 -0.2243  0.3422  0.4702
 9363SOL    HW139725   1.929   1.168   3.934 -1.4627 -1.5464  2.0370
 9363SOL    HW239726   1.954   1.027   3.888 -0.4774  0.2479  0.4978
 9364SOL     OW39727   3.350   2.599   7.902  0.2247  0.3479 -0.0320
 9364SOL    HW139728   3.329   2.598   7.996 -1.4443 -1.6265 -0.4238
 9364SOL    HW239729   3.381   2.690   7.896 -1.4742  1.0821  2.1258
 9365SOL     OW39730   3.388   4.635   2.527 -0.5676  0.1197 -0.1923
 9365SOL    HW139731   3.471   4.592   2.545 -1.1916 -1.6917 -1.6636
 9365SOL    HW239732   3.338   4.564   2.485  0.4692 -0.7040 -0.0160
 9366SOL     OW39733   0.639   0.970   6.558  0.2593  0.0130  0.0179
 9366SOL    HW139734   0.724   0.981   6.602  0.0510  1.8648 -0.0724
 9366SOL    HW239735   0.657   0.971   6.464 -1.3128 -0.4021 -0.2820
 9367SOL     OW39736   0.916   1.916   3.199  0.3762  0.4168  1.1024
 9367SOL    HW139737   0.994   1.972   3.199 -0.2037  1.2331  0.5427
 9367SOL    HW239738   0.946   1.831   3.166 -0.2136  1.0457 -1.0718
 9368SOL     OW39739   2.112   0.234   3.394  0.6186 -0.2256  0.0680
 9368SOL    HW139740   2.182   0.172   3.373  1.0412 -0.1728  1.3053
 9368SOL    HW239741   2.092   0.197   3.480 -2.0647  0.2380 -0.3616
 9369SOL     OW39742   0.078   0.193   7.968 -0.0541  0.3956 -0.1199
 9369SOL    HW139743   4.725   0.225   7.983  0.4169  1.1466  1.1513
 9369SOL    HW239744   0.077   0.123   8.033  1.6760 -0.3314 -0.8746
 9370SOL     OW39745   2.741   3.471   7.178  0.0003  0.0113 -0.1112
 9370SOL    HW139746   2.793   3.418   7.118  1.1500  0.8514  0.1604
 9370SOL    HW239747   2.658   3.487   7.133 -0.1181 -0.7839 -0.1622
 9371SOL     OW39748   2.035   0.574   7.606 -0.9843 -0.6895 -0.0001
 9371SOL    HW139749   2.027   0.494   7.659 -1.8599 -0.1270  0.7296
 9371SOL    HW239750   2.100   0.619   7.660 -1.0202  0.5268 -0.9664
 9372SOL     OW39751   1.677   3.263  11.920  0.2877  0.6691 -0.8035
 9372SOL    HW139752   1.718   3.229  12.000  1.1124  0.1217 -1.4524
 9372SOL    HW239753   1.709   3.353  11.914  0.3772  0.5397 -2.1807
 9373SOL     OW39754   2.393   1.488   7.619  0.2003 -0.1821  0.6438
 9373SOL    HW139755   2.457   1.540   7.572 -1.4769  1.9952  0.7328
 9373SOL    HW239756   2.400   1.402   7.580  0.0902  0.3591 -0.5690
 9374SOL     OW39757   0.560   0.891  12.414  0.1017 -0.5458 -0.3500
 9374SOL    HW139758   0.529   0.805  12.385  0.0118 -1.2752  1.9231
 9374SOL    HW239759   0.650   0.868  12.438 -0.0595 -0.5368  0.2541
 9375SOL     OW39760   3.540   4.569   6.911 -0.3442  0.2195 -0.4426
 9375SOL    HW139761   3.466   4.598   6.964 -0.9775 -2.9816  0.3903
 9375SOL    HW239762   3.586   4.650   6.888  0.3318  0.5942  2.2954
 9376SOL     OW39763   2.923   3.589   0.624  0.4084 -0.4451 -0.1160
 9376SOL    HW139764   2.982   3.654   0.664 -2.0276  0.9133  1.2539
 9376SOL    HW239765   2.979   3.539   0.565  1.8534  3.2802 -1.8847
 9377SOL     OW39766   2.140   3.175   5.565 -0.0901  0.0858 -0.0556
 9377SOL    HW139767   2.101   3.254   5.602 -1.0800  0.2426 -1.4521
 9377SOL    HW239768   2.068   3.113   5.557 -0.9367  0.9533  0.9274
 9378SOL     OW39769   1.963   0.534   5.782  0.1326 -0.2142 -0.2361
 9378SOL    HW139770   1.910   0.548   5.703 -0.7212 -1.2737  0.1627
 9378SOL    HW239771   2.029   0.484   5.734 -0.2488 -1.1471  0.2130
 9379SOL     OW39772   2.733   1.579  15.937 -0.2664  0.0811 -0.3223
 9379SOL    HW139773   2.771   1.664  15.913  1.6779 -0.8092 -0.4140
 9379SOL    HW239774   2.691   1.560  15.853 -0.1319 -1.9724  0.0624
 9380SOL     OW39775   0.851   3.411   6.080  0.1104 -0.0462 -0.2390
 9380SOL    HW139776   0.860   3.441   5.990 -1.7294 -0.8720 -0.7085
 9380SOL    HW239777   0.903   3.331   6.069  0.5884  0.2292 -0.0032
 9381SOL     OW39778   0.127   2.966  10.870  0.3366  0.5349  0.1858
 9381SOL    HW139779   0.202   2.971  10.810 -0.2465 -1.4491 -0.7135
 9381SOL    HW239780   0.059   2.924  10.816  0.2403  0.6614  0.2099
 9382SOL     OW39781   4.172   3.249  12.005 -0.5680  0.3623  0.8746
 9382SOL    HW139782   4.115   3.326  11.995  2.0422  2.1958  0.1461
 9382SOL    HW239783   4.144   3.193  11.933  2.2812  0.1719 -0.0560
 9383SOL     OW39784   4.716   1.143  10.335 -0.0908 -0.1621  0.2669
 9383SOL    HW139785   0.009   1.206  10.402 -2.2199  1.9844 -0.8492
 9383SOL    HW239786   4.734   1.066  10.388  0.8490  1.3016  2.1094
 9384SOL     OW39787   3.055   0.895   6.317 -0.9681  0.6043  0.0692
 9384SOL    HW139788   2.997   0.819   6.315 -2.2547  1.5592  0.6182
 9384SOL    HW239789   3.144   0.862   6.331 -0.8132  1.1168  0.3146
 9385SOL     OW39790   1.762   3.641   7.200  0.1267 -0.1102 -0.9856
 9385SOL    HW139791   1.836   3.700   7.214  0.8462 -0.8117 -1.8184
 9385SOL    HW239792   1.692   3.698   7.166  1.5813  1.3395 -1.5706
 9386SOL     OW39793   4.665   2.176   5.483 -0.1419 -0.0928  0.1445
 9386SOL    HW139794   4.673   2.268   5.457  2.8992 -0.1557  0.9556
 9386SOL    HW239795   4.571   2.177   5.503  0.1075  0.1207  1.2813
 9387SOL     OW39796   2.199   4.596   4.169  0.2007 -0.2238 -0.3863
 9387SOL    HW139797   2.137   4.631   4.106 -0.6406  0.2265  0.6831
 9387SOL    HW239798   2.168   4.513   4.205  1.2373 -0.2018  0.5768
 9388SOL     OW39799   4.452   0.286   3.340 -0.0210  0.0802 -0.7731
 9388SOL    HW139800   4.527   0.226   3.348 -1.3099 -1.6130 -1.3321
 9388SOL    HW239801   4.498   0.359   3.299  1.7687 -0.5298  0.1277
 9389SOL     OW39802   4.474   0.412   5.003  0.1896 -0.0333  0.4227
 9389SOL    HW139803   4.522   0.484   4.962  0.4183 -0.6012 -0.3014
 9389SOL    HW239804   4.466   0.444   5.093  2.4604 -0.1322  0.6391
 9390SOL     OW39805   2.771   3.125   1.584 -0.3249  0.0129 -0.3979
 9390SOL    HW139806   2.814   3.095   1.504  1.3206  1.8009 -0.1891
 9390SOL    HW239807   2.679   3.103   1.571 -0.2518  0.3302 -1.4405
 9391SOL     OW39808   1.722   3.577  14.669 -0.0366  0.1620 -0.3771
 9391SOL    HW139809   1.733   3.624  14.752  1.1619  0.4305 -0.6976
 9391SOL    HW239810   1.794   3.514  14.671 -1.6997 -1.7709 -2.0506
 9392SOL     OW39811   1.080   0.822   7.294  0.3239  0.2555 -0.5599
 9392SOL    HW139812   1.082   0.732   7.326 -1.1771  0.8653  1.2593
 9392SOL    HW239813   0.988   0.843   7.309  0.5693  0.3948  0.7194
 9393SOL     OW39814   0.407   0.336   4.690 -0.0141 -0.3553  0.2785
 9393SOL    HW139815   0.318   0.356   4.719 -0.4720 -0.4207 -1.1331
 9393SOL    HW239816   0.419   0.251   4.732  1.8668 -1.2814 -2.2030
 9394SOL     OW39817   1.415   0.403  14.483 -0.8676 -0.3392 -0.3483
 9394SOL    HW139818   1.496   0.409  14.533 -1.0527 -0.1636 -0.0669
 9394SOL    HW239819   1.443   0.372  14.397  1.8049  2.9511 -0.6106
 9395SOL     OW39820   4.153   3.043   6.790  0.5759 -0.2974 -0.3980
 9395SOL    HW139821   4.210   3.109   6.751  0.6267 -0.7587 -1.1191
 9395SOL    HW239822   4.068   3.085   6.799 -0.4918 -1.7001 -3.9222
 9396SOL     OW39823   4.645   4.646   8.489 -0.0873 -0.2892 -0.3082
 9396SOL    HW139824   4.632   4.611   8.401  0.6848  1.1958 -1.0092
 9396SOL    HW239825   4.589   4.581   8.532 -0.2972 -0.8127 -1.3747
 9397SOL     OW39826   2.642   4.588   3.188 -0.1408 -0.1343 -0.0036
 9397SOL    HW139827   2.642   4.496   3.213 -1.2803  0.3054  1.6461
 9397SOL    HW239828   2.715   4.587   3.126 -0.8213  1.2121 -0.8222
 9398SOL     OW39829   3.460   0.203  16.967  0.4648 -0.2237 -0.0804
 9398SOL    HW139830   3.481   0.285  16.923 -1.8902  1.3745  1.7529
 9398SOL    HW239831   3.547   0.185  17.003  0.3079 -0.3298  0.2482
 9399SOL     OW39832   2.264   3.466   4.261 -0.2269  0.2981  0.1461
 9399SOL    HW139833   2.204   3.483   4.188  0.7594 -0.5566 -0.8790
 9399SOL    HW239834   2.254   3.371   4.255 -0.1690  0.3296 -0.5080
 9400SOL     OW39835   2.970   4.544   4.526  0.2704  0.1982  0.5604
 9400SOL    HW139836   2.910   4.473   4.505  0.5912  0.2439 -0.4878
 9400SOL    HW239837   3.031   4.526   4.455  1.4789  3.3778  0.7525
 9401SOL     OW39838   1.294   4.521   5.218  0.1614  0.2286 -0.1913
 9401SOL    HW139839   1.309   4.537   5.311 -0.5908  1.8851 -0.3498
 9401SOL    HW239840   1.307   4.426   5.215 -1.3734  0.0423 -0.7837
 9402SOL     OW39841   3.533   2.292   7.422  0.1081  0.6904 -0.4705
 9402SOL    HW139842   3.557   2.378   7.457  2.9943 -0.4053  0.1943
 9402SOL    HW239843   3.576   2.228   7.478 -0.0442  0.4877 -0.5822
 9403SOL     OW39844   4.648   0.126   4.053 -0.3662  0.1679 -0.2345
 9403SOL    HW139845   4.557   0.118   4.081  0.4128 -2.0316  1.6584
 9403SOL    HW239846   4.642   0.181   3.975 -0.4128  1.1889  0.4935
 9404SOL     OW39847   2.402   1.075   7.856 -0.5186  0.0187  0.1260
 9404SOL    HW139848   2.369   0.993   7.893  2.3959  0.0404  2.7680
 9404SOL    HW239849   2.494   1.050   7.846 -0.7732 -0.8208 -0.0765
 9405SOL     OW39850   1.149   1.064   8.099 -0.4339 -0.2189  0.2614
 9405SOL    HW139851   1.109   1.148   8.074 -0.3456  0.2970  1.8335
 9405SOL    HW239852   1.087   0.997   8.070 -0.5360 -0.0901  0.1804
 9406SOL     OW39853   0.843   1.791   7.851 -0.0744 -0.5125 -0.2560
 9406SOL    HW139854   0.753   1.758   7.844 -0.0846 -0.1765 -1.6651
 9406SOL    HW239855   0.818   1.883   7.855 -1.1946 -0.8945  1.4475
 9407SOL     OW39856   0.226   1.535   3.615  0.0204  0.3468  0.0391
 9407SOL    HW139857   0.245   1.625   3.589 -2.0305  0.1091 -2.2677
 9407SOL    HW239858   0.235   1.556   3.708  0.0847 -0.2432  0.1636
 9408SOL     OW39859   1.684   0.132   4.184  0.0002  0.5434 -0.1861
 9408SOL    HW139860   1.631   0.069   4.233  3.0401 -2.4589 -0.8153
 9408SOL    HW239861   1.763   0.136   4.237 -0.0994  2.3040 -0.1789
 9409SOL     OW39862   3.372   1.527  10.847  0.0291 -0.3203 -0.5723
 9409SOL    HW139863   3.350   1.443  10.886  0.0592 -0.8029 -1.6152
 9409SOL    HW239864   3.362   1.506  10.755  2.5234  0.4373 -1.0136
 9410SOL     OW39865   3.232   1.720   4.218 -0.0424 -0.5488  0.1180
 9410SOL    HW139866   3.308   1.695   4.270 -1.2682 -1.4863  1.4618
 9410SOL    HW239867   3.274   1.783   4.159  0.1524 -0.4293  0.3877
 9411SOL     OW39868   1.133   0.984  11.270  0.1564  0.5316 -1.1815
 9411SOL    HW139869   1.048   0.941  11.282  0.0330  1.0248 -0.2706
 9411SOL    HW239870   1.109   1.077  11.277  1.6680  0.8546 -0.2801
 9412SOL     OW39871   4.291   3.568  17.084 -0.0211  0.3595 -0.3408
 9412SOL    HW139872   4.238   3.493  17.057  1.2248 -0.7572  0.2971
 9412SOL    HW239873   4.272   3.568  17.178 -2.5196  0.8737 -0.8459
 9413SOL     OW39874   2.931   1.725   4.446 -0.1184 -0.0458  0.4398
 9413SOL    HW139875   2.975   1.640   4.452  0.3353  0.2495  1.2392
 9413SOL    HW239876   2.987   1.785   4.495 -1.5518  0.3221  1.6202
 9414SOL     OW39877   0.866   2.616  16.095 -0.5724 -0.2565 -0.1007
 9414SOL    HW139878   0.793   2.639  16.153 -1.1943  0.3846 -1.1319
 9414SOL    HW239879   0.882   2.697  16.047 -1.1994  0.7950  1.4399
 9415SOL     OW39880   4.658   0.120   7.701  0.3453  0.7570 -0.3120
 9415SOL    HW139881   0.011   0.150   7.681  0.7138 -1.1002 -1.4540
 9415SOL    HW239882   4.617   0.195   7.745 -0.7838  2.3809 -4.0874
 9416SOL     OW39883   3.415   3.402   7.769  0.1817  0.0765  0.1358
 9416SOL    HW139884   3.510   3.392   7.773  0.2737  0.7372 -0.3300
 9416SOL    HW239885   3.405   3.491   7.804  1.7856  0.1745  0.3301
 9417SOL     OW39886   4.422   1.152   6.742 -0.2469  0.6685  0.3194
 9417SOL    HW139887   4.445   1.194   6.659  0.0290 -2.0536 -0.9961
 9417SOL    HW239888   4.463   1.209   6.806  1.0575  0.5655 -0.4239
 9418SOL     OW39889   0.601   0.568   2.094  0.2605  0.5741  0.1578
 9418SOL    HW139890   0.583   0.611   2.011 -0.7702  0.1863  0.1911
 9418SOL    HW239891   0.513   0.556   2.129  1.3652 -2.8567  1.7242
 9419SOL     OW39892   1.321   0.883  15.143 -0.1603 -0.1862  0.3272
 9419SOL    HW139893   1.307   0.912  15.234  1.0850  1.1496  0.0931
 9419SOL    HW239894   1.264   0.940  15.092 -0.0535 -1.2455 -0.9569
 9420SOL     OW39895   1.039   1.275  11.300  0.6203  0.1679 -0.0347
 9420SOL    HW139896   1.014   1.354  11.253  2.6948  1.2649  0.7116
 9420SOL    HW239897   1.114   1.290  11.357  1.3741  0.8199 -1.1891
 9421SOL     OW39898   3.681   0.835   9.132  0.3594  0.3520  0.0657
 9421SOL    HW139899   3.644   0.831   9.220 -0.8877  0.3207 -0.4540
 9421SOL    HW239900   3.666   0.750   9.090  0.1332  0.9372 -1.0476
 9422SOL     OW39901   2.898   4.031  10.169  0.7732 -0.2815 -0.1069
 9422SOL    HW139902   2.898   4.045  10.074  1.2568  1.8305  0.2069
 9422SOL    HW239903   2.853   3.947  10.183  1.8561 -0.7169  0.6988
 9423SOL     OW39904   1.828   0.843   6.655  0.3284  0.3359  0.0471
 9423SOL    HW139905   1.750   0.794   6.680 -0.2908  1.3262  0.0399
 9423SOL    HW239906   1.834   0.831   6.560 -0.6274  2.3878 -0.2669
 9424SOL     OW39907   1.975   1.215   6.337 -0.2573  0.0378 -0.1473
 9424SOL    HW139908   2.015   1.164   6.407 -1.0544 -0.2069  0.1258
 9424SOL    HW239909   2.051   1.207   6.280  0.6984  1.3962  0.9277
 9425SOL     OW39910   1.677   0.645  10.005  0.9051  0.0727  0.5744
 9425SOL    HW139911   1.638   0.689  10.081 -4.9198 -1.9609 -1.3010
 9425SOL    HW239912   1.756   0.699   9.999  0.5638  0.3328 -1.5797
 9426SOL     OW39913   2.410   0.548   6.226 -0.4378  0.3301 -0.9028
 9426SOL    HW139914   2.470   0.594   6.167  1.0143 -1.5631 -0.8962
 9426SOL    HW239915   2.451   0.573   6.309  0.0277 -1.0774 -0.7141
 9427SOL     OW39916   2.715   2.330  10.737  0.3844  0.2113  0.0818
 9427SOL    HW139917   2.703   2.243  10.699  1.8039 -0.3964  1.0016
 9427SOL    HW239918   2.808   2.346  10.718  0.2129  1.4697  0.3278
 9428SOL     OW39919   0.064   1.534   0.841  0.3763 -0.0876 -0.2421
 9428SOL    HW139920   0.159   1.545   0.852  0.5508 -2.0912  0.2061
 9428SOL    HW239921   0.048   1.479   0.918 -0.0815 -0.5053 -0.6446
 9429SOL     OW39922   1.876   2.665  11.714  0.0159 -0.5657 -1.0604
 9429SOL    HW139923   1.797   2.627  11.677 -0.9362  0.6239 -0.2833
 9429SOL    HW239924   1.866   2.760  11.705 -2.1070 -0.5452  1.2459
 9430SOL     OW39925   4.576   3.252   3.578 -0.4144 -0.1146 -0.0552
 9430SOL    HW139926   4.568   3.210   3.493 -2.3660  0.9711 -0.4171
 9430SOL    HW239927   4.497   3.218   3.620  0.2547 -2.8709 -1.0696
 9431SOL     OW39928   0.686   4.621   7.247 -0.2874  0.1677 -0.4676
 9431SOL    HW139929   0.675   4.599   7.340 -3.1016 -2.1736 -1.3427
 9431SOL    HW239930   0.606   4.585   7.208 -0.1238  0.9507 -1.5125
 9432SOL     OW39931   3.231   0.981   3.591 -0.1714 -0.5818  0.3996
 9432SOL    HW139932   3.280   0.899   3.582  1.4158  0.4981 -0.7271
 9432SOL    HW239933   3.187   0.977   3.676 -0.7856 -0.1355  0.1050
 9433SOL     OW39934   1.874   3.049   7.289  0.3899 -0.6026  0.3459
 9433SOL    HW139935   1.901   3.005   7.369  1.8987  0.8923  0.6655
 9433SOL    HW239936   1.823   3.119   7.330 -2.5071 -2.1379 -0.6782
 9434SOL     OW39937   0.020   3.969   9.248  0.3484  1.0803 -0.2115
 9434SOL    HW139938   0.036   3.958   9.154  0.5207  1.4544 -0.2258
 9434SOL    HW239939   0.068   3.895   9.286 -0.8378 -0.1416 -1.0580
 9435SOL     OW39940   3.817   2.911   5.562  0.6388 -0.0080  0.0110
 9435SOL    HW139941   3.777   2.989   5.522 -0.9609 -0.7545  0.1465
 9435SOL    HW239942   3.836   2.854   5.487  1.2902 -1.4912  1.2956
 9436SOL     OW39943   2.089   2.163   2.800 -0.5813  0.1803 -0.1162
 9436SOL    HW139944   2.070   2.174   2.894  4.1956  1.0088  0.7609
 9436SOL    HW239945   2.171   2.114   2.803 -0.2727  0.5728 -2.5807
 9437SOL     OW39946   2.012   2.644  14.825 -0.6985 -0.2503 -1.2929
 9437SOL    HW139947   1.920   2.629  14.806 -0.9589  0.6673 -0.7104
 9437SOL    HW239948   2.046   2.573  14.770  0.0347 -0.7829 -0.1680
 9438SOL     OW39949   2.932   2.926   5.013  0.2321 -0.1901 -0.4669
 9438SOL    HW139950   2.979   2.926   4.930  0.0606  1.4116 -0.5693
 9438SOL    HW239951   2.849   2.964   4.986 -0.7397 -1.0517  1.2914
 9439SOL     OW39952   0.057   4.603   0.406 -0.1212 -0.1365 -0.0212
 9439SOL    HW139953   0.120   4.599   0.334 -0.2615 -0.5394 -0.1263
 9439SOL    HW239954   0.075   4.686   0.450  1.5134  1.0450 -2.9286
 9440SOL     OW39955   0.303   3.941   6.704 -0.1165 -0.2579 -0.1081
 9440SOL    HW139956   0.215   3.904   6.695  0.8799 -2.0116 -2.4991
 9440SOL    HW239957   0.317   3.951   6.610 -0.6919 -3.2091 -0.4919
 9441SOL     OW39958   2.846   1.164  11.844 -0.3714 -0.0846 -0.2268
 9441SOL    HW139959   2.790   1.186  11.769  0.6042  0.0744 -0.9064
 9441SOL    HW239960   2.865   1.072  11.824  0.9658  0.3356 -0.8553
 9442SOL     OW39961   0.475   3.336  15.053 -0.1208 -0.0272 -0.1786
 9442SOL    HW139962   0.428   3.335  14.970 -0.8429 -0.6266  0.2391
 9442SOL    HW239963   0.465   3.244  15.079  0.2511 -0.0050  0.0426
 9443SOL     OW39964   4.099   2.571   7.787 -0.7426 -0.1386 -0.3241
 9443SOL    HW139965   4.155   2.494   7.798 -2.6489 -1.6451 -1.0821
 9443SOL    HW239966   4.054   2.556   7.870  0.9608 -2.6134  0.1690
 9444SOL     OW39967   4.193   2.429  15.358  0.2570 -0.3839 -0.4570
 9444SOL    HW139968   4.255   2.495  15.326 -0.4657  1.0184  1.0710
 9444SOL    HW239969   4.246   2.355  15.330  0.8445  0.3568 -1.3184
 9445SOL     OW39970   2.984   4.533   3.547 -0.2762 -0.2521 -0.1238
 9445SOL    HW139971   2.977   4.626   3.522  1.1822 -0.0384  0.2844
 9445SOL    HW239972   2.991   4.489   3.463  1.5787 -1.2560  0.5682
 9446SOL     OW39973   3.099   0.740   3.316 -0.6758 -0.2522 -0.5723
 9446SOL    HW139974   3.120   0.648   3.328  0.7389  0.3095  1.1993
 9446SOL    HW239975   3.031   0.747   3.384  1.2822  0.9468  1.2591
 9447SOL     OW39976   0.884   1.941   1.918 -0.2703 -0.4408 -0.3533
 9447SOL    HW139977   0.855   2.028   1.891  0.2725  0.2576  1.2626
 9447SOL    HW239978   0.940   1.964   1.992 -3.0201  0.1204  1.5486
 9448SOL     OW39979   4.222   4.705   8.827 -0.5289  0.0692 -0.1789
 9448SOL    HW139980   4.307   4.692   8.784 -1.3608 -0.7674 -1.5444
 9448SOL    HW239981   4.246   0.030   8.897  1.0836 -2.2538  1.3026
 9449SOL     OW39982   3.821   2.769   7.013  0.1623  0.1354  0.7305
 9449SOL    HW139983   3.792   2.837   6.953 -1.0652  0.7354  2.0313
 9449SOL    HW239984   3.737   2.735   7.042  1.8017 -3.6697  1.0449
 9450SOL     OW39985   1.433   2.840   6.823 -0.0109  0.1897 -0.7603
 9450SOL    HW139986   1.408   2.872   6.910  0.3256 -3.0466  0.5048
 9450SOL    HW239987   1.357   2.790   6.793 -0.9794  1.6380 -0.7326
 9451SOL     OW39988   0.772   3.191  13.871 -0.5165  0.0878  0.3027
 9451SOL    HW139989   0.734   3.277  13.887 -1.6542 -0.2480 -0.5636
 9451SOL    HW239990   0.687   3.145  13.873 -0.1842 -0.5796 -0.7273
 9452SOL     OW39991   3.035   3.883   6.670 -0.1785 -0.1164  0.3415
 9452SOL    HW139992   2.951   3.852   6.703  1.4012 -2.1414  2.4080
 9452SOL    HW239993   3.045   3.959   6.728 -0.6446  0.9888 -1.0135
 9453SOL     OW39994   1.013   4.478   8.342 -0.0061  0.4157  0.3487
 9453SOL    HW139995   1.059   4.496   8.260  2.1104  2.6081  2.0213
 9453SOL    HW239996   1.053   4.533   8.409 -1.3941  1.1578  0.5681
 9454SOL     OW39997   4.676   1.504   7.827  0.2875 -0.1221  0.1664
 9454SOL    HW139998   0.022   1.464   7.858 -1.6343 -0.5044  4.7520
 9454SOL    HW239999   4.665   1.474   7.737  1.5838 -2.1630  0.6911
 9455SOL     OW40000   2.722   4.486   8.849 -0.7410  0.2016 -0.6701
 9455SOL    HW140001   2.680   4.488   8.935 -0.0363  4.5576 -0.4176
 9455SOL    HW240002   2.696   4.396   8.834 -0.0905  0.0788 -1.0376
 9456SOL     OW40003   3.378   2.154   2.462  1.0204  0.3973 -0.3887
 9456SOL    HW140004   3.449   2.190   2.409  0.0188  2.3704 -0.3808
 9456SOL    HW240005   3.319   2.115   2.399  2.2841 -0.0788 -1.2869
 9457SOL     OW40006   3.353   0.310   6.327 -0.0296 -0.5572  0.0969
 9457SOL    HW140007   3.438   0.325   6.368  0.9550 -0.5252 -1.9640
 9457SOL    HW240008   3.356   0.222   6.289 -0.6869 -1.5336  2.3191
 9458SOL     OW40009   4.273   1.136   4.523  0.0627  0.4071 -0.1122
 9458SOL    HW140010   4.233   1.120   4.438  1.5467 -1.3764 -0.4714
 9458SOL    HW240011   4.362   1.156   4.495  0.3480 -1.9940 -0.8791
 9459SOL     OW40012   2.485   1.692  10.221  0.6806 -0.2295  0.2536
 9459SOL    HW140013   2.465   1.651  10.305 -0.1153  0.8933  0.6303
 9459SOL    HW240014   2.411   1.754  10.212 -0.3400 -1.5416 -0.3602
 9460SOL     OW40015   0.990   0.537   4.422 -0.4090 -0.3767 -0.3368
 9460SOL    HW140016   1.033   0.502   4.500 -1.0531 -0.0059  0.1923
 9460SOL    HW240017   1.060   0.595   4.392  1.3017 -1.8830  0.7845
 9461SOL     OW40018   4.464   3.678   0.204  0.2406 -0.5619 -0.0887
 9461SOL    HW140019   4.371   3.700   0.204  0.0391 -1.3920  0.9820
 9461SOL    HW240020   4.458   3.590   0.242 -0.1911 -1.2762 -1.8337
 9462SOL     OW40021   4.681   0.403   8.456 -0.1182 -0.5867 -0.1967
 9462SOL    HW140022   4.718   0.330   8.506 -0.4552 -0.2514  0.5469
 9462SOL    HW240023   4.632   0.364   8.384 -1.9199  1.1310  0.1246
 9463SOL     OW40024   4.663   3.281   7.235  0.4047 -0.2137  0.1999
 9463SOL    HW140025   0.012   3.289   7.279  0.3419  0.0336  0.2729
 9463SOL    HW240026   4.691   3.240   7.153  0.9610  2.0020 -0.7338
 9464SOL     OW40027   3.713   3.502   5.970 -0.6613  0.2110 -0.2102
 9464SOL    HW140028   3.769   3.491   5.893 -0.7698  0.8704 -0.3833
 9464SOL    HW240029   3.737   3.422   6.017 -0.2943  1.9546  2.5850
 9465SOL     OW40030   0.356   3.598   2.840 -0.1168  0.2875 -0.1109
 9465SOL    HW140031   0.415   3.621   2.911 -2.0962 -0.9731  1.9329
 9465SOL    HW240032   0.348   3.504   2.859  2.8444  0.2034  0.7054
 9466SOL     OW40033   3.214   1.940   5.701 -0.1400 -0.5172 -0.3218
 9466SOL    HW140034   3.164   2.022   5.701 -3.5096 -2.5247  1.4442
 9466SOL    HW240035   3.301   1.974   5.684 -0.8108  2.3773  1.9834
 9467SOL     OW40036   2.843   0.120   5.129 -0.0353  0.0600  0.4588
 9467SOL    HW140037   2.923   0.070   5.114 -0.0187  0.6253 -1.3432
 9467SOL    HW240038   2.860   0.169   5.209  0.7218  1.0239 -0.2824
 9468SOL     OW40039   4.423   3.006   4.062 -0.1221  0.1795  0.6492
 9468SOL    HW140040   4.458   3.058   4.134  0.5893  0.4314  0.1323
 9468SOL    HW240041   4.488   3.014   3.991  1.1036  2.3637  2.0064
 9469SOL     OW40042   3.532   0.544   3.368 -0.1087  0.0388  0.3018
 9469SOL    HW140043   3.602   0.600   3.334  0.0963 -0.9923 -0.9915
 9469SOL    HW240044   3.571   0.476   3.423 -1.2099 -0.3527  0.5971
 9470SOL     OW40045   1.882   3.613   2.275 -0.8594  0.3844 -0.1998
 9470SOL    HW140046   1.864   3.547   2.208 -1.5829  1.2737 -0.8647
 9470SOL    HW240047   1.863   3.561   2.354  2.6213  0.5023  0.7498
 9471SOL     OW40048   3.890   1.715  16.923 -0.2163  0.2799 -0.5763
 9471SOL    HW140049   3.975   1.689  16.886 -0.6810  0.2030 -1.6022
 9471SOL    HW240050   3.831   1.674  16.859  1.4353 -1.2610 -1.1247
 9472SOL     OW40051   0.627   2.220  14.459 -0.3221  0.4685  0.4662
 9472SOL    HW140052   0.554   2.236  14.399 -0.6162  0.7779  0.9029
 9472SOL    HW240053   0.686   2.283  14.417  0.8353 -0.2601  1.0156
 9473SOL     OW40054   4.558   2.164  14.087 -0.1945  0.1680  0.1216
 9473SOL    HW140055   4.500   2.149  14.161 -0.8980 -0.0423 -0.4636
 9473SOL    HW240056   4.491   2.181  14.020 -0.1085  1.2687  0.3134
 9474SOL     OW40057   3.121   0.198   8.784 -0.0129  0.2313  0.0765
 9474SOL    HW140058   3.088   0.287   8.770 -0.2698  0.0926 -0.2153
 9474SOL    HW240059   3.067   0.153   8.719  0.2955 -0.7330  0.4929
 9475SOL     OW40060   3.486   4.372   7.910 -0.1032 -0.3567  0.6769
 9475SOL    HW140061   3.493   4.453   7.961 -1.3864 -0.3986  0.9201
 9475SOL    HW240062   3.424   4.387   7.840 -0.2306 -0.8866  0.6765
 9476SOL     OW40063   1.747   4.567  16.079  0.2255  0.4084 -0.0642
 9476SOL    HW140064   1.779   4.655  16.057  1.8406 -0.3177 -0.5754
 9476SOL    HW240065   1.686   4.579  16.152  1.2948  0.1519  0.8676
 9477SOL     OW40066   1.875   2.994   2.403 -0.5931 -0.3544 -0.3907
 9477SOL    HW140067   1.911   2.906   2.405 -0.7852 -0.4571 -1.4947
 9477SOL    HW240068   1.826   2.998   2.321  0.1244  0.1945 -0.7980
 9478SOL     OW40069   0.945   2.790   5.332  0.6521 -0.6147 -0.0244
 9478SOL    HW140070   1.026   2.809   5.380  0.9624 -0.2049 -0.7156
 9478SOL    HW240071   0.889   2.817   5.404  1.9384 -1.5023  1.3167
 9479SOL     OW40072   1.142   0.980   1.952 -0.1367 -0.0976 -0.0924
 9479SOL    HW140073   1.172   1.071   1.943  1.7058 -0.7305 -0.3145
 9479SOL    HW240074   1.209   0.934   2.001  1.2026 -0.3833 -2.1905
 9480SOL     OW40075   1.264   2.670   5.153 -0.6081 -0.0981 -0.4529
 9480SOL    HW140076   1.307   2.737   5.206  0.0445  0.7384 -2.0258
 9480SOL    HW240077   1.191   2.719   5.115 -1.5329  0.1132  1.5629
 9481SOL     OW40078   4.051   4.376   5.325 -0.4387  0.1043  0.1600
 9481SOL    HW140079   4.009   4.292   5.308 -0.4083 -0.5912  3.5666
 9481SOL    HW240080   4.034   4.429   5.247  0.3190  1.3123  0.8149
 9482SOL     OW40081   3.862   0.223   2.096  0.5320 -0.1553 -0.2782
 9482SOL    HW140082   3.807   0.170   2.154  1.5847 -1.8176 -0.7994
 9482SOL    HW240083   3.916   0.265   2.162  1.3730  1.1389 -1.8028
 9483SOL     OW40084   4.036   0.605   3.290 -0.6706 -0.4893  0.1059
 9483SOL    HW140085   4.051   0.538   3.222  0.3508  0.0503 -0.1894
 9483SOL    HW240086   3.982   0.556   3.352  1.6821 -2.1534  0.8270
 9484SOL     OW40087   3.536   0.631   8.846  0.1072 -0.0074  0.2524
 9484SOL    HW140088   3.474   0.700   8.872 -0.1690 -0.6823  1.3820
 9484SOL    HW240089   3.499   0.554   8.890  1.6042 -0.6796  0.3131
 9485SOL     OW40090   2.600   3.139   1.815 -0.5363 -0.0240 -0.0511
 9485SOL    HW140091   2.659   3.193   1.763 -1.2375 -0.8695 -1.7002
 9485SOL    HW240092   2.609   3.053   1.775  1.1787 -0.8630  2.1120
 9486SOL     OW40093   1.760   2.276   4.290 -1.0915 -0.0932 -0.7654
 9486SOL    HW140094   1.797   2.339   4.228 -0.3177 -0.5964 -0.8078
 9486SOL    HW240095   1.666   2.296   4.286 -1.3623 -0.9941  1.1978
 9487SOL     OW40096   4.122   4.109   5.096  0.4907 -0.4392  0.2055
 9487SOL    HW140097   4.136   4.078   5.186 -1.2682  1.3803  1.0912
 9487SOL    HW240098   4.196   4.164   5.071 -0.0080  0.4292  0.6439
 9488SOL     OW40099   0.483   1.890   6.001 -0.0988  0.5159  0.1177
 9488SOL    HW140100   0.515   1.920   5.916  1.5807  2.3834  1.3910
 9488SOL    HW240101   0.451   1.805   5.973  1.3634 -0.7524  2.3283
 9489SOL     OW40102   3.443   1.553   2.447  0.2881 -0.2306 -0.4944
 9489SOL    HW140103   3.515   1.502   2.483  0.5862  2.4614  2.6526
 9489SOL    HW240104   3.482   1.640   2.441 -0.6305  0.2007 -0.1689
 9490SOL     OW40105   3.382   4.089   4.772  0.2216  0.1952  0.5381
 9490SOL    HW140106   3.441   4.158   4.800  0.2510  1.3049 -2.2379
 9490SOL    HW240107   3.301   4.133   4.745 -0.9310 -3.1517 -1.5067
 9491SOL     OW40108   1.575   4.206   7.020  0.3730  0.1272  0.0443
 9491SOL    HW140109   1.540   4.282   7.067 -1.1369 -0.2954 -0.3958
 9491SOL    HW240110   1.667   4.231   7.031  0.2896  0.7984 -0.7833
 9492SOL     OW40111   2.962   3.036   2.374  0.6001  0.2091  0.1436
 9492SOL    HW140112   2.881   3.084   2.385  0.1070 -0.1590 -1.9390
 9492SOL    HW240113   2.928   2.947   2.382 -0.3576  0.6196  0.5879
 9493SOL     OW40114   3.613   4.157   7.993  0.3611  0.3066  0.0992
 9493SOL    HW140115   3.564   4.076   8.009  1.8640 -0.4016  1.1264
 9493SOL    HW240116   3.546   4.224   7.982 -0.1855 -0.3995 -0.9781
 9494SOL     OW40117   2.095   3.699   5.489  0.1260  0.0587  0.3657
 9494SOL    HW140118   2.170   3.719   5.433 -1.1275 -0.6621 -1.5860
 9494SOL    HW240119   2.045   3.781   5.485  0.2243  0.1353  0.7344
 9495SOL     OW40120   3.410   0.898  10.068 -0.1977  0.1994 -0.0837
 9495SOL    HW140121   3.346   0.911   9.998  0.1685  0.2629 -0.4029
 9495SOL    HW240122   3.429   0.804  10.069  0.5523  0.3513 -0.1550
 9496SOL     OW40123   0.171   2.073  13.808 -0.0929  0.1200 -0.1608
 9496SOL    HW140124   0.101   2.009  13.820 -0.7532  0.9744  0.6397
 9496SOL    HW240125   0.242   2.028  13.854  0.1689 -0.4492 -1.1346
 9497SOL     OW40126   3.990   3.338   3.269  0.4698  0.5340 -0.1543
 9497SOL    HW140127   4.049   3.399   3.312  1.7089 -1.0817  0.4149
 9497SOL    HW240128   3.982   3.270   3.336  3.4424  0.0183 -0.3510
 9498SOL     OW40129   3.449   1.820   1.070 -0.0317 -0.1242 -0.1512
 9498SOL    HW140130   3.512   1.891   1.080  1.6836 -1.8061  1.1538
 9498SOL    HW240131   3.427   1.810   1.162 -0.6892 -1.2255 -0.4215
 9499SOL     OW40132   2.623   2.636  11.032  0.2440 -0.1498  0.4475
 9499SOL    HW140133   2.609   2.699  11.103 -0.3258 -2.1431  2.0945
 9499SOL    HW240134   2.717   2.617  11.027  0.4516  0.9413  0.2483
 9500SOL     OW40135   2.163   3.840   7.843 -0.7038 -0.2744 -0.0606
 9500SOL    HW140136   2.198   3.770   7.899 -0.2860  0.0586  0.0977
 9500SOL    HW240137   2.246   3.883   7.822 -0.4897 -0.3192  0.7153
 9501SOL     OW40138   4.411   3.951   3.703  0.3102 -0.0365  0.2987
 9501SOL    HW140139   4.320   3.935   3.680  0.7604 -0.5155 -1.1732
 9501SOL    HW240140   4.400   3.950   3.798  1.7613 -0.4873  0.4710
 9502SOL     OW40141   1.569   3.947   1.376 -0.1990 -0.0213  0.1211
 9502SOL    HW140142   1.543   4.034   1.406  1.1444  0.4836 -0.1704
 9502SOL    HW240143   1.598   3.912   1.461 -1.8713 -2.4957 -0.3217
 9503SOL     OW40144   3.422   1.100   1.817  0.0283 -0.6804 -0.3847
 9503SOL    HW140145   3.450   1.162   1.883  0.5133  0.1777 -1.3904
 9503SOL    HW240146   3.328   1.084   1.828 -0.4948  0.2868 -3.1955
 9504SOL     OW40147   2.033   2.429  14.645  0.4117  0.1229  0.4650
 9504SOL    HW140148   2.012   2.345  14.685  0.3125 -0.7692 -1.4847
 9504SOL    HW240149   2.089   2.405  14.572 -1.4880 -0.1984 -0.8871
 9505SOL     OW40150   0.932   4.306   5.401 -0.3469  0.5093  0.1434
 9505SOL    HW140151   0.915   4.217   5.431  1.0897  0.8407  1.9259
 9505SOL    HW240152   1.000   4.343   5.457  2.1342 -1.5692 -1.5366
 9506SOL     OW40153   1.735   4.359  15.839  0.3027  0.7537  0.4181
 9506SOL    HW140154   1.697   4.300  15.904  0.6280 -0.3930 -0.4345
 9506SOL    HW240155   1.735   4.443  15.884  1.0164  0.7444  0.4371
 9507SOL     OW40156   2.889   4.488  10.459  0.9303  0.0771 -0.5307
 9507SOL    HW140157   2.858   4.412  10.410  0.9638 -0.6602  0.5848
 9507SOL    HW240158   2.845   4.474  10.543 -1.7590  0.0700 -1.9643
 9508SOL     OW40159   0.462   1.020  15.382  0.5525 -0.5249 -1.0324
 9508SOL    HW140160   0.510   0.939  15.397 -0.6227 -1.3265 -1.6493
 9508SOL    HW240161   0.438   1.005  15.291  2.5528 -1.1906 -1.4462
 9509SOL     OW40162   0.896   1.249   8.107  0.1780  0.3435  0.1105
 9509SOL    HW140163   0.807   1.260   8.139 -0.1235 -2.3075  0.1924
 9509SOL    HW240164   0.935   1.335   8.125 -0.2538  0.1677  1.8321
 9510SOL     OW40165   4.456   2.535   8.018 -0.1156 -0.5001  0.4008
 9510SOL    HW140166   4.499   2.450   8.021  0.0618 -0.4171  0.2010
 9510SOL    HW240167   4.487   2.568   7.934  1.0456  0.3639  1.1695
 9511SOL     OW40168   0.125   1.037   5.673 -0.1649 -0.1346  0.0271
 9511SOL    HW140169   0.189   1.091   5.720 -1.0678  2.2768 -1.4802
 9511SOL    HW240170   0.137   0.959   5.726  0.2905 -0.0116  0.1021
 9512SOL     OW40171   1.426   1.678   4.789 -0.1293 -0.5879  0.1825
 9512SOL    HW140172   1.370   1.632   4.727  2.4140 -2.9085 -0.4229
 9512SOL    HW240173   1.397   1.632   4.868 -1.1615  1.4027  0.9753
 9513SOL     OW40174   2.809   1.759   8.796 -0.1891 -0.3411 -0.6654
 9513SOL    HW140175   2.865   1.720   8.863 -1.1140 -0.4101  0.0737
 9513SOL    HW240176   2.760   1.818   8.853  2.0232 -0.7808  1.6807
 9514SOL     OW40177   0.292   0.819  17.245  0.3845  0.1003 -0.2576
 9514SOL    HW140178   0.349   0.806  17.170  0.1232  0.0217 -0.4427
 9514SOL    HW240179   0.238   0.740  17.243 -0.8383  0.9502 -0.7957
 9515SOL     OW40180   3.754   3.883  12.835 -0.2620  0.0094  0.3176
 9515SOL    HW140181   3.737   3.793  12.807 -1.1600  1.0129 -2.3967
 9515SOL    HW240182   3.848   3.891  12.817 -0.6204  1.1963 -0.9992
 9516SOL     OW40183   4.527   0.900   6.734 -0.3179  0.7463 -0.3772
 9516SOL    HW140184   4.488   0.986   6.719 -1.1062  0.0596 -2.2682
 9516SOL    HW240185   4.451   0.841   6.736  0.4150 -0.2094 -0.7280
 9517SOL     OW40186   3.559   0.483   5.214 -0.3558  0.2643 -0.0524
 9517SOL    HW140187   3.618   0.558   5.215  0.7074 -0.5764  1.1801
 9517SOL    HW240188   3.617   0.408   5.223 -0.1495  0.5771  1.1866
 9518SOL     OW40189   0.485   4.720   7.923  0.1788  0.8753  0.1973
 9518SOL    HW140190   0.457   4.723   8.014 -2.4000 -0.6215 -0.5534
 9518SOL    HW240191   0.489   4.627   7.899 -2.5891  0.3662  1.7004
 9519SOL     OW40192   2.840   3.698   8.244  0.1199 -0.1499  0.6762
 9519SOL    HW140193   2.792   3.761   8.190 -0.0777 -0.5866  0.3480
 9519SOL    HW240194   2.907   3.676   8.180 -1.3519 -0.8117 -0.6394
 9520SOL     OW40195   1.701   0.922   9.743  0.2789 -0.3430  0.6725
 9520SOL    HW140196   1.613   0.954   9.764  0.7505  1.1428  0.4126
 9520SOL    HW240197   1.730   0.881   9.824  1.4373  0.3389  0.5920
 9521SOL     OW40198   2.383   3.224   7.092  0.1073 -0.3674  0.0343
 9521SOL    HW140199   2.328   3.160   7.048  0.4206 -0.8047  0.2722
 9521SOL    HW240200   2.426   3.169   7.158 -0.9283  0.5067  1.4451
 9522SOL     OW40201   2.728   2.657   8.854 -0.7786 -0.2761 -0.3129
 9522SOL    HW140202   2.791   2.610   8.909 -0.0017 -1.3864 -2.1570
 9522SOL    HW240203   2.721   2.733   8.912 -0.0846  0.7161 -1.5266
 9523SOL     OW40204   1.597   4.540   4.079  0.2974 -0.7964  0.1426
 9523SOL    HW140205   1.601   4.588   4.162  3.7180 -2.7191  1.0994
 9523SOL    HW240206   1.516   4.489   4.092  0.4934 -0.9855  0.6354
 9524SOL     OW40207   3.948   0.325   4.563  0.0392 -0.3104 -0.1504
 9524SOL    HW140208   4.039   0.354   4.552  0.0922 -0.5171 -0.2562
 9524SOL    HW240209   3.920   0.321   4.472  3.3123 -0.9291 -1.1449
 9525SOL     OW40210   2.635   3.682  13.497 -0.1057  0.7623 -0.3404
 9525SOL    HW140211   2.696   3.653  13.564  0.9328 -1.2188 -2.1300
 9525SOL    HW240212   2.683   3.761  13.476  2.3062 -1.5235 -3.4469
 9526SOL     OW40213   1.270   2.835   4.325  0.3214  0.1244 -0.5962
 9526SOL    HW140214   1.310   2.889   4.256  1.0504 -0.2629 -0.4790
 9526SOL    HW240215   1.251   2.753   4.281 -1.6099  1.1413 -1.6299
 9527SOL     OW40216   2.976   0.640  16.421  0.1184 -0.7394  0.1083
 9527SOL    HW140217   3.033   0.705  16.382 -0.7761 -0.3789 -0.6020
 9527SOL    HW240218   3.027   0.613  16.497  1.3329  0.2138 -0.3651
 9528SOL     OW40219   0.369   0.653   7.697  0.2220  0.5711  0.6476
 9528SOL    HW140220   0.395   0.694   7.779  1.5784  1.3628 -0.1558
 9528SOL    HW240221   0.278   0.626   7.701  0.1683  1.2359  3.4734
 9529SOL     OW40222   4.503   2.410  12.251  0.2727  0.4102  0.2099
 9529SOL    HW140223   4.465   2.343  12.195 -1.0950  0.1614  1.4542
 9529SOL    HW240224   4.434   2.400  12.317 -2.0486  3.9903 -1.6562
 9530SOL     OW40225   4.064   2.292  15.102 -0.7800 -0.1291 -0.1157
 9530SOL    HW140226   4.145   2.331  15.069 -0.2218 -1.4781 -0.3052
 9530SOL    HW240227   4.004   2.364  15.083  0.1183  0.7995  0.5343
 9531SOL     OW40228   2.570   3.158  14.292 -0.4502  0.4462  0.2001
 9531SOL    HW140229   2.509   3.119  14.229  0.2031  2.7002 -1.8354
 9531SOL    HW240230   2.600   3.077  14.332 -1.4717  0.0889  0.2300
 9532SOL     OW40231   4.011   1.290   3.430 -0.4451  0.3249  0.0865
 9532SOL    HW140232   4.056   1.261   3.509 -0.4635 -2.4182 -0.9087
 9532SOL    HW240233   4.082   1.325   3.375 -0.6494  0.6562  0.0335
 9533SOL     OW40234   1.052   4.498   2.240 -0.0053  0.8009 -0.0641
 9533SOL    HW140235   1.030   4.587   2.212  0.2422  1.1351  0.8182
 9533SOL    HW240236   1.102   4.470   2.164 -0.6339 -0.5712  0.0317
 9534SOL     OW40237   4.021   4.265   4.566 -0.2309 -1.1170  0.4683
 9534SOL    HW140238   4.042   4.172   4.560  1.1201 -0.7374 -0.5298
 9534SOL    HW240239   4.079   4.284   4.639 -0.3926 -1.8085  0.7766
 9535SOL     OW40240   4.549   2.859  13.402  0.5590  0.2688 -0.0045
 9535SOL    HW140241   4.483   2.875  13.469  0.0895  4.4797 -1.4879
 9535SOL    HW240242   4.514   2.772  13.384 -0.7008  0.4481  1.5959
 9536SOL     OW40243   1.686   2.223  14.900 -0.3827  0.1641 -0.2950
 9536SOL    HW140244   1.592   2.232  14.915  0.2761  0.9870  3.4481
 9536SOL    HW240245   1.675   2.148  14.843  0.6488 -1.0698  1.1488
 9537SOL     OW40246   3.142   4.652   1.745 -0.0270  0.0966  0.3924
 9537SOL    HW140247   3.107   4.585   1.803  0.4075  2.6007  3.5356
 9537SOL    HW240248   3.228   4.620   1.718  0.1042 -0.5874  1.6170
 9538SOL     OW40249   4.297   2.942   9.325  0.3102 -0.3899  0.2639
 9538SOL    HW140250   4.286   3.029   9.284 -3.5621 -0.6868  0.6750
 9538SOL    HW240251   4.209   2.906   9.325 -0.3152  1.1658  1.4328
 9539SOL     OW40252   1.894   0.781   9.923 -0.5211  0.7893 -0.3731
 9539SOL    HW140253   1.950   0.857   9.915  0.9414 -0.3281 -0.7063
 9539SOL    HW240254   1.940   0.720   9.865 -1.6895  0.2891 -0.7818
 9540SOL     OW40255   1.261   1.676   9.554  0.3246  0.4670 -0.4889
 9540SOL    HW140256   1.197   1.623   9.601  1.1572  0.6611  0.8877
 9540SOL    HW240257   1.307   1.612   9.501  0.6698 -1.3035  1.9308
 9541SOL     OW40258   4.067   1.984  12.255 -0.0673 -0.5648  0.4115
 9541SOL    HW140259   4.144   2.000  12.201 -2.3708 -0.7513 -2.8810
 9541SOL    HW240260   4.107   1.923  12.317  1.5989  1.8877  1.7672
 9542SOL     OW40261   1.122   1.926   1.649 -0.8466 -0.3303 -0.4609
 9542SOL    HW140262   1.175   1.907   1.571 -0.1445 -0.2178 -0.0156
 9542SOL    HW240263   1.115   1.837   1.684 -1.4995  0.0427  0.3330
 9543SOL     OW40264   3.879   2.018   8.049  0.2268  0.0366 -0.4630
 9543SOL    HW140265   3.887   2.048   7.958 -0.0834  1.7995  0.1056
 9543SOL    HW240266   3.802   2.071   8.067  0.4145  0.4404 -0.8342
 9544SOL     OW40267   1.204   3.201   5.388  0.1452  0.4241 -0.2468
 9544SOL    HW140268   1.246   3.251   5.458 -0.6804  0.0061  0.5412
 9544SOL    HW240269   1.113   3.230   5.397 -0.1289 -0.7404  0.6812
 9545SOL     OW40270   3.785   0.672   7.207  0.9198  0.7073 -0.2667
 9545SOL    HW140271   3.826   0.746   7.162  1.5403 -1.4563 -3.3068
 9545SOL    HW240272   3.769   0.614   7.133 -0.8596 -1.0597  1.5221
 9546SOL     OW40273   2.890   4.106   6.368  0.2014  0.1540  0.0755
 9546SOL    HW140274   2.932   4.160   6.434 -2.6845  0.9378  1.2490
 9546SOL    HW240275   2.839   4.164   6.312 -2.0207 -1.5610  0.3202
 9547SOL     OW40276   1.402   1.590  10.159  0.1928 -0.2568 -0.1143
 9547SOL    HW140277   1.368   1.595  10.248 -1.8476  0.7622 -0.9365
 9547SOL    HW240278   1.326   1.634  10.120  0.1742  0.6493  0.9673
 9548SOL     OW40279   0.104   1.292   4.493 -0.3564 -0.1692 -0.2020
 9548SOL    HW140280   0.040   1.334   4.551 -0.5818 -1.3171  0.3838
 9548SOL    HW240281   0.081   1.344   4.416  0.1964 -0.9203 -0.8815
 9549SOL     OW40282   4.381   0.214   7.210 -0.6346  0.1471 -0.0695
 9549SOL    HW140283   4.432   0.276   7.262 -0.9815  0.4355 -0.0712
 9549SOL    HW240284   4.300   0.255   7.178 -0.4636 -0.3153 -1.0920
 9550SOL     OW40285   1.174   0.708   9.177 -0.2071  0.7320 -0.0976
 9550SOL    HW140286   1.245   0.682   9.236 -1.5186  0.0787  1.1965
 9550SOL    HW240287   1.159   0.798   9.207  0.1741 -0.1617  2.7924
 9551SOL     OW40288   2.587   0.223  12.815  0.5708 -0.3060  1.2256
 9551SOL    HW140289   2.656   0.178  12.766 -0.6264 -0.3736 -0.3974
 9551SOL    HW240290   2.521   0.226  12.746  2.5506 -1.4980 -0.7145
 9552SOL     OW40291   0.443   3.841  17.266 -0.2759 -0.1400  0.1358
 9552SOL    HW140292   0.465   3.929  17.298  1.5934  0.1409 -1.9095
 9552SOL    HW240293   0.354   3.828  17.301  0.2504  1.6069  2.1274
 9553SOL     OW40294   2.371   2.310   1.901 -0.0034  0.2159 -0.0505
 9553SOL    HW140295   2.362   2.402   1.876 -0.6782  1.3824  4.5219
 9553SOL    HW240296   2.390   2.278   1.813  0.4681 -0.9269  0.4777
 9554SOL     OW40297   1.079   3.743   4.976 -0.1125  0.0670 -0.2196
 9554SOL    HW140298   1.074   3.839   4.979  0.7190  0.0938  0.3477
 9554SOL    HW240299   1.122   3.732   4.891  0.6618  0.7142  0.0824
 9555SOL     OW40300   0.481   2.237  11.792 -0.0357  0.1388 -0.2554
 9555SOL    HW140301   0.417   2.167  11.786 -2.1698  1.7552  3.3809
 9555SOL    HW240302   0.488   2.239  11.887 -1.0312  3.2646 -0.2243
 9556SOL     OW40303   3.022   2.590   7.546 -0.1875  0.3097 -0.0605
 9556SOL    HW140304   3.101   2.562   7.593 -1.5921 -1.8170  1.0196
 9556SOL    HW240305   2.957   2.589   7.616 -0.4185 -1.6387 -0.3176
 9557SOL     OW40306   4.459   4.041  14.653  0.3716  0.6325 -0.5063
 9557SOL    HW140307   4.473   4.128  14.690 -1.5650  0.2463  1.0880
 9557SOL    HW240308   4.438   3.986  14.728 -2.6420 -1.8648 -3.1654
 9558SOL     OW40309   3.537   0.190   4.187 -0.3356 -0.5805 -0.1839
 9558SOL    HW140310   3.602   0.154   4.127 -0.1197 -0.8841  0.2316
 9558SOL    HW240311   3.531   0.274   4.140  1.6021 -0.9084 -1.0441
 9559SOL     OW40312   0.922   0.928  11.613 -0.1570  0.1623 -0.5938
 9559SOL    HW140313   0.866   0.985  11.666 -2.0032 -1.2960 -0.9908
 9559SOL    HW240314   0.886   0.936  11.525  2.7356 -0.3441 -1.8310
 9560SOL     OW40315   0.066   3.842   6.604 -0.0294 -0.1896 -0.0134
 9560SOL    HW140316   4.717   3.887   6.594 -0.1107  0.5241  3.5617
 9560SOL    HW240317   0.066   3.778   6.533  1.9663 -0.9938  0.7260
 9561SOL     OW40318   2.683   1.135   3.442  0.1862 -0.7042  0.4410
 9561SOL    HW140319   2.633   1.061   3.406 -0.6444 -0.4912  1.1717
 9561SOL    HW240320   2.619   1.187   3.489  0.5145 -0.9955  1.2228
 9562SOL     OW40321   1.180   0.624   1.963 -0.1328  0.1784  0.3512
 9562SOL    HW140322   1.229   0.670   2.031 -1.9934  0.8241  1.2667
 9562SOL    HW240323   1.144   0.550   2.012 -1.3470 -0.9251 -2.2055
 9563SOL     OW40324   1.267   2.312   6.251  0.2620 -0.2665 -0.4634
 9563SOL    HW140325   1.201   2.269   6.197 -1.1417 -0.5747  1.4836
 9563SOL    HW240326   1.294   2.232   6.297  1.7204  0.1935 -0.5267
 9564SOL     OW40327   0.846   0.039   9.941  0.2314  0.3036  0.1958
 9564SOL    HW140328   0.892   4.712   9.884  0.0680  0.1297  0.2551
 9564SOL    HW240329   0.753   0.035   9.921  0.5409 -1.4762 -0.8981
 9565SOL     OW40330   1.183   2.930  11.503  0.3235 -0.8767  0.2955
 9565SOL    HW140331   1.223   2.978  11.430  1.7746 -1.5414  0.6369
 9565SOL    HW240332   1.245   2.858  11.515 -0.9437 -1.9560  0.3551
 9566SOL     OW40333   1.800   1.071   1.733  0.0834 -0.2250 -0.0769
 9566SOL    HW140334   1.737   1.114   1.791  0.8494  0.6933  0.0934
 9566SOL    HW240335   1.880   1.123   1.740  1.1254 -1.5073 -2.4040
 9567SOL     OW40336   3.506   0.049   3.832 -0.6069 -0.4770  0.0235
 9567SOL    HW140337   3.472   0.005   3.754  1.3158 -1.4303 -0.2757
 9567SOL    HW240338   3.473   0.138   3.819 -0.3500 -0.5007 -0.7699
 9568SOL     OW40339   3.424   0.160   6.681  0.1297  0.0656 -0.6873
 9568SOL    HW140340   3.438   0.112   6.600  1.6642  0.7197 -0.8134
 9568SOL    HW240341   3.514   0.152   6.714  0.0027 -1.5632 -0.7477
 9569SOL     OW40342   3.693   1.095  12.538 -0.0215  0.1935  0.2147
 9569SOL    HW140343   3.769   1.097  12.479  0.5017  0.5670  0.9004
 9569SOL    HW240344   3.676   1.001  12.540 -0.2486  0.1767 -2.7389
   4.73547   4.73547  17.74060
