Membrane in water
40344
    1TMC1    C1    1   2.824   2.628  11.309  0.0704 -0.1268  0.2364
    1TMC1    C2    2   2.822   2.760  11.337  0.2514  0.0892 -0.2463
    1TMC1    C3    3   2.871   2.840  11.242  0.0716 -0.0276  0.6773
    1TMC1    C4    4   2.901   2.575  11.211 -0.6992 -0.4877 -0.6984
    1TMC1    C5    5   2.959   2.665  11.128 -0.0405 -0.0476 -1.1562
    1TMC1    C6    6   2.941   2.796  11.138  0.1268  0.5127 -0.8858
    1TMC1     C    7   2.810   2.541  11.420  0.2598  0.7281 -0.1840
    1TMC1     O    8   2.798   2.595  11.529  0.1425 -0.3335 -0.3359
    1TMC1     H    9   2.760   2.794  11.419 -2.3322 -1.5960 -1.5177
    1TMC1    H1   10   2.923   2.471  11.192 -0.5686 -0.9484  2.0965
    1TMC1    H2   11   2.975   2.865  11.062 -0.0772 -1.1960 -2.5001
    1TMC1    C7   12   2.989   2.610  10.999  0.0078  0.0261  0.1224
    1TMC1    C8   13   2.876   2.981  11.281  0.0867  0.6386 -0.3040
    1TMC1    O1   14   2.941   2.502  10.969  0.4250  0.3544 -0.2419
    1TMC1    O2   15   2.938   3.059  11.206 -0.0833 -0.2490  0.1031
    1TMC1    O3   16   3.122   2.626  10.985 -0.2114 -0.4874  0.2838
    1TMC1    H3   17   3.153   2.714  11.016 -2.5281  0.4070  0.0316
    1TMC1    O5   18   2.785   3.018  11.378 -0.1301 -0.3959 -0.4284
    1TMC1    H5   19   2.734   2.952  11.428 -0.2908 -0.2326 -0.3763
    2MPD2     C   20   2.698   2.093  11.656 -0.2190  0.0525 -0.3900
    2MPD2    C1   21   2.689   2.226  11.695  0.2506 -0.4206  0.1565
    2MPD2    C2   22   2.731   2.327  11.605  0.2034 -0.0251  0.0561
    2MPD2    C3   23   2.774   2.301  11.481 -0.4697 -0.0232 -0.8905
    2MPD2    C4   24   2.795   2.169  11.442  0.7384  0.4124 -0.2031
    2MPD2    C5   25   2.751   2.069  11.532  0.1140 -0.1512  0.0611
    2MPD2     H   26   2.719   2.425  11.651 -0.5745 -0.6270  1.1347
    2MPD2    H1   27   2.835   2.138  11.347 -0.8653 -0.3181 -0.6408
    2MPD2    H2   28   2.677   2.003  11.712 -1.4171  0.2514 -0.5236
    2MPD2    H3   29   2.772   1.965  11.510  0.7521 -0.5048  2.2798
    2MPD2     N   30   2.811   2.407  11.391  0.0941  0.0998 -0.3720
    2MPD2    H5   31   2.827   2.375  11.295  1.8159 -1.2581  0.3736
    2MPD2    N1   32   2.628   2.265  11.821 -0.9519 -0.5752  0.3796
    2MPD2    H7   33   2.639   2.362  11.848  0.8924 -0.5251 -0.5512
    3TMC1    C1   34   1.992   2.739  10.747  0.0297  0.6962  0.1308
    3TMC1    C2   35   1.995   2.799  10.624  0.3787  0.1702  0.1390
    3TMC1    C3   36   2.069   2.743  10.522  0.3858  0.9354  0.6069
    3TMC1    C4   37   2.061   2.616  10.757 -0.1259  0.0086  0.7010
    3TMC1    C5   38   2.126   2.554  10.652  0.0419  0.2974 -0.2102
    3TMC1    C6   39   2.134   2.621  10.531 -0.6122  0.7989  0.1043
    3TMC1     C   40   1.907   2.762  10.859  0.8405 -0.3574  0.0103
    3TMC1     O   41   1.842   2.664  10.896  0.1032 -0.4490  0.1014
    3TMC1     H   42   1.931   2.885  10.610  0.2805  0.3643  1.7299
    3TMC1    H1   43   2.064   2.566  10.853  0.2914 -2.8953 -0.8449
    3TMC1    H2   44   2.189   2.577  10.448 -1.8655  0.7210 -0.6789
    3TMC1    C7   45   2.239   2.474  10.698  0.2082  0.0997 -0.5194
    3TMC1    C8   46   2.104   2.828  10.405 -0.1862 -0.3565 -1.0235
    3TMC1    O1   47   2.237   2.418  10.807  0.1725 -0.4134  0.2445
    3TMC1    O2   48   2.079   2.947  10.406 -0.4011 -0.2872 -0.0034
    3TMC1    O3   49   2.347   2.540  10.657  0.3069 -0.5392 -0.0479
    3TMC1    H3   50   2.347   2.601  10.580  0.1535 -0.6836 -0.1644
    3TMC1    O5   51   2.109   2.749  10.295  0.0794 -0.1757 -0.0383
    3TMC1    H5   52   2.084   2.655  10.308  0.4934 -0.3865 -0.7971
    4MPD2     C   53   1.578   3.067  11.101 -0.5404  0.5580  0.7005
    4MPD2    C1   54   1.693   3.137  11.083 -0.0534 -0.3656  0.6096
    4MPD2    C2   55   1.794   3.083  11.001 -0.0182 -0.4599 -0.2114
    4MPD2    C3   56   1.779   2.949  10.955 -0.3712 -0.4172  0.1866
    4MPD2    C4   57   1.663   2.876  10.983 -0.1070  0.5604  0.1946
    4MPD2    C5   58   1.556   2.937  11.051  0.1377 -0.1608 -0.2225
    4MPD2     H   59   1.875   3.143  10.960 -0.5081  0.0498 -0.4508
    4MPD2    H1   60   1.638   2.776  10.948  2.7645  0.3376 -1.1807
    4MPD2    H2   61   1.491   3.114  11.146 -1.5910 -1.3138  0.6391
    4MPD2    H3   62   1.460   2.888  11.063 -0.6188  1.0180 -1.3613
    4MPD2     N   63   1.879   2.898  10.872 -0.1565 -0.5813  0.1613
    4MPD2    H5   64   1.948   2.964  10.839 -1.2095 -0.0875 -1.0361
    4MPD2    N1   65   1.718   3.263  11.137  0.2928 -0.4589 -0.2074
    4MPD2    H7   66   1.797   3.314  11.098  0.8597 -2.3203 -1.4561
    5TCq1    O1   67   3.629   0.039  12.059  0.7945  0.1176  0.6465
    5TCq1    C1   68   3.652   0.054  11.927  0.6932  0.0567  0.1572
    5TCq1    O2   69   3.754   0.042  11.869 -0.2112  0.5699  0.0213
    5TCq1    C2   70   3.551   0.150  11.883 -0.8034 -0.4576 -0.2624
    5TCq1    C3   71   3.453   0.198  11.971  0.5779 -0.1140 -0.3106
    5TCq1    C4   72   3.365   0.289  11.916 -0.6272 -0.3672 -0.2992
    5TCq1    C5   73   3.365   0.326  11.789 -0.3124  0.8127 -1.0177
    5TCq1    C6   74   3.464   0.278  11.707  0.6150 -0.0327  0.0009
    5TCq1    C7   75   3.557   0.191  11.754 -0.0574 -0.4041 -0.1982
    5TCq1    C8   76   3.428   0.268  11.571  0.5419  0.5382 -0.0667
    5TCq1    O4   77   3.433   0.158  11.517  0.3773 -0.1184  0.5082
    5TCq1    C9   78   3.258   0.350  11.992  0.2543 -0.6147 -0.4399
    5TCq1    O5   79   3.142   0.344  11.939 -0.0731  0.1347 -0.1563
    5TCq1    O6   80   3.288   0.355  12.117 -0.5354  0.2398 -0.4436
    5TCq1    H1   81   3.533   0.034  12.075  0.8913 -2.5684  0.3443
    5TCq1    H2   82   3.446   0.164  12.073 -2.4291  0.8300 -0.2060
    5TCq1    H3   83   3.306   0.410  11.755 -0.1534  0.7671 -1.4119
    5TCq1    H4   84   3.629   0.139  11.692  0.1205  0.1215 -0.4382
    6MPD2     C   85   3.343   0.550  11.343  0.4513  0.0353  0.2585
    6MPD2    C1   86   3.357   0.418  11.386 -0.3089  0.1439 -0.2526
    6MPD2    C2   87   3.302   0.324  11.296  0.0199  0.3974  0.5022
    6MPD2    C3   88   3.234   0.349  11.187  0.4058  0.2941  0.0580
    6MPD2    C4   89   3.236   0.478  11.138  0.6197  0.2623 -0.3388
    6MPD2    C5   90   3.283   0.573  11.224  0.6153 -0.3509  0.5005
    6MPD2     H   91   3.325   0.222  11.323 -1.1584 -0.1622 -0.5790
    6MPD2    H1   92   3.203   0.516  11.042  1.6251  1.0787 -0.3663
    6MPD2    H2   93   3.384   0.635  11.395  0.9393  0.5139 -0.8998
    6MPD2    H3   94   3.294   0.676  11.191 -1.7866 -0.2375  0.0229
    6MPD2     N   95   3.173   0.237  11.122 -0.6396 -0.3141 -0.2233
    6MPD2    H5   96   3.187   0.146  11.166  0.0097 -0.3534 -0.5102
    6MPD2    N1   97   3.408   0.390  11.513 -0.8216  0.2230  0.0248
    6MPD2    H7   98   3.440   0.469  11.567 -1.3858  2.0934 -2.3369
    7TCq1    O1   99   4.438   4.440  13.889  0.1222  0.2548  0.3902
    7TCq1    C1  100   4.538   4.522  13.924  0.6488  0.1260  0.2849
    7TCq1    O2  101   4.541   4.644  13.917  0.2735 -0.4998  0.2828
    7TCq1    C2  102   4.647   4.437  13.974  0.2755  0.2874  0.3683
    7TCq1    C3  103   4.688   4.444  14.103  0.1883 -0.1336 -0.4536
    7TCq1    C4  104   0.051   4.360  14.144  0.6232 -0.2433  1.0575
    7TCq1    C5  105   0.108   4.266  14.059 -0.3163  0.3617  0.2254
    7TCq1    C6  106   0.061   4.254  13.932 -0.8687  0.2510 -0.6242
    7TCq1    C7  107   4.699   4.342  13.887  0.3878  0.6453 -0.2402
    7TCq1    C8  108   0.113   4.166  13.831  0.2651  0.7664  0.5540
    7TCq1    O4  109   0.193   4.077  13.865 -0.0517 -0.3906  0.4871
    7TCq1    C9  110   0.106   4.364  14.276  0.1188 -0.3232  0.0182
    7TCq1    O5  111   0.033   4.428  14.359  0.0321  0.0542  0.3722
    7TCq1    O6  112   0.195   4.281  14.311  0.7252 -0.5757  0.5288
    7TCq1    H1  113   4.443   4.344  13.912 -1.5084 -0.1371 -0.8936
    7TCq1    H2  114   4.641   4.514  14.171  1.8911 -0.4776  1.0590
    7TCq1    H3  115   0.187   4.201  14.095 -0.5478 -0.2516 -0.3871
    7TCq1    H4  116   4.659   4.333  13.786 -0.6436  0.2533  0.1979
    8MPD2     C  117   0.184   3.949  13.380 -0.0990 -0.3835  0.1421
    8MPD2    C1  118   0.171   3.895  13.507 -0.2372 -0.5683  0.1831
    8MPD2    C2  119   0.128   3.965  13.613  0.2528 -0.2288 -0.5961
    8MPD2    C3  120   0.105   4.099  13.594 -0.7776  0.3022 -0.5391
    8MPD2    C4  121   0.108   4.158  13.469  0.4189  0.1497  0.1766
    8MPD2    C5  122   0.147   4.080  13.360 -0.1839 -0.0719  0.0511
    8MPD2     H  123   0.113   3.921  13.711 -0.4105  1.6160  0.1410
    8MPD2    H1  124   0.091   4.263  13.449  0.4099  0.0121 -0.5174
    8MPD2    H2  125   0.227   3.894  13.298  1.4098 -0.6183  1.0838
    8MPD2    H3  126   0.172   4.115  13.260 -1.0484 -2.4542 -1.0157
    8MPD2     N  127   0.077   4.188  13.703 -0.5381  0.7174 -0.1979
    8MPD2    H5  128   0.028   4.272  13.675 -1.2818  0.4919  0.4451
    8MPD2    N1  129   0.196   3.757  13.526  0.7419 -0.4277 -0.5192
    8MPD2    H7  130   0.241   3.710  13.448  0.4290 -0.4153 -0.7079
    9TMC1    C1  131   2.347   4.082  11.305  0.2024 -0.4820  0.2096
    9TMC1    C2  132   2.428   3.998  11.235 -0.4950  0.0803 -0.1897
    9TMC1    C3  133   2.552   4.043  11.206  0.5437 -1.3506 -0.1940
    9TMC1    C4  134   2.382   4.209  11.354 -0.1311  0.5845  0.3622
    9TMC1    C5  135   2.504   4.249  11.304 -0.0199 -0.7207  0.0560
    9TMC1    C6  136   2.590   4.172  11.230 -1.0068 -0.9148 -0.2422
    9TMC1     C  137   2.228   4.033  11.373 -0.3120 -0.0987  0.0300
    9TMC1     O  138   2.130   4.103  11.378 -0.4030 -0.5306  0.8721
    9TMC1     H  139   2.399   3.898  11.205  1.1707 -0.2261 -0.7637
    9TMC1    H1  140   2.313   4.265  11.415  0.2264  0.0849  1.2351
    9TMC1    H2  141   2.682   4.210  11.187 -2.0613  1.6610 -0.2726
    9TMC1    C7  142   2.550   4.387  11.337  0.4646  0.6657  0.8641
    9TMC1    C8  143   2.619   3.949  11.111 -0.1515  0.3856 -1.2407
    9TMC1    O1  144   2.650   4.426  11.277 -0.0234 -0.4181 -0.3970
    9TMC1    O2  145   2.572   3.866  11.033 -0.4745  0.3635  0.4519
    9TMC1    O3  146   2.512   4.425  11.463 -0.6110  0.3235  0.6726
    9TMC1    H3  147   2.434   4.378  11.499  1.3102 -2.2573  1.3895
    9TMC1    O5  148   2.742   4.005  11.104  0.3969  0.6042 -0.1171
    9TMC1    H5  149   2.762   4.053  11.187 -1.4394 -1.9722  1.8363
   10MPD2     C  150   2.032   3.887  11.546 -0.0715  0.0051  0.2796
   10MPD2    C1  151   2.166   3.857  11.534  0.7192  0.2930  0.0811
   10MPD2    C2  152   2.223   3.771  11.627  0.1143 -0.5552  0.7390
   10MPD2    C3  153   2.153   3.713  11.722  0.0366 -0.1957  0.3197
   10MPD2    C4  154   2.016   3.733  11.730 -0.0277 -0.3684 -0.2323
   10MPD2    C5  155   1.961   3.826  11.647 -0.2967  0.3557  0.3835
   10MPD2     H  156   2.327   3.744  11.608 -0.0784  0.1256 -1.1952
   10MPD2    H1  157   1.964   3.692  11.815 -2.6930  1.2374 -1.1133
   10MPD2    H2  158   1.981   3.961  11.486  0.9127  1.8943  1.7723
   10MPD2    H3  159   1.855   3.844  11.656 -0.4125  0.0021 -0.3292
   10MPD2     N  160   2.197   3.625  11.818  0.1783  0.1575 -0.2554
   10MPD2    H5  161   2.127   3.585  11.880 -0.8362  1.3155 -0.6567
   10MPD2    N1  162   2.256   3.921  11.441  0.3641 -0.0835 -0.0362
   10MPD2    H7  163   2.353   3.892  11.434  0.3405 -0.0845 -0.3519
   11TCq1    O1  164   3.032   2.361  14.655  0.3096 -0.1244  0.4723
   11TCq1    C1  165   3.000   2.440  14.752 -0.0556 -0.2481 -0.4093
   11TCq1    O2  166   3.061   2.447  14.860  0.6315  0.1010 -0.5629
   11TCq1    C2  167   2.917   2.545  14.712 -0.4299  0.8012 -0.3550
   11TCq1    C3  168   2.939   2.674  14.745  0.1130  0.2134  0.0658
   11TCq1    C4  169   2.841   2.765  14.725 -0.6222 -0.0341  0.2893
   11TCq1    C5  170   2.720   2.735  14.670  0.1449  0.6645  0.4564
   11TCq1    C6  171   2.700   2.607  14.626 -0.4512 -0.8627  0.0296
   11TCq1    C7  172   2.798   2.510  14.649  0.3185 -0.3380 -0.6278
   11TCq1    C8  173   2.590   2.582  14.533 -0.7205  0.5904  0.3128
   11TCq1    O4  174   2.488   2.649  14.535 -0.0440 -0.1153 -0.4357
   11TCq1    C9  175   2.862   2.901  14.761  0.7856 -0.1782 -0.0261
   11TCq1    O5  176   2.779   2.963  14.830 -0.2276  0.1184  0.0242
   11TCq1    O6  177   2.961   2.957  14.714  0.0792 -0.0868  0.1345
   11TCq1    H1  178   2.986   2.387  14.573  1.7066  0.4398 -0.1394
   11TCq1    H2  179   3.032   2.707  14.790  0.2675 -1.9892  1.4075
   11TCq1    H3  180   2.646   2.809  14.642 -0.4923  0.2127  0.9540
   11TCq1    H4  181   2.773   2.406  14.630 -1.1555 -0.0036 -0.5232
   12MPD2     C  182   2.431   2.472  14.300 -0.4118  0.2955 -0.1918
   12MPD2    C1  183   2.565   2.438  14.328  0.0926  0.0799  0.0956
   12MPD2    C2  184   2.635   2.359  14.241  0.3099 -0.8612  0.5167
   12MPD2    C3  185   2.572   2.311  14.134  0.6779  0.7426  0.8126
   12MPD2    C4  186   2.446   2.344  14.102  0.2129  0.2505 -0.1969
   12MPD2    C5  187   2.372   2.423  14.182  0.7145  0.4086 -0.0853
   12MPD2     H  188   2.742   2.351  14.259  0.3166 -0.6589  0.5736
   12MPD2    H1  189   2.410   2.298  14.011  0.6470 -1.3591  0.4392
   12MPD2    H2  190   2.363   2.536  14.355  1.6941  3.0968 -0.8944
   12MPD2    H3  191   2.271   2.450  14.152  0.1350  1.4194  2.7873
   12MPD2     N  192   2.652   2.259  14.027 -0.0265  0.1086 -0.3484
   12MPD2    H5  193   2.612   2.249  13.934 -1.3113  1.4440  0.0552
   12MPD2    N1  194   2.634   2.491  14.438 -0.3559  0.1614  0.6795
   12MPD2    H7  195   2.730   2.459  14.445 -0.3123  0.1247 -0.1168
   13TCq1    O1  196   3.343   3.398  10.644  0.0896  0.1492  0.4234
   13TCq1    C1  197   3.352   3.335  10.524 -0.2221  0.2045  0.4991
   13TCq1    O2  198   3.460   3.320  10.467 -0.5014 -0.1091  0.4407
   13TCq1    C2  199   3.225   3.280  10.482  0.6078  0.0656 -0.2781
   13TCq1    C3  200   3.218   3.249  10.352  0.4814  0.0565  0.8224
   13TCq1    C4  201   3.101   3.195  10.307 -0.3113 -0.0976 -0.2486
   13TCq1    C5  202   2.988   3.187  10.380 -0.6306  0.4722  0.1783
   13TCq1    C6  203   2.991   3.233  10.510 -0.3472 -0.0389  0.4923
   13TCq1    C7  204   3.111   3.275  10.563 -0.6571  0.0570  0.2337
   13TCq1    C8  205   2.893   3.186  10.607  0.0872  0.4870 -0.1333
   13TCq1    O4  206   2.890   3.242  10.718  0.0639 -0.1081  0.3514
   13TCq1    C9  207   3.116   3.140  10.174 -0.8405 -1.2545  0.3312
   13TCq1    O5  208   3.195   3.205  10.099 -0.0000  0.0255 -0.0961
   13TCq1    O6  209   3.047   3.046  10.130  0.2867  0.3108  0.3213
   13TCq1    H1  210   3.253   3.417  10.678  0.3347  0.3428  0.9675
   13TCq1    H2  211   3.309   3.244  10.294 -0.7960  1.1871 -1.2838
   13TCq1    H3  212   2.908   3.124  10.342 -2.5019  2.5819  0.6545
   13TCq1    H4  213   3.116   3.269  10.671 -0.4144 -0.7255  0.1770
   14MPD2     C  214   2.729   2.865  10.620  0.6628 -0.2567 -0.2024
   14MPD2    C1  215   2.747   2.990  10.668 -0.5765 -0.2946 -0.6628
   14MPD2    C2  216   2.686   3.030  10.786 -0.6063  0.2356 -0.2139
   14MPD2    C3  217   2.607   2.950  10.857 -0.1814  0.0671  0.2595
   14MPD2    C4  218   2.588   2.823  10.809 -0.5383 -0.3707  0.2016
   14MPD2    C5  219   2.651   2.781  10.695  0.3125 -0.0961 -0.7178
   14MPD2     H  220   2.715   3.126  10.827  0.9048 -0.3606  0.1319
   14MPD2    H1  221   2.542   2.748  10.873  0.5900 -0.5559  0.7867
   14MPD2    H2  222   2.780   2.824  10.534 -1.7206  3.2571 -3.3358
   14MPD2    H3  223   2.640   2.677  10.665  0.0504 -0.5624  0.9888
   14MPD2     N  224   2.560   2.996  10.989 -0.3059 -0.3464  0.6909
   14MPD2    H5  225   2.555   3.095  11.007  0.8667  0.1050 -1.5632
   14MPD2    N1  226   2.836   3.061  10.584  0.7707 -0.3104  0.1782
   14MPD2    H7  227   2.862   3.005  10.504  0.8883  1.7102 -1.2010
   15TCq1    O1  228   0.679   2.417   1.095 -0.2578  0.6185 -0.2518
   15TCq1    C1  229   0.667   2.489   1.208  0.2708  0.3888 -0.1530
   15TCq1    O2  230   0.744   2.584   1.233 -0.5301  0.3504 -0.3602
   15TCq1    C2  231   0.532   2.472   1.259  0.1645  0.3987 -0.1164
   15TCq1    C3  232   0.476   2.582   1.313  0.5370 -0.6146 -0.1972
   15TCq1    C4  233   0.347   2.575   1.363 -0.4293  0.0566  0.5747
   15TCq1    C5  234   0.278   2.459   1.357  0.4205 -0.0107 -0.3336
   15TCq1    C6  235   0.346   2.346   1.306  0.5104  0.5409 -0.4244
   15TCq1    C7  236   0.473   2.350   1.259 -0.2099 -0.0673 -0.1444
   15TCq1    C8  237   0.269   2.233   1.256 -0.0197 -0.1050  0.0371
   15TCq1    O4  238   0.327   2.141   1.207 -0.1028  0.3240 -0.1033
   15TCq1    C9  239   0.283   2.699   1.417 -0.5765 -0.4991  0.2421
   15TCq1    O5  240   0.352   2.783   1.481 -0.3271 -0.6348  0.4536
   15TCq1    O6  241   0.158   2.694   1.431 -0.2589  0.1353 -0.7723
   15TCq1    H1  242   0.592   2.378   1.072 -0.4294  1.8245 -1.6197
   15TCq1    H2  243   0.536   2.673   1.311 -0.2341 -0.1092 -0.5247
   15TCq1    H3  244   0.175   2.459   1.390 -0.0847  0.0172 -1.8952
   15TCq1    H4  245   0.530   2.264   1.225  0.4369  0.3366 -0.0803
   16MPD2     C  246   4.657   2.257   1.138  0.9226  0.1633 -0.2532
   16MPD2    C1  247   0.035   2.189   1.180 -0.5130 -0.0428 -0.0318
   16MPD2    C2  248   0.040   2.049   1.180  0.3849  0.2489  0.5331
   16MPD2    C3  249   4.673   1.974   1.120  0.8250 -0.7578  0.4178
   16MPD2    C4  250   4.561   2.047   1.076  0.1134  0.0308 -0.7816
   16MPD2    C5  251   4.551   2.183   1.089  0.1589  0.4658  0.0371
   16MPD2     H  252   0.129   1.993   1.207  0.7812  0.7027  0.1736
   16MPD2    H1  253   4.477   1.995   1.032 -0.4560  0.4159 -0.1453
   16MPD2    H2  254   4.634   2.363   1.148 -0.6218 -0.0865 -1.2129
   16MPD2    H3  255   4.466   2.234   1.045 -1.5457 -0.5020  2.2074
   16MPD2     N  256   4.698   1.837   1.091  0.0396  0.3754 -0.0110
   16MPD2    H5  257   0.041   1.798   1.141  1.3220  1.1446 -1.4209
   16MPD2    N1  258   0.140   2.275   1.229 -0.7300 -0.4991 -0.0344
   16MPD2    H7  259   0.120   2.375   1.226 -0.3505 -0.4073  0.5036
   17TMC1    C1  260   1.925   1.396   9.776  0.0983  0.1994  0.6038
   17TMC1    C2  261   1.833   1.302   9.730  0.7610  0.2669  0.0204
   17TMC1    C3  262   1.865   1.167   9.731 -0.3108 -0.3128 -0.1076
   17TMC1    C4  263   2.048   1.359   9.826 -0.2742  0.6452 -0.6647
   17TMC1    C5  264   2.068   1.224   9.826  0.2674 -0.3930  0.2930
   17TMC1    C6  265   1.986   1.126   9.778  0.6295  0.1924 -0.3142
   17TMC1     C  266   1.894   1.537   9.779  0.7049 -0.0577 -0.2329
   17TMC1     O  267   1.824   1.586   9.692  0.0990 -0.1883  0.6041
   17TMC1     H  268   1.739   1.338   9.691  0.5092 -0.8884 -0.4241
   17TMC1    H1  269   2.135   1.414   9.860 -0.4512 -0.2747  1.2821
   17TMC1    H2  270   1.996   1.021   9.803 -1.9420 -0.2501 -1.1678
   17TMC1    C7  271   2.180   1.183   9.909  0.4428 -0.1184  0.4732
   17TMC1    C8  272   1.749   1.083   9.754 -0.0633  0.5613  0.2204
   17TMC1    O1  273   2.212   1.254  10.001  0.1691 -0.6460  0.1719
   17TMC1    O2  274   1.642   1.131   9.794  0.0368 -0.8146  0.1266
   17TMC1    O3  275   2.264   1.121   9.822  0.1774 -0.1598 -0.6211
   17TMC1    H3  276   2.215   1.095   9.741 -3.4641  0.4227  1.4374
   17TMC1    O5  277   1.761   0.962   9.686 -0.6015 -0.4829 -0.3033
   17TMC1    H5  278   1.849   0.959   9.643 -0.5819 -1.0050 -0.2243
   18MPD2     C  279   1.977   1.823   9.826 -0.1094  0.2102 -0.3702
   18MPD2    C1  280   1.985   1.725   9.922  0.0879  0.6213  0.8622
   18MPD2    C2  281   2.007   1.766  10.056  0.3202  0.3360 -0.4529
   18MPD2    C3  282   2.020   1.902  10.095 -0.2320  0.5227  0.3710
   18MPD2    C4  283   2.024   1.997   9.988 -0.3597 -0.6245 -0.3896
   18MPD2    C5  284   2.004   1.955   9.855 -0.1277 -0.6245 -0.4481
   18MPD2     H  285   2.032   1.689  10.127  1.6486  0.1415 -1.1315
   18MPD2    H1  286   2.034   2.102  10.012 -0.1814 -0.0220 -3.1309
   18MPD2    H2  287   1.965   1.790   9.724 -0.5359  1.3166 -0.6813
   18MPD2    H3  288   2.017   2.030   9.777 -0.7456 -2.9318 -2.7848
   18MPD2     N  289   2.070   1.948  10.217  0.9695 -0.5134 -0.0683
   18MPD2    H5  290   2.085   2.049  10.220 -1.1270 -0.2618  1.6706
   18MPD2    N1  291   1.964   1.588   9.886 -0.0906 -0.7851  0.0352
   18MPD2    H7  292   1.986   1.514   9.952  1.6821 -1.0394 -0.8584
   19TMC2    C1  293   4.002   2.894  13.924 -0.1306  0.2049  0.1821
   19TMC2    C2  294   3.873   2.943  13.924 -0.1621 -0.1051 -0.6906
   19TMC2    C3  295   3.772   2.855  13.952  0.3494 -0.0324 -0.2662
   19TMC2    C4  296   4.029   2.758  13.954  0.5305 -0.2556  0.3490
   19TMC2    C5  297   3.923   2.678  13.988 -0.2367 -0.2884 -1.3150
   19TMC2    C6  298   3.791   2.725  13.985  0.2815 -0.2798 -0.2303
   19TMC2     C  299   4.106   2.993  13.924  0.6744 -0.0517 -0.8459
   19TMC2     O  300   4.069   3.106  13.905 -0.6271  0.0949 -0.2791
   19TMC2     H  301   3.856   3.047  13.899  0.7357 -0.1600 -1.5040
   19TMC2    H1  302   4.134   2.730  13.944  1.1004  1.8029  0.4409
   19TMC2    H2  303   3.706   2.657  13.995  0.5481 -0.6292 -0.3271
   19TMC2    C7  304   3.942   2.531  14.000 -0.1430  0.1509 -0.1156
   19TMC2    C8  305   3.652   2.908  14.013 -0.2164 -0.3867  1.0293
   19TMC2    O1  306   3.846   2.456  13.989 -0.4673 -0.2028  0.4791
   19TMC2    O2  307   3.596   2.844  14.100 -0.0173 -0.4358  0.6214
   19TMC2    O5  308   3.620   3.033  13.970 -0.0779 -0.0614  0.0367
   19TMC2    H5  309   3.655   3.048  13.880 -0.1572 -0.6499 -0.0872
   20MPD2     C  310   4.362   3.146  13.941  0.5853  0.3411 -0.3987
   20MPD2    C1  311   4.333   3.039  14.015 -0.3197 -0.6395 -0.4812
   20MPD2    C2  312   4.427   2.986  14.107  0.2039 -0.3921 -0.6683
   20MPD2    C3  313   4.545   3.059  14.132 -0.3489 -0.5923  0.4954
   20MPD2    C4  314   4.559   3.181  14.067  0.5450  0.2833 -0.1890
   20MPD2    C5  315   4.468   3.227  13.975 -0.7484  0.7491  0.2911
   20MPD2     H  316   4.402   2.913  14.183  0.1834  1.2861  0.9362
   20MPD2    H1  317   4.635   3.253  14.098  0.5488 -0.7132  2.0947
   20MPD2    H2  318   4.290   3.185  13.869 -0.8351  0.5899  1.1629
   20MPD2    H3  319   4.481   3.320  13.920 -0.7152  0.5589 -0.0252
   20MPD2     N  320   4.635   3.020  14.234  1.0041 -0.0113 -0.4126
   20MPD2    H5  321   4.713   3.083  14.246  0.5538  0.8216 -1.8093
   20MPD2    N1  322   4.217   2.957  13.984  0.1145  0.2361  0.2846
   20MPD2    H7  323   4.226   2.866  14.028 -2.2049 -1.4132 -2.7648
   21TMC2    C1  324   2.194   3.081  14.141 -0.0765 -0.4341  0.4135
   21TMC2    C2  325   2.223   2.947  14.125  0.5670 -0.6449 -0.7902
   21TMC2    C3  326   2.131   2.858  14.181  0.0803 -0.4619  0.4233
   21TMC2    C4  327   2.076   3.128  14.184  0.0961  0.3435 -0.8092
   21TMC2    C5  328   1.977   3.044  14.222 -0.2850 -0.3924 -0.1650
   21TMC2    C6  329   2.016   2.910  14.231  0.4062 -0.0764  0.3294
   21TMC2     C  330   2.311   3.159  14.182  0.1523 -0.2796  0.8041
   21TMC2     O  331   2.288   3.253  14.259 -0.0969  0.2702  0.7961
   21TMC2     H  332   2.322   2.907  14.106  1.2531 -0.5514  2.6459
   21TMC2    H1  333   2.064   3.232  14.213 -0.5042  0.3008 -0.9161
   21TMC2    H2  334   1.941   2.835  14.254 -1.6236  1.8427 -0.0772
   21TMC2    C7  335   1.904   3.100  14.337 -0.1914  0.0504  0.1510
   21TMC2    C8  336   2.144   2.726  14.138  0.1670  0.5596 -0.0407
   21TMC2    O1  337   1.910   3.055  14.451  0.3819 -0.2114 -0.2211
   21TMC2    O2  338   2.187   2.690  14.031 -0.4897  0.3905  0.4693
   21TMC2    O5  339   2.127   2.657  14.256  0.1525  0.2437 -0.3568
   21TMC2    H5  340   2.104   2.720  14.328  1.8905 -0.9837  1.2706
   22MPD2     C  341   2.814   3.201  14.283 -0.1273  0.1392 -0.2802
   22MPD2    C1  342   2.702   3.218  14.361 -0.4242  0.4472  0.3238
   22MPD2    C2  343   2.577   3.188  14.316  0.0634  0.4710 -0.1481
   22MPD2    C3  344   2.553   3.142  14.185  0.0887  0.9018  0.2247
   22MPD2    C4  345   2.664   3.128  14.106 -0.2063  0.1224  0.3338
   22MPD2    C5  346   2.793   3.146  14.158 -0.3489  0.1093 -0.3183
   22MPD2     H  347   2.497   3.201  14.388  0.8412 -0.1491  0.8439
   22MPD2    H1  348   2.655   3.089  14.006  2.1005  1.9100 -0.5640
   22MPD2    H2  349   2.916   3.230  14.306 -0.5263  0.8264  0.5932
   22MPD2    H3  350   2.876   3.128  14.091  0.0338  1.9222 -0.3274
   22MPD2     N  351   2.426   3.118  14.126 -0.0367 -0.3911 -0.4936
   22MPD2    H5  352   2.416   3.060  14.043 -1.7950 -2.1432  0.9309
   22MPD2    N1  353   2.704   3.255  14.497 -0.0005  0.3913  0.1926
   22MPD2    H7  354   2.616   3.254  14.549 -0.6794 -0.0531 -0.9642
   23TMC2    C1  355   2.984   4.187  14.296  0.3023  0.1399 -0.0128
   23TMC2    C2  356   2.891   4.288  14.276 -0.7888 -0.1929 -0.2977
   23TMC2    C3  357   2.762   4.250  14.258 -0.2088  0.1309  0.0560
   23TMC2    C4  358   2.944   4.060  14.297  0.0878 -0.5274 -0.0042
   23TMC2    C5  359   2.814   4.028  14.278  0.6484  0.3886  0.4258
   23TMC2    C6  360   2.712   4.126  14.275  0.5895  0.1776  0.3494
   23TMC2     C  361   3.111   4.218  14.367 -0.2560 -0.0282 -1.1921
   23TMC2     O  362   3.201   4.135  14.376 -0.3961 -0.5473 -0.4140
   23TMC2     H  363   2.927   4.383  14.238  0.0244 -0.4775 -0.2450
   23TMC2    H1  364   3.010   3.976  14.317 -1.4359 -1.0852  2.7319
   23TMC2    H2  365   2.610   4.108  14.241  0.8540  1.2031 -0.9648
   23TMC2    C7  366   2.786   3.897  14.223  0.5545  0.1151 -0.3359
   23TMC2    C8  367   2.659   4.341  14.216  0.3299  0.4163  0.3672
   23TMC2    O1  368   2.886   3.838  14.179 -0.7591 -0.0324  0.0190
   23TMC2    O2  369   2.562   4.313  14.146 -0.4718  0.5611 -0.3620
   23TMC2    O5  370   2.682   4.463  14.260 -0.6369  0.0034 -0.7221
   23TMC2    H5  371   2.750   4.475  14.330  0.5609 -0.3457 -1.8408
   24MPD2     C  372   3.381   4.497  14.698  0.4470  0.5185 -0.2059
   24MPD2    C1  373   3.409   4.369  14.653 -0.1210  0.2378  0.5256
   24MPD2    C2  374   3.327   4.321  14.556 -0.8249  0.0252 -0.3910
   24MPD2    C3  375   3.203   4.386  14.526 -0.0042  0.4087 -0.4799
   24MPD2    C4  376   3.183   4.513  14.573  0.3170  0.4863 -0.4038
   24MPD2    C5  377   3.274   4.568  14.651  0.1320  0.1132  0.3395
   24MPD2     H  378   3.353   4.225  14.513  1.3735  0.1880  0.5886
   24MPD2    H1  379   3.093   4.567  14.545  1.2291  2.6868  0.9538
   24MPD2    H2  380   3.448   4.563  14.751  1.1043 -0.6276  0.3848
   24MPD2    H3  381   3.254   4.670  14.684  1.6226  0.4477  0.2283
   24MPD2     N  382   3.110   4.340  14.429  0.0778 -0.0934  0.5012
   24MPD2    H5  383   3.021   4.389  14.425 -0.0159 -0.0538  3.1751
   24MPD2    N1  384   3.532   4.300  14.686 -0.5418 -0.0103  0.0736
   24MPD2    H7  385   3.553   4.214  14.636  0.5781  0.4419 -0.2267
   25TMC2    C1  386   2.320   1.946  11.674 -0.1688 -0.5313  0.2877
   25TMC2    C2  387   2.357   2.062  11.618 -0.3290 -0.6561  0.1443
   25TMC2    C3  388   2.305   2.175  11.672 -0.6876  0.2397  0.4306
   25TMC2    C4  389   2.226   1.931  11.773  0.1870  0.1746 -0.5250
   25TMC2    C5  390   2.176   2.045  11.823  0.3530  0.0291 -0.3187
   25TMC2    C6  391   2.216   2.174  11.780 -0.2593 -0.2090  0.2884
   25TMC2     C  392   2.390   1.819  11.630  0.2649  0.0649 -1.0882
   25TMC2     O  393   2.506   1.833  11.585 -0.0835  0.0653  0.4372
   25TMC2     H  394   2.424   2.063  11.533 -2.4110 -1.0101 -1.4838
   25TMC2    H1  395   2.193   1.832  11.803  0.2470  0.8598  1.8084
   25TMC2    H2  396   2.169   2.265  11.815 -1.9864 -0.9714 -0.0576
   25TMC2    C7  397   2.052   2.031  11.901  0.9036  0.5983  0.2487
   25TMC2    C8  398   2.362   2.306  11.644  0.1226  0.5051  0.4649
   25TMC2    O1  399   2.054   1.934  11.978 -0.3086  0.7752 -0.0687
   25TMC2    O2  400   2.337   2.403  11.718  0.1111 -0.7004 -0.8421
   25TMC2    O5  401   2.421   2.321  11.519  0.0383 -0.1912  0.0411
   25TMC2    H5  402   2.428   2.240  11.464 -0.0786  0.4934 -0.9750
   26MPD2     C  403   2.415   1.324  11.473 -0.3364  0.0833  0.6150
   26MPD2    C1  404   2.289   1.353  11.504  0.8353  0.0553 -0.3534
   26MPD2    C2  405   2.250   1.478  11.560  0.0121 -0.0808  0.5380
   26MPD2    C3  406   2.348   1.577  11.583 -0.1226  0.3021  0.3462
   26MPD2    C4  407   2.472   1.542  11.549 -0.1928  0.0969  0.2963
   26MPD2    C5  408   2.504   1.426  11.488 -0.2109 -1.3219 -0.4613
   26MPD2     H  409   2.146   1.509  11.564  0.3309  0.7726  2.4533
   26MPD2    H1  410   2.551   1.615  11.560 -0.4575  0.3055  0.8426
   26MPD2    H2  411   2.454   1.224  11.455  2.4329  1.1443  0.7284
   26MPD2    H3  412   2.607   1.412  11.456  0.6846  1.3085  1.2666
   26MPD2     N  413   2.311   1.707  11.630  0.1479 -0.5622 -0.3433
   26MPD2    H5  414   2.212   1.729  11.643  0.5539  1.7624 -1.2129
   26MPD2    N1  415   2.194   1.258  11.470  0.3557  0.3261 -0.4563
   26MPD2    H7  416   2.218   1.190  11.399 -3.0798 -1.3474 -0.0234
   27TMC2    C1  417   1.281   3.737  11.972  0.2953 -0.8813  0.6728
   27TMC2    C2  418   1.391   3.769  11.892 -0.0723  0.3974  0.8041
   27TMC2    C3  419   1.435   3.898  11.886  0.0064 -0.0934 -0.2442
   27TMC2    C4  420   1.220   3.839  12.043 -0.1615  0.5374 -0.4335
   27TMC2    C5  421   1.269   3.969  12.033 -0.2530  0.0632 -0.5615
   27TMC2    C6  422   1.370   4.004  11.946  0.1313  0.6089  0.7227
   27TMC2     C  423   1.234   3.599  11.973 -0.1915  0.2268  0.3083
   27TMC2     O  424   1.295   3.513  11.910  0.0445  0.5434  0.3176
   27TMC2     H  425   1.448   3.685  11.855 -1.6028 -1.7201  3.2418
   27TMC2    H1  426   1.132   3.821  12.104  0.7871 -0.2637  0.7024
   27TMC2    H2  427   1.410   4.105  11.939 -1.3835  0.9811 -2.3618
   27TMC2    C7  428   1.207   4.075  12.114  0.4860 -0.0941  0.0620
   27TMC2    C8  429   1.561   3.910  11.820  0.5428 -0.2785 -0.3287
   27TMC2    O1  430   1.214   4.196  12.086 -0.0219  0.4542 -0.2596
   27TMC2    O2  431   1.651   3.828  11.823 -0.0874  0.4093 -0.2360
   27TMC2    O5  432   1.552   4.005  11.726 -0.4924  0.7527  0.4623
   27TMC2    H5  433   1.477   4.068  11.735 -0.4184  0.5853  2.3649
   28MPD2     C  434   0.922   3.247  12.177 -0.2127 -0.5458 -0.1005
   28MPD2    C1  435   0.890   3.359  12.235 -0.1175  0.0804  0.6351
   28MPD2    C2  436   0.955   3.472  12.183 -1.3390  0.0813  0.0564
   28MPD2    C3  437   1.049   3.467  12.084 -0.2325  0.4293 -0.3683
   28MPD2    C4  438   1.073   3.349  12.018  0.3753  0.1792 -0.6981
   28MPD2    C5  439   1.011   3.240  12.073  0.3182  0.0511 -0.0122
   28MPD2     H  440   0.948   3.568  12.233 -0.6775  0.8116 -1.2581
   28MPD2    H1  441   1.146   3.344  11.938  0.1880 -1.6558 -0.7672
   28MPD2    H2  442   0.877   3.158  12.221  2.3951 -0.3947  2.8928
   28MPD2    H3  443   1.045   3.145  12.034 -1.6469  0.2165 -2.1691
   28MPD2     N  444   1.127   3.585  12.058 -0.1449  0.6232  0.1574
   28MPD2    H5  445   1.086   3.668  12.101  1.5588  0.7789  1.4586
   28MPD2    N1  446   0.800   3.366  12.346 -0.5562 -0.4293  0.4861
   28MPD2    H7  447   0.748   3.281  12.366 -0.8135 -1.2113 -3.5228
   29TMC2    C1  448   0.481   1.344  14.324 -0.1423  0.2401 -0.1530
   29TMC2    C2  449   0.492   1.311  14.454  0.0435 -0.3529  0.7806
   29TMC2    C3  450   0.527   1.404  14.543 -0.1441  0.3141  0.6354
   29TMC2    C4  451   0.510   1.471  14.282 -0.0297 -0.0027 -0.2012
   29TMC2    C5  452   0.534   1.567  14.373 -0.4159 -0.1013  0.2742
   29TMC2    C6  453   0.548   1.529  14.504  0.2709  0.6440  0.2001
   29TMC2     C  454   0.474   1.243  14.224  0.2777 -0.3106  0.0915
   29TMC2     O  455   0.488   1.129  14.265 -0.5528  0.2931 -0.0685
   29TMC2     H  456   0.471   1.207  14.476 -0.0216 -0.2990  0.9712
   29TMC2    H1  457   0.516   1.487  14.175 -0.1644  1.3907 -0.0015
   29TMC2    H2  458   0.551   1.602  14.583 -1.9172 -0.5249  1.3518
   29TMC2    C7  459   0.526   1.701  14.325 -0.1473  0.0472  0.2118
   29TMC2    C8  460   0.525   1.373  14.687 -0.3851  0.9873 -0.2256
   29TMC2    O1  461   0.464   1.728  14.221 -0.1931 -0.0422 -0.3690
   29TMC2    O2  462   0.551   1.456  14.775  0.6030 -0.3901  0.2128
   29TMC2    O5  463   0.420   1.291  14.698  0.0949 -0.7579 -0.0946
   29TMC2    H5  464   0.381   1.279  14.609 -1.2687  2.7227  0.0619
   30MPD2     C  465   0.331   1.029  13.775  0.0322  0.7146  0.3916
   30MPD2    C1  466   0.406   0.984  13.878  0.1430  0.7817  0.1339
   30MPD2    C2  467   0.455   1.072  13.976  0.8491 -0.1947  0.3034
   30MPD2    C3  468   0.409   1.203  13.983  0.3689  0.2852 -0.4207
   30MPD2    C4  469   0.329   1.245  13.881 -0.9712 -0.4132 -0.1828
   30MPD2    C5  470   0.284   1.156  13.787 -0.1548  0.4675  0.3983
   30MPD2     H  471   0.503   1.025  14.061  1.7375 -0.3826 -0.3123
   30MPD2    H1  472   0.274   1.338  13.885 -0.7189 -0.2632 -0.2454
   30MPD2    H2  473   0.296   0.968  13.692  0.4961  0.8655  0.0875
   30MPD2    H3  474   0.209   1.189  13.715 -1.4387 -1.7802  0.7062
   30MPD2     N  475   0.422   1.283  14.098 -0.3050 -0.2294 -0.2060
   30MPD2    H5  476   0.383   1.377  14.092 -0.0214 -0.1404 -0.6587
   30MPD2    N1  477   0.452   0.852  13.895  0.3968 -0.1719  0.0911
   30MPD2    H7  478   0.512   0.827  13.973 -0.6606 -1.7448  0.3838
   31TMC2    C1  479   3.064   0.287  15.620 -0.3291  0.3747 -0.5548
   31TMC2    C2  480   2.941   0.261  15.672  0.0383  0.1260 -0.3243
   31TMC2    C3  481   2.924   0.264  15.803 -0.0957 -0.4365  0.5676
   31TMC2    C4  482   3.167   0.317  15.707  0.5043 -0.4142  0.3497
   31TMC2    C5  483   3.142   0.328  15.838 -0.4453  0.4276  0.7557
   31TMC2    C6  484   3.015   0.303  15.889 -0.2600 -0.3870 -0.2318
   31TMC2     C  485   3.062   0.341  15.482 -0.6850 -0.1178 -0.6337
   31TMC2     O  486   2.958   0.390  15.442  0.2732 -0.3949 -0.0678
   31TMC2     H  487   2.863   0.221  15.609 -1.7796  0.5130  1.6782
   31TMC2    H1  488   3.262   0.355  15.671 -0.0604  1.4931  0.8505
   31TMC2    H2  489   2.986   0.307  15.993  2.3540  2.3032  0.4174
   31TMC2    C7  490   3.247   0.306  15.935 -0.1080  0.1222 -0.3744
   31TMC2    C8  491   2.815   0.185  15.863  0.6850  0.3992 -0.7362
   31TMC2    O1  492   3.349   0.252  15.897 -0.3324 -0.1038 -0.2803
   31TMC2    O2  493   2.823   0.122  15.970 -0.2795  0.0053 -0.0095
   31TMC2    O5  494   2.704   0.231  15.797 -0.7042 -0.3821 -0.2724
   31TMC2    H5  495   2.727   0.287  15.720 -0.8356  1.1374  0.7977
   32MPD2     C  496   3.343   0.450  15.055  0.1344  0.2122 -0.0189
   32MPD2    C1  497   3.216   0.494  15.089  0.2345 -0.0206  0.2673
   32MPD2    C2  498   3.161   0.443  15.210  0.2771  0.7195 -0.0318
   32MPD2    C3  499   3.227   0.354  15.293 -0.1332 -0.5743  0.0514
   32MPD2    C4  500   3.346   0.306  15.249 -0.6121 -0.1105  0.9629
   32MPD2    C5  501   3.402   0.354  15.130  0.0632 -0.0137  0.0674
   32MPD2     H  502   3.066   0.476  15.250  0.2167  1.0554 -0.4411
   32MPD2    H1  503   3.406   0.229  15.296  1.0162  0.7233  0.2542
   32MPD2    H2  504   3.394   0.487  14.967 -0.6295  1.2710 -0.0167
   32MPD2    H3  505   3.494   0.309  15.095 -0.7791 -0.6891 -1.2506
   32MPD2     N  506   3.180   0.314  15.424  1.0861 -1.1722  0.7326
   32MPD2    H5  507   3.243   0.253  15.475 -0.8773 -3.1201  0.8169
   32MPD2    N1  508   3.155   0.597  15.012 -0.4313 -0.7903  0.1051
   32MPD2    H7  509   3.212   0.631  14.936 -1.5413  0.1453 -0.3143
   33TMC2    C1  510   2.449   2.908  10.365 -0.2744  0.1990 -0.3122
   33TMC2    C2  511   2.377   2.978  10.465 -0.1308 -0.6268  0.2084
   33TMC2    C3  512   2.405   3.110  10.485  0.3730 -0.6181  0.5899
   33TMC2    C4  513   2.541   2.975  10.290 -0.5925 -0.0840  0.1154
   33TMC2    C5  514   2.564   3.113  10.306  0.2750  0.4748  0.1775
   33TMC2    C6  515   2.494   3.184  10.403  0.0011  0.7040 -0.7374
   33TMC2     C  516   2.468   2.766  10.392 -0.3886  0.2290 -0.4520
   33TMC2     O  517   2.390   2.716  10.471 -0.4832  0.5701 -0.0927
   33TMC2     H  518   2.340   2.929  10.554 -3.5692  0.2495 -0.7562
   33TMC2    H1  519   2.586   2.931  10.202 -0.2641 -1.7544  1.1249
   33TMC2    H2  520   2.522   3.287  10.421  0.1481  0.6960 -0.9235
   33TMC2    C7  521   2.644   3.182  10.207 -0.1555 -0.5340 -0.5912
   33TMC2    C8  522   2.359   3.168  10.601  0.1000  0.2418 -0.1859
   33TMC2    O1  523   2.742   3.121  10.161  0.0179 -0.1794  0.3758
   33TMC2    O2  524   2.343   3.107  10.705  0.1424  0.3332  0.3985
   33TMC2    O5  525   2.293   3.273  10.559  0.6786  0.5692  0.2109
   33TMC2    H5  526   2.303   3.283  10.462 -0.1900 -4.3179 -0.4308
   34MPD2     C  527   2.732   2.336  10.382  0.2905 -0.4184 -0.0630
   34MPD2    C1  528   2.597   2.360  10.388 -0.0723  0.2498  0.0821
   34MPD2    C2  529   2.545   2.486  10.387 -0.3584  0.1151  0.0318
   34MPD2    C3  530   2.635   2.587  10.365 -0.4006  0.3591 -0.1260
   34MPD2    C4  531   2.773   2.565  10.355 -0.5494  0.2908  0.2063
   34MPD2    C5  532   2.819   2.442  10.369  0.3408 -0.3311  0.3615
   34MPD2     H  533   2.437   2.495  10.392 -0.5186 -2.3633  0.9406
   34MPD2    H1  534   2.846   2.645  10.353 -0.6105  0.3051 -1.1835
   34MPD2    H2  535   2.766   2.233  10.390  2.9058  0.1156 -4.4136
   34MPD2    H3  536   2.925   2.424  10.355  0.4186  0.7228 -0.4612
   34MPD2     N  537   2.589   2.721  10.351  0.0917 -0.6398 -0.0270
   34MPD2    H5  538   2.652   2.789  10.310  0.1269 -1.1348 -0.8049
   34MPD2    N1  539   2.513   2.242  10.408  0.1300  0.1722 -0.3427
   34MPD2    H7  540   2.563   2.157  10.429  0.2595  0.1153 -0.8910
   35TMC2    C1  541   4.269   3.883  11.469  0.1956 -0.3915  0.3694
   35TMC2    C2  542   4.171   3.975  11.446 -0.0810 -0.3968  0.2953
   35TMC2    C3  543   4.040   3.931  11.441  0.3159  0.2867  0.0212
   35TMC2    C4  544   4.246   3.753  11.493  0.2922 -0.1788  0.5988
   35TMC2    C5  545   4.118   3.716  11.496  0.4966 -0.2765 -0.0546
   35TMC2    C6  546   4.011   3.802  11.481  0.4019 -0.6006 -0.0311
   35TMC2     C  547   4.406   3.933  11.501 -0.4053  0.0663 -0.3827
   35TMC2     O  548   4.432   4.050  11.478  0.1214 -0.4315 -0.0512
   35TMC2     H  549   4.204   4.077  11.436 -0.0370 -0.6628 -2.0644
   35TMC2    H1  550   4.326   3.681  11.503 -0.0923 -0.8747 -1.3278
   35TMC2    H2  551   3.907   3.771  11.475  0.7690 -1.5710 -1.2149
   35TMC2    C7  552   4.092   3.575  11.517  0.7849  0.5640 -0.2453
   35TMC2    C8  553   3.931   4.030  11.422  0.1290 -0.1227 -0.4246
   35TMC2    O1  554   4.185   3.506  11.556 -0.0841 -0.4271  0.4984
   35TMC2    O2  555   3.819   4.029  11.469 -0.1731 -0.0292  0.7834
   35TMC2    O5  556   3.975   4.120  11.328  0.8860 -0.0752 -0.6489
   35TMC2    H5  557   4.062   4.091  11.295  0.8377 -0.1203 -0.7351
   36MPD2     C  558   0.148   3.919  11.709 -0.5415 -0.0820  0.7097
   36MPD2    C1  559   0.079   3.804  11.736  0.0095 -0.3212 -0.1341
   36MPD2    C2  560   4.686   3.785  11.693 -0.8278 -0.0470 -0.3122
   36MPD2    C3  561   4.623   3.878  11.613  0.2771  0.4645 -0.4473
   36MPD2    C4  562   4.693   3.993  11.581 -0.2800  0.5852  0.1551
   36MPD2    C5  563   0.087   4.018  11.631 -0.4107  0.1547 -0.4914
   36MPD2     H  564   4.637   3.692  11.720  0.9902 -0.9767 -0.2510
   36MPD2    H1  565   4.653   4.067  11.512 -2.0458  1.1104  1.7599
   36MPD2    H2  566   0.249   3.943  11.741  0.5955 -3.5929 -0.2101
   36MPD2    H3  567   0.145   4.106  11.605  2.1446 -0.9555  1.5822
   36MPD2     N  568   4.490   3.849  11.574  0.1455  0.0942  0.1817
   36MPD2    H5  569   4.456   3.754  11.588  2.0848 -0.1139  3.5412
   36MPD2    N1  570   0.146   3.714  11.828  0.4777 -0.1219 -0.7975
   36MPD2    H7  571   0.241   3.734  11.855  0.6881 -0.0971 -1.5526
   37TMC2    C1  572   1.775   4.522  12.124  0.3183  0.5939 -0.6311
   37TMC2    C2  573   1.654   4.488  12.085 -0.2740  0.5874  0.3338
   37TMC2    C3  574   1.636   4.479  11.946  0.5047 -0.7452 -0.8590
   37TMC2    C4  575   1.878   4.543  12.038  0.0143 -0.8329  0.0310
   37TMC2    C5  576   1.854   4.533  11.904  0.0482 -0.6143  0.1588
   37TMC2    C6  577   1.736   4.485  11.855 -1.0216  0.8630  0.0392
   37TMC2     C  578   1.809   4.488  12.264 -0.1950 -0.1791 -0.3656
   37TMC2     O  579   1.716   4.448  12.334  0.1192  0.0740 -0.6807
   37TMC2     H  580   1.565   4.467  12.143 -1.2902  1.5903 -0.8309
   37TMC2    H1  581   1.974   4.579  12.072  0.0458  0.2763 -1.2609
   37TMC2    H2  582   1.704   4.471  11.753  0.5237  0.9903 -0.4525
   37TMC2    C7  583   1.960   4.553  11.807  0.2504  0.8525  0.9158
   37TMC2    C8  584   1.526   4.401  11.905  0.5220  0.6025  0.4909
   37TMC2    O1  585   2.073   4.526  11.840  0.5408  0.2012  0.2817
   37TMC2    O2  586   1.414   4.449  11.878  0.1011  0.2310 -0.2231
   37TMC2    O5  587   1.534   4.296  11.992  0.4971 -0.0600 -0.7922
   37TMC2    H5  588   1.625   4.272  12.020 -0.1944 -2.7428 -0.8003
   38MPD2     C  589   2.153   4.397  12.647 -0.4523  0.0653 -0.2926
   38MPD2    C1  590   2.224   4.445  12.538  0.5174 -0.3480 -0.1491
   38MPD2    C2  591   2.159   4.460  12.416 -0.6645 -0.9242  0.1289
   38MPD2    C3  592   2.019   4.438  12.406 -0.0097 -0.5338 -0.2902
   38MPD2    C4  593   1.951   4.386  12.507 -0.4245  0.0070  0.5014
   38MPD2    C5  594   2.020   4.372  12.629  0.0322  0.2605  0.5467
   38MPD2     H  595   2.216   4.502  12.334 -0.7042 -1.2551 -0.0685
   38MPD2    H1  596   1.845   4.367  12.493 -0.2231 -0.5043 -0.4073
   38MPD2    H2  597   2.196   4.386  12.746  0.0101 -2.5100 -0.7667
   38MPD2    H3  598   1.962   4.331  12.712 -0.3945  0.3973  0.3174
   38MPD2     N  599   1.946   4.475  12.286 -0.0513  0.2354 -0.1366
   38MPD2    H5  600   2.000   4.482  12.200 -0.9160  0.4065 -0.6734
   38MPD2    N1  601   2.362   4.470  12.546 -0.3849 -0.0029 -0.1763
   38MPD2    H7  602   2.410   4.520  12.471  1.0656 -0.8223  0.2116
   39TMC2    C1  603   0.378   1.111   1.615 -0.6656 -0.5936 -0.1808
   39TMC2    C2  604   0.396   0.976   1.599 -0.4204 -0.5525  0.2559
   39TMC2    C3  605   0.519   0.931   1.628  0.5628  0.0135 -0.5413
   39TMC2    C4  606   0.483   1.193   1.657  0.4432  0.1981 -0.4775
   39TMC2    C5  607   0.611   1.139   1.681 -0.0445 -0.7061  0.1425
   39TMC2    C6  608   0.621   1.008   1.671  0.1570 -0.4191  0.5417
   39TMC2     C  609   0.245   1.164   1.607 -0.9211 -0.0144  0.0402
   39TMC2     O  610   0.229   1.285   1.581 -0.1702  0.1905  0.6635
   39TMC2     H  611   0.317   0.906   1.575  0.8756 -2.0347  0.2751
   39TMC2    H1  612   0.477   1.299   1.680 -0.1113  0.2664 -0.9262
   39TMC2    H2  613   0.716   0.971   1.705  1.7227  1.1718 -2.0721
   39TMC2    C7  614   0.733   1.218   1.684 -0.5356  0.5759 -0.6809
   39TMC2    C8  615   0.536   0.782   1.619  0.5064  0.8163  0.6913
   39TMC2    O1  616   0.821   1.165   1.751  0.0256  0.5451  0.2832
   39TMC2    O2  617   0.450   0.701   1.637 -0.0933  0.3121  0.2196
   39TMC2    O5  618   0.661   0.758   1.570 -0.6651 -0.0698  0.8323
   39TMC2    H5  619   0.720   0.837   1.562  0.6534 -1.0858  0.5807
   40MPD2     C  620   4.674   1.001   1.704  0.3638 -0.1849  0.2312
   40MPD2    C1  621   0.016   1.086   1.623 -0.1210  0.1948  0.6697
   40MPD2    C2  622   4.693   1.177   1.540 -0.4911 -0.5913 -0.5450
   40MPD2    C3  623   4.555   1.179   1.519 -0.7076  0.3955  0.2144
   40MPD2    C4  624   4.479   1.084   1.588 -0.1128  0.5300 -0.7884
   40MPD2    C5  625   4.538   1.003   1.681 -0.3394 -0.4549 -0.3650
   40MPD2     H  626   0.019   1.249   1.488 -1.5576  1.1950  0.6604
   40MPD2    H1  627   4.372   1.096   1.589 -0.1420  0.3593 -1.3628
   40MPD2    H2  628   4.716   0.937   1.781 -1.5024  0.1388  1.5239
   40MPD2    H3  629   4.480   0.948   1.754 -0.5615  1.1880  0.7164
   40MPD2     N  630   4.484   1.277   1.446 -0.2627 -0.0781  0.6627
   40MPD2    H5  631   4.384   1.268   1.428 -0.2558 -0.1845  0.6828
   40MPD2    N1  632   0.154   1.082   1.649 -0.3404  0.2731 -1.0583
   40MPD2    H7  633   0.175   0.996   1.700 -0.9013  0.4118 -0.5896
   41TMC2    C1  634   4.215   3.962  13.441 -0.3138  0.3894  0.1411
   41TMC2    C2  635   4.293   4.020  13.535 -0.2771 -0.6289 -0.6811
   41TMC2    C3  636   4.350   4.137  13.501 -0.2832  0.5756  0.2362
   41TMC2    C4  637   4.196   4.021  13.317 -0.5733 -0.0855  0.0010
   41TMC2    C5  638   4.271   4.138  13.283  0.3162  0.3365  0.2796
   41TMC2    C6  639   4.353   4.197  13.375 -0.0187 -0.2805 -0.0568
   41TMC2     C  640   4.178   3.821  13.457 -0.2348  0.8411 -0.3857
   41TMC2     O  641   4.164   3.746  13.360 -0.2088 -0.1976  0.5027
   41TMC2     H  642   4.306   3.971  13.631  2.3479  0.0436 -0.7072
   41TMC2    H1  643   4.142   3.963  13.243 -1.4189 -1.4169  1.6852
   41TMC2    H2  644   4.424   4.275  13.353  0.6182 -0.9235 -0.2864
   41TMC2    C7  645   4.283   4.158  13.141 -0.5799 -0.2237 -0.1445
   41TMC2    C8  646   4.430   4.215  13.598  0.0221 -0.1374 -0.4794
   41TMC2    O1  647   4.211   4.087  13.071 -0.6410  0.3326  0.0265
   41TMC2    O2  648   4.522   4.288  13.562  0.4081  0.5363 -1.0132
   41TMC2    O5  649   4.417   4.166  13.719  1.1284  0.1624  0.0791
   41TMC2    H5  650   4.332   4.118  13.733  1.1793  0.1317  0.2771
   42MPD2     C  651   4.203   3.560  13.587 -0.0620  0.1922 -0.6743
   42MPD2    C1  652   4.158   3.677  13.653  1.2645 -0.1946  0.6672
   42MPD2    C2  653   4.109   3.682  13.783 -0.1412 -0.0128  0.3983
   42MPD2    C3  654   4.115   3.572  13.855 -0.0870  0.0127  0.1153
   42MPD2    C4  655   4.152   3.454  13.794 -0.4646  0.0614 -0.2072
   42MPD2    C5  656   4.196   3.447  13.667  0.0078  0.4812  0.2815
   42MPD2     H  657   4.065   3.774  13.820 -0.6226 -0.0855  0.0078
   42MPD2    H1  658   4.141   3.357  13.842 -1.7791  0.4353  0.2301
   42MPD2    H2  659   4.246   3.556  13.488 -1.3674  0.2178 -1.2427
   42MPD2    H3  660   4.224   3.349  13.630 -0.1696  0.9085 -0.9903
   42MPD2     N  661   4.075   3.561  13.988  0.0072  0.0566  0.3296
   42MPD2    H5  662   4.079   3.469  14.032 -0.4426 -1.1932 -2.2170
   42MPD2    N1  663   4.154   3.798  13.593  1.3473  0.1223 -0.0802
   42MPD2    H7  664   4.136   3.882  13.647  0.1493 -1.2145  1.6023
   43TMC2    C1  665   0.622   3.034   0.748  0.4320  0.0361 -0.5193
   43TMC2    C2  666   0.501   3.093   0.794  0.5527 -0.2118  0.7282
   43TMC2    C3  667   0.523   3.213   0.857  0.4880  0.3806 -0.2036
   43TMC2    C4  668   0.739   3.091   0.762  0.5763 -0.2332 -0.4724
   43TMC2    C5  669   0.743   3.223   0.812 -0.1683 -0.0654  0.3239
   43TMC2    C6  670   0.635   3.294   0.851 -0.1846  0.2076 -0.0923
   43TMC2     C  671   0.609   2.911   0.673  0.6094 -0.0915  0.0194
   43TMC2     O  672   0.713   2.844   0.660  0.1239  0.2163 -0.2425
   43TMC2     H  673   0.409   3.039   0.815  0.7693 -0.0981  1.9315
   43TMC2    H1  674   0.826   3.035   0.729  1.7294  1.6317 -0.5985
   43TMC2    H2  675   0.632   3.402   0.854  0.2440  0.2127  0.0968
   43TMC2    C7  676   0.870   3.275   0.837  0.0907  0.8358  0.3271
   43TMC2    C8  677   0.409   3.273   0.922 -1.3273  0.6224  0.3736
   43TMC2    O1  678   0.952   3.250   0.754 -0.2018 -0.4405  0.4542
   43TMC2    O2  679   0.414   3.364   1.004  0.0958 -0.0302 -0.2881
   43TMC2    O5  680   0.321   3.284   0.822 -0.1682 -0.1842 -0.0048
   43TMC2    H5  681   0.319   3.223   0.745 -0.5657  1.1492 -1.0486
   44MPD2     C  682   0.299   2.518   0.570 -0.2659  0.1334  0.3796
   44MPD2    C1  683   0.438   2.521   0.565 -0.3162 -0.7741 -0.1134
   44MPD2    C2  684   0.503   2.635   0.595 -0.1909 -0.4540 -0.1980
   44MPD2    C3  685   0.426   2.748   0.628  0.1286  0.5792 -0.1053
   44MPD2    C4  686   0.289   2.747   0.632 -0.1360  0.4744 -0.0271
   44MPD2    C5  687   0.230   2.631   0.604 -0.6044 -0.6836 -0.3409
   44MPD2     H  688   0.611   2.640   0.594 -0.2095 -0.4354 -1.8054
   44MPD2    H1  689   0.233   2.829   0.675 -1.6041 -0.5936  0.1123
   44MPD2    H2  690   0.243   2.427   0.557 -0.2527  0.2906 -0.7791
   44MPD2    H3  691   0.123   2.621   0.607 -0.6008 -0.9943 -1.3713
   44MPD2     N  692   0.479   2.873   0.658 -0.5881  0.0751  0.1376
   44MPD2    H5  693   0.412   2.945   0.685 -0.4782  0.0678  0.4248
   44MPD2    N1  694   0.522   2.411   0.520  0.7099 -0.0724  0.7375
   44MPD2    H7  695   0.620   2.432   0.509  0.5433  0.5991  0.5692
   45TMC2    C1  696   2.380   4.404   9.649 -0.9161  0.0069  0.2870
   45TMC2    C2  697   2.506   4.418   9.607  0.1645 -0.4345  0.0383
   45TMC2    C3  698   2.569   4.531   9.648  0.3609  0.3067 -1.2160
   45TMC2    C4  699   2.310   4.502   9.721 -0.0114 -0.0314  0.2462
   45TMC2    C5  700   2.376   4.617   9.753  0.4272  0.4358  0.2417
   45TMC2    C6  701   2.508   4.627   9.728 -0.1872 -0.8708 -0.3595
   45TMC2     C  702   2.306   4.291   9.598 -0.8086 -0.5371 -0.2946
   45TMC2     O  703   2.366   4.219   9.518 -0.5496 -0.4936  0.3441
   45TMC2     H  704   2.554   4.349   9.539 -0.9862  0.9873 -2.2230
   45TMC2    H1  705   2.206   4.499   9.749  0.0668 -0.2674  0.5098
   45TMC2    H2  706   2.573   4.709   9.756 -0.2284 -1.1616  0.5765
   45TMC2    C7  707   2.300   4.730   9.804 -1.1439  0.0711  0.5063
   45TMC2    C8  708   2.703   4.552   9.601  0.4024  0.1742  0.3660
   45TMC2    O1  709   2.195   4.705   9.864 -0.0635  0.4667  0.4660
   45TMC2    O2  710   2.770   4.633   9.664 -0.2186 -0.0415 -0.2933
   45TMC2    O5  711   2.695   4.540   9.465 -0.1073  0.3505 -0.0075
   45TMC2    H5  712   2.614   4.500   9.426 -0.1108  0.2795  0.0726
   46MPD2     C  713   2.115   4.080   9.548  0.0032  0.2468 -0.2203
   46MPD2    C1  714   2.080   4.217   9.561 -0.1060  0.0606 -0.1091
   46MPD2    C2  715   1.949   4.263   9.543  0.1479 -0.6474  0.1020
   46MPD2    C3  716   1.854   4.172   9.491  0.7336  0.3059 -0.3129
   46MPD2    C4  717   1.887   4.032   9.485  0.4419 -0.2077  0.2751
   46MPD2    C5  718   2.014   3.994   9.512  0.0660  0.0450  0.3789
   46MPD2     H  719   1.925   4.365   9.570 -0.6345 -0.7802 -0.0813
   46MPD2    H1  720   1.818   3.965   9.434  0.4194  0.7373 -0.9165
   46MPD2    H2  721   2.211   4.036   9.574  0.6899  1.9693  0.1901
   46MPD2    H3  722   2.045   3.891   9.502  0.8844  0.5380 -2.2440
   46MPD2     N  723   1.722   4.209   9.470 -0.4088  0.0150 -0.0327
   46MPD2    H5  724   1.703   4.305   9.496 -1.5436  0.0108 -0.8596
   46MPD2    N1  725   2.175   4.307   9.611  0.0219  0.2766 -0.1301
   46MPD2    H7  726   2.141   4.393   9.654 -0.1176 -0.5001  1.3453
   47TMC2    C1  727   3.263   0.376   9.247 -0.2719  0.1097 -0.0683
   47TMC2    C2  728   3.329   0.383   9.126 -0.0117 -0.3522 -0.4236
   47TMC2    C3  729   3.280   0.481   9.045  0.2165 -0.4370 -0.1702
   47TMC2    C4  730   3.153   0.446   9.275 -0.5218  0.0656  0.0303
   47TMC2    C5  731   3.101   0.531   9.186  0.2047 -0.2810  0.2290
   47TMC2    C6  732   3.165   0.555   9.067  0.6304 -0.3078  0.0931
   47TMC2     C  733   3.317   0.292   9.350  0.5952  0.2461  0.7065
   47TMC2     O  734   3.250   0.280   9.450 -0.0175 -0.1624 -0.2884
   47TMC2     H  735   3.428   0.340   9.117 -0.1413 -1.1507  1.8743
   47TMC2    H1  736   3.108   0.441   9.374 -0.0561 -0.7086  0.2012
   47TMC2    H2  737   3.131   0.627   8.993  1.3083  1.4715  1.5091
   47TMC2    C7  738   2.986   0.621   9.216 -1.1369 -0.0420  0.1608
   47TMC2    C8  739   3.356   0.532   8.928 -0.2900 -0.0326  0.4468
   47TMC2    O1  740   2.985   0.730   9.166 -0.4397 -0.4378 -0.1646
   47TMC2    O2  741   3.413   0.641   8.940  0.1536  0.1923  0.4479
   47TMC2    O5  742   3.372   0.432   8.838  0.1126 -0.4309  0.0875
   47TMC2    H5  743   3.313   0.358   8.863  0.9981 -1.2684 -0.3235
   48MPD2     C  744   3.467   0.104   9.533 -0.6458 -0.1221 -0.0440
   48MPD2    C1  745   3.494   0.124   9.400 -0.1266  0.2534  0.2419
   48MPD2    C2  746   3.600   0.058   9.339  0.4373 -0.1528 -0.3805
   48MPD2    C3  747   3.684   4.713   9.413  0.4940  0.8299  0.5203
   48MPD2    C4  748   3.663   4.708   9.549 -0.5221  0.6090 -0.1709
   48MPD2    C5  749   3.552   0.025   9.608  0.0702  0.1167 -0.4815
   48MPD2     H  750   3.627   0.085   9.237 -3.4954 -2.9969 -2.1492
   48MPD2    H1  751   3.732   4.648   9.607 -1.8177 -0.1987  0.5435
   48MPD2    H2  752   3.393   0.159   9.590  0.4832 -0.2819  1.5766
   48MPD2    H3  753   3.531   0.018   9.715  2.6821 -0.2656 -0.0001
   48MPD2     N  754   3.781   4.636   9.350 -0.3254 -0.3460 -0.2912
   48MPD2    H5  755   3.769   4.626   9.250 -0.0361  1.0195 -0.4675
   48MPD2    N1  756   3.427   0.217   9.313 -0.2131 -0.2006 -0.2420
   48MPD2    H7  757   3.466   0.227   9.220 -0.8397 -0.2080 -0.5089
   49TMC2    C1  758   1.722   1.850  10.327 -0.3523 -0.7715  0.2964
   49TMC2    C2  759   1.681   1.856  10.201 -0.5819  0.4946  0.1299
   49TMC2    C3  760   1.647   1.740  10.134  0.8166  0.0496  0.3824
   49TMC2    C4  761   1.750   1.732  10.388 -0.1817 -0.8184  0.2822
   49TMC2    C5  762   1.721   1.619  10.314  0.5918  0.3958  0.5544
   49TMC2    C6  763   1.662   1.616  10.190  0.1364 -0.6378 -0.3211
   49TMC2     C  764   1.776   1.975  10.383 -0.6413  0.8161 -0.2948
   49TMC2     O  765   1.763   2.071  10.304  0.3095 -0.3112  0.1689
   49TMC2     H  766   1.675   1.950  10.148 -2.1383 -0.2614 -1.0221
   49TMC2    H1  767   1.778   1.730  10.492  2.1705 -1.0480 -0.3564
   49TMC2    H2  768   1.637   1.525  10.136  4.8396 -0.7658 -2.2828
   49TMC2    C7  769   1.764   1.493  10.367 -1.1232 -0.1291  0.8772
   49TMC2    C8  770   1.625   1.758   9.990  0.7214  0.4866  0.6340
   49TMC2    O1  771   1.706   1.395  10.331  0.6525 -0.0729 -0.3420
   49TMC2    O2  772   1.624   1.869   9.939 -0.3392 -0.3764 -0.4608
   49TMC2    O5  773   1.529   1.666   9.956 -0.0597 -0.0615  0.0910
   49TMC2    H5  774   1.516   1.582  10.005  1.9849  0.2705  1.2091
   50MPD2     C  775   1.802   2.206  10.555 -0.4157 -0.4044 -0.3492
   50MPD2    C1  776   1.849   2.080  10.593  0.2102 -0.0993  0.2414
   50MPD2    C2  777   1.918   2.066  10.710  0.4847  0.4609  0.1358
   50MPD2    C3  778   1.930   2.173  10.800 -0.1358 -0.4848  0.3403
   50MPD2    C4  779   1.881   2.298  10.760 -0.0757 -0.0347 -0.3150
   50MPD2    C5  780   1.812   2.309  10.645  0.1180 -0.0828 -0.1803
   50MPD2     H  781   1.963   1.970  10.735 -1.0195  0.1689  1.6657
   50MPD2    H1  782   1.888   2.387  10.822 -4.1901 -1.2176  1.8959
   50MPD2    H2  783   1.744   2.227  10.465  0.1731 -0.4828 -0.7525
   50MPD2    H3  784   1.772   2.407  10.619  1.9473  1.1937  1.7833
   50MPD2     N  785   1.997   2.166  10.924  0.7567 -0.2716  0.1189
   50MPD2    H5  786   1.992   2.249  10.982  0.9122  0.2979 -0.6889
   50MPD2    N1  787   1.830   1.964  10.514 -0.3468  0.5720  0.2523
   50MPD2    H7  788   1.859   1.871  10.543  2.6398  2.2191  2.5040
   51TMC2    C1  789   2.616   1.625   1.419 -0.5437 -0.3438  0.1317
   51TMC2    C2  790   2.499   1.592   1.482  0.2579  0.2874 -0.5474
   51TMC2    C3  791   2.387   1.665   1.442 -0.0735 -0.7325 -0.8910
   51TMC2    C4  792   2.628   1.738   1.341  0.2435  0.3041 -0.1242
   51TMC2    C5  793   2.514   1.814   1.322  0.3755  0.3308  0.3637
   51TMC2    C6  794   2.393   1.782   1.371 -0.5376 -0.6279  0.7246
   51TMC2     C  795   2.720   1.529   1.399 -0.0097 -1.0781 -0.0443
   51TMC2     O  796   2.784   1.546   1.297 -0.3102  0.3680  0.0739
   51TMC2     H  797   2.490   1.491   1.521  0.7494  0.3672 -0.2324
   51TMC2    H1  798   2.722   1.763   1.294 -0.8094  1.6473 -1.5274
   51TMC2    H2  799   2.309   1.849   1.355  0.9307  0.4123 -2.6712
   51TMC2    C7  800   2.537   1.951   1.283 -0.2495  0.7034  0.0589
   51TMC2    C8  801   2.262   1.625   1.506 -0.7039  0.2386 -0.0268
   51TMC2    O1  802   2.652   1.996   1.289 -0.2278 -0.0490 -0.2032
   51TMC2    O2  803   2.237   1.512   1.542  0.1994 -0.6200  0.2519
   51TMC2    O5  804   2.215   1.736   1.571 -0.3132 -0.4004  0.3613
   51TMC2    H5  805   2.271   1.813   1.543 -1.0228  0.4142  1.1850
   52MPD2     C  806   3.056   1.169   1.529 -1.0301  0.1832  0.1760
   52MPD2    C1  807   3.040   1.236   1.407 -0.2538 -0.3501  0.0082
   52MPD2    C2  808   2.941   1.339   1.406 -0.1826 -0.2604 -0.7734
   52MPD2    C3  809   2.869   1.373   1.520  0.1574  0.4572  0.1023
   52MPD2    C4  810   2.887   1.300   1.634  0.1151 -0.3898  0.4924
   52MPD2    C5  811   2.981   1.210   1.639  0.1424 -0.0304 -0.4487
   52MPD2     H  812   2.943   1.401   1.317 -0.7021 -0.9071 -1.2343
   52MPD2    H1  813   2.838   1.327   1.727  2.2195  1.3633  1.0927
   52MPD2    H2  814   3.148   1.116   1.549 -1.0319 -0.0823 -0.5361
   52MPD2    H3  815   3.001   1.160   1.733 -1.5279  0.7040  0.2971
   52MPD2     N  816   2.760   1.461   1.515  0.1382 -0.3782  0.0156
   52MPD2    H5  817   2.713   1.479   1.603 -1.5566 -0.5797 -0.8422
   52MPD2    N1  818   3.122   1.210   1.293 -0.1842  0.3048 -0.1282
   52MPD2    H7  819   3.119   1.276   1.216 -1.9680 -0.7147 -0.9351
   53TMC2    C1  820   2.546   0.055  11.438  0.3072  0.9511 -0.5285
   53TMC2    C2  821   2.645   4.724  11.374 -0.6287  0.2994  0.2391
   53TMC2    C3  822   2.762   4.699  11.447 -0.2915 -1.1162  0.9638
   53TMC2    C4  823   2.554   0.090  11.570 -0.0461 -0.7817 -0.2543
   53TMC2    C5  824   2.668   0.066  11.639 -0.7751  0.3157 -0.0519
   53TMC2    C6  825   2.776   4.729  11.581  0.3890 -0.4835  0.6702
   53TMC2     C  826   2.414   0.024  11.385 -0.3262 -0.1856  0.3598
   53TMC2     O  827   2.410   0.015  11.265 -0.3278 -0.5406 -0.3050
   53TMC2     H  828   2.636   4.698  11.269 -1.5532 -1.1731  0.6881
   53TMC2    H1  829   2.476   0.152  11.615  0.5097 -0.4987  0.3276
   53TMC2    H2  830   2.875   4.716  11.623  1.0517  1.0074 -0.4329
   53TMC2    C7  831   2.657   0.103  11.778  0.5392 -0.2457  0.1327
   53TMC2    C8  832   2.886   4.681  11.377 -0.5177  0.0172  0.4190
   53TMC2    O1  833   2.562   0.171  11.805 -0.4716 -0.2918  0.3649
   53TMC2    O2  834   2.985   0.002  11.419  0.7098 -0.2446 -0.1162
   53TMC2    O5  835   2.872   4.604  11.274  0.4103 -0.1029  0.0531
   53TMC2    H5  836   2.783   4.564  11.264  0.3982 -0.1257  0.2471
   54MPD2     C  837   2.145   4.656  11.340  0.2418  0.0414  0.4775
   54MPD2    C1  838   2.194   4.677  11.467 -0.8666  0.2428  0.2046
   54MPD2    C2  839   2.123   4.645  11.579 -0.5433 -0.0144  0.0156
   54MPD2    C3  840   1.988   4.604  11.568  0.0278 -0.1752  0.1934
   54MPD2    C4  841   1.941   4.584  11.440  0.0577 -0.0892  0.0263
   54MPD2    C5  842   2.019   4.597  11.332  0.5861 -0.5020 -0.1109
   54MPD2     H  843   2.163   4.661  11.678  1.4671  0.4337 -0.8726
   54MPD2    H1  844   1.842   4.545  11.422  0.5259 -1.0116 -0.5533
   54MPD2    H2  845   2.195   4.677  11.247  2.2559  0.1149  1.5851
   54MPD2    H3  846   1.972   4.568  11.239  1.1092 -2.4682  0.2323
   54MPD2     N  847   1.911   4.581  11.683 -0.0884 -0.5695 -0.5621
   54MPD2    H5  848   1.810   4.583  11.673 -0.3693 -2.7340  1.9223
   54MPD2    N1  849   2.330   4.720  11.484  0.0710 -0.2578  0.5244
   54MPD2    H7  850   2.364   4.720  11.580  1.7603  2.2895 -0.0741
   55TMC2    C1  851   3.964   3.408   0.109 -0.2576  0.2953 -0.0651
   55TMC2    C2  852   3.997   3.416  17.716 -0.3019  0.2217  0.4296
   55TMC2    C3  853   4.053   3.303  17.657 -0.6771  0.6674  0.2545
   55TMC2    C4  854   3.975   3.284   0.171 -0.0692  0.1469 -0.3389
   55TMC2    C5  855   4.019   3.175   0.103 -0.0812  0.2834  0.7488
   55TMC2    C6  856   4.048   3.179  17.712 -0.4535 -0.4693  0.3219
   55TMC2     C  857   3.909   3.520   0.190 -0.2828  0.4743 -0.4839
   55TMC2     O  858   3.876   3.494   0.305  0.4914 -0.6721  0.0913
   55TMC2     H  859   3.974   3.500  17.651  2.5826  0.7189  0.0783
   55TMC2    H1  860   3.940   3.279   0.274 -3.1237  0.4077 -1.3707
   55TMC2    H2  861   4.088   3.094  17.658 -0.5197 -0.7418  0.7039
   55TMC2    C7  862   3.988   3.050   0.160 -0.2369 -0.0019 -0.3849
   55TMC2    C8  863   4.048   3.318  17.514  0.2301 -0.4694 -0.1370
   55TMC2    O1  864   4.055   2.957   0.108  0.0112  0.5390  0.4090
   55TMC2    O2  865   4.098   3.408  17.446  0.3102  0.0501  0.7252
   55TMC2    O5  866   3.995   3.206  17.463 -0.1299 -0.0529  0.4050
   55TMC2    H5  867   3.936   3.154  17.522 -0.6382  0.0260 -0.0289
   56MPD2     C  868   3.749   3.810   0.042  0.4921  0.3680 -0.2642
   56MPD2    C1  869   3.782   3.725   0.142  0.1595  0.4236 -0.1428
   56MPD2    C2  870   3.704   3.721   0.254  0.1127  0.6067 -0.2297
   56MPD2    C3  871   3.594   3.809   0.263 -0.0024 -0.7216  0.3260
   56MPD2    C4  872   3.565   3.897   0.163  0.2352  0.1173  1.0249
   56MPD2    C5  873   3.638   3.897   0.052 -0.3051  0.4967  0.8227
   56MPD2     H  874   3.722   3.653   0.335  0.2355  0.4607 -0.3799
   56MPD2    H1  875   3.487   3.971   0.151  1.1123  0.9523  0.5181
   56MPD2    H2  876   3.806   3.822  17.693 -0.8844  0.0740 -1.1644
   56MPD2    H3  877   3.610   3.958  17.709  0.8547  0.8706  0.7102
   56MPD2     N  878   3.508   3.805   0.376  0.1211  0.2963  0.1736
   56MPD2    H5  879   3.523   3.736   0.450 -0.8346  1.2585  1.2581
   56MPD2    N1  880   3.881   3.630   0.117  0.9871 -0.1953  0.1894
   56MPD2    H7  881   3.938   3.645   0.034  1.4821  0.1723  0.5919
   57TMC2    C1  882   2.503   2.964  13.093 -0.1622  0.1491  0.2423
   57TMC2    C2  883   2.438   2.950  12.978  0.0930  0.4886 -0.3344
   57TMC2    C3  884   2.517   2.980  12.869 -0.4180 -0.1863 -0.4289
   57TMC2    C4  885   2.634   2.989  13.099 -0.0800  0.2108  0.2769
   57TMC2    C5  886   2.703   3.017  12.984  0.0256 -0.2671 -0.5138
   57TMC2    C6  887   2.650   3.004  12.862 -0.0785  0.5521 -0.0862
   57TMC2     C  888   2.432   2.918  13.218  0.4833 -0.6173  0.0930
   57TMC2     O  889   2.483   2.946  13.327  0.0193 -0.1030  0.3025
   57TMC2     H  890   2.330   2.943  12.966  0.0899 -0.0262 -0.0338
   57TMC2    H1  891   2.673   2.987  13.200 -1.5769 -2.5992  0.8129
   57TMC2    H2  892   2.693   3.030  12.766 -2.3561 -0.9855 -1.5271
   57TMC2    C7  893   2.840   3.051  12.991  0.5385 -0.0851  0.2960
   57TMC2    C8  894   2.450   2.964  12.746 -0.0325  0.3601 -0.5694
   57TMC2    O1  895   2.872   3.118  13.085  0.4490 -0.6989  0.5597
   57TMC2    O2  896   2.332   2.983  12.724 -0.5752  0.0811  0.0836
   57TMC2    O5  897   2.523   2.873  12.678  0.0189 -0.3005 -0.0234
   57TMC2    H5  898   2.609   2.857  12.724 -0.1033 -0.2954  0.2101
   58MPD2     C  899   2.096   2.634  13.481  0.6505 -0.1386  0.1475
   58MPD2    C1  900   2.148   2.761  13.513  0.1480  0.3810 -0.2199
   58MPD2    C2  901   2.226   2.828  13.421 -0.0828 -0.1296 -0.0051
   58MPD2    C3  902   2.249   2.771  13.298 -0.0051  0.2322  0.2734
   58MPD2    C4  903   2.186   2.657  13.263  0.5841 -0.7706 -0.1899
   58MPD2    C5  904   2.127   2.583  13.358  0.3586  0.0655  0.1432
   58MPD2     H  905   2.265   2.926  13.444  2.3687 -0.9597 -0.6266
   58MPD2    H1  906   2.196   2.608  13.167 -0.5764 -2.3041  0.4721
   58MPD2    H2  907   2.034   2.580  13.552  1.4890 -2.3461 -0.7705
   58MPD2    H3  908   2.085   2.490  13.323  2.4641 -1.1127  0.7538
   58MPD2     N  909   2.328   2.836  13.196 -0.5549 -0.4831 -0.0177
   58MPD2    H5  910   2.309   2.809  13.100  3.2107  0.0624 -0.9118
   58MPD2    N1  911   2.114   2.836  13.628 -0.4118  0.0423  0.6161
   58MPD2    H7  912   2.135   2.935  13.627 -0.7017  0.0885 -1.6640
   59TMC2    C1  913   0.502   2.773  12.712 -0.2211  0.6622 -0.2102
   59TMC2    C2  914   0.453   2.705  12.820  0.4567  0.0162 -0.2129
   59TMC2    C3  915   0.339   2.637  12.802  0.2465  0.0307  0.1220
   59TMC2    C4  916   0.440   2.785  12.586  0.8976 -0.1692 -0.4123
   59TMC2    C5  917   0.331   2.705  12.574 -0.0081  0.0686  0.6544
   59TMC2    C6  918   0.274   2.636  12.683  0.1601 -0.4049 -0.4787
   59TMC2     C  919   0.644   2.796  12.718  0.1540 -0.4746 -0.3472
   59TMC2     O  920   0.699   2.787  12.609  0.5744  0.2414 -0.1397
   59TMC2     H  921   0.521   2.676  12.900 -0.7292  2.0395  1.5331
   59TMC2    H1  922   0.487   2.837  12.503 -0.8595  1.6448 -0.2735
   59TMC2    H2  923   0.189   2.572  12.663  0.5424 -0.6434 -1.3470
   59TMC2    C7  924   0.271   2.696  12.443 -0.4478  0.4941 -0.5789
   59TMC2    C8  925   0.316   2.524  12.889  0.1990 -0.0943 -0.2555
   59TMC2    O1  926   0.197   2.601  12.423  0.4049 -0.5142 -0.2770
   59TMC2    O2  927   0.409   2.470  12.951  0.0381  0.7188 -0.2944
   59TMC2    O5  928   0.186   2.505  12.915 -0.3723 -1.0215  0.0093
   59TMC2    H5  929   0.125   2.573  12.878 -1.4195 -1.6591  0.5704
   60MPD2     C  930   0.931   2.824  12.795  0.2817  0.0084  0.1861
   60MPD2    C1  931   0.825   2.882  12.867 -0.0001 -0.1204 -0.3207
   60MPD2    C2  932   0.853   2.977  12.968  0.4303  0.1692  0.2513
   60MPD2    C3  933   0.985   3.015  12.984  0.6231  0.6975 -0.4330
   60MPD2    C4  934   1.087   2.952  12.917  0.0300 -0.5457 -0.0775
   60MPD2    C5  935   1.060   2.855  12.820  0.3084 -0.0330  0.4671
   60MPD2     H  936   0.773   3.017  13.029 -0.9986  0.1158 -1.6130
   60MPD2    H1  937   1.188   2.992  12.927 -0.2392 -0.7599  3.5267
   60MPD2    H2  938   0.916   2.758  12.710  0.1384  0.1805  0.0774
   60MPD2    H3  939   1.137   2.806  12.761 -0.6086  1.0429 -1.6308
   60MPD2     N  940   1.025   3.121  13.072 -0.2738  0.1495 -0.1014
   60MPD2    H5  941   1.125   3.127  13.088 -0.3309 -1.5553  0.8843
   60MPD2    N1  942   0.692   2.843  12.837 -0.2567 -0.3095 -0.2282
   60MPD2    H7  943   0.626   2.874  12.908  0.3215 -0.1693  0.2537
   61TMC2    C1  944   0.277   4.512  15.546 -0.8887 -0.3883 -0.0081
   61TMC2    C2  945   0.284   4.508  15.681  0.1524  0.7343  0.5874
   61TMC2    C3  946   0.235   4.610  15.760 -0.2695 -0.2180 -0.0638
   61TMC2    C4  947   0.228   4.622  15.482  0.0476 -0.5626  0.1318
   61TMC2    C5  948   0.175   4.723  15.562 -0.5967  0.4344  0.5109
   61TMC2    C6  949   0.184   4.726  15.702 -0.0819 -0.0829  0.3197
   61TMC2     C  950   0.285   4.383  15.476 -0.5783 -0.5585  0.4640
   61TMC2     O  951   0.338   4.289  15.528  0.3228 -0.1549 -0.0685
   61TMC2     H  952   0.313   4.415  15.728 -2.9625 -0.1862  0.6556
   61TMC2    H1  953   0.226   4.639  15.375  1.2060  0.1582  0.2269
   61TMC2    H2  954   0.147   0.076  15.756 -0.1464  1.2110 -1.7971
   61TMC2    C7  955   0.083   0.070  15.497  0.1108 -0.6619 -0.4961
   61TMC2    C8  956   0.290   4.634  15.894 -0.7711  0.3054  0.5415
   61TMC2    O1  957   0.102   0.085  15.375  0.1999 -0.1689 -0.0392
   61TMC2    O2  958   0.319   0.008  15.933 -0.1350  0.0116 -0.1383
   61TMC2    O5  959   0.303   4.515  15.957  0.2223  0.0047 -0.5574
   61TMC2    H5  960   0.239   4.450  15.920 -0.2878  0.2812 -0.1645
   62MPD2     C  961   0.217   4.163  15.282  0.1537 -0.0464  0.4531
   62MPD2    C1  962   0.199   4.297  15.254  0.7437  0.0303  0.0465
   62MPD2    C2  963   0.137   4.339  15.141  0.0615 -0.2494  0.4811
   62MPD2    C3  964   0.101   4.248  15.041  0.4434 -0.4782  0.3307
   62MPD2    C4  965   0.129   4.118  15.065  0.6796 -0.2092 -0.2881
   62MPD2    C5  966   0.183   4.077  15.183  0.1235 -0.3693 -0.0275
   62MPD2     H  967   0.102   4.440  15.127 -1.4171 -0.7217  0.8035
   62MPD2    H1  968   0.097   4.039  14.998  0.5199  0.1799 -0.6657
   62MPD2    H2  969   0.232   4.123  15.381  1.1023  1.2492  0.8333
   62MPD2    H3  970   0.196   3.974  15.213  0.8677  0.0517  1.1278
   62MPD2     N  971   0.031   4.305  14.933 -0.0016  0.0340 -0.2735
   62MPD2    H5  972   0.034   4.406  14.928  0.8434  0.0150 -0.0945
   62MPD2    N1  973   0.217   4.395  15.357  0.9412 -0.2035  0.3700
   62MPD2    H7  974   0.160   4.479  15.362  0.0456 -0.7470 -0.8626
   63TMC2    C1  975   3.887   0.040  10.859 -0.4224 -0.0095 -0.2819
   63TMC2    C2  976   3.923   0.122  10.956 -0.0614  0.4361  0.2837
   63TMC2    C3  977   4.054   0.168  10.939  0.1290  0.1625  0.1682
   63TMC2    C4  978   3.960   0.001  10.749  0.5597 -0.8026  0.3057
   63TMC2    C5  979   4.092   0.043  10.740  0.4027  0.5815  0.3913
   63TMC2    C6  980   4.142   0.128  10.841 -0.2134 -0.6099 -0.6922
   63TMC2     C  981   3.742   0.011  10.861 -0.5408 -0.8263  0.3807
   63TMC2     O  982   3.668   0.100  10.897  0.4081  0.2810 -0.1106
   63TMC2     H  983   3.860   0.148  11.041  0.0297 -1.7336  1.0072
   63TMC2    H1  984   3.920   4.678  10.668  1.1417  0.6339 -1.0358
   63TMC2    H2  985   4.230   0.190  10.837 -0.2991 -0.3306  1.7274
   63TMC2    C7  986   4.167   0.016  10.620  0.6181  0.3655 -0.4637
   63TMC2    C8  987   4.079   0.290  11.011 -0.2617  0.3930  0.9869
   63TMC2    O1  988   4.290   0.028  10.621  0.1030  0.5388  0.0283
   63TMC2    O2  989   4.005   0.383  11.019 -0.6493  0.3457 -0.1512
   63TMC2    O5  990   4.191   0.272  11.083 -0.4899 -0.3375  0.3014
   63TMC2    H5  991   4.218   0.178  11.081 -1.7843 -0.7486  1.6620
   64MPD2     C  992   3.348   4.464  10.675 -0.1637 -0.2074 -0.3576
   64MPD2    C1  993   3.458   4.381  10.686  0.1036 -0.8445  0.0870
   64MPD2    C2  994   3.581   4.441  10.732  0.1572  0.1799 -0.0015
   64MPD2    C3  995   3.589   4.577  10.765 -0.1844 -0.2784 -0.2320
   64MPD2    C4  996   3.467   4.651  10.754  0.3833 -0.0555  0.1355
   64MPD2    C5  997   3.348   4.596  10.712  0.7581 -0.7553  0.4501
   64MPD2     H  998   3.667   4.376  10.732  0.6194  0.8031 -1.1331
   64MPD2    H1  999   3.464   0.020  10.780 -1.0873 -0.3111  0.9728
   64MPD2    H2 1000   3.246   4.435  10.655 -0.3291 -0.6005  1.1080
   64MPD2    H3 1001   3.257   4.655  10.714  0.0972 -1.7833  0.8690
   64MPD2     N 1002   3.717   4.628  10.795 -0.6647 -0.1489 -0.2963
   64MPD2    H5 1003   3.793   4.563  10.781  0.3991  1.2869 -1.2526
   64MPD2    N1 1004   3.454   4.243  10.664 -0.1574 -0.1409 -0.5119
   64MPD2    H7 1005   3.538   4.188  10.676 -0.6995 -0.2985  2.5413
   65TMC2    C1 1006   0.641   4.382  15.678 -0.5229 -0.3219  0.1192
   65TMC2    C2 1007   0.687   4.305  15.566  0.6385  0.4108 -0.1586
   65TMC2    C3 1008   0.679   4.353  15.446  0.1811 -0.2175  0.7053
   65TMC2    C4 1009   0.613   4.518  15.668  0.2912 -0.5036  0.0379
   65TMC2    C5 1010   0.637   4.573  15.544  0.3313  0.0208  0.4778
   65TMC2    C6 1011   0.665   4.492  15.437 -0.1042  0.3876  0.2997
   65TMC2     C 1012   0.590   4.317  15.796  0.2865  0.2193 -0.2394
   65TMC2     O 1013   0.576   4.388  15.895  0.5231  0.1065 -0.3505
   65TMC2     H 1014   0.732   4.208  15.579 -1.6729 -0.2748  2.7013
   65TMC2    H1 1015   0.575   4.574  15.753 -1.5013  0.4930 -1.4120
   65TMC2    H2 1016   0.680   4.548  15.346  2.5480  0.5745  0.8695
   65TMC2    C7 1017   0.571   4.691  15.506 -0.1444  0.7306  0.4700
   65TMC2    C8 1018   0.723   4.264  15.343 -0.8752  0.7805  0.1301
   65TMC2    O1 1019   0.529   4.698  15.395  0.2867  0.1229 -0.6760
   65TMC2    O2 1020   0.798   4.169  15.364  0.0467  0.4011  0.1926
   65TMC2    O5 1021   0.687   4.311  15.219 -0.6859  0.0629 -0.4401
   65TMC2    H5 1022   0.663   4.407  15.219  2.2163  0.7727 -0.8476
   66MPD2     C 1023   0.409   4.161  15.961  0.0211 -0.2602 -0.1056
   66MPD2    C1 1024   0.450   4.123  15.836  0.1451  0.1986 -0.8367
   66MPD2    C2 1025   0.403   4.002  15.779  0.3134  0.2953 -0.4639
   66MPD2    C3 1026   0.312   3.927  15.845 -1.0593 -0.4272 -0.3773
   66MPD2    C4 1027   0.275   3.962  15.981  0.2026 -0.1279 -0.2338
   66MPD2    C5 1028   0.324   4.080  16.031 -0.8166  0.4514  0.4148
   66MPD2     H 1029   0.447   3.962  15.688  1.8555 -0.5914  0.6648
   66MPD2    H1 1030   0.195   3.911  16.032  0.5207  0.0021  0.3952
   66MPD2    H2 1031   0.458   4.241  16.017  0.9328 -0.2723 -0.8912
   66MPD2    H3 1032   0.275   4.129  16.114 -0.7133  1.3233 -0.0340
   66MPD2     N 1033   0.250   3.813  15.790  0.2856 -0.1350 -0.0415
   66MPD2    H5 1034   0.174   3.779  15.847 -1.8518  1.9077 -1.7192
   66MPD2    N1 1035   0.540   4.197  15.760 -0.1774  0.3692 -0.1908
   66MPD2    H7 1036   0.567   4.160  15.669  0.1796 -0.3721  0.2193
   67TMC2    C1 1037   0.632   3.603  14.471 -0.0253 -0.3297 -0.9351
   67TMC2    C2 1038   0.571   3.729  14.466  0.2131 -0.3309 -0.0693
   67TMC2    C3 1039   0.634   3.824  14.552  0.2223  0.1783 -0.2485
   67TMC2    C4 1040   0.757   3.580  14.526 -0.2457  0.6163 -0.2922
   67TMC2    C5 1041   0.818   3.687  14.595  0.0903 -0.1241 -0.3100
   67TMC2    C6 1042   0.757   3.807  14.608 -0.0025 -0.6015  0.5780
   67TMC2     C 1043   0.587   3.496  14.386  0.9091  0.5167 -0.5030
   67TMC2     O 1044   0.623   3.381  14.411 -0.2201  0.0662 -0.0201
   67TMC2     H 1045   0.469   3.744  14.434 -0.3207 -0.4532  1.6200
   67TMC2    H1 1046   0.811   3.486  14.519 -1.6246 -0.1053 -1.1885
   67TMC2    H2 1047   0.804   3.888  14.663 -0.8371 -0.0754  0.5145
   67TMC2    C7 1048   0.928   3.657  14.685 -0.4280  0.1013 -0.5857
   67TMC2    C8 1049   0.596   3.965  14.534 -0.2784  0.2174  0.0247
   67TMC2    O1 1050   0.993   3.558  14.648  0.4555 -0.5685 -0.5314
   67TMC2    O2 1051   0.523   3.999  14.443 -0.3114 -0.0025 -0.0190
   67TMC2    O5 1052   0.644   4.057  14.620  0.3822 -0.4974 -0.2092
   67TMC2    H5 1053   0.700   4.035  14.698  0.1934  2.0856  0.6538
   68MPD2     C 1054   0.486   3.311  14.167  0.0745  0.0737 -0.0555
   68MPD2    C1 1055   0.431   3.436  14.203  0.2999 -0.5179  0.6752
   68MPD2    C2 1056   0.317   3.470  14.140 -0.1818  1.0963 -0.1111
   68MPD2    C3 1057   0.257   3.391  14.046 -0.3200 -0.0992  0.1406
   68MPD2    C4 1058   0.307   3.270  14.012  0.7451  0.2460 -0.5247
   68MPD2    C5 1059   0.418   3.230  14.079  0.6566  0.7495 -0.0506
   68MPD2     H 1060   0.277   3.567  14.166  0.4792  1.5101 -0.6443
   68MPD2    H1 1061   0.261   3.195  13.949  1.2951  0.0007 -0.6399
   68MPD2    H2 1062   0.579   3.270  14.204 -1.0901 -0.5248  2.2118
   68MPD2    H3 1063   0.456   3.132  14.051  2.2518  0.8379  1.8092
   68MPD2     N 1064   0.125   3.426  14.001  0.6112  0.1559 -0.1643
   68MPD2    H5 1065   0.088   3.358  13.936 -2.5184  1.5640  0.1279
   68MPD2    N1 1066   0.488   3.526  14.292 -0.0860  0.6651  0.2983
   68MPD2    H7 1067   0.459   3.623  14.295 -0.0344  0.6980 -0.3058
   69TMC2    C1 1068   3.123   0.102  12.617  0.3248 -0.5539  0.0132
   69TMC2    C2 1069   3.075   0.224  12.570 -0.1106  0.9119  0.0738
   69TMC2    C3 1070   3.120   0.251  12.437 -0.1624  0.1387 -0.5853
   69TMC2    C4 1071   3.198   0.018  12.542  0.2843 -0.2129 -0.4797
   69TMC2    C5 1072   3.233   0.052  12.416  0.1854  0.2574  0.3234
   69TMC2    C6 1073   3.195   0.171  12.360  0.5904  0.5319 -0.2863
   69TMC2     C 1074   3.063   0.051  12.734  0.4287 -1.0657  0.2499
   69TMC2     O 1075   3.037   4.664  12.735 -0.2386  0.0856  0.2821
   69TMC2     H 1076   3.002   0.281  12.626 -1.2839  0.7383 -1.2993
   69TMC2    H1 1077   3.211   4.654  12.581  1.0711  0.8424  1.9581
   69TMC2    H2 1078   3.211   0.190  12.255 -1.1143  1.6245 -0.3452
   69TMC2    C7 1079   3.341   4.721  12.342 -0.5698  1.1320 -0.2495
   69TMC2    C8 1080   3.092   0.377  12.379 -0.1021  0.1918  0.1649
   69TMC2    O1 1081   3.356   0.018  12.226  0.1606  0.1713 -0.1286
   69TMC2    O2 1082   3.006   0.440  12.442  0.3507 -0.6166 -0.0325
   69TMC2    O5 1083   3.211   0.431  12.352 -0.0636 -0.6386 -0.4935
   69TMC2    H5 1084   3.250   0.372  12.284 -1.7220 -2.2427 -0.0350
   70MPD2     C 1085   3.021   0.207  13.065  0.3740 -0.9514 -0.1385
   70MPD2    C1 1086   2.989   0.133  12.957 -0.1499  0.0933 -0.1736
   70MPD2    C2 1087   2.885   0.044  12.971 -0.2632 -0.7688 -0.0721
   70MPD2    C3 1088   2.818   0.021  13.087 -0.5007  0.0502  0.5481
   70MPD2    C4 1089   2.865   0.095  13.194  0.3380  0.2783  0.0010
   70MPD2    C5 1090   2.958   0.187  13.182  0.3358  0.2309  0.8755
   70MPD2     H 1091   2.855   4.732  12.879 -2.5410  0.7083 -0.0908
   70MPD2    H1 1092   2.815   0.074  13.288 -0.6905  2.3120 -0.0945
   70MPD2    H2 1093   3.103   0.278  13.053 -0.6875  0.4297  0.8481
   70MPD2    H3 1094   2.979   0.248  13.269  1.5613  1.5907 -0.3713
   70MPD2     N 1095   2.728   4.651  13.114  0.6158  0.0183 -0.1736
   70MPD2    H5 1096   2.713   4.633  13.213  1.8961 -0.8584 -0.1359
   70MPD2    N1 1097   3.063   0.144  12.837  0.5861 -0.7020  0.1107
   70MPD2    H7 1098   3.118   0.228  12.824 -1.4129  0.3516 -1.4695
   71TMC2    C1 1099   4.481   0.587   1.120  0.1479  0.4232 -0.0053
   71TMC2    C2 1100   4.615   0.556   1.127  0.5481 -0.4886  0.2249
   71TMC2    C3 1101   4.678   0.563   1.251 -0.2930 -0.0889 -0.0600
   71TMC2    C4 1102   4.406   0.620   1.231 -0.3401 -0.0731 -0.5907
   71TMC2    C5 1103   4.479   0.614   1.357 -0.0334  0.3337  0.7014
   71TMC2    C6 1104   4.615   0.582   1.364  0.8254 -0.3259  0.1965
   71TMC2     C 1105   4.423   0.574   0.989 -0.4200 -0.1780 -0.7731
   71TMC2     O 1106   4.495   0.565   0.885  0.0404 -0.0251 -0.4827
   71TMC2     H 1107   4.676   0.518   1.045  0.9460 -1.6067  1.0399
   71TMC2    H1 1108   4.303   0.653   1.229 -0.5004 -0.6412 -1.5011
   71TMC2    H2 1109   4.663   0.581   1.461  1.1433  3.8725  0.0672
   71TMC2    C7 1110   4.423   0.631   1.487 -0.5712  0.3599 -0.0646
   71TMC2    C8 1111   0.083   0.538   1.265  0.4720 -0.1988  0.0032
   71TMC2    O1 1112   4.477   0.602   1.592 -0.6188  0.3692 -0.3002
   71TMC2    O2 1113   0.149   0.453   1.209 -0.4841  0.0221  0.1545
   71TMC2    O5 1114   0.137   0.645   1.329  0.4324 -0.0990  0.0452
   71TMC2    H5 1115   0.069   0.714   1.317  1.9175  1.3417 -0.1020
   72MPD2     C 1116   4.014   0.605   0.676 -0.1654 -0.1337 -0.2808
   72MPD2    C1 1117   4.143   0.649   0.671 -0.7707  0.6168 -0.3713
   72MPD2    C2 1118   4.232   0.629   0.774  0.8957 -0.4199  0.5316
   72MPD2    C3 1119   4.192   0.569   0.893 -0.6370 -0.3552  0.4345
   72MPD2    C4 1120   4.059   0.534   0.905 -0.1375 -0.2771 -0.4947
   72MPD2    C5 1121   3.978   0.541   0.796 -0.1409 -0.5172 -0.0990
   72MPD2     H 1122   4.327   0.682   0.770  0.8132 -0.3644 -0.6071
   72MPD2    H1 1123   4.024   0.483   0.994  1.5535  1.1563  0.9774
   72MPD2    H2 1124   3.935   0.621   0.603  0.6762 -2.2033 -1.6391
   72MPD2    H3 1125   3.876   0.505   0.801 -0.1579 -0.0554  2.8570
   72MPD2     N 1126   4.285   0.562   1.000 -0.3809 -0.4376 -0.2159
   72MPD2    H5 1127   4.247   0.540   1.091 -1.3998  1.1029 -0.2786
   72MPD2    N1 1128   4.184   0.723   0.554  0.2599  0.1272  0.5945
   72MPD2    H7 1129   4.280   0.757   0.553  0.3266 -0.1149 -0.6456
   73TMC2    C1 1130   4.285   1.735  13.601  0.3323 -0.3603 -0.3178
   73TMC2    C2 1131   4.328   1.850  13.654  0.4985  0.0000  0.0082
   73TMC2    C3 1132   4.427   1.847  13.742  0.1769 -0.0883 -0.0355
   73TMC2    C4 1133   4.331   1.614  13.649  0.8416  0.2311  0.0848
   73TMC2    C5 1134   4.431   1.611  13.745 -0.0529  0.2604  0.0601
   73TMC2    C6 1135   4.480   1.733  13.794  0.3877 -0.7931 -1.1265
   73TMC2     C 1136   4.278   1.712  13.458  0.8865  0.3524  0.0855
   73TMC2     O 1137   4.319   1.607  13.416 -0.3618 -0.5154  0.1552
   73TMC2     H 1138   4.291   1.945  13.617  0.0663 -0.6171 -1.1571
   73TMC2    H1 1139   4.294   1.516  13.620  2.1308  0.0859 -1.0251
   73TMC2    H2 1140   4.565   1.739  13.861  0.2955 -0.1122 -1.0702
   73TMC2    C7 1141   4.545   1.532  13.704 -0.0633 -0.4038  0.4476
   73TMC2    C8 1142   4.476   1.964  13.812 -0.0252  0.3709  0.2306
   73TMC2    O1 1143   4.629   1.505  13.788  0.3091  0.8410  0.1258
   73TMC2    O2 1144   4.503   1.970  13.932 -0.1204  0.0529 -0.1867
   73TMC2    O5 1145   4.474   2.066  13.720 -0.0032  0.1282  0.0237
   73TMC2    H5 1146   4.453   2.039  13.628 -3.6393 -3.1933  1.8285
   74MPD2     C 1147   4.176   1.867  12.989  0.3732  0.0876  0.0647
   74MPD2    C1 1148   4.263   1.765  13.033 -0.3248 -0.4622  0.5110
   74MPD2    C2 1149   4.260   1.745  13.169 -0.7270 -1.0114  0.6333
   74MPD2    C3 1150   4.197   1.832  13.260 -0.4144 -0.2504  0.0847
   74MPD2    C4 1151   4.119   1.930  13.205  0.1802 -0.3757 -1.0459
   74MPD2    C5 1152   4.105   1.953  13.069 -0.2499 -0.2032 -0.0037
   74MPD2     H 1153   4.324   1.668  13.212  2.0710  1.6671  1.3310
   74MPD2    H1 1154   4.069   1.995  13.276  0.5246 -1.0996 -0.1457
   74MPD2    H2 1155   4.148   1.899  12.889  1.4695 -1.4801 -0.7368
   74MPD2    H3 1156   4.036   2.031  13.038 -0.1174  0.3533  1.1201
   74MPD2     N 1157   4.204   1.811  13.396  0.4104  0.4895 -0.9842
   74MPD2    H5 1158   4.158   1.887  13.445  0.3043 -0.4950  0.4546
   74MPD2    N1 1159   4.339   1.701  12.934 -0.3389  0.3836 -0.0542
   74MPD2    H7 1160   4.328   1.730  12.837 -0.5324  1.0381  0.1622
   75TMC2    C1 1161   4.653   3.533  13.975  0.1765 -0.7167 -0.0431
   75TMC2    C2 1162   4.561   3.608  14.040  0.6367  0.6132  0.4189
   75TMC2    C3 1163   4.460   3.659  13.963 -0.8630 -0.0852  0.1304
   75TMC2    C4 1164   4.665   3.507  13.846 -0.3360  0.6488 -0.2698
   75TMC2    C5 1165   4.566   3.569  13.775  0.9864  0.5257  1.0818
   75TMC2    C6 1166   4.465   3.641  13.835 -0.5285 -0.2552 -0.5155
   75TMC2     C 1167   0.042   3.529  14.044 -0.2289 -0.0033  0.7551
   75TMC2     O 1168   0.058   3.619  14.130  0.4163 -0.0739  0.0373
   75TMC2     H 1169   4.566   3.626  14.147 -0.3593  2.0263  0.2326
   75TMC2    H1 1170   0.026   3.500  13.799  0.2046  1.5576  0.6952
   75TMC2    H2 1171   4.377   3.671  13.780 -1.4474 -0.3415  0.9113
   75TMC2    C7 1172   4.570   3.588  13.632 -0.1364 -0.2194  0.6226
   75TMC2    C8 1173   4.378   3.773  14.010  0.2719  0.1274  0.3811
   75TMC2    O1 1174   4.607   3.483  13.573 -0.2377 -0.4064 -0.5930
   75TMC2    O2 1175   4.344   3.864  13.935  0.2285 -0.0257 -0.6113
   75TMC2    O5 1176   4.404   3.801  14.138 -0.2042 -0.1880  0.2885
   75TMC2    H5 1177   4.424   3.712  14.174 -2.5418 -1.7710 -2.3627
   76TMC2    C1 1178   3.911   3.450  11.916 -0.4894 -0.1234 -0.2789
   76TMC2    C2 1179   3.797   3.380  11.872  0.1801  0.1008  0.4106
   76TMC2    C3 1180   3.801   3.245  11.883 -0.5039  0.0533 -0.3578
   76TMC2    C4 1181   4.022   3.380  11.969  0.0499 -0.4712 -0.0669
   76TMC2    C5 1182   4.014   3.245  11.978 -0.9602  0.4564 -0.2588
   76TMC2    C6 1183   3.906   3.175  11.933 -0.8124 -0.6547 -0.1686
   76TMC2     C 1184   3.917   3.593  11.877  0.1623 -0.3788  0.0222
   76TMC2     O 1185   3.825   3.645  11.813  0.0191 -0.3052  0.2444
   76TMC2     H 1186   3.732   3.436  11.805 -0.2419 -2.2478 -1.1209
   76TMC2    H1 1187   4.117   3.424  11.996  0.1064  0.4456 -1.6943
   76TMC2    H2 1188   3.883   3.075  11.970  0.0274 -0.9037 -0.3227
   76TMC2    C7 1189   4.114   3.168  12.044 -0.8213 -0.4328 -0.1795
   76TMC2    C8 1190   3.682   3.175  11.845 -0.1927  0.1780  1.2898
   76TMC2    O1 1191   4.133   3.049  12.010 -0.0049 -0.0080  0.3855
   76TMC2    O2 1192   3.698   3.052  11.833  0.0852  0.5304  0.2994
   76TMC2    O5 1193   3.583   3.219  11.919  0.4213 -0.0337  0.3190
   76TMC2    H5 1194   3.590   3.308  11.959 -0.8017  0.4431 -0.5495
   77MPD2     C 1195   4.191   4.033  11.780 -0.6494  0.3951 -0.4926
   77MPD2    C1 1196   4.058   4.012  11.784  0.0158  1.1737 -0.3449
   77MPD2    C2 1197   4.004   3.887  11.826 -0.1095  0.0627 -0.1310
   77MPD2    C3 1198   4.089   3.778  11.853 -0.2931  0.0008 -0.7595
   77MPD2    C4 1199   4.223   3.800  11.848  0.4915 -0.1453  0.7044
   77MPD2    C5 1200   4.274   3.921  11.805  0.3185  0.4146 -0.1110
   77MPD2     H 1201   3.897   3.870  11.818 -0.6898  3.0274  1.3237
   77MPD2    H1 1202   4.293   3.720  11.870  0.1918  0.1131  2.5935
   77MPD2    H2 1203   4.240   4.126  11.753 -1.0385  0.5857 -0.5463
   77MPD2    H3 1204   4.381   3.920  11.795  0.1791  1.2991 -1.6851
   77MPD2     N 1205   4.042   3.648  11.895  0.1519  0.6471 -0.3608
   77MPD2    H5 1206   4.121   3.590  11.923 -0.0190 -0.5849 -2.4193
   77MPD2    N1 1207   3.959   4.112  11.759 -0.2878  0.2751  0.9359
   77MPD2    H7 1208   3.864   4.078  11.769 -0.2821  0.1093  0.4068
   78TMC2    C1 1209   0.277   0.277   1.567 -0.8038  0.7948  0.9614
   78TMC2    C2 1210   0.348   0.174   1.631 -0.0929 -0.0126 -0.6073
   78TMC2    C3 1211   0.474   0.151   1.590  0.3473  0.0067  0.1407
   78TMC2    C4 1212   0.334   0.357   1.474  0.1384  0.6090  0.2733
   78TMC2    C5 1213   0.462   0.331   1.429 -0.1412  0.0369 -1.0331
   78TMC2    C6 1214   0.525   0.224   1.493  0.0085 -0.4325 -0.2936
   78TMC2     C 1215   0.146   0.306   1.609  0.2450 -0.1038 -0.0461
   78TMC2     O 1216   0.105   0.415   1.582 -0.7338  0.2539  0.1617
   78TMC2     H 1217   0.306   0.117   1.713  0.4887 -0.0577 -0.3398
   78TMC2    H1 1218   0.278   0.435   1.423  0.5301  0.6832 -0.0461
   78TMC2    H2 1219   0.625   0.205   1.454  0.3295 -0.0702  0.3521
   78TMC2    C7 1220   0.538   0.431   1.359  0.0725 -0.1299 -1.0412
   78TMC2    C8 1221   0.539   0.029   1.646 -0.7764  0.0955 -0.2531
   78TMC2    O1 1222   0.662   0.429   1.365  0.5333  0.0395 -0.3191
   78TMC2    O2 1223   0.481   4.667   1.697  0.2104  0.1901 -0.1660
   78TMC2    O5 1224   0.675   0.038   1.638 -0.5203  0.6102 -0.8474
   78TMC2    H5 1225   0.712   0.127   1.619 -0.4963  0.2034 -2.6913
   79MPD1     C 1226   4.481   0.211   1.928 -0.0822 -0.0888 -0.4901
   79MPD1    C1 1227   4.484   0.301   1.824  0.4108 -0.0167 -0.0431
   79MPD1    C2 1228   4.608   0.312   1.750 -0.5384  0.0254 -0.3116
   79MPD1    C3 1229   4.708   0.214   1.762  0.1350 -0.6386 -0.8397
   79MPD1    C4 1230   4.685   0.101   1.842 -0.4789 -0.5962  0.0001
   79MPD1    C5 1231   4.578   0.110   1.933 -0.3528 -0.6174  0.2240
   79MPD1     H 1232   4.628   0.386   1.674 -0.3298  1.5581  1.2365
   79MPD1    H1 1233   0.028   0.028   1.855  0.7344  0.8823  1.0410
   79MPD1    H2 1234   4.392   0.206   1.989  0.6405 -1.7908  0.4194
   79MPD1    H3 1235   4.573   0.034   2.011 -0.3630 -0.8284  0.0163
   79MPD1     N 1236   0.093   0.206   1.688  0.2325 -0.4825 -0.4635
   79MPD1    H5 1237   0.147   0.121   1.703  1.3235  0.3208  0.1449
   79MPD1    N1 1238   4.402   0.418   1.816 -0.0436 -0.3308  0.0610
   79MPD1    H6 1239   4.399   0.439   1.716 -2.2810  0.0528  0.2054
   79MPD1    H7 1240   4.306   0.416   1.850 -0.8296  1.4338 -2.0797
   80TMC2    C1 1241   2.148   4.260  11.743  0.1670 -0.5579 -0.2621
   80TMC2    C2 1242   2.073   4.279  11.631  0.3735 -0.0337 -0.0488
   80TMC2    C3 1243   1.937   4.269  11.645  0.3028  0.1004  0.7489
   80TMC2    C4 1244   2.091   4.208  11.858  0.4043 -0.1835 -0.2018
   80TMC2    C5 1245   1.953   4.191  11.865 -0.8025  0.4914  0.3604
   80TMC2    C6 1246   1.873   4.225  11.755 -1.0197  0.0802  0.3043
   80TMC2     C 1247   2.295   4.291  11.746  0.1134  0.3080  0.4323
   80TMC2     O 1248   2.342   4.299  11.634 -0.4553 -1.1148 -0.1546
   80TMC2     H 1249   2.121   4.325  11.545  1.0812  2.7698  1.8589
   80TMC2    H1 1250   2.144   4.188  11.950 -0.5722 -1.9731 -0.0374
   80TMC2    H2 1251   1.768   4.199  11.766 -0.9577 -1.1457 -1.9532
   80TMC2    C7 1252   1.897   4.153  11.991  0.9053 -0.0526 -0.2676
   80TMC2    C8 1253   1.854   4.287  11.531  0.6736 -0.5707 -0.5080
   80TMC2    O1 1254   1.794   4.208  12.019  0.2356  1.0714  0.5075
   80TMC2    O2 1255   1.743   4.331  11.539 -0.1520 -0.0411 -0.7816
   80TMC2    O5 1256   1.933   4.275  11.423 -0.0170  0.3695  0.1278
   80TMC2    H5 1257   2.009   4.213  11.430 -0.2405  0.2544  1.5858
   81MPD2     C 1258   2.584   4.351  11.796  0.2186 -0.5400 -0.1496
   81MPD2    C1 1259   2.488   4.339  11.901  0.7227 -0.7183 -0.6603
   81MPD2    C2 1260   2.526   4.363  12.030 -0.4423  0.4341 -0.8271
   81MPD2    C3 1261   2.657   4.396  12.058  0.4020  0.4744  0.5021
   81MPD2    C4 1262   2.750   4.397  11.953  1.0181  0.1398 -0.0099
   81MPD2    C5 1263   2.716   4.384  11.822  0.1376 -0.1796 -0.5882
   81MPD2     H 1264   2.458   4.337  12.110 -0.8010  1.1359 -0.8972
   81MPD2    H1 1265   2.846   4.444  11.970 -0.5962  3.3769  0.2732
   81MPD2    H2 1266   2.563   4.337  11.691 -2.3181 -0.2523  0.3159
   81MPD2    H3 1267   2.789   4.400  11.744 -1.4242  0.1070 -1.9901
   81MPD2     N 1268   2.696   4.426  12.188  0.0227 -0.3930  0.5777
   81MPD2    H5 1269   2.792   4.436  12.219  0.7972 -3.4797 -0.7623
   81MPD2    N1 1270   2.356   4.300  11.871 -0.2061  0.5818 -0.4969
   81MPD2    H7 1271   2.293   4.288  11.950 -2.5979  0.1093 -2.4685
   82TMC2    C1 1272   0.654   2.801  10.774  0.0389 -0.1284  0.5994
   82TMC2    C2 1273   0.750   2.876  10.833 -0.1722 -0.3061 -0.5835
   82TMC2    C3 1274   0.812   2.829  10.947  0.0027 -0.3259  0.3635
   82TMC2    C4 1275   0.620   2.678  10.819  0.6360 -0.0452 -0.1109
   82TMC2    C5 1276   0.698   2.634  10.917 -0.0763 -0.5611 -0.4574
   82TMC2    C6 1277   0.792   2.704  10.993 -0.4743  0.6713 -0.1715
   82TMC2     C 1278   0.553   2.866  10.699  0.3402 -0.4276 -0.1934
   82TMC2     O 1279   0.505   2.810  10.603  0.6680 -0.0899 -0.0240
   82TMC2     H 1280   0.794   2.966  10.791 -1.2364  0.7122  0.5026
   82TMC2    H1 1281   0.538   2.627  10.769  1.5342 -0.6302 -0.9790
   82TMC2    H2 1282   0.848   2.658  11.073  0.9073  0.5004 -1.2323
   82TMC2    C7 1283   0.662   2.507  10.980 -0.1332  0.0255 -0.1680
   82TMC2    C8 1284   0.904   2.918  11.013 -0.0807 -1.5732 -0.4205
   82TMC2    O1 1285   0.693   2.489  11.099  0.1442  0.4540 -0.3674
   82TMC2    O2 1286   0.971   2.994  10.950 -0.2262  0.6460 -0.4463
   82TMC2    O5 1287   0.947   2.862  11.129 -0.6554  0.4987 -0.0666
   82TMC2    H5 1288   0.878   2.804  11.168  0.7748  0.5099  2.4836
   83MPD2     C 1289   0.238   3.261  10.663  0.9404 -0.1676 -0.6158
   83MPD2    C1 1290   0.263   3.160  10.574 -0.9540  0.1261  0.2646
   83MPD2    C2 1291   0.365   3.075  10.606  0.6129  0.1133  0.1177
   83MPD2    C3 1292   0.435   3.076  10.723 -0.1118  0.4555  0.0041
   83MPD2    C4 1293   0.407   3.179  10.818  0.1944 -0.1989  0.0589
   83MPD2    C5 1294   0.309   3.275  10.784  0.1498  0.0794  0.2319
   83MPD2     H 1295   0.380   3.003  10.527  3.1674  0.2397  0.4823
   83MPD2    H1 1296   0.445   3.188  10.919  0.3138 -0.6713  0.0568
   83MPD2    H2 1297   0.151   3.325  10.654  0.9167  0.0132  0.9820
   83MPD2    H3 1298   0.278   3.354  10.852  1.0076 -0.2887  1.0492
   83MPD2     N 1299   0.533   2.982  10.755  0.3440 -0.3841  0.3442
   83MPD2    H5 1300   0.591   2.997  10.838  0.0362  0.1282  0.4692
   83MPD2    N1 1301   0.179   3.149  10.463  0.2498 -0.3523  1.2147
   83MPD2    H7 1302   0.108   3.220  10.451 -2.5063 -3.2243  0.3831
   84TMC2    C1 1303   2.157   2.236  11.265  0.1768 -0.2528  0.8561
   84TMC2    C2 1304   2.114   2.151  11.364 -0.5022 -0.1597  0.1631
   84TMC2    C3 1305   2.085   2.021  11.333 -0.4155 -0.2900  0.3710
   84TMC2    C4 1306   2.139   2.210  11.132  0.1531  0.5733 -0.5338
   84TMC2    C5 1307   2.099   2.083  11.112 -0.4667 -0.5439  0.2055
   84TMC2    C6 1308   2.084   1.986  11.204 -0.6652  0.9491  0.4099
   84TMC2     C 1309   2.151   2.379  11.288 -0.5858  0.3665  0.0956
   84TMC2     O 1310   2.084   2.414  11.386 -1.1038 -0.3875  0.1960
   84TMC2     H 1311   2.114   2.171  11.470  0.6441 -3.3028  0.7710
   84TMC2    H1 1312   2.165   2.276  11.049 -0.8584  1.1796 -0.3615
   84TMC2    H2 1313   2.027   1.898  11.177 -1.2126  1.5763 -0.4960
   84TMC2    C7 1314   2.057   2.052  10.980 -0.1062 -0.4188  0.2093
   84TMC2    C8 1315   2.070   1.926  11.431 -0.1189 -0.5137  1.2073
   84TMC2    O1 1316   2.053   1.938  10.938 -0.1101  0.1197  0.0675
   84TMC2    O2 1317   2.034   1.951  11.541 -0.6482 -0.1124  0.0889
   84TMC2    O5 1318   2.135   1.816  11.394 -0.3093  0.3740 -0.2915
   84TMC2    H5 1319   2.180   1.839  11.310 -1.1200  0.6528 -0.6490
   85TMC2    C1 1320   2.843   0.924  15.927  0.0257  0.3545  0.3843
   85TMC2    C2 1321   2.721   0.980  15.933  0.0072 -0.1190 -0.1523
   85TMC2    C3 1322   2.699   1.101  15.867  0.4257 -0.0935  0.1608
   85TMC2    C4 1323   2.947   0.990  15.874  0.2428 -0.4786  0.4391
   85TMC2    C5 1324   2.924   1.095  15.800 -0.8341 -0.3187 -0.4229
   85TMC2    C6 1325   2.802   1.159  15.795 -0.0423  0.1029  0.2481
   85TMC2     C 1326   2.885   0.816  16.009 -0.5302 -0.5989  0.0575
   85TMC2     O 1327   2.996   0.824  16.062  0.1724 -0.1696 -0.7460
   85TMC2     H 1328   2.644   0.909  15.962 -2.3871  2.3297 -0.4701
   85TMC2    H1 1329   3.046   0.947  15.883  0.9648  1.1038  0.0582
   85TMC2    H2 1330   2.796   1.255  15.745 -1.0231 -0.4511 -0.6907
   85TMC2    C7 1331   3.002   1.096  15.679 -0.4379  0.1510  0.4399
   85TMC2    C8 1332   2.594   1.193  15.907 -0.6178 -0.1527 -0.3319
   85TMC2    O1 1333   3.077   1.000  15.661 -0.3376  0.1140  0.2993
   85TMC2    O2 1334   2.587   1.302  15.850  0.3705 -0.0107  0.3950
   85TMC2    O5 1335   2.589   1.166  16.040 -0.0267 -0.8001 -0.1512
   85TMC2    H5 1336   2.588   1.074  16.074  1.2116 -1.0261 -0.7356
   86MPD2     C 1337   2.782   0.364  16.223  0.2012  0.1851  0.0721
   86MPD2    C1 1338   2.693   0.387  16.122 -0.0539  0.2441 -0.0532
   86MPD2    C2 1339   2.707   0.490  16.038  0.0192  0.0034  0.0548
   86MPD2    C3 1340   2.803   0.588  16.065  0.2111 -0.4612 -0.4225
   86MPD2    C4 1341   2.893   0.561  16.165 -0.4743 -0.8236  0.8837
   86MPD2    C5 1342   2.886   0.453  16.248 -0.3109 -0.5719  0.4811
   86MPD2     H 1343   2.626   0.507  15.967 -0.7295 -1.1520  0.6272
   86MPD2    H1 1344   2.975   0.629  16.184 -0.2396 -0.7896 -0.2606
   86MPD2    H2 1345   2.779   0.278  16.289  1.1142  0.7790  0.9031
   86MPD2    H3 1346   2.952   0.440  16.332  0.0858  0.5727  0.3437
   86MPD2     N 1347   2.800   0.709  15.995 -0.1919 -0.0031  0.1659
   86MPD2    H5 1348   2.740   0.709  15.914 -1.5055 -1.7504  1.1391
   86MPD2    N1 1349   2.591   0.297  16.100  0.1598 -0.3457 -0.3068
   86MPD2    H7 1350   2.537   0.313  16.015  1.9299  1.6168 -1.0642
   87TMC2    C1 1351   4.704   4.141   0.618  0.1081  0.3275  0.3502
   87TMC2    C2 1352   4.615   4.197   0.529 -0.2657 -0.3385  0.3455
   87TMC2    C3 1353   4.555   4.312   0.573  0.3651 -0.5305  0.0079
   87TMC2    C4 1354   4.705   4.180   0.752  0.1636  0.2745  0.1910
   87TMC2    C5 1355   4.628   4.288   0.793  0.2066  0.0409 -0.6408
   87TMC2    C6 1356   4.556   4.352   0.702  0.5437 -0.8962  0.0871
   87TMC2     C 1357   0.047   4.033   0.572 -0.5053  0.1571 -0.0670
   87TMC2     O 1358   0.005   3.995   0.464 -0.2070  0.0392  0.0290
   87TMC2     H 1359   4.611   4.182   0.422  0.6376  3.0062 -0.1483
   87TMC2    H1 1360   0.028   4.127   0.826  0.6661  0.0916 -0.3338
   87TMC2    H2 1361   4.503   4.440   0.735 -0.4103 -1.7803  0.8919
   87TMC2    C7 1362   4.619   4.334   0.928  0.6941  0.2438  0.1405
   87TMC2    C8 1363   4.523   4.414   0.475  0.0984  0.7568 -0.2897
   87TMC2    O1 1364   4.559   4.438   0.956  0.0190 -0.3135 -0.0614
   87TMC2    O2 1365   4.582   4.433   0.371  0.7372 -0.0555  0.0872
   87TMC2    O5 1366   4.393   4.421   0.493  0.2992 -0.1464 -0.2506
   87TMC2    H5 1367   4.360   4.393   0.581  1.7501 -1.1689 -0.0231
   88MPD2     C 1368   0.035   4.174   1.229  0.2795 -0.4904  0.4293
   88MPD2    C1 1369   4.698   4.263   1.156  0.4450 -0.1587  0.5378
   88MPD2    C2 1370   4.657   4.378   1.225  0.3654 -0.4143  0.3936
   88MPD2    C3 1371   4.690   4.403   1.353 -0.1082  0.5674  0.4050
   88MPD2    C4 1372   0.035   4.311   1.420 -0.3481 -0.1559  0.2668
   88MPD2    C5 1373   0.064   4.198   1.359 -0.5871 -0.3479  0.6547
   88MPD2     H 1374   4.585   4.443   1.178 -1.1128 -3.0828 -1.0474
   88MPD2    H1 1375   0.077   4.333   1.518  0.4751 -0.7880  0.0523
   88MPD2    H2 1376   0.062   4.083   1.178 -1.8937 -0.0146 -1.5366
   88MPD2    H3 1377   0.120   4.124   1.416  2.0603  1.6064  0.6009
   88MPD2     N 1378   4.664   4.528   1.422  0.1255  0.0123 -0.9174
   88MPD2    H5 1379   4.712   4.555   1.508  1.1283 -1.3151 -1.0683
   88MPD2    N1 1380   4.664   4.239   1.017 -0.4445 -0.1266 -0.7121
   88MPD2    H7 1381   4.711   4.157   0.980 -2.2575 -1.4630 -0.0726
   89TMC2    C1 1382   0.944   1.803   1.130  0.3357 -0.5823  0.6694
   89TMC2    C2 1383   0.814   1.853   1.127  0.4801 -0.2008  0.3311
   89TMC2    C3 1384   0.789   1.958   1.041 -0.0672 -0.6588 -0.0796
   89TMC2    C4 1385   1.043   1.862   1.059  0.5020  0.0658  0.1317
   89TMC2    C5 1386   1.009   1.949   0.962  0.2495  0.0797 -0.4181
   89TMC2    C6 1387   0.884   2.007   0.953  0.5223  0.6172 -0.8719
   89TMC2     C 1388   0.990   1.718   1.234 -0.1754 -0.3470 -0.0645
   89TMC2     O 1389   1.114   1.706   1.243  0.2565  0.3181 -0.1939
   89TMC2     H 1390   0.736   1.809   1.189 -1.2732  1.8348 -0.4298
   89TMC2    H1 1391   1.139   1.813   1.045  0.0172 -1.6393  2.8840
   89TMC2    H2 1392   0.852   2.081   0.880 -1.1279  3.0604  2.3115
   89TMC2    C7 1393   1.108   1.997   0.873 -0.1272 -0.3578  0.4326
   89TMC2    C8 1394   0.676   2.048   1.065  0.8369  0.7282 -0.3700
   89TMC2    O1 1395   1.219   1.944   0.874 -0.5463  0.7969  0.2824
   89TMC2    O2 1396   0.642   2.108   0.963  0.8352  0.6592  0.3973
   89TMC2    O5 1397   0.610   2.019   1.175  0.0348 -0.2143  0.0574
   89TMC2    H5 1398   0.665   1.967   1.237 -0.6363 -0.8646  0.1110
   90MPD2     C 1399   0.960   1.394   1.616 -0.0256 -0.3819 -0.4622
   90MPD2    C1 1400   0.831   1.416   1.572 -0.3998 -0.5633 -0.0040
   90MPD2    C2 1401   0.821   1.507   1.473  0.1177 -0.1191 -1.1084
   90MPD2    C3 1402   0.919   1.573   1.413 -0.6273 -0.2724 -0.2244
   90MPD2    C4 1403   1.044   1.557   1.470 -0.0215 -0.7137  0.3231
   90MPD2    C5 1404   1.065   1.470   1.570 -0.0812 -0.3211  0.2824
   90MPD2     H 1405   0.722   1.531   1.436 -0.8608 -1.7970  0.4524
   90MPD2    H1 1406   1.125   1.618   1.433  1.2387 -2.7127 -0.2076
   90MPD2    H2 1407   0.986   1.311   1.681  0.1201 -0.2066 -0.2963
   90MPD2    H3 1408   1.164   1.453   1.610  0.4674  0.9195 -0.5433
   90MPD2     N 1409   0.891   1.650   1.302 -0.0160  0.2207 -0.4113
   90MPD2    H5 1410   0.797   1.655   1.263  0.0886 -2.6997 -1.0698
   90MPD2    N1 1411   0.725   1.330   1.609 -0.3415  0.3589 -0.1904
   90MPD2    H7 1412   0.632   1.344   1.572 -0.8610 -1.3439  0.4615
   91TMC2    C1 1413   2.230   1.600  16.122  0.2295 -0.4298 -1.1226
   91TMC2    C2 1414   2.285   1.682  16.028  0.1750  0.3019  0.9372
   91TMC2    C3 1415   2.214   1.698  15.910  0.4553 -0.9105  0.7485
   91TMC2    C4 1416   2.105   1.549  16.097 -0.6452  0.1831 -0.4194
   91TMC2    C5 1417   2.048   1.561  15.977 -0.5088 -0.0860 -0.4189
   91TMC2    C6 1418   2.093   1.641  15.878 -0.2321 -0.6288  0.8497
   91TMC2     C 1419   2.274   1.616  16.257 -0.0348 -0.4369  0.3452
   91TMC2     O 1420   2.202   1.586  16.350 -0.1940 -0.0988 -0.0522
   91TMC2     H 1421   2.362   1.756  16.049  0.5020 -0.4121  2.2625
   91TMC2    H1 1422   2.060   1.482  16.170  0.6789 -1.5483 -1.1904
   91TMC2    H2 1423   2.055   1.638  15.777 -0.9575  1.2789  1.0703
   91TMC2    C7 1424   1.913   1.510  15.974 -0.0138  0.9500 -0.1947
   91TMC2    C8 1425   2.297   1.738  15.799  0.2967  0.0003 -0.1783
   91TMC2    O1 1426   1.872   1.475  16.085  0.0048  0.0600 -0.1357
   91TMC2    O2 1427   2.260   1.783  15.697 -0.0980  0.1747 -0.3595
   91TMC2    O5 1428   2.430   1.724  15.828  0.2598 -0.9892 -0.0298
   91TMC2    H5 1429   2.448   1.663  15.903 -0.1008  0.8722  1.5887
   92MPD2     C 1430   2.435   1.670  16.502 -0.1665 -0.0642 -0.1513
   92MPD2    C1 1431   2.483   1.678  16.372  0.0125 -0.1813 -0.0379
   92MPD2    C2 1432   2.622   1.700  16.352 -1.1029 -0.7484  0.0770
   92MPD2    C3 1433   2.708   1.706  16.458 -0.0313  0.4830  0.1771
   92MPD2    C4 1434   2.657   1.707  16.589  0.0988 -0.2548 -0.2603
   92MPD2    C5 1435   2.524   1.688  16.613  0.5726  0.6950 -0.2652
   92MPD2     H 1436   2.656   1.698  16.249  0.1857  1.3500  0.4675
   92MPD2    H1 1437   2.720   1.713  16.677 -0.5466 -1.7544  0.3011
   92MPD2    H2 1438   2.334   1.639  16.528  0.4787 -3.7662 -2.1012
   92MPD2    H3 1439   2.486   1.678  16.714  1.6892 -0.1278  0.0749
   92MPD2     N 1440   2.846   1.711  16.419  0.4468  0.5322 -0.3638
   92MPD2    H5 1441   2.871   1.698  16.322  4.0840  0.2916  0.6063
   92MPD2    N1 1442   2.409   1.648  16.256 -0.2136  0.3629 -0.1857
   92MPD2    H7 1443   2.450   1.664  16.164 -0.2804  0.7231 -0.1548
   93TMC2    C1 1444   4.380   1.643  14.186 -0.3274  0.0514  0.2851
   93TMC2    C2 1445   4.370   1.555  14.284 -0.3638  0.1501  0.4042
   93TMC2    C3 1446   4.469   1.530  14.372 -0.5541  0.6747  0.1870
   93TMC2    C4 1447   4.489   1.726  14.186  0.4822 -0.5078  0.3852
   93TMC2    C5 1448   4.597   1.702  14.269  0.5517  0.3283 -0.1883
   93TMC2    C6 1449   4.583   1.604  14.362  0.1885  1.7034 -0.1392
   93TMC2     C 1450   4.262   1.687  14.104 -0.0592  0.9971  0.2511
   93TMC2     O 1451   4.249   1.808  14.090  0.1190 -0.8788  0.2941
   93TMC2     H 1452   4.279   1.496  14.294  1.4066 -2.5392  0.7624
   93TMC2    H1 1453   4.495   1.795  14.103  0.4233  1.5785  2.1186
   93TMC2    H2 1454   4.657   1.584  14.438 -0.1412  0.9402 -0.0199
   93TMC2    C7 1455   4.728   1.751  14.220 -0.0220 -0.6239 -0.3304
   93TMC2    C8 1456   4.469   1.419  14.469 -0.4473 -0.3237 -0.0460
   93TMC2    O1 1457   0.076   1.669  14.191  0.0177 -0.1989  0.6787
   93TMC2    O2 1458   4.509   1.432  14.587 -0.5227 -0.9302 -0.3240
   93TMC2    O5 1459   4.501   1.313  14.392 -0.1009 -0.6232 -0.0737
   93TMC2    H5 1460   4.499   1.336  14.297  3.3313  1.2818  0.3226
   94MPD2     C 1461   4.065   1.724  13.892  0.0096  0.0010 -0.0625
   94MPD2    C1 1462   4.072   1.608  13.966  0.1328  0.2474 -0.3198
   94MPD2    C2 1463   3.972   1.514  13.940  0.6840 -0.7142  0.5466
   94MPD2    C3 1464   3.875   1.532  13.845 -0.2270 -0.4893  0.0149
   94MPD2    C4 1465   3.879   1.647  13.765  0.8098 -0.6290  0.0980
   94MPD2    C5 1466   3.964   1.744  13.802  0.2258 -0.4505  0.5122
   94MPD2     H 1467   3.961   1.435  14.014  0.7615 -2.2201 -1.0578
   94MPD2    H1 1468   3.800   1.666  13.694  0.1097  0.7571  1.2320
   94MPD2    H2 1469   4.141   1.801  13.896  1.6793 -1.5227 -2.4037
   94MPD2    H3 1470   3.972   1.833  13.740  0.7139 -0.2973  0.7988
   94MPD2     N 1471   3.766   1.451  13.825 -0.6728  0.4400 -0.3111
   94MPD2    H5 1472   3.695   1.493  13.765 -1.3906  0.0100  0.2364
   94MPD2    N1 1473   4.181   1.590  14.061  0.3309  0.1954  0.2188
   94MPD2    H7 1474   4.193   1.499  14.105  0.0124  0.0040 -0.0996
   95TMC2    C1 1475   4.432   3.266  16.339 -0.0359 -0.1986 -0.0605
   95TMC2    C2 1476   4.456   3.161  16.428  0.5736  0.0382  0.3322
   95TMC2    C3 1477   4.475   3.193  16.562 -0.1069  0.0354  0.0466
   95TMC2    C4 1478   4.406   3.395  16.385 -0.4227  0.3899  0.0403
   95TMC2    C5 1479   4.415   3.413  16.522  0.2654 -0.4431  0.7451
   95TMC2    C6 1480   4.434   3.315  16.615  0.4036  0.3295  0.6676
   95TMC2     C 1481   4.457   3.252  16.200  0.2306 -0.5232  0.8730
   95TMC2     O 1482   4.407   3.345  16.128 -0.9698  0.6840 -0.0918
   95TMC2     H 1483   4.488   3.061  16.401 -0.8695  0.1924 -1.9408
   95TMC2    H1 1484   4.388   3.481  16.321 -1.0759 -0.5450 -1.0416
   95TMC2    H2 1485   4.434   3.342  16.720  2.0856  1.0342  0.4980
   95TMC2    C7 1486   4.357   3.540  16.574 -0.0984  0.6486  0.0806
   95TMC2    C8 1487   4.476   3.073  16.647 -1.1433 -0.2851 -0.2836
   95TMC2    O1 1488   4.264   3.583  16.506  0.1815  0.3603 -0.1636
   95TMC2    O2 1489   4.460   2.957  16.607 -0.2877  0.0861 -0.2072
   95TMC2    O5 1490   4.497   3.109  16.780  0.1353 -0.1034  0.0561
   95TMC2    H5 1491   4.538   3.198  16.781 -0.4490  0.2020 -3.0323
   96MPD2     C 1492   4.626   3.056  15.764  0.1424 -0.2681  0.7720
   96MPD2    C1 1493   4.633   3.183  15.815 -0.0164  0.0787 -0.3500
   96MPD2    C2 1494   4.604   3.202  15.945 -0.8894 -0.1896  0.2520
   96MPD2    C3 1495   4.558   3.100  16.031  0.2626  0.1406  0.3701
   96MPD2    C4 1496   4.566   2.972  15.981  0.5431  0.5139 -0.1600
   96MPD2    C5 1497   4.601   2.955  15.854  0.3424  0.8890 -1.1409
   96MPD2     H 1498   4.607   3.299  15.992  2.1118 -0.1827  0.0156
   96MPD2    H1 1499   4.554   2.880  16.036  1.5138 -0.4816 -1.6311
   96MPD2    H2 1500   4.660   3.038  15.663 -1.8380  0.5235 -0.0365
   96MPD2    H3 1501   4.623   2.855  15.821 -1.7158 -0.3790  1.3610
   96MPD2     N 1502   4.508   3.127  16.160 -0.5229 -0.1364 -0.4118
   96MPD2    H5 1503   4.501   3.054  16.231  1.0176  1.0877  1.0026
   96MPD2    N1 1504   4.684   3.285  15.729  0.0117 -0.0980 -0.3260
   96MPD2    H7 1505   4.701   3.274  15.630 -0.9253 -0.6883 -0.4241
   97TMC2    C1 1506   2.223   1.922   0.727  0.0336 -0.4279  0.6273
   97TMC2    C2 1507   2.106   1.869   0.677  0.5117 -0.4200  0.4910
   97TMC2    C3 1508   2.066   1.932   0.558 -0.0390 -0.5578 -0.6174
   97TMC2    C4 1509   2.286   2.036   0.694  0.2976  0.1707  0.7239
   97TMC2    C5 1510   2.224   2.100   0.593 -0.3267  0.0582 -0.3498
   97TMC2    C6 1511   2.123   2.048   0.518 -0.1145 -0.2276  0.2977
   97TMC2     C 1512   2.254   1.851   0.851  0.4857  0.3278  1.7232
   97TMC2     O 1513   2.173   1.858   0.938  0.6477 -0.5003 -1.1062
   97TMC2     H 1514   2.075   1.775   0.722  0.0405 -0.3572  0.2868
   97TMC2    H1 1515   2.373   2.073   0.747 -0.2473  1.4127  0.7620
   97TMC2    H2 1516   2.071   2.099   0.438 -0.0593 -0.8051 -0.1042
   97TMC2    C7 1517   2.281   2.226   0.554 -0.2802  0.5061  0.3378
   97TMC2    C8 1518   1.937   1.901   0.510 -0.5225  0.7841 -0.5521
   97TMC2    O1 1519   2.389   2.259   0.593  0.3464 -0.7292  0.2154
   97TMC2    O2 1520   1.896   1.943   0.405 -0.0459 -0.4091 -0.1182
   97TMC2    O5 1521   1.859   1.930   0.617 -0.7941  0.0343 -0.1599
   97TMC2    H5 1522   1.891   1.939   0.709 -0.6398 -2.8706  0.0580
   98MPD2     C 1523   2.539   1.495   1.088 -1.0300 -0.6552  0.5265
   98MPD2    C1 1524   2.405   1.515   1.100 -0.4012 -0.3488  0.5329
   98MPD2    C2 1525   2.354   1.627   1.035 -0.3035 -0.5997  0.2287
   98MPD2    C3 1526   2.430   1.701   0.946 -0.0143 -0.4351  0.6325
   98MPD2    C4 1527   2.566   1.678   0.937  0.5053  0.1385  0.6111
   98MPD2    C5 1528   2.623   1.576   1.019 -0.6815  0.0442  0.1876
   98MPD2     H 1529   2.248   1.647   1.047 -0.5294 -0.7178 -1.6599
   98MPD2    H1 1530   2.628   1.728   0.864  0.5838 -1.8619 -0.6791
   98MPD2    H2 1531   2.584   1.402   1.122  0.2908 -0.0753  0.3645
   98MPD2    H3 1532   2.727   1.550   1.002 -1.3049 -2.8353  0.8607
   98MPD2     N 1533   2.379   1.801   0.856 -0.1846  0.4791  0.2750
   98MPD2    H5 1534   2.432   1.809   0.770 -0.3680 -1.2205  0.0005
   98MPD2    N1 1535   2.334   1.422   1.180 -0.1087  0.2101  0.1652
   98MPD2    H7 1536   2.380   1.337   1.210 -0.7592  0.3498  1.5893
   99TMC2    C1 1537   1.090   3.674   1.545 -0.0536  0.6886 -0.0728
   99TMC2    C2 1538   1.172   3.767   1.599  0.0595 -0.0614  0.3724
   99TMC2    C3 1539   1.127   3.840   1.707 -0.0512  0.3385  0.2400
   99TMC2    C4 1540   0.961   3.655   1.588 -0.0917  0.4696  0.2285
   99TMC2    C5 1541   0.916   3.741   1.683  0.6420 -0.3092  0.6097
   99TMC2    C6 1542   0.998   3.824   1.750  0.1583 -0.0503 -0.4187
   99TMC2     C 1543   1.143   3.605   1.432 -0.2574  0.5158  0.7989
   99TMC2     O 1544   1.259   3.627   1.401  0.7667  0.9116  0.0286
   99TMC2     H 1545   1.275   3.784   1.571 -0.9053  1.2381 -2.3608
   99TMC2    H1 1546   0.895   3.579   1.548 -0.3483  1.2093 -0.7380
   99TMC2    H2 1547   0.958   3.888   1.828 -0.5229 -0.9431 -0.0293
   99TMC2    C7 1548   0.782   3.709   1.740 -0.1519  0.7310  0.4286
   99TMC2    C8 1549   1.194   3.961   1.746 -0.3678 -0.0033 -0.0783
   99TMC2    O1 1550   0.773   3.748   1.856 -0.3027 -0.3871  0.5794
   99TMC2    O2 1551   1.128   4.058   1.781  0.1550 -0.0668 -0.2575
   99TMC2    O5 1552   1.310   3.915   1.792 -0.0373 -0.0719  0.3469
   99TMC2    H5 1553   1.339   3.828   1.758  0.7808  0.1432  0.4769
  100MPD2     C 1554   1.211   3.472   1.175  0.2245  0.2268  0.2775
  100MPD2    C1 1555   1.081   3.478   1.227 -0.5819  0.0956  0.2842
  100MPD2    C2 1556   0.979   3.433   1.151  0.5366 -0.3630  0.1166
  100MPD2    C3 1557   0.987   3.384   1.021 -0.6739 -0.5084 -0.3280
  100MPD2    C4 1558   1.119   3.378   0.967 -0.2571  0.1293  0.4268
  100MPD2    C5 1559   1.227   3.418   1.048 -0.0057 -0.5042 -0.6495
  100MPD2     H 1560   0.882   3.446   1.196 -0.0525 -0.6539 -1.0599
  100MPD2    H1 1561   1.144   3.338   0.869  1.2312  0.8501  0.5126
  100MPD2    H2 1562   1.302   3.505   1.225 -2.1618  2.2134  3.3198
  100MPD2    H3 1563   1.329   3.404   1.015  0.1521 -1.2045  0.1465
  100MPD2     N 1564   0.873   3.332   0.961  0.2619 -0.0938  0.3437
  100MPD2    H5 1565   0.784   3.357   1.004  0.2446  0.4992 -0.0390
  100MPD2    N1 1566   1.050   3.544   1.348 -0.2893  0.3026  0.4910
  100MPD2    H7 1567   0.954   3.535   1.381 -0.5472 -2.8430 -1.1669
  101TMC2    C1 1568   1.805   4.097  13.203  0.1930  0.5069  0.6861
  101TMC2    C2 1569   1.799   4.123  13.337  0.0360 -0.0996  0.1793
  101TMC2    C3 1570   1.887   4.208  13.389  0.1284  0.3054  0.4745
  101TMC2    C4 1571   1.896   4.157  13.123 -0.7199 -0.7817  0.0911
  101TMC2    C5 1572   1.979   4.250  13.176  0.1492  0.2272 -0.2988
  101TMC2    C6 1573   1.983   4.274  13.314 -0.6815  0.0557 -0.3704
  101TMC2     C 1574   1.714   3.995  13.159  0.7310  0.0134 -0.0982
  101TMC2     O 1575   1.701   3.901  13.236  0.3880 -0.3232  0.3491
  101TMC2     H 1576   1.734   4.065  13.401  0.0959 -1.2246 -0.7766
  101TMC2    H1 1577   1.903   4.140  13.016 -0.9364 -0.5388  0.0404
  101TMC2    H2 1578   2.045   4.342  13.372  1.4818 -1.6878 -0.6427
  101TMC2    C7 1579   2.047   4.345  13.089 -0.0604  0.2945 -0.0578
  101TMC2    C8 1580   1.864   4.239  13.529 -0.4458 -0.3253  0.7554
  101TMC2    O1 1581   2.003   4.363  12.979  0.2648 -0.5543  0.0010
  101TMC2    O2 1582   1.907   4.341  13.581 -0.1456  0.0441  0.0962
  101TMC2    O5 1583   1.872   4.111  13.586  0.1655 -0.3429  0.4155
  101TMC2    H5 1584   1.868   4.046  13.512  0.1638 -0.9077  0.9180
  102MPD2     C 1585   1.519   3.963  12.843 -0.5431  0.0469  0.0375
  102MPD2    C1 1586   1.564   3.930  12.973  0.0668  0.8877  0.5450
  102MPD2    C2 1587   1.505   3.829  13.049  0.4857  0.0362  0.0788
  102MPD2    C3 1588   1.409   3.743  12.994  0.8733  0.9555  0.0731
  102MPD2    C4 1589   1.359   3.774  12.867 -0.0715  0.1634  0.1587
  102MPD2    C5 1590   1.410   3.884  12.799 -0.0776 -0.2834 -0.3811
  102MPD2     H 1591   1.534   3.798  13.149 -0.1811 -0.3375  0.1545
  102MPD2    H1 1592   1.282   3.714  12.821  0.5072  0.3085 -1.0050
  102MPD2    H2 1593   1.558   4.040  12.777  0.0520  0.6145  1.0512
  102MPD2    H3 1594   1.367   3.915  12.705  2.1734 -1.2457 -1.7292
  102MPD2     N 1595   1.372   3.634  13.075  0.1776  0.1273 -0.0800
  102MPD2    H5 1596   1.409   3.627  13.169  0.2584  2.3801  0.0473
  102MPD2    N1 1597   1.665   4.016  13.028  0.3900 -0.0838  0.0149
  102MPD2    H7 1598   1.704   4.088  12.968  0.1366 -0.9751 -1.2260
  103TMC2    C1 1599   4.519   3.549  12.599  0.3280 -0.2286  0.0632
  103TMC2    C2 1600   4.656   3.536  12.593 -0.2143  0.1701 -0.4106
  103TMC2    C3 1601   4.728   3.644  12.642 -0.3031 -0.3371 -0.1464
  103TMC2    C4 1602   4.465   3.672  12.624 -0.0656 -0.3469 -0.3715
  103TMC2    C5 1603   4.539   3.776  12.675  0.3087  0.1067 -0.3348
  103TMC2    C6 1604   4.675   3.764  12.683  0.5141  0.2518 -0.3182
  103TMC2     C 1605   4.431   3.451  12.551  0.0844  0.3931  0.0304
  103TMC2     O 1606   4.310   3.469  12.555  0.4919  0.7630  0.1205
  103TMC2     H 1607   4.716   3.455  12.553 -0.7632 -1.3684  1.9187
  103TMC2    H1 1608   4.358   3.676  12.638 -0.0103 -1.5564  0.4285
  103TMC2    H2 1609   0.003   3.845  12.719 -2.2924  1.5861  1.6572
  103TMC2    C7 1610   4.474   3.900  12.714 -0.0733 -0.4959  0.8224
  103TMC2    C8 1611   0.137   3.623  12.639  0.5251  0.3105 -0.2480
  103TMC2    O1 1612   4.356   3.903  12.739  0.2848 -0.0477  0.2288
  103TMC2    O2 1613   0.191   3.523  12.673  0.2451  0.3553  0.2706
  103TMC2    O5 1614   0.200   3.733  12.598  0.2971  0.2045  0.3217
  103TMC2    H5 1615   0.142   3.800  12.556 -0.5677  0.9640  2.7581
  104MPD2     C 1616   4.533   3.168  12.332  0.1243  0.2033  0.2327
  104MPD2    C1 1617   4.448   3.271  12.380  0.6044 -0.3764 -0.0388
  104MPD2    C2 1618   4.327   3.295  12.313 -0.5200  0.2234  0.3931
  104MPD2    C3 1619   4.292   3.214  12.208  0.6850  0.0603 -0.5098
  104MPD2    C4 1620   4.372   3.107  12.170 -0.6813  0.8873 -0.0982
  104MPD2    C5 1621   4.488   3.081  12.236 -0.2139  0.0580  0.2746
  104MPD2     H 1622   4.257   3.373  12.342  0.6587  0.6780  2.0544
  104MPD2    H1 1623   4.348   3.042  12.086 -1.9452 -0.7962  1.5661
  104MPD2    H2 1624   4.633   3.152  12.369 -0.0467 -1.5845 -0.0729
  104MPD2    H3 1625   4.548   2.997  12.203 -0.7464 -0.4217  0.5324
  104MPD2     N 1626   4.168   3.244  12.147  0.7998 -0.8884 -0.3883
  104MPD2    H5 1627   4.127   3.331  12.178  0.4143 -1.1101 -0.2739
  104MPD2    N1 1628   4.501   3.354  12.477  0.7067  0.3363 -0.7767
  104MPD2    H7 1629   4.602   3.351  12.481  0.5930 -0.8638  1.5482
  105TMC2    C1 1630   0.346   3.355  17.736 -0.1427  0.1136  0.3132
  105TMC2    C2 1631   0.220   3.314   0.020  0.0155  0.3306 -0.2218
  105TMC2    C3 1632   0.158   3.387   0.114 -0.6699  0.5393 -0.3361
  105TMC2    C4 1633   0.421   3.450   0.062  0.1044 -0.6092 -0.1197
  105TMC2    C5 1634   0.350   3.516   0.155 -0.1981  0.1269 -0.3634
  105TMC2    C6 1635   0.221   3.487   0.182  0.3230  0.2520 -0.1457
  105TMC2     C 1636   0.421   3.272  17.641 -0.0933  0.8823 -0.7132
  105TMC2     O 1637   0.374   3.162  17.614  0.0315  0.3936  0.1140
  105TMC2     H 1638   0.177   3.230  17.709 -2.1726  0.4459  1.3470
  105TMC2    H1 1639   0.529   3.457   0.057  0.1809 -1.2095  0.7373
  105TMC2    H2 1640   0.165   3.535   0.262  3.5055  2.2967  0.8474
  105TMC2    C7 1641   0.426   3.608   0.241  0.1773 -0.5550 -0.3143
  105TMC2    C8 1642   0.025   3.351   0.164 -0.1782 -0.0001  0.0775
  105TMC2    O1 1643   0.545   3.590   0.260  0.3716 -0.3746  0.1719
  105TMC2    O2 1644   4.726   3.388   0.276  0.5659 -0.3348 -0.1921
  105TMC2    O5 1645   4.679   3.343   0.053  0.2930  0.1721  0.3815
  105TMC2    H5 1646   4.713   3.352  17.704 -1.1547 -2.3433 -0.3856
  106MPD2     C 1647   0.778   3.184  17.274 -0.7296 -0.0732  0.1257
  106MPD2    C1 1648   0.797   3.314  17.324  0.8919  0.4025  0.0250
  106MPD2    C2 1649   0.720   3.358  17.432 -0.3564  0.0925  0.6142
  106MPD2    C3 1650   0.619   3.279  17.483  0.0360 -0.4773 -0.2042
  106MPD2    C4 1651   0.605   3.150  17.434  0.4322 -0.1471  0.2407
  106MPD2    C5 1652   0.675   3.103  17.323  0.1818  0.2767 -0.0153
  106MPD2     H 1653   0.751   3.455  17.468  0.2461 -0.1187  0.6652
  106MPD2    H1 1654   0.542   3.076  17.480  0.1620 -1.1658 -1.7792
  106MPD2    H2 1655   0.842   3.140  17.198 -1.8355  0.5902 -1.2127
  106MPD2    H3 1656   0.670   2.999  17.293  0.7076  0.4289 -0.6244
  106MPD2     N 1657   0.531   3.336  17.582  0.7028  0.0564 -0.5489
  106MPD2    H5 1658   0.532   3.437  17.597  0.5339  0.0396 -0.4327
  106MPD2    N1 1659   0.891   3.411  17.273  0.4708 -0.0068 -0.5330
  106MPD2    H7 1660   0.887   3.505  17.310  0.4480  0.2307 -1.1400
  107TMC2    C1 1661   1.714   3.090  11.491 -0.8183 -0.0509  0.2246
  107TMC2    C2 1662   1.730   3.216  11.539 -0.6504 -0.1084  0.2413
  107TMC2    C3 1663   1.852   3.269  11.505  0.3225 -0.0955 -0.1479
  107TMC2    C4 1664   1.801   3.007  11.428  0.5905 -0.3747  0.5199
  107TMC2    C5 1665   1.926   3.066  11.415  0.2077 -0.7942  0.5891
  107TMC2    C6 1666   1.953   3.196  11.448  0.1328  0.4622  0.1510
  107TMC2     C 1667   1.590   3.024  11.528 -0.0639  0.3284 -0.4753
  107TMC2     O 1668   1.589   2.904  11.565  0.5525 -0.2127 -0.4582
  107TMC2     H 1669   1.646   3.279  11.565 -0.3929  1.1922 -2.1050
  107TMC2    H1 1670   1.777   2.911  11.383 -2.9468  1.7283 -2.0851
  107TMC2    H2 1671   2.054   3.232  11.433  0.1713 -0.2341 -1.2747
  107TMC2    C7 1672   2.006   3.015  11.306  0.4399 -0.4507 -0.5087
  107TMC2    C8 1673   1.874   3.406  11.530 -0.2786 -0.0647 -0.5784
  107TMC2    O1 1674   2.082   3.102  11.260 -0.2349  0.3300 -0.3997
  107TMC2    O2 1675   1.783   3.487  11.537  0.5319  0.0465 -0.6252
  107TMC2    O5 1676   1.996   3.423  11.591 -0.2980 -0.1417  0.4663
  107TMC2    H5 1677   2.037   3.340  11.623 -1.8072 -0.7188  0.9109
  108MPD2     C 1678   1.265   3.086  11.368 -0.8896  0.3736 -0.0453
  108MPD2    C1 1679   1.351   3.052  11.471 -0.2394 -0.8550  0.7904
  108MPD2    C2 1680   1.297   2.997  11.589  0.6015 -0.2022  0.4563
  108MPD2    C3 1681   1.160   2.974  11.606  0.5915  0.8002  0.4408
  108MPD2    C4 1682   1.081   3.001  11.494  0.8823  1.2005  0.1497
  108MPD2    C5 1683   1.132   3.059  11.377  0.6932 -0.4290 -0.6607
  108MPD2     H 1684   1.364   2.976  11.672  1.8153  0.8470 -0.2759
  108MPD2    H1 1685   0.973   2.990  11.501  0.8675  1.4695  0.3727
  108MPD2    H2 1686   1.293   3.144  11.281 -0.3712 -0.9980 -0.7906
  108MPD2    H3 1687   1.056   3.086  11.304 -1.0712  1.2481  1.8052
  108MPD2     N 1688   1.099   2.927  11.725 -0.4145 -0.1999  0.1972
  108MPD2    H5 1689   1.002   2.896  11.718 -0.2686 -0.0724 -2.3414
  108MPD2    N1 1690   1.491   3.086  11.455  0.1154  0.1852  0.6139
  108MPD2    H7 1691   1.517   3.156  11.385 -1.5966  0.2188  0.0224
  109TMC2    C1 1692   1.515   1.318   0.335  0.1196 -0.4752  0.1316
  109TMC2    C2 1693   1.566   1.336   0.213  0.6456  0.5403  0.0688
  109TMC2    C3 1694   1.701   1.322   0.201  0.0914  0.2734 -0.1517
  109TMC2    C4 1695   1.592   1.257   0.437  0.5371  0.1430  0.5557
  109TMC2    C5 1696   1.724   1.224   0.414 -0.3113 -0.0944  0.0425
  109TMC2    C6 1697   1.777   1.261   0.292  0.1139 -0.4783 -0.8407
  109TMC2     C 1698   1.374   1.308   0.344  0.1830 -0.0347 -0.3935
  109TMC2     O 1699   1.310   1.329   0.242 -0.9574  0.5699 -0.5708
  109TMC2     H 1700   1.509   1.374   0.129  0.5939 -0.3241 -0.2828
  109TMC2    H1 1701   1.547   1.226   0.531  0.0822  2.9418  1.2607
  109TMC2    H2 1702   1.881   1.261   0.263  1.4251  0.4239  3.9153
  109TMC2    C7 1703   1.819   1.191   0.523  0.4085  0.1566 -0.4082
  109TMC2    C8 1704   1.764   1.347   0.075 -0.3130 -0.2683 -0.0197
  109TMC2    O1 1705   1.790   1.222   0.642 -0.0402  0.4570  0.0336
  109TMC2    O2 1706   1.878   1.306   0.050 -0.1850  0.3788  0.3420
  109TMC2    O5 1707   1.732   1.478   0.037 -0.2025  0.2929 -0.2104
  109TMC2    H5 1708   1.670   1.523   0.098 -0.2634 -0.5757  0.3567
  110MPD2     C 1709   0.964   1.177   0.629 -0.1860  0.3522  0.3823
  110MPD2    C1 1710   1.075   1.176   0.708 -0.1872  0.3451 -0.1108
  110MPD2    C2 1711   1.198   1.226   0.657 -0.2377  0.0115  0.6268
  110MPD2    C3 1712   1.207   1.257   0.525 -0.1373  0.1843  0.3943
  110MPD2    C4 1713   1.088   1.272   0.455  0.3302  0.1745  0.2123
  110MPD2    C5 1714   0.963   1.247   0.513  0.0264  0.5663 -0.8699
  110MPD2     H 1715   1.291   1.205   0.708  0.1754  0.9941  0.2734
  110MPD2    H1 1716   1.093   1.310   0.353  2.5630  0.5452  0.4534
  110MPD2    H2 1717   0.870   1.141   0.669  1.2636 -2.8651  0.8340
  110MPD2    H3 1718   0.872   1.264   0.457 -0.0757 -0.2088 -0.9297
  110MPD2     N 1719   1.336   1.280   0.472  0.7223 -0.4825  0.2122
  110MPD2    H5 1720   1.409   1.286   0.542  1.0752  1.2424 -0.3078
  110MPD2    N1 1721   1.074   1.104   0.836  0.1437  0.2865 -0.9677
  110MPD2    H7 1722   0.990   1.048   0.846 -0.7988  1.4899 -2.0258
  111TMC2    C1 1723   1.248   0.009  11.824  0.0894  0.1890 -0.9205
  111TMC2    C2 1724   1.143   0.021  11.916  0.6255  0.0087 -0.2950
  111TMC2    C3 1725   1.178   0.081  12.032 -0.0573 -0.1127 -0.0984
  111TMC2    C4 1726   1.371   0.060  11.852 -0.4219  0.2438 -0.5749
  111TMC2    C5 1727   1.395   0.130  11.965 -0.3908 -0.3313  0.7903
  111TMC2    C6 1728   1.304   0.112  12.072 -0.3489 -0.3922 -0.0717
  111TMC2     C 1729   1.237   4.674  11.702 -0.1955  0.8746  0.1570
  111TMC2     O 1730   1.327   4.699  11.623 -0.3119  0.1724 -0.0040
  111TMC2     H 1731   1.039   0.012  11.884  1.8208 -2.6564 -3.4496
  111TMC2    H1 1732   1.455   0.052  11.784 -1.5750 -1.2939 -1.8175
  111TMC2    H2 1733   1.313   0.148  12.174  0.0971  0.0188 -0.2559
  111TMC2    C7 1734   1.537   0.136  12.005  0.0307 -0.2011  0.4206
  111TMC2    C8 1735   1.083   0.069  12.141  0.1411 -0.9118  0.7878
  111TMC2    O1 1736   1.562   0.107  12.121 -0.0525  0.3359  0.2200
  111TMC2    O2 1737   1.085   0.132  12.246 -0.5050 -0.2945 -0.4492
  111TMC2    O5 1738   1.039   4.677  12.121 -0.5485 -0.6874  0.2038
  111TMC2    H5 1739   1.071   4.642  12.035 -0.0953 -2.7827  1.2380
  112MPD2     C 1740   1.105   4.273  11.421 -0.0682  0.8197  0.1951
  112MPD2    C1 1741   1.169   4.391  11.385  0.6341 -0.2156  1.0131
  112MPD2    C2 1742   1.187   4.490  11.486 -0.0376 -0.1313 -0.4746
  112MPD2    C3 1743   1.145   4.473  11.615 -0.4593 -0.3226  0.8432
  112MPD2    C4 1744   1.086   4.350  11.648  0.2802 -0.0366 -0.7058
  112MPD2    C5 1745   1.066   4.252  11.550 -0.1719 -0.1701 -0.1816
  112MPD2     H 1746   1.236   4.582  11.454 -0.5170 -0.5255 -2.3272
  112MPD2    H1 1747   1.053   4.333  11.749 -0.8352  0.4532 -0.9805
  112MPD2    H2 1748   1.076   4.199  11.347  1.2876  0.6788 -0.2158
  112MPD2    H3 1749   1.011   4.162  11.575  1.7951 -1.3108  0.0505
  112MPD2     N 1750   1.159   4.566  11.719  0.2679 -0.0891  0.2415
  112MPD2    H5 1751   1.122   4.551  11.812  0.9298  0.2716  0.5643
  112MPD2    N1 1752   1.233   4.423  11.266  0.4539 -0.4529  0.0219
  112MPD2    H7 1753   1.292   4.505  11.260 -0.3537  0.1656  0.5824
  113TMC2    C1 1754   4.237   3.549   0.795  0.4597 -0.0756  0.9130
  113TMC2    C2 1755   4.176   3.654   0.729 -1.0703  0.6070  0.0272
  113TMC2    C3 1756   4.108   3.629   0.615  0.1714  1.2512 -0.6302
  113TMC2    C4 1757   4.219   3.421   0.762  0.0204 -0.2753 -0.7879
  113TMC2    C5 1758   4.139   3.400   0.651  0.4043  0.0020 -0.1845
  113TMC2    C6 1759   4.095   3.502   0.570  0.0139 -0.4816 -0.0923
  113TMC2     C 1760   4.342   3.571   0.893  0.3562 -0.6160  1.0695
  113TMC2     O 1761   4.333   3.660   0.979  0.3100  0.0866  0.3787
  113TMC2     H 1762   4.196   3.753   0.769  1.5704  0.8864 -1.9426
  113TMC2    H1 1763   4.271   3.345   0.819  0.8744  0.3292 -0.7634
  113TMC2    H2 1764   4.034   3.483   0.483  1.4389  1.4544 -1.5331
  113TMC2    C7 1765   4.126   3.267   0.601  0.1939 -0.5000 -0.9923
  113TMC2    C8 1766   4.015   3.734   0.573  0.4299  0.0931 -0.1499
  113TMC2    O1 1767   4.097   3.248   0.485 -0.0567 -0.4074 -0.4586
  113TMC2    O2 1768   3.939   3.796   0.645  0.2909  0.1177  0.2365
  113TMC2    O5 1769   4.015   3.731   0.435 -0.7040  0.1735 -0.0090
  113TMC2    H5 1770   4.086   3.674   0.398  1.1033  1.0783  2.1095
  114MPD2     C 1771   0.074   3.448   1.061  0.3291 -0.0177 -0.4046
  114MPD2    C1 1772   0.003   3.558   1.098 -0.0418 -0.3179 -0.3823
  114MPD2    C2 1773   4.612   3.576   1.040 -0.1611 -0.2469  0.0713
  114MPD2    C3 1774   4.568   3.485   0.940  0.6948  0.6760  0.5846
  114MPD2    C4 1775   4.655   3.384   0.901  0.1387 -0.6472  0.1589
  114MPD2    C5 1776   0.028   3.358   0.968  0.1109  0.1049  0.2650
  114MPD2     H 1777   4.552   3.662   1.069  1.0894  0.1948  1.3725
  114MPD2    H1 1778   4.633   3.329   0.811 -0.7779  0.7385 -0.4681
  114MPD2    H2 1779   0.170   3.428   1.107 -0.7124 -0.8255  1.4256
  114MPD2    H3 1780   0.080   3.268   0.936  0.8627 -0.2063  2.3638
  114MPD2     N 1781   4.448   3.492   0.864 -0.0056  0.5203 -0.4478
  114MPD2    H5 1782   4.437   3.427   0.787 -0.3252  0.7628 -0.6073
  114MPD2    N1 1783   0.044   3.644   1.201 -0.1346 -0.1429  0.6876
  114MPD2    H7 1784   4.714   3.721   1.210 -1.7909 -1.2843 -1.7405
  115TMC2    C1 1785   4.581   0.626   0.031  0.0482  0.3644  0.7922
  115TMC2    C2 1786   4.555   0.601   0.161 -0.2046  0.5676  0.5784
  115TMC2    C3 1787   4.562   0.700   0.246 -0.5004 -0.2601  0.2176
  115TMC2    C4 1788   4.634   0.754  17.737  0.0134  0.3168  0.4468
  115TMC2    C5 1789   4.657   0.846   0.089 -0.1611  0.2694  0.6878
  115TMC2    C6 1790   4.632   0.820   0.221  0.4715  0.5425 -0.1428
  115TMC2     C 1791   4.572   0.515  17.677  0.8044 -0.1439  0.3756
  115TMC2     O 1792   4.602   0.537  17.559  0.5055 -0.8958  0.1182
  115TMC2     H 1793   4.544   0.501   0.201 -1.5778  1.7768  3.2555
  115TMC2    H1 1794   4.636   0.783  17.632 -1.1875  0.6413  0.5233
  115TMC2    H2 1795   4.628   0.888   0.305  3.2054 -2.8886  2.7899
  115TMC2    C7 1796   4.645   0.985   0.058 -0.0647 -0.6568 -0.1609
  115TMC2    C8 1797   4.514   0.678   0.381 -0.4663  0.0459  0.5882
  115TMC2    O1 1798   4.586   1.053   0.142 -0.0160  0.0492  0.3631
  115TMC2    O2 1799   4.529   0.757   0.473  0.2237 -0.0128  0.3881
  115TMC2    O5 1800   4.392   0.626   0.366 -0.1289  0.0690 -0.4392
  115TMC2    H5 1801   4.372   0.581   0.281 -0.0011 -2.8593  1.0491
  116MPD2     C 1802   4.423   0.040  17.514  0.5569 -0.2581  0.3304
  116MPD2    C1 1803   4.469   0.150  17.444 -0.6430  0.0973  0.6140
  116MPD2    C2 1804   4.498   0.270  17.509  0.3363  0.4003 -0.0314
  116MPD2    C3 1805   4.467   0.287  17.646 -0.4329  0.6066 -0.4215
  116MPD2    C4 1806   4.417   0.174  17.712  0.3341 -0.2618 -0.3815
  116MPD2    C5 1807   4.398   0.054  17.645  0.3417 -0.6637 -0.1221
  116MPD2     H 1808   4.549   0.340  17.444 -2.2772 -0.5161 -3.0617
  116MPD2    H1 1809   4.388   0.177   0.073 -1.4593 -0.0069 -0.8947
  116MPD2    H2 1810   4.400   4.686  17.459  1.7066 -0.8905  0.8722
  116MPD2    H3 1811   4.354   4.711  17.704  0.1134 -0.0235  0.5785
  116MPD2     N 1812   4.504   0.403  17.724  0.5608 -0.6146  0.8646
  116MPD2    H5 1813   4.457   0.410   0.071 -2.5892 -0.2858 -0.8151
  116MPD2    N1 1814   4.507   0.134  17.312  0.3828 -0.2182 -0.2427
  116MPD2    H7 1815   4.504   0.040  17.275 -2.6414 -1.1802  2.3970
  117TMC2    C1 1816   3.760   1.679  14.143 -0.2775  0.3748  0.2776
  117TMC2    C2 1817   3.833   1.598  14.228 -0.3847 -1.0672 -0.1249
  117TMC2    C3 1818   3.938   1.657  14.295  0.4754  0.3647  0.4552
  117TMC2    C4 1819   3.788   1.812  14.123 -0.3285 -0.4556  0.5080
  117TMC2    C5 1820   3.901   1.865  14.193  0.8308  0.2242 -0.1378
  117TMC2    C6 1821   3.967   1.792  14.290 -0.4843  0.2437  0.4477
  117TMC2     C 1822   3.633   1.618  14.096 -0.5852  0.5538 -0.1377
  117TMC2     O 1823   3.620   1.495  14.103 -0.5182 -0.5891 -0.4139
  117TMC2     H 1824   3.811   1.492  14.240  0.2076 -1.1940 -0.1758
  117TMC2    H1 1825   3.734   1.872  14.051 -1.3957  1.3645  2.8040
  117TMC2    H2 1826   4.033   1.842  14.359  1.0842 -0.0284 -0.8351
  117TMC2    C7 1827   3.920   2.010  14.170 -0.0215 -0.3169 -0.2087
  117TMC2    C8 1828   4.002   1.593  14.406 -0.0266 -0.8032 -0.0022
  117TMC2    O1 1829   3.829   2.086  14.143 -0.3150 -0.1307 -0.7396
  117TMC2    O2 1830   4.119   1.612  14.448 -0.0123  0.2703 -0.1159
  117TMC2    O5 1831   3.907   1.503  14.443 -0.5618 -0.4977 -0.2856
  117TMC2    H5 1832   3.814   1.533  14.429  0.1524  2.4539  1.2717
  118MPD2     C 1833   4.248   2.126  14.052 -0.3747  0.7318 -0.0413
  118MPD2    C1 1834   4.119   2.134  14.083 -0.5697  0.2228 -0.0464
  118MPD2    C2 1835   4.061   2.264  14.080  0.8332 -0.7274  0.7193
  118MPD2    C3 1836   4.128   2.367  14.014  0.9995 -0.1509 -0.3118
  118MPD2    C4 1837   4.257   2.350  13.972 -0.0087 -0.1194  0.7318
  118MPD2    C5 1838   4.317   2.231  13.999  0.2510 -0.3072 -0.3290
  118MPD2     H 1839   3.962   2.279  14.120  0.1202 -0.3075 -1.2159
  118MPD2    H1 1840   4.306   2.431  13.919  0.4653 -0.1475  1.1252
  118MPD2    H2 1841   4.292   2.027  14.041 -1.3936  0.2809 -0.0740
  118MPD2    H3 1842   4.415   2.205  13.960  1.4198  1.2764  1.5317
  118MPD2     N 1843   4.071   2.495  13.996 -0.1539 -0.1181 -0.3560
  118MPD2    H5 1844   4.131   2.571  13.968  0.5867 -1.1654 -1.6224
  118MPD2    N1 1845   4.054   2.021  14.136  0.0455 -0.5273 -0.9287
  118MPD2    H7 1846   4.108   1.935  14.147 -0.3524 -0.5956  0.4733
  119TMC2    C1 1847   1.788   2.928  13.365  0.4563 -0.3436  0.5561
  119TMC2    C2 1848   1.829   2.879  13.251  0.1582 -0.5187  0.2063
  119TMC2    C3 1849   1.741   2.824  13.166 -0.0747  0.0828 -0.0815
  119TMC2    C4 1850   1.664   2.897  13.417  0.0210 -0.2607 -0.4395
  119TMC2    C5 1851   1.575   2.846  13.325 -0.1657 -0.4283 -0.1672
  119TMC2    C6 1852   1.609   2.806  13.200  0.2394  0.5986  0.5219
  119TMC2     C 1853   1.868   3.020  13.442 -0.3138  1.0126 -0.4961
  119TMC2     O 1854   1.847   3.027  13.562 -0.3717 -0.0058 -0.4842
  119TMC2     H 1855   1.935   2.863  13.232  0.2030  1.2649 -1.1317
  119TMC2    H1 1856   1.637   2.948  13.509 -2.2688 -4.8543  1.4318
  119TMC2    H2 1857   1.540   2.743  13.145  0.4105  0.0030  0.9852
  119TMC2    C7 1858   1.445   2.817  13.369 -0.3673  0.2004  0.8150
  119TMC2    C8 1859   1.797   2.751  13.056 -0.2767  0.5037 -0.8385
  119TMC2    O1 1860   1.361   2.827  13.283  0.1774  0.6994  0.0923
  119TMC2    O2 1861   1.909   2.714  13.050 -0.0899 -0.3474 -0.3939
  119TMC2    O5 1862   1.718   2.744  12.944  0.2023  0.0809  0.1434
  119TMC2    H5 1863   1.639   2.802  12.946 -1.9449 -2.8155 -0.9013
  120MPD2     C 1864   2.299   3.274  13.491 -0.1952 -0.2276  0.2683
  120MPD2    C1 1865   2.202   3.242  13.586  0.6599 -0.1017 -0.0941
  120MPD2    C2 1866   2.082   3.188  13.541  0.3826  0.8326  0.1714
  120MPD2    C3 1867   2.062   3.165  13.412  0.2351 -0.2586 -0.6853
  120MPD2    C4 1868   2.149   3.209  13.319  0.8833 -0.4272 -0.4311
  120MPD2    C5 1869   2.273   3.259  13.358  0.4555 -0.1632 -0.1334
  120MPD2     H 1870   2.006   3.168  13.615 -1.9581 -0.8877 -2.7006
  120MPD2    H1 1871   2.131   3.183  13.216  1.2196 -1.4885 -0.2221
  120MPD2    H2 1872   2.390   3.326  13.518  0.6307 -2.6379  2.1113
  120MPD2    H3 1873   2.339   3.300  13.282  1.8049 -0.0211  1.1410
  120MPD2     N 1874   1.948   3.091  13.360 -0.3180  0.3736  0.0158
  120MPD2    H5 1875   1.930   3.079  13.260  0.7709 -0.9658 -0.0128
  120MPD2    N1 1876   2.226   3.279  13.722 -0.2073  0.1921  0.0905
  120MPD2    H7 1877   2.304   3.341  13.741 -0.1052 -0.0520  0.4804
  121TMC2    C1 1878   3.533   4.602  14.344  0.0380  0.0437  0.5290
  121TMC2    C2 1879   3.553   4.470  14.328  0.5218  0.0250 -0.1232
  121TMC2    C3 1880   3.462   4.400  14.254  0.4337  0.2702 -0.8535
  121TMC2    C4 1881   3.429   4.670  14.289 -0.3158  0.4661  0.5709
  121TMC2    C5 1882   3.330   4.593  14.236  0.3193  0.3042  1.1939
  121TMC2    C6 1883   3.347   4.460  14.213  0.1260  0.3777 -0.0400
  121TMC2     C 1884   3.659   4.679  14.327 -0.0166 -0.2234  0.0765
  121TMC2     O 1885   3.753   4.635  14.393 -0.1199  0.1434 -0.1082
  121TMC2     H 1886   3.642   4.417  14.361  0.3373  0.6338  1.3189
  121TMC2    H1 1887   3.420   0.042  14.298 -2.0066  0.3538  0.2259
  121TMC2    H2 1888   3.271   4.395  14.171  1.1634 -1.7272  1.3023
  121TMC2    C7 1889   3.194   4.636  14.231  0.6426  0.2172  0.1415
  121TMC2    C8 1890   3.486   4.258  14.243  0.1306 -0.7882  0.2563
  121TMC2    O1 1891   3.112   4.571  14.168 -0.2880  0.1449 -0.5062
  121TMC2    O2 1892   3.520   4.180  14.334  0.0635 -0.4683 -0.1736
  121TMC2    O5 1893   3.456   4.220  14.121 -0.1749 -0.7601 -0.0754
  121TMC2    H5 1894   3.452   4.293  14.055  2.3784  1.5981  2.3562
  122MPD2     C 1895   3.868   0.148  14.288 -0.5180 -0.0046 -0.0189
  122MPD2    C1 1896   3.773   0.115  14.192  0.5511 -0.2693  0.2791
  122MPD2    C2 1897   3.792   0.173  14.068 -0.1052  0.3754  0.4183
  122MPD2    C3 1898   3.892   0.268  14.044  0.0676  0.2446 -0.0821
  122MPD2    C4 1899   3.986   0.292  14.141 -0.1199  0.2664 -0.3295
  122MPD2    C5 1900   3.978   0.219  14.258  0.7782 -0.9777 -1.1355
  122MPD2     H 1901   3.711   0.164  13.997  0.5765 -0.1809 -0.2882
  122MPD2    H1 1902   4.074   0.349  14.115  0.8038 -0.6908  0.7541
  122MPD2    H2 1903   3.861   0.103  14.387 -0.8278 -0.3112 -0.1812
  122MPD2    H3 1904   4.046   0.245  14.338 -0.6505 -1.2975  0.1745
  122MPD2     N 1905   3.914   0.333  13.921  0.2001 -0.7068  0.2310
  122MPD2    H5 1906   3.994   0.393  13.904  0.7812 -1.5264  0.0485
  122MPD2    N1 1907   3.659   0.031  14.217  0.6183 -0.0519 -0.2121
  122MPD2    H7 1908   3.573   0.037  14.163 -0.1541 -2.3756  0.7621
  123TMC2    C1 1909   1.659   3.838  10.592 -0.3363 -0.2240 -0.7201
  123TMC2    C2 1910   1.755   3.911  10.651 -0.4301  0.1814  0.0955
  123TMC2    C3 1911   1.879   3.929  10.590  0.1056 -0.4835  0.6301
  123TMC2    C4 1912   1.689   3.789  10.466  0.0928  0.2629 -0.1792
  123TMC2    C5 1913   1.807   3.819  10.402 -0.3966 -1.0450  0.0888
  123TMC2    C6 1914   1.901   3.896  10.464  0.1643  0.1246  0.1153
  123TMC2     C 1915   1.578   3.766  10.683 -0.2700  0.7775  0.0671
  123TMC2     O 1916   1.556   3.817  10.792  0.0104  0.7987 -0.2254
  123TMC2     H 1917   1.738   3.958  10.747 -0.4832 -1.6181  0.9827
  123TMC2    H1 1918   1.611   3.735  10.414 -0.0074 -0.5608  0.8368
  123TMC2    H2 1919   1.998   3.918  10.422  1.1792 -1.0604  1.8516
  123TMC2    C7 1920   1.860   3.713  10.316  0.2040  0.9129  0.8481
  123TMC2    C8 1921   1.981   4.010  10.653 -0.3516  0.7306  0.1860
  123TMC2    O1 1922   1.773   3.627  10.280  0.2089  0.4611  0.3462
  123TMC2    O2 1923   2.053   4.088  10.588 -0.3810 -0.0123  0.1480
  123TMC2    O5 1924   1.977   4.007  10.789  0.8111 -0.0860  0.2694
  123TMC2    H5 1925   1.913   3.942  10.825 -0.8710  2.1622  1.3189
  124MPD2     C 1926   1.427   3.282  10.789 -0.0760  0.4557  0.6805
  124MPD2    C1 1927   1.423   3.296  10.652 -0.2691 -0.1296  0.4401
  124MPD2    C2 1928   1.460   3.422  10.606 -0.8356 -0.2635  0.9319
  124MPD2    C3 1929   1.502   3.529  10.684  0.2259  0.1225 -0.5493
  124MPD2    C4 1930   1.497   3.516  10.827  0.0282 -0.1100 -0.4387
  124MPD2    C5 1931   1.464   3.391  10.866 -0.5531  0.5383  0.1753
  124MPD2     H 1932   1.466   3.448  10.501  0.9428 -2.0666  0.5799
  124MPD2    H1 1933   1.528   3.593  10.896  0.6880 -0.5216 -0.2744
  124MPD2    H2 1934   1.400   3.191  10.841  0.3829  1.1467  2.1405
  124MPD2    H3 1935   1.458   3.375  10.973  0.5185  1.5534  0.3844
  124MPD2     N 1936   1.544   3.644  10.626 -0.0438 -0.1872  0.4505
  124MPD2    H5 1937   1.562   3.634  10.527 -0.2985  0.2437  0.3598
  124MPD2    N1 1938   1.385   3.192  10.563 -0.9799  0.1146 -0.3572
  124MPD2    H7 1939   1.378   3.098  10.600  1.2345  0.3218  0.6301
  125TMC2    C1 1940   2.758   1.375   9.492  0.8829  0.0333 -0.4579
  125TMC2    C2 1941   2.668   1.464   9.540  0.2045 -0.0579 -0.1391
  125TMC2    C3 1942   2.554   1.406   9.582 -0.3136 -0.0341 -0.3904
  125TMC2    C4 1943   2.744   1.237   9.491 -0.1826 -0.0427 -0.0549
  125TMC2    C5 1944   2.626   1.190   9.539  0.0332 -0.2046  0.2309
  125TMC2    C6 1945   2.531   1.269   9.588  0.0512 -0.2462 -0.2813
  125TMC2     C 1946   2.893   1.411   9.471  0.3382  0.2006 -0.5463
  125TMC2     O 1947   2.981   1.326   9.453 -0.4220 -0.1371 -0.0522
  125TMC2     H 1948   2.673   1.572   9.544  1.9986 -0.1141 -0.7833
  125TMC2    H1 1949   2.821   1.166   9.464  1.4821  0.5474  3.0943
  125TMC2    H2 1950   2.429   1.237   9.606 -0.0026  0.0937  0.0157
  125TMC2    C7 1951   2.598   1.047   9.541  0.4088  0.2246 -0.3776
  125TMC2    C8 1952   2.436   1.487   9.577  0.2554 -0.2763  0.0244
  125TMC2    O1 1953   2.485   1.015   9.585 -0.1454 -0.0629 -0.3163
  125TMC2    O2 1954   2.418   1.578   9.497 -0.1766  0.5949  0.2156
  125TMC2    O5 1955   2.345   1.430   9.655 -0.1545  0.5055  0.4335
  125TMC2    H5 1956   2.385   1.388   9.734  0.5986  0.8444  0.2308
  126MPD1     C 1957   3.229   1.771   9.326  0.1483  0.1339  0.0936
  126MPD1    C1 1958   3.111   1.830   9.359  0.3594 -0.7322  0.2028
  126MPD1    C2 1959   3.015   1.758   9.427 -0.7475 -0.0622  0.4570
  126MPD1    C3 1960   3.029   1.620   9.435  0.5742 -0.1870  0.1405
  126MPD1    C4 1961   3.146   1.558   9.401  0.6700 -0.1025  0.7194
  126MPD1    C5 1962   3.249   1.637   9.359 -0.0287 -0.0605 -0.2098
  126MPD1     H 1963   2.916   1.800   9.446 -1.0163 -1.3536  1.9621
  126MPD1    H1 1964   3.166   1.456   9.433  0.4519  0.6404  3.2524
  126MPD1    H2 1965   3.319   1.824   9.298  0.3526 -0.4279 -0.3226
  126MPD1    H3 1966   3.345   1.595   9.331 -0.1655 -0.6356  0.1759
  126MPD1     N 1967   2.907   1.547   9.464  0.0380 -0.4487 -0.1214
  126MPD1    H5 1968   2.839   1.612   9.501  1.1550 -0.0710  1.2631
  126MPD1    N1 1969   3.107   1.974   9.359  0.2746 -0.5503 -0.4072
  126MPD1    H6 1970   3.136   2.021   9.273 -1.0753  2.4464  0.7659
  126MPD1    H7 1971   3.015   2.013   9.376  0.3612 -0.5124 -0.0271
  127TMC2    C1 1972   3.365   3.571   9.694  0.2055  0.2941 -0.5802
  127TMC2    C2 1973   3.439   3.518   9.798 -0.8203 -0.2994 -0.2322
  127TMC2    C3 1974   3.366   3.473   9.906 -0.0585  0.4289 -0.2437
  127TMC2    C4 1975   3.226   3.576   9.699 -0.0802 -0.1542 -0.0911
  127TMC2    C5 1976   3.165   3.523   9.812 -0.0524 -0.5602 -0.2940
  127TMC2    C6 1977   3.230   3.472   9.916 -0.5188  0.0982  0.2996
  127TMC2     C 1978   3.442   3.648   9.598 -0.7981 -0.3558 -0.2753
  127TMC2     O 1979   3.563   3.662   9.613 -0.1181  0.5384  0.4022
  127TMC2     H 1980   3.542   3.546   9.811 -0.8824  0.2782 -0.9789
  127TMC2    H1 1981   3.164   3.616   9.619 -0.5186 -0.6504  0.0037
  127TMC2    H2 1982   3.180   3.443  10.008  0.6998  1.0846  1.2791
  127TMC2    C7 1983   3.021   3.548   9.820 -0.5752 -0.2960  0.0910
  127TMC2    C8 1984   3.445   3.430  10.011  0.0525 -0.0266 -0.2035
  127TMC2    O1 1985   2.976   3.637   9.748  0.5138 -0.3882 -0.9862
  127TMC2    O2 1986   3.565   3.446  10.009 -0.0873  0.2300 -0.3501
  127TMC2    O5 1987   3.375   3.388  10.110  0.5894  0.1351  0.2916
  127TMC2    H5 1988   3.296   3.343  10.073  0.9104  0.8823 -1.2988
  128MPD2     C 1989   3.323   3.813   9.294  0.0625 -0.6943 -0.1324
  128MPD2    C1 1990   3.413   3.796   9.401 -0.3782  0.0228  0.0528
  128MPD2    C2 1991   3.521   3.882   9.406  0.1347 -0.5230  0.0415
  128MPD2    C3 1992   3.535   3.989   9.321  0.0593 -0.0502 -0.0265
  128MPD2    C4 1993   3.446   4.007   9.224 -0.4662 -0.6537  0.3434
  128MPD2    C5 1994   3.341   3.918   9.209  0.6994 -0.0217  0.9601
  128MPD2     H 1995   3.590   3.864   9.488  2.4818  1.1495 -1.5656
  128MPD2    H1 1996   3.461   4.090   9.155 -1.3273 -0.2156  0.6901
  128MPD2    H2 1997   3.236   3.749   9.281  1.9201 -3.4671  1.0388
  128MPD2    H3 1998   3.270   3.942   9.130  0.0430  1.4096  1.9887
  128MPD2     N 1999   3.653   4.068   9.328  0.3359  0.4022 -0.2425
  128MPD2    H5 2000   3.711   4.035   9.404  0.4416  2.1463  0.4405
  128MPD2    N1 2001   3.371   3.698   9.496  0.0597 -0.3098 -0.2507
  128MPD2    H7 2002   3.278   3.660   9.482 -0.2211  0.1110  0.5118
  129TMC2    C1 2003   2.831   0.210   1.219  0.3246  0.6854 -0.2374
  129TMC2    C2 2004   2.746   0.317   1.244  0.4616  0.5317  0.1661
  129TMC2    C3 2005   2.633   0.300   1.313 -0.3026  0.3215 -0.7167
  129TMC2    C4 2006   2.796   0.085   1.253 -0.3433 -0.5190 -0.5401
  129TMC2    C5 2007   2.675   0.068   1.320  0.3597 -0.4544  0.2956
  129TMC2    C6 2008   2.592   0.175   1.355 -0.4303 -0.3732 -0.2671
  129TMC2     C 2009   2.933   0.222   1.116  0.0080 -0.3599  0.2572
  129TMC2     O 2010   2.978   0.128   1.054  0.5813  0.1958 -0.3754
  129TMC2     H 2011   2.765   0.417   1.207 -0.9865  1.4529  1.8910
  129TMC2    H1 2012   2.862   0.007   1.216  0.9080  0.4191 -0.2966
  129TMC2    H2 2013   2.510   0.161   1.424 -1.8403  2.3185 -1.3844
  129TMC2    C7 2014   2.630   4.674   1.356 -0.2347 -0.5166 -0.2748
  129TMC2    C8 2015   2.546   0.418   1.338 -0.3546  0.3070 -0.2633
  129TMC2    O1 2016   2.508   4.658   1.383  0.5542  0.3056  0.0204
  129TMC2    O2 2017   2.591   0.532   1.355  0.0897 -0.5054 -0.7431
  129TMC2    O5 2018   2.423   0.373   1.354  0.4894 -0.7847 -0.3193
  129TMC2    H5 2019   2.415   0.285   1.312 -0.0442 -0.1192 -1.5972
  130MPD2     C 2020   3.096   0.347   0.906 -0.3056 -0.7815  0.0831
  130MPD2    C1 2021   3.072   0.409   1.029  0.2942 -0.2694  0.5427
  130MPD2    C2 2022   3.107   0.541   1.056  0.2312  0.5839  0.2545
  130MPD2    C3 2023   3.157   0.613   0.946 -0.3022  0.0706 -0.7894
  130MPD2    C4 2024   3.179   0.558   0.822  0.2139  1.0947 -0.2184
  130MPD2    C5 2025   3.144   0.423   0.801 -0.1186 -0.0144 -0.2513
  130MPD2     H 2026   3.084   0.599   1.145 -0.0976  0.4659  0.2459
  130MPD2    H1 2027   3.213   0.601   0.728  0.2865  0.5505 -0.4401
  130MPD2    H2 2028   3.066   0.245   0.883  0.9902 -0.5062 -2.8836
  130MPD2    H3 2029   3.172   0.376   0.708  4.0216  0.6864  0.6560
  130MPD2     N 2030   3.179   0.747   0.973 -0.4568 -0.2003  0.5274
  130MPD2    H5 2031   3.159   0.781   1.067  0.3268  1.5912  0.0417
  130MPD2    N1 2032   2.984   0.350   1.119  0.1700 -0.0706 -0.0390
  130MPD2    H7 2033   2.961   0.404   1.202  0.1709 -1.4478  0.8469
  131TMC2    C1 2034   1.794   3.728   9.859 -0.3202  0.8225 -0.2555
  131TMC2    C2 2035   1.706   3.832   9.863 -0.4258 -0.1064 -0.0756
  131TMC2    C3 2036   1.752   3.962   9.841  0.6249 -0.6200 -0.1398
  131TMC2    C4 2037   1.928   3.744   9.853  0.2028 -0.4719  0.3262
  131TMC2    C5 2038   1.968   3.875   9.855  1.0057 -0.4997  0.6425
  131TMC2    C6 2039   1.888   3.984   9.842  0.2203 -0.5362 -0.3785
  131TMC2     C 2040   1.737   3.596   9.891 -0.2861  0.2861 -0.2684
  131TMC2     O 2041   1.638   3.598   9.967 -0.3141  0.1645 -0.1796
  131TMC2     H 2042   1.602   3.803   9.854 -1.2555  2.6394  0.7817
  131TMC2    H1 2043   1.998   3.661   9.849  1.6691  0.6949  1.5753
  131TMC2    H2 2044   1.927   4.083   9.821 -0.6380  0.1094  1.1429
  131TMC2    C7 2045   2.104   3.905   9.841  0.0361 -0.0068 -0.2556
  131TMC2    C8 2046   1.661   4.062   9.803 -0.4336 -0.1103  0.0291
  131TMC2    O1 2047   2.180   3.825   9.787  0.2031 -0.3825  0.4018
  131TMC2    O2 2048   1.680   4.178   9.837  0.3197 -0.1117 -0.2411
  131TMC2    O5 2049   1.547   4.012   9.765 -0.2120  0.0549 -0.2534
  131TMC2    H5 2050   1.548   3.923   9.724 -1.4199 -1.1662  2.2941
  132MPD2     C 2051   1.792   3.276   9.711 -0.4791  0.9304  0.0280
  132MPD2    C1 2052   1.744   3.359   9.808  0.3748  0.1921 -0.2725
  132MPD2    C2 2053   1.656   3.308   9.907  0.2182  1.0234  0.3145
  132MPD2    C3 2054   1.603   3.179   9.894  0.6474 -0.7815  0.1906
  132MPD2    C4 2055   1.634   3.107   9.779  0.8321  0.6766 -0.3381
  132MPD2    C5 2056   1.742   3.150   9.705 -0.2815 -0.5423  0.9079
  132MPD2     H 2057   1.634   3.354  10.003 -2.2108  0.5812 -0.0192
  132MPD2    H1 2058   1.602   3.005   9.759  1.3490 -0.0121  2.4499
  132MPD2    H2 2059   1.858   3.311   9.632  0.4169 -0.2692  0.2288
  132MPD2    H3 2060   1.760   3.092   9.616  0.2394  0.9049  0.0677
  132MPD2     N 2061   1.527   3.130  10.001 -0.2143  0.2934 -0.2445
  132MPD2    H5 2062   1.524   3.188  10.084  2.3627 -0.4374  0.3352
  132MPD2    N1 2063   1.786   3.497   9.807  0.3133 -0.0093 -0.5013
  132MPD2    H7 2064   1.849   3.532   9.736 -1.8440  1.9227 -1.4525
  133TMC2    C1 2065   1.281   0.332   9.910 -0.1764 -0.3538  0.3319
  133TMC2    C2 2066   1.409   0.378   9.916  0.4285 -0.2537 -0.7426
  133TMC2    C3 2067   1.436   0.477  10.006  0.4933  0.0042 -0.3155
  133TMC2    C4 2068   1.187   0.388   9.991  0.1570 -0.0306 -0.4104
  133TMC2    C5 2069   1.220   0.469  10.090 -0.1399  0.3485  0.6457
  133TMC2    C6 2070   1.345   0.519  10.098  0.1458  0.1679 -0.1696
  133TMC2     C 2071   1.250   0.214   9.829  0.4602 -0.0348 -0.4131
  133TMC2     O 2072   1.347   0.151   9.792  0.2040  0.3175  0.1212
  133TMC2     H 2073   1.493   0.349   9.854 -0.0030  1.4467 -2.1097
  133TMC2    H1 2074   1.082   0.360   9.986  0.6984 -2.1446 -0.0273
  133TMC2    H2 2075   1.368   0.596  10.170 -0.6539 -1.0101  1.3513
  133TMC2    C7 2076   1.110   0.544  10.150 -0.2134 -0.5764  0.4718
  133TMC2    C8 2077   1.568   0.459  10.064 -0.1868  0.4537 -0.2192
  133TMC2    O1 2078   1.000   0.543  10.097 -0.7730  0.6196  0.2980
  133TMC2    O2 2079   1.628   0.349  10.050 -0.6115  0.0506  0.4704
  133TMC2    O5 2080   1.584   0.550  10.168  0.2955  0.6686  0.3966
  133TMC2    H5 2081   1.520   0.622  10.149 -0.8402 -0.1645  1.0356
  134MPD2     C 2082   0.959   0.129   9.630  0.8790  0.3991  0.1711
  134MPD2    C1 2083   1.080   0.103   9.697 -0.7837 -0.0679 -0.3364
  134MPD2    C2 2084   1.147   4.716   9.680  0.5207 -0.1613 -0.5943
  134MPD2    C3 2085   1.099   4.624   9.584  0.6923 -0.2337  0.2632
  134MPD2    C4 2086   0.967   4.643   9.530 -0.0021 -0.1783  0.8042
  134MPD2    C5 2087   0.907   0.029   9.549  0.2851  0.2825  0.4410
  134MPD2     H 2088   1.241   4.700   9.731 -0.2320  0.1192  0.8886
  134MPD2    H1 2089   0.919   4.579   9.457  0.4340  0.3931  0.0145
  134MPD2    H2 2090   0.893   0.213   9.650  1.0898  0.5275  0.3235
  134MPD2    H3 2091   0.813   0.059   9.506 -1.2605 -0.0477  3.5859
  134MPD2     N 2092   1.168   4.506   9.547  0.3826 -0.3299  0.0671
  134MPD2    H5 2093   1.110   4.443   9.494 -1.1608 -0.1744  1.5952
  134MPD2    N1 2094   1.127   0.209   9.780  0.2289  0.5630 -0.1433
  134MPD2    H7 2095   1.061   0.284   9.796  0.8658  0.3748  3.3161
  135TMC2    C1 2096   3.144   0.523   9.780 -0.0589 -0.2759  0.8290
  135TMC2    C2 2097   3.171   0.387   9.771 -0.4146 -0.1561  0.7670
  135TMC2    C3 2098   3.125   0.313   9.880 -0.1287 -0.3100 -0.2072
  135TMC2    C4 2099   3.086   0.572   9.893  0.2921  0.1442  0.7902
  135TMC2    C5 2100   3.051   0.497  10.000 -0.7925 -0.4509  0.5667
  135TMC2    C6 2101   3.061   0.360   9.992  0.3558 -0.4315  0.3595
  135TMC2     C 2102   3.200   0.618   9.680 -0.0168  0.0629 -0.8601
  135TMC2     O 2103   3.182   0.737   9.687 -0.4806 -0.0222 -0.0367
  135TMC2     H 2104   3.226   0.337   9.692  0.7390 -0.2974  1.6543
  135TMC2    H1 2105   3.083   0.678   9.914 -1.7918 -0.2270  2.3534
  135TMC2    H2 2106   3.026   0.294  10.071  0.3487 -1.6943 -0.7019
  135TMC2    C7 2107   2.972   0.560  10.105 -0.5075 -0.3176 -0.5765
  135TMC2    C8 2108   3.154   0.168   9.870  0.4449  0.2791 -0.7888
  135TMC2    O1 2109   2.952   0.682  10.101 -0.5254  0.5633  0.1008
  135TMC2    O2 2110   3.180   0.107   9.765 -0.4394 -0.1381  0.2393
  135TMC2    O5 2111   3.150   0.108   9.988 -0.6099 -0.5948 -0.7123
  135TMC2    H5 2112   3.156   0.179  10.056 -0.0863 -1.4901  0.1931
  136MPD2     C 2113   3.312   0.736   9.423 -0.3339 -0.2859  0.5652
  136MPD2    C1 2114   3.358   0.620   9.483 -0.6920 -0.4661 -0.7808
  136MPD2    C2 2115   3.474   0.561   9.425  0.3023 -0.5465  0.0501
  136MPD2    C3 2116   3.539   0.623   9.318  0.2729 -0.2215  0.0137
  136MPD2    C4 2117   3.485   0.738   9.266  0.3666  0.1818  0.4960
  136MPD2    C5 2118   3.378   0.796   9.318  0.4211 -0.6213 -0.7113
  136MPD2     H 2119   3.512   0.466   9.458  0.5310 -0.8153 -0.9803
  136MPD2    H1 2120   3.538   0.799   9.193  0.9207 -0.9387 -0.0381
  136MPD2    H2 2121   3.222   0.788   9.455  0.1829  0.2083  1.2162
  136MPD2    H3 2122   3.346   0.893   9.281  1.3132 -1.3051 -3.2997
  136MPD2     N 2123   3.652   0.565   9.258 -0.4667  0.0376 -0.0392
  136MPD2    H5 2124   3.675   0.602   9.166 -1.6018  0.6373 -0.0844
  136MPD2    N1 2125   3.286   0.556   9.587 -0.4693  0.0027  0.3787
  136MPD2    H7 2126   3.313   0.460   9.604 -3.0679 -0.3383  2.5195
  137TMC2    C1 2127   3.084   4.620   9.459  0.0161  0.7818 -0.2246
  137TMC2    C2 2128   3.118   4.645   9.329 -0.0438 -0.3633  0.9217
  137TMC2    C3 2129   3.080   0.025   9.271 -0.3307  0.2743  0.0779
  137TMC2    C4 2130   3.008   4.711   9.523  0.6462 -0.3849  0.4275
  137TMC2    C5 2131   2.971   0.095   9.462 -0.2504 -0.2370  0.2417
  137TMC2    C6 2132   3.007   0.124   9.333  0.0014  0.7243 -0.8249
  137TMC2     C 2133   3.091   4.492   9.521 -0.1209 -0.2429  0.9185
  137TMC2     O 2134   3.120   4.482   9.636  0.1851 -0.0640  0.3171
  137TMC2     H 2135   3.181   4.582   9.267  0.6423  1.1976  0.0053
  137TMC2    H1 2136   2.996   4.702   9.631 -1.5736 -1.4428  0.1021
  137TMC2    H2 2137   2.979   0.217   9.285  0.8175  0.8112 -1.1327
  137TMC2    C7 2138   2.929   0.210   9.541 -0.5058 -0.4091  0.2898
  137TMC2    C8 2139   3.127   0.058   9.139  0.1532 -0.1237  0.2770
  137TMC2    O1 2140   2.947   0.320   9.490  0.3811  0.1834 -0.7828
  137TMC2    O2 2141   3.230   0.014   9.100  0.5832 -0.2056  0.1334
  137TMC2    O5 2142   3.024   0.106   9.064  0.3253 -0.4394  0.0761
  137TMC2    H5 2143   2.941   0.102   9.117 -1.2180 -0.7958 -2.3804
  138MPD2     C 2144   2.846   4.259   9.374 -0.6769 -0.6163  0.1535
  138MPD2    C1 2145   2.945   4.295   9.464  0.0731  0.2687 -0.9961
  138MPD2    C2 2146   2.957   4.223   9.583  0.3572  0.8913  0.1938
  138MPD2    C3 2147   2.872   4.114   9.613  0.0725 -0.1304 -0.2019
  138MPD2    C4 2148   2.773   4.082   9.525 -0.1453 -0.6028  0.2505
  138MPD2    C5 2149   2.765   4.149   9.407 -0.5474 -1.0148 -0.1823
  138MPD2     H 2150   3.025   4.265   9.656  1.3881  1.5747 -1.1763
  138MPD2    H1 2151   2.708   3.996   9.536 -0.5885 -0.3583 -0.4680
  138MPD2    H2 2152   2.829   4.312   9.280 -2.7816  0.1043  0.9336
  138MPD2    H3 2153   2.684   4.119   9.342  1.1472 -1.5019 -2.0654
  138MPD2     N 2154   2.884   4.053   9.739  0.0604  0.7386 -0.0131
  138MPD2    H5 2155   2.952   4.096   9.800  2.2939  0.2126 -2.0980
  138MPD2    N1 2156   3.020   4.411   9.433 -0.3584 -0.4723 -0.2211
  138MPD2    H7 2157   3.003   4.461   9.346  0.8011 -2.3334 -1.5274
  139TMC2    C1 2158   3.669   2.819  13.331 -0.3621  0.0246  0.9094
  139TMC2    C2 2159   3.719   2.787  13.211  0.1048 -0.3120  0.0187
  139TMC2    C3 2160   3.645   2.765  13.104  0.2706  0.2952  0.6015
  139TMC2    C4 2161   3.538   2.852  13.342 -0.0599  0.1742 -0.2175
  139TMC2    C5 2162   3.466   2.838  13.233  0.0859  1.2547  0.2210
  139TMC2    C6 2163   3.512   2.795  13.116  0.2062  0.4353 -0.6232
  139TMC2     C 2164   3.757   2.861  13.436  0.2347  0.6090  0.3201
  139TMC2     O 2165   3.861   2.911  13.397  0.2681  0.4236 -0.2652
  139TMC2     H 2166   3.826   2.767  13.211 -0.0127 -0.8807 -1.4467
  139TMC2    H1 2167   3.498   2.894  13.433 -2.3096 -0.5099 -0.8616
  139TMC2    H2 2168   3.443   2.788  13.032 -2.7894  0.7282  1.8355
  139TMC2    C7 2169   3.324   2.869  13.247 -0.3305 -0.1128 -0.4483
  139TMC2    C8 2170   3.698   2.729  12.984 -0.7308 -0.0803 -0.4043
  139TMC2    O1 2171   3.296   2.948  13.335 -0.4880  0.0408  0.4382
  139TMC2    O2 2172   3.664   2.767  12.873 -0.0992  0.2702 -0.3352
  139TMC2    O5 2173   3.793   2.638  13.008 -0.2978 -0.1106 -0.7241
  139TMC2    H5 2174   3.780   2.598  13.096  0.3721  2.7171  0.6651
  140MPD2     C 2175   3.537   2.759  13.715  1.0256  0.1287  0.5507
  140MPD2    C1 2176   3.612   2.740  13.601 -0.2286 -0.1395  0.0941
  140MPD2    C2 2177   3.600   2.617  13.543 -0.0327 -0.2365  0.1524
  140MPD2    C3 2178   3.502   2.527  13.580 -0.1463  0.0263 -0.4897
  140MPD2    C4 2179   3.417   2.553  13.691 -0.5453 -0.3324  0.5743
  140MPD2    C5 2180   3.438   2.670  13.762 -0.4801  0.8768  0.9952
  140MPD2     H 2181   3.666   2.594  13.460  0.2815  3.3937 -0.6158
  140MPD2    H1 2182   3.332   2.490  13.716  1.4259 -3.7894 -1.3268
  140MPD2    H2 2183   3.556   2.843  13.781  0.9450 -0.5591  1.4615
  140MPD2    H3 2184   3.374   2.703  13.843 -1.5512 -1.9172  1.2802
  140MPD2     N 2185   3.500   2.413  13.508  0.0898 -0.1428 -0.1596
  140MPD2    H5 2186   3.567   2.396  13.433 -0.6475 -2.1626 -0.3619
  140MPD2    N1 2187   3.702   2.841  13.565 -0.0414 -0.2574  0.3996
  140MPD2    H7 2188   3.719   2.902  13.644 -0.9079  3.2330 -2.1018
  141TMC2    C1 2189   4.000   3.614  14.208 -0.0099  1.1141  0.5490
  141TMC2    C2 2190   3.895   3.527  14.199 -0.5536 -0.3059  0.3789
  141TMC2    C3 2191   3.805   3.526  14.301  0.3586 -0.6332 -0.6913
  141TMC2    C4 2192   4.008   3.707  14.310  0.8665 -0.2340  0.1812
  141TMC2    C5 2193   3.921   3.700  14.413 -0.5377 -0.2724 -0.5271
  141TMC2    C6 2194   3.825   3.601  14.414  0.1174  0.0712 -0.3067
  141TMC2     C 2195   4.038   3.664  14.073 -0.0731 -0.2895 -0.0736
  141TMC2     O 2196   4.058   3.781  14.057  1.2290 -0.4365  0.4089
  141TMC2     H 2197   3.886   3.465  14.111  0.0816 -1.5762  1.2023
  141TMC2    H1 2198   4.075   3.793  14.305 -0.8615  1.0480 -0.7741
  141TMC2    H2 2199   3.751   3.607  14.492 -2.3438  0.5147 -2.6623
  141TMC2    C7 2200   3.876   3.828  14.470  0.3511  0.9390  0.0213
  141TMC2    C8 2201   3.759   3.392  14.333  0.0918  0.2986  0.0122
  141TMC2    O1 2202   3.758   3.860  14.462  0.4039 -0.3965 -0.0174
  141TMC2    O2 2203   3.747   3.319  14.240  0.0439 -0.1271  0.0394
  141TMC2    O5 2204   3.832   3.362  14.442  0.5093  0.2029 -0.3150
  141TMC2    H5 2205   3.898   3.430  14.467 -0.3377  0.5696  0.9218
  142TMC2    C1 2206   1.886   2.891   9.972 -0.7413 -0.3122  0.1220
  142TMC2    C2 2207   1.974   2.853   9.877  0.1608 -0.0961 -0.8092
  142TMC2    C3 2208   2.057   2.949   9.822  0.0403  0.5263 -0.3817
  142TMC2    C4 2209   1.873   3.023  10.009 -0.8030  0.2994  0.6264
  142TMC2    C5 2210   1.968   3.116   9.953  0.0960  0.5100 -0.4015
  142TMC2    C6 2211   2.062   3.079   9.862  0.1671  0.1120  0.6011
  142TMC2     C 2212   1.822   2.782  10.047 -0.3614  0.2395  0.0194
  142TMC2     O 2213   1.816   2.675   9.988 -0.0954  0.1020 -0.2181
  142TMC2     H 2214   1.989   2.749   9.852 -0.9473 -0.6206  0.7804
  142TMC2    H1 2215   1.796   3.048  10.081 -0.7728  1.2723  0.3174
  142TMC2    H2 2216   2.123   3.160   9.824 -0.3842  0.4281  0.3782
  142TMC2    C7 2217   1.981   3.237  10.032 -0.5584  0.3604 -0.3811
  142TMC2    C8 2218   2.137   2.914   9.711 -0.2054  0.5777  0.4198
  142TMC2    O1 2219   1.911   3.252  10.132  0.5352  0.8522 -0.3228
  142TMC2    O2 2220   2.229   2.982   9.670 -0.5699  0.4521  0.5580
  142TMC2    O5 2221   2.075   2.822   9.636 -0.1464  0.3629  0.1859
  142TMC2    H5 2222   1.983   2.814   9.668 -0.7917  1.5225 -1.3620
  143MPD2     C 2223   1.623   2.583  10.475 -0.4571 -0.4212  0.3736
  143MPD2    C1 2224   1.596   2.547  10.343  1.1587 -0.7514  0.2392
  143MPD2    C2 2225   1.657   2.623  10.239 -0.9999  0.3497 -0.0963
  143MPD2    C3 2226   1.735   2.734  10.269  0.3702 -0.5475 -1.7624
  143MPD2    C4 2227   1.755   2.770  10.407 -0.1823 -0.1858  0.2135
  143MPD2    C5 2228   1.690   2.698  10.503 -0.5227  0.1198  0.0822
  143MPD2     H 2229   1.644   2.599  10.134 -0.2815 -0.8637  0.0947
  143MPD2    H1 2230   1.796   2.868  10.429 -1.6284  0.6465 -0.8023
  143MPD2    H2 2231   1.575   2.538  10.561  1.8341 -2.4664  0.5828
  143MPD2    H3 2232   1.702   2.726  10.607 -0.1697 -0.3005  0.1546
  143MPD2     N 2233   1.802   2.819  10.174 -0.3096  0.2056 -0.1738
  143MPD2    H5 2234   1.853   2.900  10.208 -0.3059  0.1624 -0.0755
  143MPD2    N1 2235   1.513   2.427  10.326  0.3670 -0.0749  0.4564
  143MPD2    H7 2236   1.482   2.381  10.411 -1.1656  3.4328  1.7989
  144TMC2    C1 2237   0.056   2.213   0.781 -0.6058 -0.1242  0.4633
  144TMC2    C2 2238   0.106   2.079   0.799  0.3746  0.0581  0.1447
  144TMC2    C3 2239   0.227   2.061   0.861  0.0130  0.4098  0.3887
  144TMC2    C4 2240   0.126   2.320   0.818 -0.2397  0.7876  0.1836
  144TMC2    C5 2241   0.251   2.293   0.875  0.1659  0.0509 -0.4203
  144TMC2    C6 2242   0.302   2.164   0.901 -0.2158 -0.7343  0.0074
  144TMC2     C 2243   4.657   2.227   0.740 -0.3891 -0.1131  0.1434
  144TMC2     O 2244   4.603   2.128   0.688 -0.2172  0.2143 -0.7457
  144TMC2     H 2245   0.048   1.988   0.788 -0.3916  0.3228  1.9609
  144TMC2    H1 2246   0.102   2.420   0.783 -0.5111  0.1181 -1.5447
  144TMC2    H2 2247   0.403   2.135   0.927 -0.1604 -0.7084 -0.1788
  144TMC2    C7 2248   0.349   2.393   0.916  0.1555 -0.1490 -0.5603
  144TMC2    C8 2249   0.263   1.927   0.901  0.1621 -0.1198  0.4789
  144TMC2    O1 2250   0.461   2.351   0.943  0.2178  0.0498  0.6137
  144TMC2    O2 2251   0.200   1.830   0.865 -0.3868  0.4065  0.2965
  144TMC2    O5 2252   0.306   1.943   1.026  0.7496  0.4074  0.0089
  144TMC2    H5 2253   0.336   2.034   1.047 -1.7904  0.9475  1.4254
  145MPD2     C 2254   4.225   2.474   0.658 -0.4081 -0.6169  0.7615
  145MPD2    C1 2255   4.256   2.344   0.624  0.2859  0.0195 -0.1843
  145MPD2    C2 2256   4.378   2.298   0.676 -0.1707 -0.4594  0.1990
  145MPD2    C3 2257   4.476   2.387   0.732  0.1904  0.3458  0.4935
  145MPD2    C4 2258   4.439   2.512   0.755  0.1565  0.3475  0.9734
  145MPD2    C5 2259   4.317   2.556   0.721 -0.2564 -0.6465  0.1375
  145MPD2     H 2260   4.396   2.191   0.671 -1.8051 -0.8581  2.9515
  145MPD2    H1 2261   4.509   2.591   0.783  1.9915 -0.7569 -0.4619
  145MPD2    H2 2262   4.138   2.528   0.621 -0.3402 -0.2779  1.0970
  145MPD2    H3 2263   4.287   2.660   0.735  0.8958 -0.1202 -1.2661
  145MPD2     N 2264   4.611   2.349   0.767  0.0481  0.3848 -0.3943
  145MPD2    H5 2265   4.673   2.417   0.810  1.3529 -0.3819 -1.0696
  145MPD2    N1 2266   4.180   2.268   0.538  0.2266  0.0267  0.4344
  145MPD2    H7 2267   4.207   2.171   0.525 -0.3421 -0.4097  2.6297
  146TMC2    C1 2268   0.840   0.455  12.507 -0.1873  0.1622  0.3255
  146TMC2    C2 2269   0.740   0.545  12.482 -0.0755 -0.0090 -0.4834
  146TMC2    C3 2270   0.717   0.591  12.356  0.0464  0.3869 -0.2350
  146TMC2    C4 2271   0.930   0.422  12.410  0.1406  0.3008 -0.0521
  146TMC2    C5 2272   0.909   0.470  12.284  0.1149  0.2503 -0.4737
  146TMC2    C6 2273   0.800   0.550  12.252  0.3390 -0.4954 -0.3350
  146TMC2     C 2274   0.892   0.435  12.637 -0.1827  0.7512 -0.1572
  146TMC2     O 2275   0.961   0.334  12.657  0.1992 -0.0439  0.6413
  146TMC2     H 2276   0.676   0.589  12.557  0.9752 -2.6523  1.9725
  146TMC2    H1 2277   1.004   0.344  12.426  1.7600  1.3717 -2.3848
  146TMC2    H2 2278   0.785   0.576  12.148  1.2928 -4.0681 -1.3926
  146TMC2    C7 2279   1.019   0.483  12.195 -0.3452 -0.1248  0.2286
  146TMC2    C8 2280   0.584   0.639  12.328  0.5121  0.1578  0.1764
  146TMC2    O1 2281   1.005   0.496  12.072 -0.0219 -0.4264  0.5589
  146TMC2    O2 2282   0.512   0.710  12.402  0.1127  0.3099 -0.1490
  146TMC2    O5 2283   0.538   0.584  12.212 -0.0409  0.2502  0.7537
  146TMC2    H5 2284   0.601   0.519  12.173 -0.9994 -0.0642 -0.2585
  147MPD2     C 2285   1.531   0.466  12.179  0.4076  0.2729  0.0664
  147MPD2    C1 2286   1.492   0.454  12.308  0.2627  0.3135  0.3372
  147MPD2    C2 2287   1.354   0.464  12.336 -0.5438  0.7652 -0.3416
  147MPD2    C3 2288   1.262   0.476  12.232  0.5179 -0.3444  0.0761
  147MPD2    C4 2289   1.306   0.477  12.100 -0.9098 -0.5197  0.5762
  147MPD2    C5 2290   1.443   0.473  12.073  0.0975  0.4247 -0.3696
  147MPD2     H 2291   1.306   0.456  12.433 -0.9144  1.0123 -0.5056
  147MPD2    H1 2292   1.234   0.480  12.019 -0.4711  2.4652  0.3104
  147MPD2    H2 2293   1.634   0.464  12.145  0.5932 -0.6576  0.6700
  147MPD2    H3 2294   1.486   0.487  11.974 -3.3999 -1.5977 -2.1581
  147MPD2     N 2295   1.133   0.478  12.273  0.9518 -0.7984  0.4203
  147MPD2    H5 2296   1.119   0.469  12.373 -2.0561  0.2878  0.1005
  147MPD2    N1 2297   1.595   0.439  12.405  0.1395 -0.0177  0.5121
  147MPD2    H7 2298   1.689   0.414  12.375  0.3492 -0.6759  1.6904
  148TMC2    C1 2299   1.233   4.119  10.674 -0.3965  0.4057  0.8650
  148TMC2    C2 2300   1.334   4.167  10.751 -0.6878  0.2133  0.3992
  148TMC2    C3 2301   1.351   4.099  10.866 -0.1153 -0.1373 -0.4093
  148TMC2    C4 2302   1.167   4.000  10.704  0.2744  0.3730 -0.1728
  148TMC2    C5 2303   1.204   3.930  10.814  1.0094 -0.2610  0.6281
  148TMC2    C6 2304   1.289   3.982  10.904  0.3093 -0.3221  0.4235
  148TMC2     C 2305   1.221   4.187  10.538  0.2868  0.5991 -0.5415
  148TMC2     O 2306   1.239   4.307  10.527  0.1343  0.4948  0.0598
  148TMC2     H 2307   1.405   4.240  10.714 -0.5802  1.1463  2.4306
  148TMC2    H1 2308   1.101   3.952  10.634 -0.4717  0.0658  0.7377
  148TMC2    H2 2309   1.328   3.921  10.985  0.5239 -0.6900  0.0435
  148TMC2    C7 2310   1.166   3.784  10.815  0.4300  0.3506  0.2836
  148TMC2    C8 2311   1.478   4.126  10.925 -0.1891  0.4936  0.0382
  148TMC2    O1 2312   1.071   3.764  10.737  0.1111  0.1163  0.1225
  148TMC2    O2 2313   1.566   4.189  10.872 -0.1765  0.2706 -1.0319
  148TMC2    O5 2314   1.460   4.113  11.058  0.1003  0.0848  0.1853
  148TMC2    H5 2315   1.371   4.081  11.081 -0.0688 -0.0530 -0.6665
  149MPD2     C 2316   1.064   4.263  10.295 -0.2311  0.1003  0.4929
  149MPD2    C1 2317   1.112   4.137  10.318  0.5239  0.1105  0.2864
  149MPD2    C2 2318   1.070   4.038  10.229 -0.8317 -0.5262 -0.0781
  149MPD2    C3 2319   0.982   4.059  10.125 -0.2209 -0.2022  0.5831
  149MPD2    C4 2320   0.942   4.193  10.096 -0.2681  0.0202  0.8487
  149MPD2    C5 2321   0.990   4.289  10.186 -0.2219  0.6782 -0.1945
  149MPD2     H 2322   1.098   3.933  10.237  1.0365 -0.0021  0.2661
  149MPD2    H1 2323   0.877   4.223  10.016  2.2111  3.4027  0.0873
  149MPD2    H2 2324   1.101   4.351  10.347  3.1369 -0.1104 -1.5397
  149MPD2    H3 2325   0.971   4.394  10.166  1.0139  0.8736 -0.3009
  149MPD2     N 2326   0.936   3.956  10.036 -0.0700  0.7189 -0.5834
  149MPD2    H5 2327   0.872   3.986   9.963 -0.4218  2.8130  0.5758
  149MPD2    N1 2328   1.185   4.095  10.440  0.2386 -0.4050 -0.0603
  149MPD2    H7 2329   1.205   3.997  10.456 -0.7497 -0.5436  0.2892
  150TMC2    C1 2330   3.344   3.611  12.254  0.2776 -0.1867  0.1840
  150TMC2    C2 2331   3.307   3.717  12.171  0.0069 -1.1087 -0.5945
  150TMC2    C3 2332   3.399   3.823  12.151 -0.0665  0.9015 -0.0299
  150TMC2    C4 2333   3.475   3.605  12.299 -0.4927  0.2314  0.6947
  150TMC2    C5 2334   3.562   3.711  12.284  0.0603 -0.3361 -0.3319
  150TMC2    C6 2335   3.524   3.819  12.208  0.6568  0.6811 -0.0896
  150TMC2     C 2336   3.289   3.480  12.219 -0.3095 -1.2309  0.6550
  150TMC2     O 2337   3.369   3.389  12.220 -0.4084 -0.2292 -0.4607
  150TMC2     H 2338   3.219   3.713  12.108  0.9576 -2.0864 -1.8714
  150TMC2    H1 2339   3.507   3.520  12.359  1.6342  0.3501 -0.2876
  150TMC2    H2 2340   3.608   3.881  12.178  1.0895 -1.5219 -3.4069
  150TMC2    C7 2341   3.705   3.687  12.279 -0.0237 -0.4270 -0.3589
  150TMC2    C8 2342   3.380   3.895  12.028  1.0960 -0.6400 -0.4109
  150TMC2    O1 2343   3.791   3.773  12.305  0.1855  0.5959  0.6070
  150TMC2    O2 2344   3.323   3.842  11.937 -0.1314 -0.3389 -0.2896
  150TMC2    O5 2345   3.477   3.985  12.015 -0.0044 -0.0118  0.2595
  150TMC2    H5 2346   3.517   4.020  12.098  1.0455  1.0152 -0.6710
  151MPD2     C 2347   2.923   3.129  12.156  0.1553  0.4627 -0.8060
  151MPD2    C1 2348   2.864   3.254  12.170  0.6393  0.4239  0.2105
  151MPD2    C2 2349   2.938   3.363  12.207 -0.1978 -0.5140 -0.1066
  151MPD2    C3 2350   3.079   3.356  12.196  0.6103 -0.4140 -0.0235
  151MPD2    C4 2351   3.141   3.231  12.168 -0.2419 -0.8216 -0.1808
  151MPD2    C5 2352   3.061   3.117  12.153 -0.5118 -0.3213 -0.0080
  151MPD2     H 2353   2.893   3.456  12.240  0.7368  0.8290 -2.5844
  151MPD2    H1 2354   3.249   3.225  12.171 -0.1747  0.7449  0.5281
  151MPD2    H2 2355   2.868   3.036  12.140  1.0924 -0.3097  0.5357
  151MPD2    H3 2356   3.109   3.021  12.142  0.5145  0.4286 -2.0181
  151MPD2     N 2357   3.153   3.476  12.213  0.3628 -0.0475  0.5843
  151MPD2    H5 2358   3.097   3.561  12.219  0.7285  0.0531  2.3703
  151MPD2    N1 2359   2.725   3.257  12.151 -0.1581 -0.3826  0.6573
  151MPD2    H7 2360   2.670   3.176  12.122 -1.4063  0.9699 -0.7751
  152TMC2    C1 2361   3.106   3.187  12.537  0.2042 -0.0387 -0.8227
  152TMC2    C2 2362   3.172   3.080  12.484 -0.1105 -0.0577 -0.4081
  152TMC2    C3 2363   3.306   3.081  12.472  0.4531  0.0098 -0.1322
  152TMC2    C4 2364   3.179   3.296  12.580  0.7920  0.0110  0.6572
  152TMC2    C5 2365   3.316   3.292  12.574  0.0125  0.5584  0.4758
  152TMC2    C6 2366   3.376   3.189  12.510 -0.3935 -0.0647  0.0206
  152TMC2     C 2367   2.958   3.197  12.538 -0.4592  0.0312 -0.5416
  152TMC2     O 2368   2.908   3.300  12.581 -0.4321  0.5373 -0.1402
  152TMC2     H 2369   3.121   2.996  12.438  0.1658 -1.0434  1.0739
  152TMC2    H1 2370   3.130   3.380  12.629 -0.7928 -0.9267  0.7042
  152TMC2    H2 2371   3.484   3.188  12.499 -0.2949  1.3611  0.9893
  152TMC2    C7 2372   3.386   3.416  12.588  0.3005  0.1973 -0.4661
  152TMC2    C8 2373   3.367   2.953  12.431 -0.0278  0.6252  1.1378
  152TMC2    O1 2374   3.331   3.522  12.573 -0.5056  0.2457  0.5226
  152TMC2    O2 2375   3.309   2.869  12.363 -0.1218  0.0720  1.0827
  152TMC2    O5 2376   3.461   2.927  12.524 -0.3648  0.4154 -0.0572
  152TMC2    H5 2377   3.485   3.009  12.572 -0.9464  0.9332 -0.6469
  153MPD2     C 2378   2.690   2.973  12.396  0.1208  0.2979  0.5089
  153MPD2    C1 2379   2.746   3.087  12.465 -0.4502 -0.4208  0.3193
  153MPD2    C2 2380   2.658   3.178  12.526 -0.3097 -0.1947 -0.3947
  153MPD2    C3 2381   2.520   3.179  12.494  0.5231 -0.1159  0.6864
  153MPD2    C4 2382   2.476   3.078  12.410 -0.6343 -0.7795 -1.0426
  153MPD2    C5 2383   2.556   2.976  12.369  0.6923 -0.3800  0.5846
  153MPD2     H 2384   2.683   3.254  12.599  2.4621 -1.3610 -0.1291
  153MPD2    H1 2385   2.369   3.073  12.389 -1.0221  0.9417  0.5489
  153MPD2    H2 2386   2.752   2.896  12.352 -0.8101  0.2470 -0.6855
  153MPD2    H3 2387   2.514   2.892  12.315  0.5407  1.2669 -1.8641
  153MPD2     N 2388   2.428   3.273  12.548 -0.1795 -0.8131  0.2603
  153MPD2    H5 2389   2.464   3.354  12.600 -0.2694  1.2421 -2.8874
  153MPD2    N1 2390   2.890   3.094  12.482 -0.1866  0.2376 -0.1371
  153MPD2    H7 2391   2.946   3.017  12.446  1.0946  1.0938  0.0244
  154TMC2    C1 2392   0.113   3.784   0.848 -0.2909  0.0281 -0.6623
  154TMC2    C2 2393   0.206   3.805   0.950  0.3560  0.1117 -0.3477
  154TMC2    C3 2394   0.322   3.732   0.946  0.9230  0.0598 -0.2141
  154TMC2    C4 2395   0.127   3.687   0.755  0.0837 -0.1240  0.5969
  154TMC2    C5 2396   0.252   3.631   0.747 -0.1036 -0.2581  0.3067
  154TMC2    C6 2397   0.352   3.654   0.839 -0.5857  0.2255 -0.3245
  154TMC2     C 2398   4.721   3.851   0.863 -0.1735  0.1494  0.3851
  154TMC2     O 2399   4.695   3.921   0.961 -0.2822 -0.6387  0.3520
  154TMC2     H 2400   0.185   3.870   1.035  0.3553  0.4746 -0.6224
  154TMC2    H1 2401   0.052   3.655   0.683 -1.1205  3.1428  0.3870
  154TMC2    H2 2402   0.435   3.585   0.848 -0.5263  0.5231  1.3756
  154TMC2    C7 2403   0.269   3.532   0.642 -0.5741 -0.5702  0.8123
  154TMC2    C8 2404   0.427   3.785   1.033  0.9386 -0.5193 -0.3959
  154TMC2    O1 2405   0.162   3.491   0.602 -0.5432  0.1838 -0.4150
  154TMC2    O2 2406   0.397   3.847   1.138  0.5717  0.5291 -0.2558
  154TMC2    O5 2407   0.533   3.815   0.957 -0.2202 -0.6204  0.0257
  154TMC2    H5 2408   0.526   3.750   0.884  0.2898  0.1412 -0.6942
  155MPD2     C 2409   4.463   3.867   0.606 -0.4001 -1.2795  0.0200
  155MPD2    C1 2410   4.512   3.881   0.732 -0.9769  0.0370 -0.7279
  155MPD2    C2 2411   4.437   3.947   0.828  0.4727 -0.2738 -0.1107
  155MPD2    C3 2412   4.316   4.012   0.794 -0.1957 -0.2269  0.0352
  155MPD2    C4 2413   4.270   3.996   0.659 -0.1577 -0.0699 -0.1850
  155MPD2    C5 2414   4.347   3.918   0.569 -0.2878  0.3731  0.3485
  155MPD2     H 2415   4.465   3.959   0.932  0.2753 -1.0844  0.0340
  155MPD2    H1 2416   4.176   4.034   0.620 -0.4570  0.9700  1.5676
  155MPD2    H2 2417   4.519   3.822   0.524 -0.0669  2.4290 -1.8379
  155MPD2    H3 2418   4.322   3.919   0.464  1.0479  0.7772  0.0402
  155MPD2     N 2419   4.222   4.060   0.893  0.3917  0.1778 -0.2221
  155MPD2    H5 2420   4.249   4.046   0.990 -0.7312  1.6750  0.3016
  155MPD2    N1 2421   4.646   3.840   0.751 -1.0806 -0.5106  0.0638
  155MPD2    H7 2422   4.686   3.788   0.674 -0.5854  1.4059 -0.9664
  156TMC2    C1 2423   3.783   0.218  12.260 -0.4744 -0.6236  0.4571
  156TMC2    C2 2424   3.833   0.095  12.283 -0.4680 -0.7564 -0.1922
  156TMC2    C3 2425   3.931   0.056  12.195  0.1038 -0.1593  0.2652
  156TMC2    C4 2426   3.819   0.298  12.154 -0.0878  0.4749  0.5112
  156TMC2    C5 2427   3.925   0.251  12.074  0.6046 -0.0541 -0.5477
  156TMC2    C6 2428   3.987   0.135  12.099 -0.1227 -0.3670 -0.1392
  156TMC2     C 2429   3.686   0.269  12.351  0.4470  0.7233  0.8032
  156TMC2     O 2430   3.624   0.365  12.306 -0.8840 -0.2815  0.5555
  156TMC2     H 2431   3.790   0.024  12.353 -1.6257  0.9624  0.8267
  156TMC2    H1 2432   3.780   0.398  12.142  0.5757  0.7057  0.2587
  156TMC2    H2 2433   4.068   0.095  12.039 -0.0098 -1.6926  0.8764
  156TMC2    C7 2434   3.961   0.318  11.952  0.3642 -0.5855  0.2089
  156TMC2    C8 2435   3.962   4.650  12.197 -0.1471 -0.3647 -0.0714
  156TMC2    O1 2436   4.059   0.270  11.902  0.7012 -0.1912  0.6681
  156TMC2    O2 2437   3.994   4.591  12.096  0.4644 -0.5771 -0.1652
  156TMC2    O5 2438   4.020   4.628  12.319  0.6659 -0.2552 -0.3951
  156TMC2    H5 2439   4.016   4.709  12.375 -0.2095 -0.8282  0.3725
  157MPD2     C 2440   3.581   0.114  12.664 -0.2519  0.4656  0.1619
  157MPD2    C1 2441   3.581   0.213  12.568 -0.4552  0.3973  0.2244
  157MPD2    C2 2442   3.495   0.322  12.575 -0.0425 -0.0462  0.1547
  157MPD2    C3 2443   3.406   0.332  12.680 -0.7582 -0.6639  0.1898
  157MPD2    C4 2444   3.401   0.224  12.769 -0.2875 -0.1068 -0.2021
  157MPD2    C5 2445   3.492   0.122  12.764  0.1498  0.1370  0.0137
  157MPD2     H 2446   3.510   0.403  12.505 -1.4216 -0.6921 -0.8943
  157MPD2    H1 2447   3.336   0.218  12.856  0.0383 -0.3621  0.0283
  157MPD2    H2 2448   3.649   0.030  12.667 -0.7465  0.0802  0.7028
  157MPD2    H3 2449   3.494   0.042  12.837 -0.3963 -0.3214 -0.4688
  157MPD2     N 2450   3.321   0.445  12.679 -1.0717 -0.3630  0.0693
  157MPD2    H5 2451   3.354   0.506  12.605  0.3534  0.0167  1.0203
  157MPD2    N1 2452   3.680   0.197  12.464 -0.7466 -0.0431  0.2709
  157MPD2    H7 2453   3.743   0.119  12.478  0.3416  0.8484  0.3247
  158TMC2    C1 2454   3.390   3.860  13.588  0.1749  1.1091 -0.3482
  158TMC2    C2 2455   3.425   3.986  13.540  0.7049  0.0351 -1.1934
  158TMC2    C3 2456   3.333   4.084  13.522 -0.7440  0.3345 -0.1806
  158TMC2    C4 2457   3.260   3.825  13.624 -0.7944  0.0571 -0.6610
  158TMC2    C5 2458   3.172   3.929  13.595 -0.0956  0.1396 -0.0495
  158TMC2    C6 2459   3.204   4.051  13.547 -1.3323  0.1504  0.7503
  158TMC2     C 2460   3.503   3.780  13.624 -0.1079 -0.5808  0.7383
  158TMC2     O 2461   3.610   3.803  13.575 -0.1072 -0.6842  0.0859
  158TMC2     H 2462   3.531   4.005  13.527  0.9790 -0.9597 -0.4307
  158TMC2    H1 2463   3.237   3.723  13.653 -3.2205  0.8518  0.1571
  158TMC2    H2 2464   3.128   4.128  13.543 -0.7272  0.6770 -0.5877
  158TMC2    C7 2465   3.025   3.908  13.612 -0.2562 -0.2851  0.3729
  158TMC2    C8 2466   3.373   4.218  13.487  0.4609  0.0766 -0.5019
  158TMC2    O1 2467   2.946   3.989  13.572 -0.1749 -0.1234 -0.5866
  158TMC2    O2 2468   3.288   4.299  13.449  0.5704  0.2101 -0.0786
  158TMC2    O5 2469   3.466   4.253  13.578  0.0903  0.4209 -0.7622
  158TMC2    H5 2470   3.488   4.186  13.647  2.2839 -0.5214 -2.3885
  159MPD2     C 2471   3.718   3.396  13.879  0.4782 -0.0402  0.2491
  159MPD2    C1 2472   3.585   3.401  13.904 -0.2694 -0.2319  0.8256
  159MPD2    C2 2473   3.512   3.499  13.847 -0.2035 -0.4387 -0.0678
  159MPD2    C3 2474   3.566   3.594  13.766 -0.0988  0.7928  0.3889
  159MPD2    C4 2475   3.699   3.589  13.737 -0.8418 -0.0563  0.0379
  159MPD2    C5 2476   3.777   3.492  13.803 -0.3244 -0.6300 -0.1677
  159MPD2     H 2477   3.406   3.508  13.871  0.2478  2.0533  0.9923
  159MPD2    H1 2478   3.753   3.650  13.665 -2.2111  0.1021 -0.8641
  159MPD2    H2 2479   3.790   3.332  13.927 -0.8284 -2.4566 -1.0452
  159MPD2    H3 2480   3.884   3.484  13.783  0.5207  1.9717  3.2342
  159MPD2     N 2481   3.474   3.689  13.720 -0.8648  0.4071  0.2455
  159MPD2    H5 2482   3.384   3.667  13.761 -0.1143 -1.0944  1.0808
  159MPD2    N1 2483   3.526   3.295  13.977 -0.3942 -0.3084  0.1112
  159MPD2    H7 2484   3.594   3.227  14.011  0.4900  1.0176  0.9676
  160TMC2    C1 2485   3.317   2.740   1.319 -0.4268  0.1626 -0.0479
  160TMC2    C2 2486   3.375   2.736   1.441  0.4499  0.1448  0.6624
  160TMC2    C3 2487   3.509   2.749   1.436  0.6127  0.1123  0.9807
  160TMC2    C4 2488   3.385   2.767   1.202  0.2941 -0.3675 -0.6721
  160TMC2    C5 2489   3.517   2.769   1.204  0.5144 -0.0344 -0.1494
  160TMC2    C6 2490   3.578   2.765   1.323  0.1387 -0.7854 -1.7315
  160TMC2     C 2491   3.172   2.725   1.309 -0.2962  0.0264 -0.3486
  160TMC2     O 2492   3.115   2.646   1.381 -0.1479  0.1239  0.1425
  160TMC2     H 2493   3.322   2.729   1.535  1.0327 -1.5036  0.8722
  160TMC2    H1 2494   3.335   2.766   1.105  1.0894 -0.4246 -1.0775
  160TMC2    H2 2495   3.686   2.779   1.322 -0.2648  2.6225  1.8433
  160TMC2    C7 2496   3.582   2.807   1.080 -0.7340 -0.1763  0.0221
  160TMC2    C8 2497   3.578   2.804   1.552 -0.4389  0.8103  0.2977
  160TMC2    O1 2498   3.542   2.754   0.978  0.4420  0.0387 -0.1633
  160TMC2    O2 2499   3.676   2.876   1.528  0.2741 -0.3396 -0.4173
  160TMC2    O5 2500   3.495   2.810   1.658 -0.0342  0.3065 -0.3563
  160TMC2    H5 2501   3.456   2.720   1.651  1.1504 -0.3735  1.8636
  161MPD2     C 2502   2.893   2.735   1.203  0.1409  0.0909  0.3637
  161MPD2    C1 2503   2.990   2.834   1.182 -0.5442  0.0572 -0.4047
  161MPD2    C2 2504   2.961   2.963   1.132  0.3870 -0.3757  0.0131
  161MPD2    C3 2505   2.837   2.983   1.083 -0.4280 -0.6964 -0.1570
  161MPD2    C4 2506   2.748   2.879   1.085  0.1855  0.0388 -0.6379
  161MPD2    C5 2507   2.774   2.761   1.143  0.0244  0.2663  0.3962
  161MPD2     H 2508   3.042   3.034   1.129 -1.9872  2.1874 -2.5252
  161MPD2    H1 2509   2.654   2.903   1.035 -0.2928 -1.5029 -0.4845
  161MPD2    H2 2510   2.908   2.645   1.262  0.1770 -0.1446 -0.0010
  161MPD2    H3 2511   2.710   2.674   1.141 -0.3313  0.5407 -0.4360
  161MPD2     N 2512   2.794   3.107   1.029 -0.2717  1.4753  0.0570
  161MPD2    H5 2513   2.698   3.115   0.996  0.8726  0.2297 -3.6586
  161MPD2    N1 2514   3.124   2.814   1.216  0.1351  0.0175  0.1201
  161MPD2    H7 2515   3.191   2.885   1.187  1.3534 -1.7964 -1.4929
  162TMC2    C1 2516   1.815   0.317   1.288  0.2331 -0.4167 -0.0473
  162TMC2    C2 2517   1.783   0.426   1.360  0.7517  0.8253 -0.6005
  162TMC2    C3 2518   1.683   0.405   1.456 -0.8696  0.0446  0.4585
  162TMC2    C4 2519   1.754   0.195   1.294 -0.2213 -0.6227  0.9909
  162TMC2    C5 2520   1.661   0.181   1.394  0.5568  0.1129 -1.0602
  162TMC2    C6 2521   1.629   0.283   1.476  0.4956 -0.4045 -0.4728
  162TMC2     C 2522   1.908   0.350   1.184 -0.1192  0.4045  0.3161
  162TMC2     O 2523   1.990   0.437   1.211  0.0963 -0.3798 -0.6832
  162TMC2     H 2524   1.829   0.523   1.348  3.2343 -0.3970 -1.1022
  162TMC2    H1 2525   1.781   0.111   1.231  0.5758  2.1157 -2.3606
  162TMC2    H2 2526   1.570   0.271   1.566  0.4662 -2.1731 -0.7099
  162TMC2    C7 2527   1.593   0.051   1.414 -0.1915 -0.1909 -0.1623
  162TMC2    C8 2528   1.667   0.507   1.560 -0.0121 -0.5365  0.3488
  162TMC2    O1 2529   1.486   0.071   1.475 -0.2009  0.3087  0.2637
  162TMC2    O2 2530   1.760   0.576   1.601 -0.5219 -0.3417  0.4855
  162TMC2    O5 2531   1.539   0.546   1.544 -0.1510 -0.0555  0.6744
  162TMC2    H5 2532   1.502   0.487   1.475  3.1715 -1.1845 -0.1296
  163MPD2     C 2533   2.116   0.232   0.734 -0.3038  0.2312 -0.4509
  163MPD2    C1 2534   1.976   0.212   0.724  1.3365 -0.0374 -0.2436
  163MPD2    C2 2535   1.902   0.240   0.835  0.4744 -0.3879 -0.2688
  163MPD2    C3 2536   1.962   0.287   0.949  0.4945 -0.3238 -0.2780
  163MPD2    C4 2537   2.093   0.314   0.956 -0.1145  1.5287  0.2091
  163MPD2    C5 2538   2.174   0.295   0.849  0.2785  0.3232  0.0884
  163MPD2     H 2539   1.794   0.227   0.840  0.2295  2.4866  2.0324
  163MPD2    H1 2540   2.133   0.343   1.053  2.4102  1.4104 -0.7943
  163MPD2    H2 2541   2.191   0.220   0.657  0.9885 -0.5381  0.9360
  163MPD2    H3 2542   2.279   0.306   0.869  0.7884 -1.6237 -1.4672
  163MPD2     N 2543   1.879   0.290   1.062  0.1781  0.7015  0.4977
  163MPD2    H5 2544   1.794   0.236   1.057  0.3832  0.2690  1.7194
  163MPD2    N1 2545   1.934   0.162   0.600  0.0555  0.0435  0.4356
  163MPD2    H7 2546   2.005   0.146   0.529 -0.1001 -0.8009  0.4766
  164TMC2    C1 2547   1.669   3.478  11.213 -0.8219  0.4806 -0.0415
  164TMC2    C2 2548   1.734   3.536  11.106 -0.2487 -0.0272  0.1910
  164TMC2    C3 2549   1.726   3.666  11.078  0.5565 -0.6594  0.3323
  164TMC2    C4 2550   1.579   3.555  11.290  0.2185  0.4702 -0.1115
  164TMC2    C5 2551   1.572   3.688  11.255  0.6208  0.9823 -0.6417
  164TMC2    C6 2552   1.637   3.749  11.150  0.1043 -0.3621  0.0389
  164TMC2     C 2553   1.634   3.339  11.217  0.1717 -0.3530 -0.9775
  164TMC2     O 2554   1.531   3.302  11.271  0.4773 -0.0644  0.0507
  164TMC2     H 2555   1.806   3.479  11.049 -0.8582  0.2057 -0.8321
  164TMC2    H1 2556   1.503   3.517  11.356  1.9656  0.7758  2.0879
  164TMC2    H2 2557   1.611   3.848  11.114 -1.8197 -0.6341  0.7101
  164TMC2    C7 2558   1.444   3.745  11.263 -0.1152  0.0421 -0.0333
  164TMC2    C8 2559   1.782   3.712  10.951  0.6986 -0.1244 -0.0658
  164TMC2    O1 2560   1.393   3.789  11.160  0.6276  0.1887  0.3281
  164TMC2    O2 2561   1.803   3.642  10.855  0.0558  0.0956 -0.6867
  164TMC2    O5 2562   1.835   3.832  10.979  0.2435  0.2643  0.1409
  164TMC2    H5 2563   1.822   3.861  11.072  0.1734 -0.5776  0.3965
  165TMC2    C1 2564   2.926   2.343   0.912 -0.3734 -0.7689 -0.2698
  165TMC2    C2 2565   2.936   2.328   0.775  0.0639 -0.8928  0.2528
  165TMC2    C3 2566   3.056   2.330   0.713 -0.2893 -0.4392  0.2687
  165TMC2    C4 2567   3.040   2.368   0.986 -0.0433  0.1924  0.8820
  165TMC2    C5 2568   3.157   2.382   0.918 -0.4712  0.0201 -0.0423
  165TMC2    C6 2569   3.163   2.352   0.782 -0.7744  0.3315  0.4540
  165TMC2     C 2570   2.807   2.305   0.988  0.5083  0.1995 -0.1738
  165TMC2     O 2571   2.836   2.281   1.105  0.2916  0.2401 -0.2655
  165TMC2     H 2572   2.854   2.305   0.708 -0.4853  0.5626  0.4315
  165TMC2    H1 2573   3.034   2.376   1.093  1.6380 -2.2785  1.1636
  165TMC2    H2 2574   3.255   2.368   0.727  0.4453 -2.2715  1.7468
  165TMC2    C7 2575   3.282   2.378   0.989 -0.0106 -0.0007 -0.3825
  165TMC2    C8 2576   3.054   2.339   0.567 -0.0044 -0.3694 -0.5147
  165TMC2    O1 2577   3.386   2.365   0.927  0.3746 -0.0843 -0.4818
  165TMC2    O2 2578   3.056   2.247   0.486 -0.1927  0.2810  0.1980
  165TMC2    O5 2579   2.996   2.455   0.542  0.1164  0.1138 -0.6784
  165TMC2    H5 2580   2.992   2.517   0.618 -1.2364  1.5883 -1.9752
  166MPD2     C 2581   2.325   2.157   1.052 -0.4190 -0.2508  0.2774
  166MPD2    C1 2582   2.441   2.115   1.121  0.3477 -0.2522  0.4091
  166MPD2    C2 2583   2.554   2.183   1.088 -0.1392 -0.8904  0.0450
  166MPD2    C3 2584   2.563   2.266   0.978  0.1106 -0.5458 -0.3731
  166MPD2    C4 2585   2.448   2.299   0.918  0.8649  0.1918 -0.1625
  166MPD2    C5 2586   2.327   2.257   0.960 -0.2044  0.3020  0.5510
  166MPD2     H 2587   2.647   2.151   1.133 -0.1696 -1.0872 -0.0306
  166MPD2    H1 2588   2.441   2.368   0.834  0.5652 -0.7143 -0.8893
  166MPD2    H2 2589   2.229   2.123   1.091 -1.2578  1.3140 -0.4352
  166MPD2    H3 2590   2.235   2.287   0.910  0.4855  1.3601 -0.0785
  166MPD2     N 2591   2.689   2.307   0.918 -0.0909 -0.0839 -0.4120
  166MPD2    H5 2592   2.683   2.356   0.830 -0.2368  2.8955  1.2456
  166MPD2    N1 2593   2.435   2.005   1.212 -0.5312  0.0576 -0.0145
  166MPD2    H7 2594   2.346   1.958   1.209 -1.5330  1.8934  0.7424
  167TMC2    C1 2595   0.957   3.709  12.743  0.1097  0.0242 -0.4846
  167TMC2    C2 2596   0.903   3.724  12.873 -0.3744  0.6658 -0.0205
  167TMC2    C3 2597   0.862   3.613  12.941  0.4450  0.0493 -0.0935
  167TMC2    C4 2598   0.983   3.586  12.689  0.5096 -0.0371  0.7361
  167TMC2    C5 2599   0.941   3.475  12.765 -0.1125 -0.5062 -0.8252
  167TMC2    C6 2600   0.872   3.488  12.888 -0.0637 -0.3146  0.5003
  167TMC2     C 2601   1.038   3.811  12.674 -0.2705  0.1172 -0.1161
  167TMC2     O 2602   1.133   3.766  12.617  0.1953  0.3755  0.1169
  167TMC2     H 2603   0.886   3.827  12.901  0.3729  0.2105  2.1481
  167TMC2    H1 2604   1.026   3.585  12.590  0.7234  2.1688  0.8149
  167TMC2    H2 2605   0.830   3.402  12.939 -1.4367 -0.4319 -0.8011
  167TMC2    C7 2606   0.946   3.344  12.705  0.6313 -0.6948 -0.0448
  167TMC2    C8 2607   0.769   3.630  13.056 -0.0750 -0.3440 -0.2545
  167TMC2    O1 2608   0.859   3.272  12.752 -0.0579  0.3008  0.3470
  167TMC2    O2 2609   0.688   3.544  13.088 -0.2225 -0.1337 -0.0366
  167TMC2    O5 2610   0.759   3.757  13.091  0.3563 -0.6952  0.2220
  167TMC2    H5 2611   0.833   3.810  13.055 -1.4303  0.4098 -1.8611
  168MPD2     C 2612   0.955   4.149  12.566 -0.7135  0.1893 -0.0578
  168MPD2    C1 2613   1.008   4.025  12.559 -0.5426  0.1833  0.5630
  168MPD2    C2 2614   1.093   4.000  12.449 -0.7352  0.1799  0.0659
  168MPD2    C3 2615   1.099   4.075  12.340  0.8146  0.3009 -0.3514
  168MPD2    C4 2616   1.034   4.196  12.342  0.0286 -0.1145 -0.7353
  168MPD2    C5 2617   0.967   4.235  12.461 -0.1758  0.7543  0.0504
  168MPD2     H 2618   1.150   3.908  12.442 -2.1460 -0.8771  2.3914
  168MPD2    H1 2619   1.033   4.257  12.252  1.0891  0.2378 -0.5014
  168MPD2    H2 2620   0.892   4.181  12.648 -1.2744 -0.5942 -0.1832
  168MPD2    H3 2621   0.918   4.332  12.461  0.8072  1.2324  1.4455
  168MPD2     N 2622   1.165   4.018  12.228  0.0017 -0.1978 -0.4211
  168MPD2    H5 2623   1.183   3.918  12.234  1.7323  0.3135  2.8793
  168MPD2    N1 2624   0.982   3.936  12.670  0.1200  0.2836  0.0541
  168MPD2    H7 2625   0.900   3.958  12.726 -0.2378  0.1983 -0.4319
  169MPD1     C 2626   2.491   4.012   9.199 -0.1766 -0.5026 -0.4327
  169MPD1    C1 2627   2.588   3.925   9.158  0.0035 -0.5081  1.2229
  169MPD1    C2 2628   2.609   3.810   9.228 -0.0424 -0.0489 -0.8780
  169MPD1    C3 2629   2.544   3.788   9.348 -0.0240  0.2834  0.0095
  169MPD1    C4 2630   2.451   3.880   9.395  0.7238  0.5764  0.7198
  169MPD1    C5 2631   2.430   3.991   9.313  0.1695 -0.4537  0.1690
  169MPD1     H 2632   2.689   3.748   9.190  0.3048  0.2333 -0.6112
  169MPD1    H1 2633   2.387   3.863   9.481  0.0769 -1.4256 -0.1457
  169MPD1    H2 2634   2.473   4.103   9.143 -0.0890  1.0480  2.0735
  169MPD1    H3 2635   2.354   4.062   9.344 -1.4648 -1.9984 -0.2651
  169MPD1     N 2636   2.578   3.667   9.416  0.3402  0.5704 -0.5548
  169MPD1    H5 2637   2.648   3.604   9.379  1.6070  2.4778 -1.4337
  169MPD1    N1 2638   2.657   3.940   9.038 -0.0887  0.2151  0.2224
  169MPD1    H6 2639   2.652   4.037   9.010  0.9797 -0.2860 -1.6672
  169MPD1    H7 2640   2.752   3.904   9.053 -1.1363 -2.5522  0.3016
  170MPD1     C 2641   2.070   0.868  13.335  0.3501  0.8508 -0.2035
  170MPD1    C1 2642   2.019   0.875  13.461  0.1086 -0.2123 -0.5110
  170MPD1    C2 2643   1.977   0.992  13.512  0.2749  0.0721  0.3883
  170MPD1    C3 2644   1.966   1.104  13.437  0.1535  0.5538  0.2106
  170MPD1    C4 2645   2.008   1.097  13.299 -0.1479  0.5974  0.5546
  170MPD1    C5 2646   2.064   0.980  13.259 -0.5129  0.2559 -0.1789
  170MPD1     H 2647   1.937   0.997  13.613 -1.5058 -0.5494 -0.2911
  170MPD1    H1 2648   2.004   1.173  13.222 -1.7274 -0.7299 -0.6572
  170MPD1    H2 2649   2.121   0.782  13.292  0.5334  1.8123 -1.9061
  170MPD1    H3 2650   2.100   0.977  13.156 -1.2424  1.8446 -0.4848
  170MPD1     N 2651   1.925   1.230  13.495  0.1839  0.2081 -0.3750
  170MPD1    H5 2652   1.893   1.231  13.591  1.6472  0.1287  0.1068
  170MPD1    N1 2653   2.023   0.763  13.541 -0.2055 -0.5753  0.0178
  170MPD1    H6 2654   2.007   0.682  13.481  0.7733 -1.7756  1.3871
  170MPD1    H7 2655   1.956   0.764  13.617 -1.0812 -0.4393 -0.7468
  171MPD1     C 2656   0.874   2.713  15.261 -0.0731  0.4303 -0.0750
  171MPD1    C1 2657   0.877   2.583  15.213  0.1954  0.2082 -0.0851
  171MPD1    C2 2658   0.920   2.481  15.289 -0.1634  0.0189  0.1721
  171MPD1    C3 2659   0.939   2.497  15.429  0.1337  0.2796  0.1266
  171MPD1    C4 2660   0.938   2.628  15.474  0.4340  0.1631  0.2219
  171MPD1    C5 2661   0.912   2.738  15.392 -0.2442 -0.0967  0.0189
  171MPD1     H 2662   0.927   2.380  15.250 -2.0165  0.4338 -1.1985
  171MPD1    H1 2663   0.951   2.638  15.581  2.1033  0.2243  0.0077
  171MPD1    H2 2664   0.854   2.804  15.205 -3.1853 -0.6690 -0.7790
  171MPD1    H3 2665   0.917   2.836  15.437 -0.9213 -0.1901  0.2994
  171MPD1     N 2666   0.950   2.395  15.522  0.3017 -0.4697  0.5879
  171MPD1    H5 2667   0.986   2.419  15.614  2.8399 -1.0310 -0.2662
  171MPD1    N1 2668   0.863   2.565  15.075 -0.0985 -0.1113  0.1982
  171MPD1    H6 2669   0.805   2.640  15.037  0.9870  0.2521 -0.7493
  171MPD1    H7 2670   0.836   2.471  15.049  1.4319 -0.2869 -0.7304
  172MPD1     C 2671   4.234   1.599   0.009 -0.5973  0.2465  1.1557
  172MPD1    C1 2672   4.206   1.651   0.132 -0.2835 -0.0922 -0.0458
  172MPD1    C2 2673   4.294   1.743   0.191  0.1007  0.0925 -0.3750
  172MPD1    C3 2674   4.409   1.780   0.124  0.6478 -0.2009 -0.4521
  172MPD1    C4 2675   4.439   1.721   0.008 -0.1714  0.0260 -0.5503
  172MPD1    C5 2676   4.353   1.632  17.686  0.4071 -0.6805  0.0819
  172MPD1     H 2677   4.268   1.795   0.282 -0.3268  0.6196 -0.8007
  172MPD1    H1 2678   4.519   1.758  17.687  1.4341  1.0671  2.0892
  172MPD1    H2 2679   4.162   1.540  17.696  1.4028 -1.5233  0.4620
  172MPD1    H3 2680   4.383   1.576  17.598 -1.3051  0.4609 -1.2206
  172MPD1     N 2681   4.502   1.881   0.161 -0.1351 -0.1905  0.0982
  172MPD1    H5 2682   4.580   1.894   0.099  0.2624  0.0468  0.6483
  172MPD1    N1 2683   4.081   1.628   0.191 -0.1301 -1.0706 -0.2030
  172MPD1    H6 2684   4.079   1.652   0.290  1.3154  1.0928 -0.6998
  172MPD1    H7 2685   4.047   1.533   0.184  0.9846 -1.6219  1.9380
  173MPD1     C 2686   0.967   2.014  13.989  0.6678 -0.2239 -0.2070
  173MPD1    C1 2687   0.898   1.978  14.098 -0.7764 -0.3819 -0.6844
  173MPD1    C2 2688   0.913   1.852  14.138  0.0601  0.7896  0.1385
  173MPD1    C3 2689   0.974   1.758  14.053  0.1796 -0.1183  0.0589
  173MPD1    C4 2690   1.029   1.793  13.934 -0.7800  0.3022 -0.2434
  173MPD1    C5 2691   1.028   1.932  13.903  0.0780  0.5099 -0.3080
  173MPD1     H 2692   0.874   1.820  14.233  1.2161  0.6745  0.5768
  173MPD1    H1 2693   1.076   1.724  13.864 -2.7278  0.3404 -1.5927
  173MPD1    H2 2694   0.981   2.118  13.962 -1.9644 -0.0438 -0.9419
  173MPD1    H3 2695   1.080   1.974  13.818 -1.7098  0.0354 -1.6334
  173MPD1     N 2696   0.990   1.625  14.107  0.2435 -1.0389 -0.0655
  173MPD1    H5 2697   0.959   1.622  14.203 -0.2884 -4.6578 -0.3468
  173MPD1    N1 2698   0.840   2.081  14.179 -0.1002 -0.1823 -0.0445
  173MPD1    H6 2699   0.809   2.154  14.115 -1.7992 -2.2569 -1.5744
  173MPD1    H7 2700   0.759   2.053  14.234  0.2827  1.4588  1.3406
  174MPD1     C 2701   1.553   0.694  14.223 -0.3054  0.4051 -0.3123
  174MPD1    C1 2702   1.586   0.820  14.178 -0.0030  0.2161 -0.6042
  174MPD1    C2 2703   1.488   0.914  14.179 -0.1149  0.4095  0.2757
  174MPD1    C3 2704   1.356   0.883  14.202  0.0555 -0.0431  0.2582
  174MPD1    C4 2705   1.318   0.753  14.235 -0.2887  0.1519  0.2567
  174MPD1    C5 2706   1.418   0.659  14.236  0.1329  0.0908 -0.2119
  174MPD1     H 2707   1.518   1.017  14.162  1.1516 -0.2241 -1.2816
  174MPD1    H1 2708   1.218   0.712  14.232 -0.8148  1.5402 -1.2561
  174MPD1    H2 2709   1.632   0.622  14.238 -1.3779 -0.5215  0.8446
  174MPD1    H3 2710   1.387   0.556  14.249 -0.6715  0.5605  1.6560
  174MPD1     N 2711   1.255   0.979  14.206  0.8954 -0.1911  0.4561
  174MPD1    H5 2712   1.172   0.944  14.252  0.9889  0.5480  1.1770
  174MPD1    N1 2713   1.722   0.862  14.156 -0.2769  0.2670  0.0255
  174MPD1    H6 2714   1.727   0.949  14.103 -1.5768  0.5940  0.4538
  174MPD1    H7 2715   1.765   0.789  14.099 -2.2326  0.3069 -1.4894
  175MPD1     C 2716   0.284   2.269  15.452 -0.2851  0.2846 -0.1949
  175MPD1    C1 2717   0.188   2.367  15.436 -0.0919 -0.4544 -0.0199
  175MPD1    C2 2718   0.137   2.421  15.555 -0.1349 -0.1696  0.2461
  175MPD1    C3 2719   0.184   2.387  15.678 -0.4403  0.6456 -0.1436
  175MPD1    C4 2720   0.295   2.305  15.682 -0.3926 -0.0731 -0.0171
  175MPD1    C5 2721   0.344   2.244  15.570 -0.3119  0.7174  0.4566
  175MPD1     H 2722   0.043   2.473  15.544 -1.0453 -2.3550 -2.3297
  175MPD1    H1 2723   0.333   2.265  15.775  2.7567 -0.2508 -1.3770
  175MPD1    H2 2724   0.306   2.202  15.370 -0.5595  0.8999 -0.7757
  175MPD1    H3 2725   0.424   2.172  15.585 -0.3892  0.2759 -1.2436
  175MPD1     N 2726   0.129   2.436  15.798  0.0085 -0.4400  0.4995
  175MPD1    H5 2727   0.177   2.412  15.884  1.3599  1.1303  0.1875
  175MPD1    N1 2728   0.117   2.382  15.310 -0.0515 -0.0927  0.0695
  175MPD1    H6 2729   0.169   2.358  15.225  0.3290  1.5445 -0.1621
  175MPD1    H7 2730   0.072   2.473  15.302  1.0887  0.3440 -1.3980
  176MPD1     C 2731   1.571   4.660  16.566  0.4454  0.0033  0.0029
  176MPD1    C1 2732   1.480   4.580  16.633  0.0292  0.8023 -0.1006
  176MPD1    C2 2733   1.436   4.625  16.753 -0.4789 -0.1716 -0.9408
  176MPD1    C3 2734   1.485   0.014  16.802 -0.4489 -0.2459 -0.5137
  176MPD1    C4 2735   1.575   0.086  16.729 -0.9568  0.2068  0.8552
  176MPD1    C5 2736   1.612   0.043  16.608 -0.0944 -0.0400  0.1421
  176MPD1     H 2737   1.375   4.565  16.819  0.6914 -1.5126 -1.0693
  176MPD1    H1 2738   1.616   0.178  16.768 -2.2436  2.1494 -2.3986
  176MPD1    H2 2739   1.600   4.622  16.469  1.5910  0.3455  0.2062
  176MPD1    H3 2740   1.672   0.102  16.539  1.2169  1.0120  2.1942
  176MPD1     N 2741   1.442   0.062  16.925  0.1196  0.7576 -0.4876
  176MPD1    H5 2742   1.375   0.000  16.971  1.8956 -1.8493 -1.4122
  176MPD1    N1 2743   1.415   4.467  16.571 -0.8330  0.4079  0.1898
  176MPD1    H6 2744   1.383   4.389  16.629  0.4281 -1.1285 -1.1896
  176MPD1    H7 2745   1.470   4.430  16.494 -0.4307 -0.2413  0.7813
  177MPD1     C 2746   4.285   3.790   9.770  0.7661  0.1188  0.5532
  177MPD1    C1 2747   4.154   3.774   9.736  0.2211  0.1084 -0.5179
  177MPD1    C2 2748   4.089   3.883   9.685 -0.0707  0.9125 -0.0278
  177MPD1    C3 2749   4.162   3.975   9.615  0.6353  0.7767 -0.4469
  177MPD1    C4 2750   4.297   3.992   9.638  0.3020  0.0589 -0.5079
  177MPD1    C5 2751   4.359   3.902   9.728 -0.5747 -0.1565  0.8615
  177MPD1     H 2752   3.981   3.881   9.675  0.0134  0.9635 -1.0263
  177MPD1    H1 2753   4.369   4.062   9.597  0.2204 -0.5739 -1.7420
  177MPD1    H2 2754   4.338   3.707   9.814  1.8960  0.1559 -0.7660
  177MPD1    H3 2755   4.467   3.908   9.740 -0.2621  0.2602 -2.1495
  177MPD1     N 2756   4.085   4.061   9.532 -0.3094  0.0344 -0.5196
  177MPD1    H5 2757   3.985   4.050   9.543  0.1858 -0.6793  3.1696
  177MPD1    N1 2758   4.083   3.660   9.775  0.1535  0.4003  0.1438
  177MPD1    H6 2759   3.991   3.656   9.732 -1.4192  1.5678  3.3679
  177MPD1    H7 2760   4.131   3.575   9.746  0.5572  0.1942  1.4133
  178MPD1     C 2761   2.179   1.223  17.703 -0.3722 -0.1795 -0.2355
  178MPD1    C1 2762   2.129   1.242  17.574 -0.0092 -0.2043  0.1175
  178MPD1    C2 2763   2.199   1.196  17.462  0.8122 -0.2537 -0.1805
  178MPD1    C3 2764   2.322   1.139  17.472  0.4323 -0.2793 -1.0055
  178MPD1    C4 2765   2.385   1.153  17.590 -0.1704 -0.0036 -0.6719
  178MPD1    C5 2766   2.310   1.191  17.700  0.1427 -0.0176 -0.1451
  178MPD1     H 2767   2.146   1.194  17.367  1.2216 -2.7410 -0.3733
  178MPD1    H1 2768   2.491   1.129  17.594 -0.7050 -2.0868  0.7641
  178MPD1    H2 2769   2.127   1.259   0.048  0.5408 -2.3897  1.1972
  178MPD1    H3 2770   2.363   1.191   0.052 -0.0080 -3.1585 -0.0669
  178MPD1     N 2771   2.397   1.071  17.370  0.1462  0.3781  0.1231
  178MPD1    H5 2772   2.489   1.032  17.388 -0.7649 -0.7369  2.3627
  178MPD1    N1 2773   2.006   1.306  17.554  1.0251 -0.2709  0.3269
  178MPD1    H6 2774   2.019   1.389  17.496  0.7932 -1.3427 -1.2749
  178MPD1    H7 2775   1.975   1.340  17.645 -2.4060 -1.2544 -0.4477
  179MPD1     C 2776   1.446   4.070  15.996 -0.4589  0.1123  0.1173
  179MPD1    C1 2777   1.414   4.003  15.877  0.3889  0.5885 -0.2247
  179MPD1    C2 2778   1.432   3.868  15.862  0.8864  0.5101  0.5433
  179MPD1    C3 2779   1.490   3.800  15.967 -0.0679  0.2778  0.2969
  179MPD1    C4 2780   1.530   3.868  16.082  0.3009  0.3072  0.5121
  179MPD1    C5 2781   1.508   4.005  16.093 -0.5330  0.6766 -0.1836
  179MPD1     H 2782   1.398   3.821  15.770 -0.1082  1.6468  0.3303
  179MPD1    H1 2783   1.576   3.823  16.169 -0.0327 -0.0803  0.4926
  179MPD1    H2 2784   1.423   4.174  16.013 -0.6593  0.2673 -1.0717
  179MPD1    H3 2785   1.548   4.063  16.175 -1.1256 -0.7674  1.1368
  179MPD1     N 2786   1.532   3.668  15.961 -0.3263 -0.4223  0.3178
  179MPD1    H5 2787   1.575   3.636  16.047 -0.8545 -1.7213  0.1001
  179MPD1    N1 2788   1.350   4.076  15.776  0.1140 -0.5131  0.0085
  179MPD1    H6 2789   1.391   4.072  15.683  1.9488  0.5722  0.7789
  179MPD1    H7 2790   1.340   4.176  15.789  1.3717 -0.4168  0.2103
  180MPD1     C 2791   1.003   0.211  14.419  0.3717 -0.4979  0.3109
  180MPD1    C1 2792   1.124   0.163  14.388 -0.0027 -0.8738  0.5517
  180MPD1    C2 2793   1.140   0.071  14.284  0.4668  0.4198  0.3590
  180MPD1    C3 2794   1.032   4.728  14.229 -0.1921 -0.7434 -0.6677
  180MPD1    C4 2795   0.907   0.039  14.273  0.1223  0.2831 -0.3720
  180MPD1    C5 2796   0.898   0.136  14.371 -0.3753  0.4311 -0.2362
  180MPD1     H 2797   1.237   0.035  14.251  1.0780  0.6582  1.8831
  180MPD1    H1 2798   0.815   4.725  14.245 -0.3682  0.0519  1.6227
  180MPD1    H2 2799   0.982   0.285  14.495 -0.0270  2.2482 -2.4396
  180MPD1    H3 2800   0.802   0.165  14.414 -1.0582 -0.7909 -0.9305
  180MPD1     N 2801   1.050   4.624  14.135 -0.0560 -0.1760 -0.1048
  180MPD1    H5 2802   1.142   4.585  14.114  0.4999  0.6280  0.8034
  180MPD1    N1 2803   1.232   0.229  14.440 -0.2033 -0.2165  0.4422
  180MPD1    H6 2804   1.309   0.164  14.452  2.1159  2.2673 -0.9294
  180MPD1    H7 2805   1.214   0.279  14.526  0.2738 -0.2894  0.5858
  181MPD1     C 2806   4.555   2.053   9.856  0.2626 -0.3734  0.1651
  181MPD1    C1 2807   4.493   1.951   9.786  0.3649 -0.4926 -0.2433
  181MPD1    C2 2808   4.396   1.871   9.848 -0.2092 -0.0447  0.0163
  181MPD1    C3 2809   4.336   1.917   9.969 -0.7648  0.4052  0.3979
  181MPD1    C4 2810   4.397   2.024  10.028  0.1080 -0.0551 -0.6373
  181MPD1    C5 2811   4.503   2.081   9.977  0.3673 -0.2147  0.0414
  181MPD1     H 2812   4.371   1.775   9.805  0.1237 -1.1443  2.2808
  181MPD1    H1 2813   4.368   2.075  10.120 -1.3067  0.7522 -1.5255
  181MPD1    H2 2814   4.643   2.108   9.825  0.1094 -0.1713  0.0956
  181MPD1    H3 2815   4.549   2.157  10.038  1.6193 -0.8948 -0.0554
  181MPD1     N 2816   4.222   1.855  10.036  0.8329 -0.1100 -0.5337
  181MPD1    H5 2817   4.190   1.891  10.125 -0.4074 -0.1670 -0.9574
  181MPD1    N1 2818   4.558   1.907   9.670  0.3979  0.1800  0.1317
  181MPD1    H6 2819   4.487   1.867   9.608  0.7695 -1.3016  0.6555
  181MPD1    H7 2820   4.607   1.983   9.623 -1.7722  0.8235 -1.1181
  182MPD1     C 2821   4.035   0.854   1.222 -0.2362  0.7644  0.1278
  182MPD1    C1 2822   4.093   0.972   1.252  0.1320  0.7425  0.2343
  182MPD1    C2 2823   4.079   1.080   1.163  0.3786  0.0866 -0.0629
  182MPD1    C3 2824   4.002   1.063   1.050  0.7634 -1.1714 -0.5952
  182MPD1    C4 2825   3.947   0.942   1.019  0.2397 -0.5745 -0.1056
  182MPD1    C5 2826   3.953   0.839   1.111 -0.4670 -0.5770  0.0890
  182MPD1     H 2827   4.127   1.174   1.190 -1.5526  0.9314  0.3715
  182MPD1    H1 2828   3.886   0.927   0.931  0.6483 -3.2780  0.0637
  182MPD1    H2 2829   4.047   0.762   1.278 -1.1340 -0.5238 -1.7843
  182MPD1    H3 2830   3.901   0.745   1.099  1.3381 -1.7480  1.4245
  182MPD1     N 2831   3.971   1.171   0.962 -0.0741  0.2743  0.4858
  182MPD1    H5 2832   3.921   1.144   0.877  2.2202  0.1748 -0.8246
  182MPD1    N1 2833   4.192   0.971   1.353  0.5772 -0.5263 -0.7347
  182MPD1    H6 2834   4.206   1.063   1.395  0.0269 -0.8915  0.2592
  182MPD1    H7 2835   4.180   0.911   1.435  2.7031 -0.1754 -0.1724
  183MPD1     C 2836   4.168   1.435   8.918 -0.4293  0.3081  0.3460
  183MPD1    C1 2837   4.091   1.520   8.986  0.1270 -0.6163 -0.6318
  183MPD1    C2 2838   4.041   1.480   9.109 -0.4928  0.2658  0.4940
  183MPD1    C3 2839   4.048   1.344   9.142 -0.7240  0.4627 -0.1447
  183MPD1    C4 2840   4.102   1.252   9.052 -0.8870 -0.2490  0.1320
  183MPD1    C5 2841   4.165   1.305   8.943 -0.3621  0.7059 -0.5004
  183MPD1     H 2842   3.998   1.546   9.183  0.6197 -0.8338  2.1295
  183MPD1    H1 2843   4.098   1.146   9.073  0.1166 -0.2187  0.4689
  183MPD1    H2 2844   4.232   1.467   8.837  0.1716 -2.8597 -0.4124
  183MPD1    H3 2845   4.211   1.238   8.870  0.8490  1.1335 -0.1414
  183MPD1     N 2846   4.001   1.309   9.274 -0.6941  0.3312  0.1835
  183MPD1    H5 2847   3.976   1.380   9.342  2.8803  0.3357  1.5174
  183MPD1    N1 2848   4.115   1.654   8.958 -0.1917  0.0384  0.4496
  183MPD1    H6 2849   4.048   1.716   9.003  0.8964  1.8545 -0.4277
  183MPD1    H7 2850   4.103   1.669   8.858 -0.8485 -1.3831  0.3176
  184MPD1     C 2851   3.338   3.699  10.195 -0.8485  0.9637 -0.0722
  184MPD1    C1 2852   3.237   3.758  10.114 -0.0897  0.5848 -0.0010
  184MPD1    C2 2853   3.272   3.860  10.027  0.1733  0.2460  0.2895
  184MPD1    C3 2854   3.402   3.900  10.021  0.6971 -0.2375  0.1417
  184MPD1    C4 2855   3.494   3.847  10.096  0.1300  0.2831 -0.2388
  184MPD1    C5 2856   3.467   3.751  10.189  0.2815  0.5614  0.2458
  184MPD1     H 2857   3.194   3.893   9.958  0.8809  2.3622  0.4782
  184MPD1    H1 2858   3.594   3.889  10.099  0.0139  0.5391 -0.0488
  184MPD1    H2 2859   3.323   3.609  10.253 -1.0294  1.1312  0.1425
  184MPD1    H3 2860   3.542   3.706  10.252  1.1523 -1.5690 -2.2920
  184MPD1     N 2861   3.443   3.998   9.937  1.1601  0.2702  0.2515
  184MPD1    H5 2862   3.535   4.035   9.958  2.3172 -0.9640 -2.8058
  184MPD1    N1 2863   3.117   3.687  10.108  0.2807  0.7095  0.3373
  184MPD1    H6 2864   3.044   3.738  10.057 -0.9064 -0.3674  0.9674
  184MPD1    H7 2865   3.100   3.629  10.190  0.3868 -0.3004 -0.3498
  185MPD1     C 2866   3.114   4.278   9.044  0.5897 -0.4303  0.3639
  185MPD1    C1 2867   3.217   4.366   9.068  0.0407 -0.0869 -0.2586
  185MPD1    C2 2868   3.303   4.347   9.179  0.0187  0.2422 -0.1304
  185MPD1    C3 2869   3.264   4.258   9.277 -0.6599 -0.3235  0.1216
  185MPD1    C4 2870   3.154   4.180   9.253  0.8849  0.2537 -0.1161
  185MPD1    C5 2871   3.077   4.186   9.139 -0.6082  0.1449  0.5807
  185MPD1     H 2872   3.393   4.406   9.196  0.4107 -0.6079  0.7255
  185MPD1    H1 2873   3.131   4.105   9.328 -1.6933  0.7902 -0.3899
  185MPD1    H2 2874   3.062   4.288   8.950  0.3587  1.3123  0.6769
  185MPD1    H3 2875   2.989   4.123   9.131  0.9103 -1.7595 -0.9361
  185MPD1     N 2876   3.330   4.248   9.403 -0.1566  0.4251  0.0365
  185MPD1    H5 2877   3.300   4.171   9.462  0.8034  0.7905  0.9934
  185MPD1    N1 2878   3.247   4.469   8.975  0.5544  0.2717  0.2602
  185MPD1    H6 2879   3.296   4.547   9.018  1.5236  0.6820 -1.5720
  185MPD1    H7 2880   3.162   4.519   8.947 -0.2816 -2.1321 -1.5593
  186MPD1     C 2881   1.866   3.750  15.445  0.0219  0.4192  0.8587
  186MPD1    C1 2882   1.780   3.727  15.548  0.3252 -0.3593 -0.3889
  186MPD1    C2 2883   1.822   3.762  15.680 -1.2413  0.3528 -0.4472
  186MPD1    C3 2884   1.939   3.833  15.694 -0.5014  0.0058 -0.2388
  186MPD1    C4 2885   2.017   3.859  15.587 -0.5441 -0.0825 -0.4220
  186MPD1    C5 2886   1.984   3.816  15.465  0.2682 -0.1566 -0.4106
  186MPD1     H 2887   1.753   3.750  15.763  0.9913 -1.3792  1.1345
  186MPD1    H1 2888   2.112   3.911  15.592  0.2890 -1.7202  0.9656
  186MPD1    H2 2889   1.843   3.726  15.341  2.0919  0.9648  0.2623
  186MPD1    H3 2890   2.036   3.855  15.378 -1.3621 -2.4831 -2.4234
  186MPD1     N 2891   1.979   3.896  15.815  0.0915 -0.4389 -0.4080
  186MPD1    H5 2892   2.063   3.953  15.811 -0.1077 -0.0739  0.6733
  186MPD1    N1 2893   1.663   3.649  15.535 -0.3184 -0.0182  0.1534
  186MPD1    H6 2894   1.605   3.666  15.617 -0.8907 -0.7105 -0.1055
  186MPD1    H7 2895   1.619   3.654  15.443 -1.4277  0.8912  0.7304
  187MPD1     C 2896   0.494   1.581   0.555  0.7219  0.3797  0.0247
  187MPD1    C1 2897   0.446   1.486   0.467  0.3810 -0.1362  0.5196
  187MPD1    C2 2898   0.526   1.451   0.359  0.1094 -0.4593 -0.1865
  187MPD1    C3 2899   0.656   1.499   0.351 -0.1107 -0.0455  0.2516
  187MPD1    C4 2900   0.706   1.587   0.447 -0.1361 -0.5828 -0.7519
  187MPD1    C5 2901   0.624   1.631   0.545 -0.2530 -0.5370 -0.1187
  187MPD1     H 2902   0.484   1.392   0.278 -3.4239  1.5844  0.1563
  187MPD1    H1 2903   0.809   1.621   0.449 -0.8135  1.5169 -1.0570
  187MPD1    H2 2904   0.432   1.625   0.633  1.1987  1.3122 -0.1237
  187MPD1    H3 2905   0.660   1.703   0.617 -0.3378 -1.5181  0.9078
  187MPD1     N 2906   0.741   1.460   0.245  0.0985  0.6117 -0.6896
  187MPD1    H5 2907   0.826   1.515   0.241 -0.4603  1.6862  1.9859
  187MPD1    N1 2908   0.307   1.468   0.465 -0.0122 -0.0344  0.0313
  187MPD1    H6 2909   0.277   1.488   0.560  0.6995  0.5245  0.1398
  187MPD1    H7 2910   0.273   1.378   0.431 -0.8750  0.3511 -0.1151
  188MPD1     C 2911   1.544   0.717  10.810  0.5193  0.0925 -0.2601
  188MPD1    C1 2912   1.510   0.737  10.676 -0.5294  0.0748  0.4657
  188MPD1    C2 2913   1.471   0.627  10.602  0.8094 -0.6309  0.1992
  188MPD1    C3 2914   1.478   0.503  10.650 -0.3408 -0.3377 -0.5203
  188MPD1    C4 2915   1.530   0.481  10.777 -0.1180  0.7568  0.3609
  188MPD1    C5 2916   1.560   0.593  10.860 -0.0260  0.4099 -1.2276
  188MPD1     H 2917   1.428   0.642  10.503 -0.6425 -1.1475  0.7548
  188MPD1    H1 2918   1.544   0.382  10.819  0.8825  1.0944  0.8215
  188MPD1    H2 2919   1.572   0.801  10.873  0.5827 -0.9303  1.0803
  188MPD1    H3 2920   1.592   0.575  10.962  0.2741 -0.6837 -1.5098
  188MPD1     N 2921   1.452   0.386  10.579  0.2726 -0.5372 -0.4435
  188MPD1    H5 2922   1.457   0.298  10.630 -0.3492  0.7238  1.8058
  188MPD1    N1 2923   1.486   0.863  10.619 -0.0874 -0.4763  0.1397
  188MPD1    H6 2924   1.519   0.949  10.663 -2.3137  0.2059  0.4971
  188MPD1    H7 2925   1.529   0.855  10.528 -0.4432  1.6167 -0.2072
  189MPD1     C 2926   3.457   2.528   0.214  0.1098  0.1650  0.4953
  189MPD1    C1 2927   3.363   2.436   0.259  0.0087  0.0170  1.1386
  189MPD1    C2 2928   3.240   2.489   0.295  0.0904  0.5539 -0.3120
  189MPD1    C3 2929   3.214   2.622   0.294 -1.2231  0.1507  0.5140
  189MPD1    C4 2930   3.314   2.708   0.259 -0.5433 -0.1486 -0.0325
  189MPD1    C5 2931   3.431   2.661   0.215 -0.1343 -0.6183  0.2033
  189MPD1     H 2932   3.168   2.413   0.321 -1.5713  2.3417  0.3437
  189MPD1    H1 2933   3.307   2.815   0.273 -0.2634 -0.0726 -0.4844
  189MPD1    H2 2934   3.551   2.480   0.189 -0.4817  0.5497 -2.4705
  189MPD1    H3 2935   3.515   2.727   0.195 -0.0470 -0.0152  2.4701
  189MPD1     N 2936   3.088   2.664   0.331 -0.0526  0.3701  0.6202
  189MPD1    H5 2937   3.025   2.592   0.366 -0.4114  0.6899  0.6343
  189MPD1    N1 2938   3.397   2.297   0.279 -0.2026  0.3350  0.3444
  189MPD1    H6 2939   3.319   2.237   0.306 -0.1752  0.2299  0.1938
  189MPD1    H7 2940   3.436   2.262   0.192  2.9342  1.8588  1.1380
  190MPD1     C 2941   1.689   0.444  15.117 -0.2660  0.3949 -0.4907
  190MPD1    C1 2942   1.821   0.441  15.085  0.2082  1.0334 -0.4335
  190MPD1    C2 2943   1.915   0.379  15.165 -0.1885 -0.2242 -0.1361
  190MPD1    C3 2944   1.880   0.342  15.285  0.0311 -0.1834 -0.3733
  190MPD1    C4 2945   1.748   0.346  15.328  1.4535  0.6972 -0.6115
  190MPD1    C5 2946   1.651   0.395  15.241  0.4280 -0.2297 -0.8661
  190MPD1     H 2947   2.016   0.363  15.130 -0.6855 -0.7962 -1.3342
  190MPD1    H1 2948   1.720   0.329  15.431  2.2675 -2.2199 -0.8920
  190MPD1    H2 2949   1.607   0.477  15.054  0.0705  1.4353 -0.3865
  190MPD1    H3 2950   1.543   0.391  15.252  0.5550 -1.1132  0.0549
  190MPD1     N 2951   1.995   0.304  15.365 -0.0620 -0.0609  0.1314
  190MPD1    H5 2952   2.086   0.324  15.325  0.8288  0.4746  2.4363
  190MPD1    N1 2953   1.859   0.470  14.952  0.4945 -0.1057 -0.5613
  190MPD1    H6 2954   1.953   0.508  14.950 -0.0943  1.4404  0.4871
  190MPD1    H7 2955   1.792   0.528  14.901  1.7512  2.8995  1.2081
  191MPD1     C 2956   0.713   1.785  12.471 -0.6362 -0.4036  0.1306
  191MPD1    C1 2957   0.757   1.907  12.523 -1.1310 -0.0719 -0.2704
  191MPD1    C2 2958   0.837   1.982  12.443  0.2394  0.0536 -0.1919
  191MPD1    C3 2959   0.893   1.934  12.323 -0.0483 -0.3100  0.1051
  191MPD1    C4 2960   0.851   1.811  12.279  0.6266  0.8142  0.5410
  191MPD1    C5 2961   0.758   1.745  12.353  0.3597  0.2150 -0.0156
  191MPD1     H 2962   0.872   2.080  12.476 -1.0183  0.2349  0.5760
  191MPD1    H1 2963   0.892   1.767  12.189  0.1246  2.7635 -0.6375
  191MPD1    H2 2964   0.646   1.715  12.521 -0.3758 -1.2874 -0.7680
  191MPD1    H3 2965   0.712   1.652  12.321  0.1359  0.4921 -0.4920
  191MPD1     N 2966   0.984   2.017  12.253  0.6577 -0.1647  0.7295
  191MPD1    H5 2967   1.009   2.107  12.291  1.3038  0.3332 -0.8638
  191MPD1    N1 2968   0.694   1.963  12.635  0.1815 -0.2665  0.5807
  191MPD1    H6 2969   0.651   1.893  12.693  1.6538  0.0691  2.0802
  191MPD1    H7 2970   0.764   1.995  12.701 -0.7524  2.5646  0.2001
  192MPD1     C 2971   1.124   2.091  11.250  0.2666 -0.2528 -0.2684
  192MPD1    C1 2972   1.171   2.207  11.308 -0.4507  0.0094 -0.2715
  192MPD1    C2 2973   1.180   2.205  11.445 -0.2346  0.5253 -0.4436
  192MPD1    C3 2974   1.130   2.111  11.528 -0.0239  0.2751  0.3982
  192MPD1    C4 2975   1.092   1.998  11.465 -0.0947 -0.0546 -0.9346
  192MPD1    C5 2976   1.084   1.988  11.328  0.4118 -0.6476  0.0725
  192MPD1     H 2977   1.220   2.295  11.492 -2.6296  2.9588 -3.0383
  192MPD1    H1 2978   1.045   1.916  11.519  0.7027 -0.9663 -1.6239
  192MPD1    H2 2979   1.126   2.079  11.142  1.8202  2.0572 -0.4876
  192MPD1    H3 2980   1.034   1.904  11.281 -0.6738  0.0752 -0.0662
  192MPD1     N 2981   1.121   2.130  11.663  0.3359  0.0225 -0.1576
  192MPD1    H5 2982   1.065   2.060  11.712  3.3815 -2.2705  0.0372
  192MPD1    N1 2983   1.237   2.299  11.228  0.3705 -0.1928  0.1567
  192MPD1    H6 2984   1.207   2.296  11.131 -1.4461  0.2228  0.7050
  192MPD1    H7 2985   1.234   2.395  11.262  1.9128 -0.5764  1.3304
  193MPD1     C 2986   0.630   1.987  16.917  0.2282  0.5422  0.9564
  193MPD1    C1 2987   0.583   2.103  16.862 -0.2628 -0.8708  0.2086
  193MPD1    C2 2988   0.668   2.199  16.818  0.0750  0.5034 -0.3638
  193MPD1    C3 2989   0.803   2.189  16.848 -0.1096 -1.0314 -0.1465
  193MPD1    C4 2990   0.844   2.079  16.926 -0.2716 -0.2381  0.5115
  193MPD1    C5 2991   0.763   1.976  16.952  0.2417  0.0671 -0.1070
  193MPD1     H 2992   0.637   2.286  16.760  0.0386  1.2269  0.7460
  193MPD1    H1 2993   0.946   2.062  16.959 -0.4594 -2.6911 -0.2249
  193MPD1    H2 2994   0.570   1.897  16.926  3.0830 -1.4246  0.4811
  193MPD1    H3 2995   0.800   1.890  17.007 -1.4446 -0.9693 -0.5601
  193MPD1     N 2996   0.896   2.298  16.827  0.0844  0.0276  0.9061
  193MPD1    H5 2997   0.993   2.281  16.852 -0.1829  0.0693  1.9875
  193MPD1    N1 2998   0.453   2.098  16.825  0.5877  0.3179  0.3584
  193MPD1    H6 2999   0.388   2.039  16.878  0.6285 -0.3118 -0.2968
  193MPD1    H7 3000   0.423   2.195  16.829 -1.0961 -0.2803  2.2876
  194MPD1     C 3001   3.474   0.203  16.953 -0.2184  0.2849 -0.0573
  194MPD1    C1 3002   3.498   0.160  16.822 -0.2799 -0.1781 -0.5352
  194MPD1    C2 3003   3.559   0.039  16.795  0.5668 -0.2164  0.4943
  194MPD1    C3 3004   3.598   4.697  16.903  0.5312 -0.8955 -0.4987
  194MPD1    C4 3005   3.584   0.008  17.040  0.1401  0.8380 -0.2133
  194MPD1    C5 3006   3.523   0.130  17.059 -0.1174 -0.0928  0.0159
  194MPD1     H 3007   3.588   0.007  16.696  1.2796 -1.0481  0.9707
  194MPD1    H1 3008   3.624   4.679  17.117  3.2271  1.5856 -1.1770
  194MPD1    H2 3009   3.424   0.296  16.978 -0.7421  0.4531 -1.6971
  194MPD1    H3 3010   3.519   0.168  17.161  0.6022  0.8478 -0.3089
  194MPD1     N 3011   3.659   4.570  16.873  0.5835  0.5196  0.2620
  194MPD1    H5 3012   3.688   4.513  16.951 -0.2440  1.1666  1.0441
  194MPD1    N1 3013   3.441   0.227  16.713 -0.4587  0.3636 -0.8024
  194MPD1    H6 3014   3.408   0.321  16.735 -1.4148 -0.2690  0.4671
  194MPD1    H7 3015   3.516   0.237  16.645 -0.5131 -0.5332 -0.9955
  195MPD1     C 3016   0.310   1.640   0.021  0.0959  0.0562  0.6618
  195MPD1    C1 3017   0.394   1.617  17.652 -0.1256  0.3517  0.1213
  195MPD1    C2 3018   0.416   1.482  17.636  0.4362 -0.5398 -0.1978
  195MPD1    C3 3019   0.365   1.377  17.713 -0.1691  0.1882  1.0659
  195MPD1    C4 3020   0.277   1.408   0.069  0.5286  0.6940  0.5509
  195MPD1    C5 3021   0.249   1.540   0.095  0.6022  0.0948  0.5575
  195MPD1     H 3022   0.473   1.467  17.545  0.0928  0.5632 -0.5926
  195MPD1    H1 3023   0.220   1.332   0.121  0.9987 -0.4949 -0.6500
  195MPD1    H2 3024   0.276   1.740   0.044 -0.2594 -0.0185  0.4504
  195MPD1    H3 3025   0.191   1.557   0.186  0.2691  1.3281  0.1150
  195MPD1     N 3026   0.399   1.237  17.704 -0.1226 -0.7520  0.2640
  195MPD1    H5 3027   0.374   1.174   0.037  2.7121 -1.3754  0.6713
  195MPD1    N1 3028   0.427   1.717  17.561 -0.3861  0.2317 -0.3237
  195MPD1    H6 3029   0.515   1.689  17.517 -0.5629  0.1248 -0.6146
  195MPD1    H7 3030   0.438   1.808  17.605  0.3225 -1.4141  2.8807
  196MPD1     C 3031   4.197   0.581  17.324 -0.5492 -0.1106  0.8697
  196MPD1    C1 3032   4.304   0.625  17.397 -0.6136 -0.9255 -0.4528
  196MPD1    C2 3033   4.280   0.702  17.508  0.0139 -0.2144 -0.3451
  196MPD1    C3 3034   4.154   0.735  17.556 -0.0510 -0.3175  0.8414
  196MPD1    C4 3035   4.048   0.692  17.487 -0.3709 -0.1307 -0.4128
  196MPD1    C5 3036   4.067   0.619  17.367  0.0968  0.1590 -0.1318
  196MPD1     H 3037   4.368   0.745  17.554  0.8299 -0.0321 -2.0870
  196MPD1    H1 3038   3.945   0.714  17.513 -0.5056 -1.3193  0.1013
  196MPD1    H2 3039   4.208   0.515  17.238 -1.8005  2.3474 -1.1723
  196MPD1    H3 3040   3.978   0.601  17.308  1.2463 -3.8791 -0.6419
  196MPD1     N 3041   4.140   0.792  17.680 -0.1619 -0.1138 -0.5431
  196MPD1    H5 3042   4.055   0.781  17.735 -1.5072  0.6608 -2.4868
  196MPD1    N1 3043   4.439   0.601  17.351  0.8000 -0.0256  0.2656
  196MPD1    H6 3044   4.446   0.524  17.284 -0.9981 -1.3257  1.5895
  196MPD1    H7 3045   4.508   0.597  17.425 -0.5052  1.5715  1.5499
  197MPD1     C 3046   4.185   2.533  17.375  0.1289  0.2678  0.2902
  197MPD1    C1 3047   4.300   2.573  17.444 -0.0835  0.2019 -0.0572
  197MPD1    C2 3048   4.402   2.639  17.373  0.6099  0.4865 -0.7654
  197MPD1    C3 3049   4.392   2.658  17.239  0.2494  0.8366 -0.5091
  197MPD1    C4 3050   4.284   2.622  17.167  0.0823  0.0828 -0.9257
  197MPD1    C5 3051   4.181   2.563  17.237 -0.6328  0.0225  0.6501
  197MPD1     H 3052   4.490   2.672  17.427  0.3749  0.6630 -0.4950
  197MPD1    H1 3053   4.273   2.640  17.061  2.0234 -0.7107 -1.2655
  197MPD1    H2 3054   4.103   2.479  17.420  0.2827  0.0569  0.3142
  197MPD1    H3 3055   4.099   2.526  17.175 -0.6535  1.4126 -0.1642
  197MPD1     N 3056   4.498   2.726  17.168 -0.3028  0.1527  0.6744
  197MPD1    H5 3057   4.487   2.714  17.068  1.1422  0.3957  0.4878
  197MPD1    N1 3058   4.305   2.571  17.591 -0.1312 -0.2721 -0.1380
  197MPD1    H6 3059   4.397   2.536  17.615  0.0827  1.1355  1.1101
  197MPD1    H7 3060   4.235   2.507  17.629 -0.1274  0.4418  1.0702
  198MPD1     C 3061   1.624   1.094  14.558 -0.8084 -0.5786  0.7979
  198MPD1    C1 3062   1.685   1.214  14.580  0.1203 -0.5140  0.1704
  198MPD1    C2 3063   1.659   1.274  14.701  0.1195 -0.2059 -0.7942
  198MPD1    C3 3064   1.576   1.221  14.802 -0.0787  0.8876 -0.0046
  198MPD1    C4 3065   1.534   1.099  14.782  0.5374  1.0653 -0.7303
  198MPD1    C5 3066   1.547   1.043  14.655  0.0534 -0.1426 -0.7422
  198MPD1     H 3067   1.692   1.376  14.718  0.7881 -0.3323 -1.3474
  198MPD1    H1 3068   1.472   1.049  14.855  0.7003  1.7688 -0.1067
  198MPD1    H2 3069   1.629   1.047  14.460 -0.5163  0.5324  0.2820
  198MPD1    H3 3070   1.500   0.946  14.642 -1.5628  0.5877 -0.4177
  198MPD1     N 3071   1.556   1.298  14.918  0.3852  0.0312  0.6390
  198MPD1    H5 3072   1.605   1.386  14.925  2.4389 -0.8342 -2.9419
  198MPD1    N1 3073   1.732   1.286  14.471  0.3698 -0.2382 -0.1349
  198MPD1    H6 3074   1.766   1.217  14.404 -0.6858  2.2480 -3.2194
  198MPD1    H7 3075   1.813   1.344  14.494 -0.8587  1.6685 -0.6594
  199MPD1     C 3076   3.520   2.381  10.214  0.6275  0.6017 -0.1146
  199MPD1    C1 3077   3.445   2.266  10.227 -0.5704  0.2176  0.0084
  199MPD1    C2 3078   3.317   2.269  10.175  0.3052  0.5187 -0.3358
  199MPD1    C3 3079   3.257   2.385  10.135  0.1842  0.2755 -0.3144
  199MPD1    C4 3080   3.326   2.506  10.143  0.3432 -0.3332  0.3380
  199MPD1    C5 3081   3.455   2.500  10.187  0.1314  0.1205  0.0252
  199MPD1     H 3082   3.269   2.172  10.168  0.0344  0.7019 -1.0226
  199MPD1    H1 3083   3.280   2.600  10.117 -0.1720 -0.4967  0.6552
  199MPD1    H2 3084   3.623   2.395  10.245  0.7031 -0.3728  0.0780
  199MPD1    H3 3085   3.511   2.593  10.192  0.4510 -0.0082 -1.1287
  199MPD1     N 3086   3.125   2.406  10.093  0.4038  0.6265  0.3561
  199MPD1    H5 3087   3.102   2.493  10.047 -0.9927 -1.1274 -2.2395
  199MPD1    N1 3088   3.502   2.140  10.257  0.2466 -0.1325  0.8544
  199MPD1    H6 3089   3.574   2.158  10.327  0.9806  1.9356 -0.4560
  199MPD1    H7 3090   3.431   2.082  10.301 -1.7703  1.1668 -0.6788
  200MPD1     C 3091   2.750   1.883  15.772 -0.8700 -0.1256  0.2005
  200MPD1    C1 3092   2.672   1.864  15.659  0.2759 -0.2590 -0.1699
  200MPD1    C2 3093   2.640   1.967  15.576  0.8416  0.2895 -0.3854
  200MPD1    C3 3094   2.683   2.093  15.600 -0.3003  0.2003 -0.2400
  200MPD1    C4 3095   2.763   2.114  15.714  0.4833  0.4906 -0.2322
  200MPD1    C5 3096   2.805   2.005  15.787 -0.5989 -0.2432 -0.3398
  200MPD1     H 3097   2.575   1.955  15.490  1.4179  0.3129 -0.8295
  200MPD1    H1 3098   2.813   2.206  15.743  0.1325  0.9756 -1.1412
  200MPD1    H2 3099   2.785   1.794  15.825 -0.1842  1.1210  1.8552
  200MPD1    H3 3100   2.872   2.020  15.871  0.1918  0.9942 -1.1790
  200MPD1     N 3101   2.660   2.186  15.500 -0.3927  0.4380 -0.4363
  200MPD1    H5 3102   2.612   2.151  15.417 -0.0469 -0.5584 -0.2186
  200MPD1    N1 3103   2.636   1.732  15.611  0.1876 -0.1076 -0.0404
  200MPD1    H6 3104   2.555   1.737  15.550  1.4710 -1.6410 -1.8429
  200MPD1    H7 3105   2.608   1.687  15.698  1.1988 -2.3285 -0.8837
  201MPD1     C 3106   0.373   0.771  12.823  0.0445 -0.6992 -0.4653
  201MPD1    C1 3107   0.464   0.670  12.834  0.2396 -0.9354 -0.8343
  201MPD1    C2 3108   0.532   0.653  12.949 -1.0413 -0.4917 -0.0990
  201MPD1    C3 3109   0.512   0.741  13.051  0.1721 -0.0763 -0.3921
  201MPD1    C4 3110   0.424   0.841  13.037 -0.4603  0.4376 -0.7583
  201MPD1    C5 3111   0.350   0.853  12.924 -0.0937  0.0417  0.9955
  201MPD1     H 3112   0.602   0.572  12.961  0.2843  0.5373 -0.8475
  201MPD1    H1 3113   0.402   0.912  13.116 -3.1501 -2.5588  1.1982
  201MPD1    H2 3114   0.335   0.801  12.726 -1.0405  0.8440  0.4308
  201MPD1    H3 3115   0.281   0.936  12.912 -1.8565 -1.9723 -2.9715
  201MPD1     N 3116   0.582   0.721  13.175  0.1683 -0.1445 -0.7254
  201MPD1    H5 3117   0.633   0.635  13.192 -1.3008 -0.5355  1.7664
  201MPD1    N1 3118   0.496   0.591  12.723  0.0621  0.0522 -0.1315
  201MPD1    H6 3119   0.431   0.600  12.645  0.3685 -4.0408 -0.8641
  201MPD1    H7 3120   0.513   0.492  12.734  1.3642  0.4001  0.9826
  202MPD1     C 3121   4.358   0.059   8.810  0.3085 -0.6147 -0.7722
  202MPD1    C1 3122   4.301   0.173   8.865 -0.6031  0.0754 -0.6180
  202MPD1    C2 3123   4.376   0.212   8.975 -0.3796  0.0501 -0.1693
  202MPD1    C3 3124   4.460   0.128   9.045 -0.3648  0.5043 -0.1149
  202MPD1    C4 3125   4.474   4.733   8.996 -0.1343  0.1845 -0.9100
  202MPD1    C5 3126   4.436   4.710   8.872 -0.5408 -0.8760 -0.3011
  202MPD1     H 3127   4.379   0.318   8.999 -0.2122  0.1384 -0.5937
  202MPD1    H1 3128   4.533   4.659   9.049  0.4482  0.1640 -1.5812
  202MPD1    H2 3129   4.334   0.025   8.709 -3.8340  2.1777 -0.7185
  202MPD1    H3 3130   4.479   4.632   8.810  0.0735 -0.8717  0.1227
  202MPD1     N 3131   4.527   0.160   9.165  0.0089  0.2194 -0.2254
  202MPD1    H5 3132   4.589   0.093   9.210 -1.1181 -1.8762 -1.8450
  202MPD1    N1 3133   4.237   0.268   8.786 -0.2014 -0.0813 -0.1775
  202MPD1    H6 3134   4.195   0.344   8.839 -1.7549  0.2701 -1.9093
  202MPD1    H7 3135   4.159   0.237   8.728  0.9990  0.0172 -1.8383
  203MPD1     C 3136   3.419   1.712  12.438  0.2328  0.5037  0.2374
  203MPD1    C1 3137   3.495   1.635  12.356  0.2959  0.0199 -0.9053
  203MPD1    C2 3138   3.573   1.538  12.418 -0.7917  0.0611  0.8383
  203MPD1    C3 3139   3.551   1.496  12.547  0.7091 -0.0083  0.3951
  203MPD1    C4 3140   3.476   1.586  12.625  0.0417 -0.4401  0.3902
  203MPD1    C5 3141   3.413   1.694  12.571  0.1696 -0.0662 -0.5875
  203MPD1     H 3142   3.640   1.483  12.352  1.2291  1.6603  1.5788
  203MPD1    H1 3143   3.454   1.564  12.729  0.2102 -2.5611 -0.0350
  203MPD1    H2 3144   3.364   1.798  12.401  1.4120  1.3467  0.4713
  203MPD1    H3 3145   3.353   1.760  12.632  1.6929  0.2589  0.5770
  203MPD1     N 3146   3.626   1.385  12.599 -0.4716  0.1141  0.0029
  203MPD1    H5 3147   3.684   1.331  12.534 -1.4738 -1.0863  0.1054
  203MPD1    N1 3148   3.513   1.668  12.221 -0.1797 -0.3338  0.0177
  203MPD1    H6 3149   3.434   1.715  12.178 -0.0377 -0.7603 -0.7247
  203MPD1    H7 3150   3.523   1.586  12.161  3.6607  0.9459 -1.1017
  204MPD1     C 3151   3.908   3.933  17.320 -0.5159  0.3636 -0.5030
  204MPD1    C1 3152   3.949   3.883  17.201  0.4652  0.3600 -0.3880
  204MPD1    C2 3153   3.904   3.753  17.181  0.4882  0.7259 -0.6711
  204MPD1    C3 3154   3.847   3.675  17.275 -0.2708  0.6058 -0.2932
  204MPD1    C4 3155   3.821   3.729  17.398 -0.2796  0.0203 -0.0931
  204MPD1    C5 3156   3.845   3.857  17.415 -0.2796 -0.0807 -0.3707
  204MPD1     H 3157   3.930   3.712  17.084  0.7370 -0.6079 -0.0483
  204MPD1    H1 3158   3.774   3.673  17.478 -1.9556 -1.0487 -1.8464
  204MPD1    H2 3159   3.927   4.038  17.338  2.2572 -0.2121 -0.0552
  204MPD1    H3 3160   3.814   3.896  17.511  0.1782  1.1450 -0.7227
  204MPD1     N 3161   3.815   3.543  17.236  0.6985  0.0110  0.1298
  204MPD1    H5 3162   3.814   3.516  17.139 -1.2538  2.0280 -0.4286
  204MPD1    N1 3163   3.999   3.967  17.101 -0.2277  0.4378  0.0014
  204MPD1    H6 3164   4.034   4.059  17.128  0.4111  0.3296 -0.4640
  204MPD1    H7 3165   4.053   3.935  17.021  2.2013 -1.0724  2.2526
  205MPD1     C 3166   3.909   2.125  17.211  0.1716 -0.2506 -0.0679
  205MPD1    C1 3167   3.827   2.045  17.130 -0.0650  0.3018  0.4378
  205MPD1    C2 3168   3.702   2.091  17.097  0.2591 -0.0237  0.1914
  205MPD1    C3 3169   3.670   2.219  17.152 -0.5199  0.7249 -0.2937
  205MPD1    C4 3170   3.760   2.294  17.226 -0.7303 -0.6538 -0.5565
  205MPD1    C5 3171   3.878   2.249  17.256 -0.5775  0.2819  0.5200
  205MPD1     H 3172   3.639   2.025  17.038 -0.1498 -0.7727  1.4613
  205MPD1    H1 3173   3.730   2.385  17.276 -0.0036 -0.0046 -1.2955
  205MPD1    H2 3174   4.000   2.089  17.258  0.9664  0.2284 -1.2570
  205MPD1    H3 3175   3.942   2.297  17.330  0.2678  0.2370 -0.1898
  205MPD1     N 3176   3.540   2.277  17.140  0.4164 -0.2881  0.5404
  205MPD1    H5 3177   3.533   2.367  17.186 -0.1869  0.5433 -1.1390
  205MPD1    N1 3178   3.871   1.917  17.098 -0.3986 -0.9273  0.5163
  205MPD1    H6 3179   3.816   1.874  17.024 -1.1637  0.2420  0.4111
  205MPD1    H7 3180   3.971   1.895  17.100 -0.0754  0.6395  1.5593
  206MPD1     C 3181   4.173   0.014  17.100  0.3958 -0.7851  0.2473
  206MPD1    C1 3182   4.045   0.066  17.092  0.3751  0.4717 -0.5171
  206MPD1    C2 3183   3.979   0.049  16.969  0.2637 -0.5685  0.0150
  206MPD1    C3 3184   4.041   0.002  16.856  0.0566  0.5108 -0.2395
  206MPD1    C4 3185   4.164   4.691  16.866  0.5478 -0.5532  0.1810
  206MPD1    C5 3186   4.227   4.695  16.989  0.0235 -0.1054  0.3356
  206MPD1     H 3187   3.878   0.086  16.959 -0.2321 -1.7317  0.8250
  206MPD1    H1 3188   4.216   4.656  16.778 -1.2514  0.8726 -1.4474
  206MPD1    H2 3189   4.235   0.029  17.187 -1.6340 -0.3491  1.6231
  206MPD1    H3 3190   4.333   4.674  16.990  0.3277  1.4327  0.2542
  206MPD1     N 3191   3.975   0.023  16.726  0.1259 -0.3551  0.4348
  206MPD1    H5 3192   3.889   0.075  16.715 -0.0845 -0.1895  2.8992
  206MPD1    N1 3193   3.974   0.096  17.209 -0.4222  0.1424  0.2671
  206MPD1    H6 3194   4.039   0.139  17.274  0.3578  0.2801 -0.5976
  206MPD1    H7 3195   3.903   0.166  17.188 -0.4799 -0.0554 -0.2074
  207MPD1     C 3196   0.956   1.617   9.820  0.5507  0.4174 -0.1403
  207MPD1    C1 3197   0.951   1.754   9.799  0.5053  0.3337 -0.4303
  207MPD1    C2 3198   1.043   1.832   9.861 -0.4643  0.1924  0.4054
  207MPD1    C3 3199   1.116   1.788   9.970 -0.3721  0.2573 -0.4815
  207MPD1    C4 3200   1.112   1.653   9.994 -0.4057 -0.6052 -0.1981
  207MPD1    C5 3201   1.030   1.566   9.920 -0.4299 -0.3324 -0.1324
  207MPD1     H 3202   1.036   1.937   9.837 -0.2237  0.3129  0.8687
  207MPD1    H1 3203   1.182   1.596  10.055  1.0140  1.1223 -0.2197
  207MPD1    H2 3204   0.885   1.553   9.768  1.7049 -1.6388  0.8196
  207MPD1    H3 3205   1.042   1.460   9.937  0.4173  0.0209  1.5630
  207MPD1     N 3206   1.197   1.863  10.062 -1.0190  0.0652 -0.1931
  207MPD1    H5 3207   1.249   1.805  10.127 -0.6511 -1.5045 -1.8889
  207MPD1    N1 3208   0.880   1.801   9.684 -0.4031 -0.2857 -0.0010
  207MPD1    H6 3209   0.856   1.899   9.700 -2.2566 -0.3881 -2.2028
  207MPD1    H7 3210   0.796   1.746   9.669 -0.5957  0.7000 -2.6129
  208MPD1     C 3211   3.826   1.318  16.865  0.2945 -0.0908  0.7365
  208MPD1    C1 3212   3.688   1.307  16.866  0.1306 -0.7551  0.8955
  208MPD1    C2 3213   3.619   1.331  16.979  0.4993 -0.0725 -0.3401
  208MPD1    C3 3214   3.681   1.345  17.101  0.6012  0.0091  0.1677
  208MPD1    C4 3215   3.820   1.343  17.098  0.1803 -0.5160  0.2692
  208MPD1    C5 3216   3.882   1.345  16.979  0.0227 -0.8068  0.0970
  208MPD1     H 3217   3.512   1.348  16.968  0.4381 -0.2746 -0.0713
  208MPD1    H1 3218   3.891   1.355  17.179 -0.6505  1.2581  0.7293
  208MPD1    H2 3219   3.883   1.315  16.773 -0.2064 -2.8773  0.5052
  208MPD1    H3 3220   3.990   1.358  16.982  0.3896 -3.6216 -0.6070
  208MPD1     N 3221   3.612   1.354  17.221 -0.0235  0.1928  0.4715
  208MPD1    H5 3222   3.511   1.363  17.218  0.1573  1.4931 -1.3184
  208MPD1    N1 3223   3.621   1.324  16.745 -0.2747  1.2630  0.3202
  208MPD1    H6 3224   3.671   1.269  16.675 -0.3760 -0.3299  1.4957
  208MPD1    H7 3225   3.526   1.288  16.752 -0.0806  1.1283  2.2520
  209MPD1     C 3226   1.738   1.485  11.864 -0.2760  1.0267 -0.1812
  209MPD1    C1 3227   1.686   1.610  11.881  0.7059  0.2650  0.7083
  209MPD1    C2 3228   1.689   1.686  11.767 -0.0294  0.4908  0.3888
  209MPD1    C3 3229   1.726   1.635  11.642  0.3896 -1.1637 -0.6265
  209MPD1    C4 3230   1.765   1.504  11.631 -0.2161 -0.5819 -0.2838
  209MPD1    C5 3231   1.778   1.431  11.743 -0.2934 -0.0123 -0.0563
  209MPD1     H 3232   1.656   1.789  11.771  0.7111  0.7189  0.5459
  209MPD1    H1 3233   1.779   1.454  11.536  1.0430  2.9012 -1.9385
  209MPD1    H2 3234   1.752   1.427  11.955  0.3295 -1.8760 -2.1154
  209MPD1    H3 3235   1.808   1.327  11.735  0.9875  0.1563  2.3964
  209MPD1     N 3236   1.731   1.727  11.533  0.1724  0.6265  0.2945
  209MPD1    H5 3237   1.728   1.824  11.561  1.1942  0.4303  1.0470
  209MPD1    N1 3238   1.663   1.672  12.008 -0.4416 -0.1611  0.0400
  209MPD1    H6 3239   1.640   1.602  12.079 -2.0465 -0.4152 -0.7282
  209MPD1    H7 3240   1.591   1.744  12.003 -0.6098 -0.2089  1.6980
  210MPD1     C 3241   1.627   2.663  11.329  0.5791 -0.1869  0.2812
  210MPD1    C1 3242   1.729   2.594  11.407 -0.0622 -0.1163 -0.4719
  210MPD1    C2 3243   1.754   2.460  11.369  0.3208  0.2044  0.0220
  210MPD1    C3 3244   1.665   2.390  11.287 -0.2377 -0.2350 -0.1317
  210MPD1    C4 3245   1.563   2.461  11.222 -0.0492  0.3229 -0.8604
  210MPD1    C5 3246   1.549   2.595  11.242 -0.1471 -0.2820 -0.1301
  210MPD1     H 3247   1.839   2.402  11.404  1.3392  1.3212 -0.6104
  210MPD1    H1 3248   1.495   2.408  11.156  0.8740 -1.1457 -0.6458
  210MPD1    H2 3249   1.608   2.769  11.342  1.4856 -0.1056  0.8807
  210MPD1    H3 3250   1.472   2.649  11.189 -0.1182 -1.0407 -0.9509
  210MPD1     N 3251   1.679   2.254  11.256 -0.1499 -0.4222  0.4622
  210MPD1    H5 3252   1.615   2.206  11.194 -0.8554 -0.3249  1.1084
  210MPD1    N1 3253   1.817   2.665  11.493  0.2588 -0.0247  0.4667
  210MPD1    H6 3254   1.862   2.604  11.561  0.3269 -1.2736 -0.7167
  210MPD1    H7 3255   1.771   2.740  11.544 -1.4457 -1.2067  0.6431
  211MPD1     C 3256   3.493   1.368  15.768  0.6288 -0.0673 -0.4528
  211MPD1    C1 3257   3.577   1.394  15.872  0.1817  0.2845  0.3188
  211MPD1    C2 3258   3.528   1.457  15.982  0.0634 -0.5046  0.0347
  211MPD1    C3 3259   3.395   1.498  15.992 -0.5244 -0.4008 -0.0104
  211MPD1    C4 3260   3.309   1.487  15.879 -0.0066 -0.3425  0.1470
  211MPD1    C5 3261   3.365   1.422  15.768  0.5818 -0.2465 -0.2763
  211MPD1     H 3262   3.594   1.490  16.062  1.4374 -2.0815 -0.4356
  211MPD1    H1 3263   3.205   1.514  15.878  0.1570  0.3166  0.8789
  211MPD1    H2 3264   3.536   1.320  15.681 -0.6553  0.4222 -1.3608
  211MPD1    H3 3265   3.310   1.431  15.675  1.3099  1.3338 -0.5534
  211MPD1     N 3266   3.351   1.543  16.122  0.0993  0.0496  0.1276
  211MPD1    H5 3267   3.423   1.544  16.194 -0.7518 -0.1491  0.9762
  211MPD1    N1 3268   3.714   1.352  15.857 -0.2425  0.7613 -0.1196
  211MPD1    H6 3269   3.741   1.343  15.760  0.4998 -1.7596  0.3053
  211MPD1    H7 3270   3.784   1.415  15.897 -0.1802 -0.2877  1.4724
  212MPD1     C 3271   3.090   4.579  16.274  0.0370 -0.1804  0.4606
  212MPD1    C1 3272   2.984   4.667  16.287 -0.6562 -0.9201 -0.4618
  212MPD1    C2 3273   2.895   4.645  16.385  0.5659  0.0745  0.4062
  212MPD1    C3 3274   2.911   4.538  16.475  0.0866 -0.4693 -0.1475
  212MPD1    C4 3275   3.027   4.462  16.465  0.0576  0.2769 -0.1587
  212MPD1    C5 3276   3.114   4.480  16.361  0.1885 -0.1853  0.0298
  212MPD1     H 3277   2.815   4.716  16.406 -0.0655 -0.9489  1.4498
  212MPD1    H1 3278   3.045   4.384  16.538 -2.2343 -0.1238 -0.0385
  212MPD1    H2 3279   3.155   4.590  16.187 -1.5387 -1.1812 -0.8269
  212MPD1    H3 3280   3.200   4.417  16.343 -0.0527 -0.9010  1.3190
  212MPD1     N 3281   2.823   4.516  16.586  0.3305 -0.3151 -1.0002
  212MPD1    H5 3282   2.849   4.447  16.656 -0.2791 -0.5298 -0.9845
  212MPD1    N1 3283   2.988   0.044  16.213  0.2294  0.1245 -0.3822
  212MPD1    H6 3284   3.039   0.033  16.126 -1.1755  1.3311 -1.3701
  212MPD1    H7 3285   2.896   0.077  16.185  0.9728  1.4010 -1.2960
  213MPD1     C 3286   1.320   0.495  15.742 -0.1311  0.3669 -0.0597
  213MPD1    C1 3287   1.250   0.374  15.725  0.1264 -0.0163  0.4384
  213MPD1    C2 3288   1.160   0.373  15.617 -0.6094 -0.6960 -0.6520
  213MPD1    C3 3289   1.119   0.489  15.561  0.0601  0.5645  0.1408
  213MPD1    C4 3290   1.156   0.613  15.622  0.1680 -0.3638 -0.0955
  213MPD1    C5 3291   1.266   0.611  15.706 -0.0232  0.7892 -0.1051
  213MPD1     H 3292   1.120   0.276  15.589  0.1638 -1.4044  0.6514
  213MPD1    H1 3293   1.113   0.710  15.602  0.6518 -0.1227  0.0348
  213MPD1    H2 3294   1.404   0.494  15.810  0.6366  1.2145 -1.0039
  213MPD1    H3 3295   1.307   0.710  15.726 -2.4596  1.6726  0.5079
  213MPD1     N 3296   1.028   0.481  15.454 -0.1341  0.3178  0.1032
  213MPD1    H5 3297   0.991   0.389  15.429  1.0484 -0.0334 -0.3445
  213MPD1    N1 3298   1.315   0.256  15.769 -0.1633 -0.2272 -0.2965
  213MPD1    H6 3299   1.363   0.265  15.858 -0.2768 -0.0837 -0.2491
  213MPD1    H7 3300   1.252   0.177  15.756  1.0596 -1.3945  0.9914
  214MPD1     C 3301   0.391   0.012  14.858  0.7963 -0.4101 -0.3848
  214MPD1    C1 3302   0.384   0.049  14.994  0.2552  0.2144  0.1084
  214MPD1    C2 3303   0.478   0.138  15.044  0.1263 -1.1916  0.7125
  214MPD1    C3 3304   0.572   0.191  14.956  0.6597  0.1426  0.1265
  214MPD1    C4 3305   0.578   0.155  14.826  0.1321  1.0826  0.1789
  214MPD1    C5 3306   0.489   0.064  14.785  0.6040  0.0373 -0.4232
  214MPD1     H 3307   0.471   0.168  15.148  0.8486  1.5524 -0.0454
  214MPD1    H1 3308   0.653   0.189  14.755  1.3800  1.6619  1.7597
  214MPD1    H2 3309   0.316   4.687  14.808 -0.6530  1.3841 -0.4003
  214MPD1    H3 3310   0.500   0.025  14.684 -1.5144  0.9200 -0.9950
  214MPD1     N 3311   0.662   0.298  14.996  0.0680 -0.3352 -0.3268
  214MPD1    H5 3312   0.721   0.329  14.920  0.8571  0.4511  0.5996
  214MPD1    N1 3313   0.291   4.726  15.075  0.1016  0.0112 -0.8127
  214MPD1    H6 3314   0.206   4.700  15.026 -0.4008  0.7622 -0.3354
  214MPD1    H7 3315   0.271   0.055  15.151  1.9803 -0.0168 -0.3016
  215MPD1     C 3316   1.361   0.835  11.058 -0.4602  0.3304 -0.1509
  215MPD1    C1 3317   1.442   0.878  11.163  1.2385 -0.2456  0.3289
  215MPD1    C2 3318   1.472   1.011  11.168  0.2448 -0.4380  0.6924
  215MPD1    C3 3319   1.419   1.102  11.071  0.4606  0.3556 -0.1039
  215MPD1    C4 3320   1.347   1.053  10.963  1.3536 -0.2874  0.2996
  215MPD1    C5 3321   1.318   0.920  10.959 -0.0314 -0.8004  0.9183
  215MPD1     H 3322   1.544   1.049  11.240  0.5076  0.0028  0.1945
  215MPD1    H1 3323   1.300   1.117  10.890  3.9597  0.7187 -0.4956
  215MPD1    H2 3324   1.342   0.728  11.046 -0.3853  0.2656  0.2810
  215MPD1    H3 3325   1.262   0.874  10.878  0.9126 -0.2390 -0.0510
  215MPD1     N 3326   1.435   1.245  11.091 -0.3375  0.1503  0.2632
  215MPD1    H5 3327   1.493   1.267  11.171 -0.4294  0.2012  0.3149
  215MPD1    N1 3328   1.477   0.791  11.267 -0.1141  0.1250  0.1598
  215MPD1    H6 3329   1.555   0.815  11.328  0.2384 -0.7938  0.0716
  215MPD1    H7 3330   1.463   0.694  11.238  0.4995  0.3917 -1.0033
  216MPD1     C 3331   2.691   0.367  16.706  0.8486 -0.2275  0.4285
  216MPD1    C1 3332   2.751   0.243  16.683  0.5317  0.3320  0.6519
  216MPD1    C2 3333   2.776   0.160  16.791  0.0625  0.2316 -0.1721
  216MPD1    C3 3334   2.748   0.196  16.929 -0.5310 -0.2597  0.0184
  216MPD1    C4 3335   2.684   0.320  16.947 -0.1565  0.5169  0.1251
  216MPD1    C5 3336   2.658   0.399  16.839  0.6642  0.1059  0.0887
  216MPD1     H 3337   2.828   0.066  16.777 -0.6581 -0.0018 -1.2220
  216MPD1    H1 3338   2.651   0.358  17.043 -0.9953 -1.1997  0.5019
  216MPD1    H2 3339   2.656   0.430  16.626 -1.1464  0.0004  1.4909
  216MPD1    H3 3340   2.599   0.487  16.861 -0.5576 -0.7282  0.1849
  216MPD1     N 3341   2.798   0.116  17.035 -0.4745  0.4266  0.6583
  216MPD1    H5 3342   2.859   0.043  16.999 -0.6329  0.9204 -0.5896
  216MPD1    N1 3343   2.792   0.211  16.554 -0.1449  0.0906 -0.5941
  216MPD1    H6 3344   2.790   0.113  16.529  2.0218  0.5813 -2.7411
  216MPD1    H7 3345   2.718   0.248  16.495 -0.4300  1.5370  0.6617
  217MPD1     C 3346   3.893   0.575   8.421  0.1487  0.0992 -0.6462
  217MPD1    C1 3347   3.847   0.446   8.444  0.3421 -0.5534 -0.3328
  217MPD1    C2 3348   3.841   0.402   8.577 -0.0934 -0.3642  0.1835
  217MPD1    C3 3349   3.865   0.481   8.689  0.1173 -0.5373 -0.2744
  217MPD1    C4 3350   3.892   0.611   8.659  0.6740 -0.0296 -0.2577
  217MPD1    C5 3351   3.910   0.654   8.529 -0.3204  0.1581  0.8759
  217MPD1     H 3352   3.817   0.298   8.592 -0.4925 -0.2648  0.2169
  217MPD1    H1 3353   3.914   0.679   8.740  0.8987 -0.8288  0.3579
  217MPD1    H2 3354   3.927   0.622   8.329 -0.1551  1.1117 -0.2469
  217MPD1    H3 3355   3.963   0.749   8.525  1.2990 -0.7424  0.9924
  217MPD1     N 3356   3.861   0.443   8.823  0.4522  0.1272  0.4791
  217MPD1    H5 3357   3.864   0.515   8.895  0.8819 -1.6211  2.2124
  217MPD1    N1 3358   3.833   0.351   8.342  0.6046 -0.3468  0.4785
  217MPD1    H6 3359   3.808   0.402   8.257 -1.1639  1.9265  2.3642
  217MPD1    H7 3360   3.766   0.277   8.363 -2.2299  1.5737 -1.7806
  218MPD1     C 3361   0.464   1.613  13.591  0.5761  0.0008  0.1934
  218MPD1    C1 3362   0.545   1.502  13.558 -0.2230 -0.1680  0.0757
  218MPD1    C2 3363   0.648   1.526  13.467 -0.2378 -0.4247 -0.5140
  218MPD1    C3 3364   0.668   1.648  13.403  0.7490  0.3006 -0.5880
  218MPD1    C4 3365   0.583   1.750  13.443 -0.1073 -0.0018  0.2439
  218MPD1    C5 3366   0.482   1.731  13.528 -0.8080  0.1210 -0.2972
  218MPD1     H 3367   0.720   1.449  13.440 -0.5787 -0.4972 -1.2266
  218MPD1    H1 3368   0.585   1.848  13.397  0.1856  0.2399  0.7818
  218MPD1    H2 3369   0.394   1.597  13.672 -1.2731 -1.0658 -1.6233
  218MPD1    H3 3370   0.419   1.818  13.539  0.1269  0.5021  1.8706
  218MPD1     N 3371   0.755   1.664  13.293 -0.0643 -0.2364  0.1565
  218MPD1    H5 3372   0.813   1.582  13.277  1.0387  0.7184 -0.7462
  218MPD1    N1 3373   0.534   1.377  13.624 -0.3949  0.2495 -0.4788
  218MPD1    H6 3374   0.455   1.364  13.687  1.2232 -0.9194  1.3011
  218MPD1    H7 3375   0.519   1.299  13.561  3.6115 -0.7218 -0.2130
  219MPD1     C 3376   1.243   2.254  12.499  0.6546 -0.3760 -0.4102
  219MPD1    C1 3377   1.106   2.231  12.522 -0.4906 -0.2463  0.3342
  219MPD1    C2 3378   1.076   2.151  12.627 -0.4481  0.5519  0.2124
  219MPD1    C3 3379   1.165   2.097  12.717 -0.4377 -0.1328  1.0362
  219MPD1    C4 3380   1.298   2.133  12.700  0.3108 -0.1410 -0.1748
  219MPD1    C5 3381   1.337   2.204  12.588  0.4001 -0.1847 -0.6965
  219MPD1     H 3382   0.976   2.112  12.640  0.3324 -1.0283  1.4195
  219MPD1    H1 3383   1.379   2.108  12.767 -1.3153  1.4453  2.3706
  219MPD1    H2 3384   1.276   2.310  12.412  1.5194  1.4458  1.0872
  219MPD1    H3 3385   1.440   2.221  12.560 -0.3392  2.9070 -1.5034
  219MPD1     N 3386   1.131   2.005  12.819 -0.4616 -0.2324  0.0366
  219MPD1    H5 3387   1.208   1.978  12.879  0.7214 -0.5777 -1.6175
  219MPD1    N1 3388   1.012   2.266  12.423 -0.0863  0.1066 -0.4041
  219MPD1    H6 3389   1.040   2.356  12.384  3.3594 -0.7583  0.0330
  219MPD1    H7 3390   0.925   2.291  12.470  0.0885 -0.2077  0.0910
  220MPD1     C 3391   0.710   2.235   9.616  0.4287 -0.0829  0.0312
  220MPD1    C1 3392   0.821   2.243   9.699 -0.6922  0.0811 -0.4996
  220MPD1    C2 3393   0.828   2.152   9.802 -0.0342 -0.1723 -0.2835
  220MPD1    C3 3394   0.722   2.069   9.828 -0.0552 -0.5511 -0.3518
  220MPD1    C4 3395   0.609   2.073   9.752  0.3617  0.2122 -0.7855
  220MPD1    C5 3396   0.598   2.154   9.642 -1.1732  0.4886 -0.1955
  220MPD1     H 3397   0.922   2.145   9.855  0.6342 -2.3648 -1.7737
  220MPD1    H1 3398   0.531   1.999   9.769 -0.7214  1.4654 -0.2784
  220MPD1    H2 3399   0.706   2.302   9.531 -4.8988 -1.0179 -0.4595
  220MPD1    H3 3400   0.521   2.144   9.566  0.9588  1.0339 -2.4266
  220MPD1     N 3401   0.738   1.977   9.935  0.0984 -0.1741 -0.7192
  220MPD1    H5 3402   0.828   1.991   9.979  1.1867  0.6449 -3.2343
  220MPD1    N1 3403   0.930   2.323   9.663 -0.6356  0.7077  0.0783
  220MPD1    H6 3404   0.902   2.407   9.612  1.3779 -0.3752 -2.8092
  220MPD1    H7 3405   0.978   2.354   9.747  0.4127  2.0094 -0.9986
  221MPD1     C 3406   2.684   1.331  16.447 -0.1001  0.7970 -0.3328
  221MPD1    C1 3407   2.768   1.359  16.551 -0.2161 -0.0085 -0.2217
  221MPD1    C2 3408   2.905   1.344  16.531 -0.4898 -0.5938 -0.1507
  221MPD1    C3 3409   2.951   1.309  16.408  0.4435 -0.1668  0.1180
  221MPD1    C4 3410   2.860   1.271  16.303 -0.6132 -0.6813  0.2442
  221MPD1    C5 3411   2.727   1.281  16.327 -0.6255  0.7606 -0.3268
  221MPD1     H 3412   2.983   1.349  16.607 -0.0126 -1.5126 -0.5790
  221MPD1    H1 3413   2.897   1.228  16.210 -0.0588  2.2475 -0.8877
  221MPD1    H2 3414   2.577   1.316  16.461  0.0503  2.0368  2.1402
  221MPD1    H3 3415   2.656   1.257  16.248  1.9849 -0.1212 -2.4166
  221MPD1     N 3416   3.083   1.287  16.374  0.3604  0.4560 -0.1655
  221MPD1    H5 3417   3.095   1.236  16.287  3.4644 -0.7275  0.9630
  221MPD1    N1 3418   2.723   1.381  16.679 -0.3994 -0.0618  0.1914
  221MPD1    H6 3419   2.653   1.455  16.679  1.7289  1.9361  0.0434
  221MPD1    H7 3420   2.800   1.413  16.737  0.0565 -1.3587  0.2980
  222MPD1     C 3421   2.718   0.726   1.123 -1.4279  0.1844  0.6811
  222MPD1    C1 3422   2.635   0.821   1.170 -0.6815 -0.5312 -0.7130
  222MPD1    C2 3423   2.613   0.940   1.095  0.0025 -0.4538 -0.6792
  222MPD1    C3 3424   2.661   0.951   0.969  0.0986 -0.0738 -0.1392
  222MPD1    C4 3425   2.756   0.863   0.924  0.3523  0.3724  0.0746
  222MPD1    C5 3426   2.775   0.752   0.996  0.0126  0.7622 -0.0875
  222MPD1     H 3427   2.546   1.016   1.134  1.5261  1.2856 -1.4865
  222MPD1    H1 3428   2.820   0.870   0.837  1.0757  2.0602  0.7377
  222MPD1    H2 3429   2.752   0.642   1.183  1.5296  0.1041 -1.1186
  222MPD1    H3 3430   2.856   0.687   0.967 -0.1688  0.1593  0.7627
  222MPD1     N 3431   2.632   1.069   0.891 -0.3123 -0.9818 -0.8840
  222MPD1    H5 3432   2.673   1.087   0.800  0.3915  0.7049 -0.2213
  222MPD1    N1 3433   2.607   0.811   1.302 -0.3584  0.0403 -0.4248
  222MPD1    H6 3434   2.602   0.715   1.336 -0.4734 -0.3162 -1.4426
  222MPD1    H7 3435   2.518   0.854   1.324 -1.6938 -3.4839  0.9444
  223MPD1     C 3436   1.851   1.601   0.355  0.8872 -0.6389 -0.2899
  223MPD1    C1 3437   1.966   1.592   0.276 -0.0764  0.9265  1.3193
  223MPD1    C2 3438   2.081   1.562   0.346 -0.6845 -0.7725  0.1403
  223MPD1    C3 3439   2.088   1.531   0.476  0.5015  1.1826  0.2636
  223MPD1    C4 3440   1.977   1.543   0.558  0.0567 -0.1170  0.2952
  223MPD1    C5 3441   1.864   1.577   0.487  0.0888 -0.5411  0.0680
  223MPD1     H 3442   2.175   1.565   0.291 -0.9115 -1.2604 -0.2643
  223MPD1    H1 3443   1.967   1.529   0.665 -1.5687  2.5066  0.4827
  223MPD1    H2 3444   1.752   1.632   0.324  0.8884 -2.6063 -2.3016
  223MPD1    H3 3445   1.773   1.597   0.542  0.4943 -1.4630  1.0850
  223MPD1     N 3446   2.218   1.484   0.516  0.6331  0.6862 -0.5786
  223MPD1    H5 3447   2.294   1.475   0.450  0.4291  1.6382 -0.9431
  223MPD1    N1 3448   1.960   1.631   0.143 -0.1668  0.1056 -0.0245
  223MPD1    H6 3449   2.034   1.592   0.084 -0.0552 -0.3809  0.4382
  223MPD1    H7 3450   1.875   1.618   0.088  0.6164  2.1573 -1.7491
  224MPD1     C 3451   3.833   1.001   9.006  0.2975 -0.2946  0.4869
  224MPD1    C1 3452   3.937   0.916   9.052  0.0412 -0.0685  0.2249
  224MPD1    C2 3453   3.930   0.874   9.182 -0.3700  0.5771 -0.2422
  224MPD1    C3 3454   3.841   0.927   9.276  0.4605  0.4661  0.8833
  224MPD1    C4 3455   3.740   1.003   9.227 -0.4090 -0.0562  0.2648
  224MPD1    C5 3456   3.736   1.040   9.096  0.0630 -0.6097 -0.2400
  224MPD1     H 3457   4.000   0.796   9.210  1.4680  2.6614  0.9800
  224MPD1    H1 3458   3.658   1.034   9.290  1.7628  2.8037  1.6602
  224MPD1    H2 3459   3.834   1.032   8.902 -0.7399 -0.3609  0.4569
  224MPD1    H3 3460   3.655   1.103   9.062  0.4025 -0.0790 -0.0684
  224MPD1     N 3461   3.829   0.880   9.411  0.8192  1.2612  0.3846
  224MPD1    H5 3462   3.745   0.907   9.459  1.3612  0.9379  1.5127
  224MPD1    N1 3463   4.018   0.844   8.954 -0.4945  0.3965  0.2854
  224MPD1    H6 3464   4.106   0.813   8.996 -0.2716 -1.2007 -1.3626
  224MPD1    H7 3465   4.050   0.900   8.876 -1.1734 -0.8968 -0.9081
  225MPD1     C 3466   0.713   2.241  12.089  0.3163  0.4097  0.2574
  225MPD1    C1 3467   0.658   2.127  12.037  0.1746 -0.0272 -0.2923
  225MPD1    C2 3468   0.521   2.120  12.031 -0.3367  0.0189 -0.7655
  225MPD1    C3 3469   0.433   2.211  12.089 -0.2796 -0.1104 -0.6429
  225MPD1    C4 3470   0.495   2.318  12.142  0.3347 -0.1065  0.2653
  225MPD1    C5 3471   0.633   2.331  12.153  0.1046  0.8071  0.4847
  225MPD1     H 3472   0.471   2.034  11.989 -4.2577  1.3706  1.1246
  225MPD1    H1 3473   0.424   2.378  12.198 -0.5842 -1.1328  0.1865
  225MPD1    H2 3474   0.820   2.251  12.073  0.0967  0.1815 -1.3786
  225MPD1    H3 3475   0.671   2.423  12.198  0.4651  1.3027 -0.8182
  225MPD1     N 3476   0.294   2.208  12.095  0.4226  0.7869 -0.1092
  225MPD1    H5 3477   0.246   2.292  12.128 -2.0027  0.1463 -1.9515
  225MPD1    N1 3478   0.729   2.016  11.984 -0.0032  0.3882  0.0648
  225MPD1    H6 3479   0.810   1.987  12.039 -1.5404 -1.3922  1.3933
  225MPD1    H7 3480   0.665   1.937  11.996 -0.7911  1.1724  0.9953
  226MPD1     C 3481   2.685   2.061   9.554 -0.2332  0.0611 -0.8369
  226MPD1    C1 3482   2.708   1.950   9.627  0.0848 -1.0484 -0.2591
  226MPD1    C2 3483   2.837   1.952   9.689  0.3728 -0.2158 -0.0995
  226MPD1    C3 3484   2.924   2.058   9.692  0.2216 -0.2148  0.4121
  226MPD1    C4 3485   2.886   2.178   9.636  0.1495  0.4384 -0.5239
  226MPD1    C5 3486   2.769   2.172   9.565 -0.3218  0.0512  0.1571
  226MPD1     H 3487   2.869   1.862   9.740  0.3265  0.4337  1.0830
  226MPD1    H1 3488   2.940   2.271   9.637  0.9771 -0.0754  2.2773
  226MPD1    H2 3489   2.597   2.081   9.495 -0.7409  1.0938  0.2766
  226MPD1    H3 3490   2.732   2.256   9.507 -0.6120  1.1468  1.9485
  226MPD1     N 3491   3.042   2.035   9.768 -0.3706  0.3183  0.7518
  226MPD1    H5 3492   3.080   1.942   9.781  0.8375  0.7906  0.5820
  226MPD1    N1 3493   2.630   1.826   9.624 -0.5125  0.4062  0.4408
  226MPD1    H6 3494   2.530   1.846   9.613 -0.0220  1.6592 -1.8485
  226MPD1    H7 3495   2.650   1.771   9.707 -0.8671  0.5675  0.6327
  227MPD1     C 3496   3.827   2.646   9.793  0.0758 -0.9144  0.5811
  227MPD1    C1 3497   3.699   2.671   9.841  0.0732  0.3927  0.4083
  227MPD1    C2 3498   3.621   2.564   9.883  0.1378  0.1401  0.1468
  227MPD1    C3 3499   3.661   2.433   9.855  0.4532 -0.2765 -0.8094
  227MPD1    C4 3500   3.794   2.416   9.817 -0.4562 -0.4230  0.6966
  227MPD1    C5 3501   3.877   2.523   9.782  0.4143  0.6576  0.4381
  227MPD1     H 3502   3.519   2.582   9.914 -0.2388 -1.2896 -0.2837
  227MPD1    H1 3503   3.826   2.314   9.801 -1.7207 -0.5944 -0.7504
  227MPD1    H2 3504   3.895   2.725   9.763 -1.6676 -0.2941 -1.7623
  227MPD1    H3 3505   3.980   2.504   9.752 -1.0804 -4.6657 -1.3053
  227MPD1     N 3506   3.568   2.320   9.866 -0.4787  0.1376  0.8136
  227MPD1    H5 3507   3.474   2.355   9.881 -0.5019 -0.3201  1.7169
  227MPD1    N1 3508   3.651   2.805   9.870 -0.2289  0.5366 -0.0312
  227MPD1    H6 3509   3.553   2.817   9.845 -0.5585  0.6096  1.2599
  227MPD1    H7 3510   3.699   2.861   9.800  0.1173 -0.4135 -0.5533
  228MPD1     C 3511   2.418   0.561  12.395  0.7003 -0.2448 -0.1387
  228MPD1    C1 3512   2.305   0.547  12.312 -0.0321  0.0110  0.1233
  228MPD1    C2 3513   2.189   0.494  12.367  0.1542 -0.1802 -0.2826
  228MPD1    C3 3514   2.183   0.452  12.501 -0.3855  0.3088 -0.0285
  228MPD1    C4 3515   2.289   0.467  12.582  1.0223 -0.4254  0.2441
  228MPD1    C5 3516   2.395   0.529  12.525 -0.3607  0.3403 -0.1791
  228MPD1     H 3517   2.096   0.493  12.311  0.4477  1.8542 -0.7838
  228MPD1    H1 3518   2.297   0.437  12.686 -0.5740  0.1322  0.5288
  228MPD1    H2 3519   2.509   0.605  12.355 -0.2080 -0.0866 -2.0506
  228MPD1    H3 3520   2.472   0.554  12.598 -2.1538  2.2925  1.0628
  228MPD1     N 3521   2.056   0.407  12.542 -0.7755  0.7893  0.4140
  228MPD1    H5 3522   1.988   0.410  12.467  0.4460  0.1477 -0.7142
  228MPD1    N1 3523   2.322   0.564  12.173 -0.1633  0.2999  0.0397
  228MPD1    H6 3524   2.232   0.588  12.133 -1.0281 -0.1874  1.6638
  228MPD1    H7 3525   2.380   0.645  12.156  0.2805  0.2854  1.4530
  229MPD1     C 3526   2.154   3.751  14.588 -0.7942 -0.0741 -0.4316
  229MPD1    C1 3527   2.178   3.835  14.689 -0.3614 -0.5296 -0.2430
  229MPD1    C2 3528   2.168   3.791  14.818 -0.1252  0.5871  0.2784
  229MPD1    C3 3529   2.127   3.667  14.846 -0.6090  0.1472  0.4257
  229MPD1    C4 3530   2.102   3.579  14.749 -0.0248 -0.2445  0.8254
  229MPD1    C5 3531   2.117   3.622  14.622  0.5071 -0.4444 -0.3982
  229MPD1     H 3532   2.170   3.863  14.900  0.7485 -0.2221  0.9693
  229MPD1    H1 3533   2.050   3.484  14.753  0.8456 -0.6680  2.1194
  229MPD1    H2 3534   2.169   3.792  14.489 -0.6297  0.9779  0.0343
  229MPD1    H3 3535   2.106   3.553  14.539 -1.4072  0.5254 -0.9471
  229MPD1     N 3536   2.106   3.622  14.979  0.2815  0.0248 -0.0389
  229MPD1    H5 3537   2.086   3.525  15.001  2.0708 -0.4637 -0.5855
  229MPD1    N1 3538   2.158   3.970  14.673 -0.0130  0.6785 -0.6883
  229MPD1    H6 3539   2.206   4.026  14.744 -1.7581  0.5460  0.6155
  229MPD1    H7 3540   2.218   3.996  14.595 -0.2553 -0.8260 -1.3682
  230MPD1     C 3541   2.641   3.417  15.859 -0.3230  0.1567 -0.3710
  230MPD1    C1 3542   2.634   3.312  15.769 -0.2453 -0.4613 -0.2067
  230MPD1    C2 3543   2.532   3.310  15.678  0.4908  0.2957 -0.2968
  230MPD1    C3 3544   2.463   3.425  15.651 -0.4840 -0.0571 -0.0767
  230MPD1    C4 3545   2.473   3.527  15.738  0.4018 -0.2514  0.7637
  230MPD1    C5 3546   2.558   3.519  15.841 -0.4826  0.3087 -0.3428
  230MPD1     H 3547   2.529   3.224  15.611 -0.5353  0.8154 -0.9324
  230MPD1    H1 3548   2.406   3.612  15.739 -1.1038 -1.4850  3.0183
  230MPD1    H2 3549   2.710   3.421  15.943 -0.4796 -1.2246 -0.1701
  230MPD1    H3 3550   2.567   3.604  15.908 -1.7160 -1.1602  1.6827
  230MPD1     N 3551   2.368   3.420  15.546  0.6461  0.2453 -0.1163
  230MPD1    H5 3552   2.345   3.329  15.508 -1.0988  0.3791  0.6355
  230MPD1    N1 3553   2.714   3.198  15.787  0.7755 -0.6258 -0.2573
  230MPD1    H6 3554   2.727   3.127  15.715 -2.0683 -1.0332 -0.3576
  230MPD1    H7 3555   2.798   3.209  15.844  1.1346  2.5679 -1.4256
  231MPD1     C 3556   0.030   0.624  15.514  0.0937  0.3260  0.1800
  231MPD1    C1 3557   0.075   0.729  15.450 -0.8856  0.0267  0.6154
  231MPD1    C2 3558   0.148   0.712  15.336 -0.0335  0.1046 -0.3620
  231MPD1    C3 3559   0.162   0.594  15.274  0.0806 -0.4190 -0.5492
  231MPD1    C4 3560   0.101   0.485  15.332  0.6769  0.3032 -0.2755
  231MPD1    C5 3561   0.039   0.506  15.453  0.3681  0.0895 -0.5274
  231MPD1     H 3562   0.202   0.794  15.290 -1.3958  1.0235 -0.3377
  231MPD1    H1 3563   0.108   0.385  15.291  0.5687  0.6701 -1.1743
  231MPD1    H2 3564   4.704   0.624  15.603 -0.5526  2.0952 -0.2638
  231MPD1    H3 3565   4.718   0.420  15.485  1.5024 -1.1818 -1.9590
  231MPD1     N 3566   0.253   0.584  15.161 -0.3385  0.6219  0.9480
  231MPD1    H5 3567   0.306   0.664  15.129  3.7614 -2.6073 -0.4295
  231MPD1    N1 3568   0.076   0.842  15.529 -0.2198 -0.3459  0.5244
  231MPD1    H6 3569   0.081   0.917  15.460 -0.7267  1.4017  2.4108
  231MPD1    H7 3570   4.725   0.851  15.581 -0.1960 -1.7808  0.8184
  232MPD1     C 3571   2.756   3.566  17.681 -0.2638  0.4801  0.1021
  232MPD1    C1 3572   2.685   3.440  17.678  0.2771  0.1056  0.0700
  232MPD1    C2 3573   2.547   3.437  17.700  1.1223  0.5212  0.8172
  232MPD1    C3 3574   2.482   3.554  17.735  0.1129 -0.0677  1.2217
  232MPD1    C4 3575   2.554   3.669   0.005  0.0283 -0.1594  0.2044
  232MPD1    C5 3576   2.688   3.679  17.721 -0.1263  0.0660 -0.4661
  232MPD1     H 3577   2.486   3.347  17.692 -0.0330  1.2799  1.0574
  232MPD1    H1 3578   2.510   3.761   0.040  2.1988  2.0720 -2.8495
  232MPD1    H2 3579   2.861   3.586  17.663  0.1251 -1.2683  0.3547
  232MPD1    H3 3580   2.749   3.768  17.725  0.3061 -0.2909  0.6958
  232MPD1     N 3581   2.337   3.547   0.016 -0.1990 -0.0727 -0.5703
  232MPD1    H5 3582   2.305   3.451   0.013 -2.6997  0.7553  0.0249
  232MPD1    N1 3583   2.752   3.327  17.634  0.0863 -0.5716 -0.0210
  232MPD1    H6 3584   2.852   3.331  17.648  0.0329  1.1512 -0.0691
  232MPD1    H7 3585   2.711   3.240  17.669 -0.1989 -0.1754  0.6372
  233MPD1     C 3586   2.902   1.939   0.845 -0.1063 -0.2987  0.3710
  233MPD1    C1 3587   2.913   1.930   0.983  0.3197 -0.6680 -0.4382
  233MPD1    C2 3588   3.036   1.945   1.040  0.5843  0.1545 -0.3686
  233MPD1    C3 3589   3.150   1.985   0.972  1.1223  0.4762 -0.0868
  233MPD1    C4 3590   3.134   1.997   0.838 -0.7872  0.3372  0.4729
  233MPD1    C5 3591   3.017   1.971   0.773  0.2395  0.0181  0.1169
  233MPD1     H 3592   3.050   1.929   1.146 -0.6958 -0.8682 -0.3553
  233MPD1    H1 3593   3.219   2.024   0.776 -0.1663 -2.1638  0.2356
  233MPD1    H2 3594   2.809   1.917   0.794  0.3123 -0.7167 -0.2146
  233MPD1    H3 3595   3.017   1.977   0.665 -0.0641  0.3751  0.1381
  233MPD1     N 3596   3.276   2.011   1.036  0.1189  0.3093  0.1783
  233MPD1    H5 3597   3.352   2.033   0.972  0.0932 -0.0160  0.0389
  233MPD1    N1 3598   2.799   1.905   1.058  0.3040 -0.6784 -0.4839
  233MPD1    H6 3599   2.799   1.953   1.148 -0.7269 -0.4409 -0.6006
  233MPD1    H7 3600   2.709   1.920   1.012  0.1473  2.3062  0.7596
  234MPD1     C 3601   0.076   3.920   9.931 -0.4268 -0.7152 -0.2185
  234MPD1    C1 3602   0.017   3.959   9.808  0.3774  0.3069  0.6137
  234MPD1    C2 3603   4.713   4.095   9.793  0.0567 -0.1657  0.1087
  234MPD1    C3 3604   4.710   4.173   9.902  0.0180 -0.6765  0.9044
  234MPD1    C4 3605   0.024   4.136  10.025  0.8170  0.3888  0.4651
  234MPD1    C5 3606   0.083   4.006  10.033  0.4825  0.9084 -0.6117
  234MPD1     H 3607   4.662   4.138   9.706  1.9235  0.3245 -0.7337
  234MPD1    H1 3608   0.039   4.198  10.113  0.9246  2.4285 -0.9943
  234MPD1    H2 3609   0.114   3.821   9.954  1.8598 -0.2465 -2.0532
  234MPD1    H3 3610   0.134   3.969  10.121 -1.0970  0.7188  0.2376
  234MPD1     N 3611   4.665   4.310   9.879 -0.0975  0.1195 -0.2358
  234MPD1    H5 3612   4.631   4.321   9.784  1.9327  0.2880 -0.9373
  234MPD1    N1 3613   0.028   3.869   9.696 -0.4332  0.3446 -0.4695
  234MPD1    H6 3614   0.020   3.771   9.723 -0.3761  0.6876  0.7650
  234MPD1    H7 3615   4.700   3.899   9.622  0.3034  0.6282 -0.9970
  235MPD1     C 3616   1.048   2.299  10.319 -0.3603 -0.6490 -0.2682
  235MPD1    C1 3617   1.054   2.366  10.199  0.3350 -0.5502 -0.4629
  235MPD1    C2 3618   1.121   2.487  10.189  0.2253  0.4007  0.5555
  235MPD1    C3 3619   1.199   2.530  10.292 -0.0993 -0.3609 -0.3695
  235MPD1    C4 3620   1.210   2.456  10.411 -0.4145  0.7846 -0.3662
  235MPD1    C5 3621   1.131   2.343  10.421  0.4663 -0.1240 -0.0827
  235MPD1     H 3622   1.113   2.546  10.099  0.6183  0.7422  0.7437
  235MPD1    H1 3623   1.258   2.483  10.504  0.6315 -0.4462 -0.5546
  235MPD1    H2 3624   0.975   2.220  10.333 -0.7197  0.2831  3.2054
  235MPD1    H3 3625   1.126   2.306  10.522 -2.3750 -0.3765 -0.3129
  235MPD1     N 3626   1.250   2.661  10.274 -0.2970 -0.2743 -0.2818
  235MPD1    H5 3627   1.257   2.702  10.181  1.9184  2.2352  0.9820
  235MPD1    N1 3628   0.965   2.327  10.096  0.6507 -0.0472  0.0423
  235MPD1    H6 3629   0.968   2.225  10.088  0.0317  0.0094 -0.9141
  235MPD1    H7 3630   0.988   2.365  10.005  1.5098 -0.7192 -0.0172
  236MPD1     C 3631   1.122   3.528   9.183  1.4223  0.2198  0.2570
  236MPD1    C1 3632   1.207   3.585   9.280 -0.0777 -0.9529 -0.2161
  236MPD1    C2 3633   1.153   3.622   9.395  0.2042  0.4294  0.0326
  236MPD1    C3 3634   1.023   3.609   9.424  0.7509 -0.5978  0.7280
  236MPD1    C4 3635   0.939   3.545   9.339  0.6344 -0.0422 -0.0854
  236MPD1    C5 3636   0.990   3.512   9.211 -0.0573  0.5071  0.0594
  236MPD1     H 3637   1.220   3.669   9.466 -0.9012  2.5083 -0.3021
  236MPD1    H1 3638   0.837   3.522   9.366  0.6184 -0.5988 -0.6204
  236MPD1    H2 3639   1.157   3.478   9.094 -0.3066 -1.4419  0.5119
  236MPD1    H3 3640   0.912   3.483   9.142  1.3885 -0.1841 -1.2742
  236MPD1     N 3641   0.981   3.649   9.554 -0.5000  0.2215  0.3271
  236MPD1    H5 3642   1.054   3.679   9.617  0.6075 -0.4637 -0.6251
  236MPD1    N1 3643   1.343   3.582   9.261  0.4712 -0.2915 -0.4668
  236MPD1    H6 3644   1.365   3.574   9.162 -1.5689  0.1669 -0.9536
  236MPD1    H7 3645   1.386   3.664   9.303  0.3257 -0.2991 -0.3031
  237MPD1     C 3646   1.311   2.189  15.168 -0.4873 -0.4199 -0.6806
  237MPD1    C1 3647   1.228   2.286  15.119  1.1257  0.0450 -0.4314
  237MPD1    C2 3648   1.099   2.255  15.101  0.9049 -0.6460  0.1877
  237MPD1    C3 3649   1.046   2.133  15.143 -0.0599 -0.2258 -0.0174
  237MPD1    C4 3650   1.130   2.041  15.199 -0.3847  0.0408 -1.3463
  237MPD1    C5 3651   1.258   2.073  15.216 -0.4443  0.0978 -0.9311
  237MPD1     H 3652   1.047   2.328  15.040  0.7125  0.7957  2.0657
  237MPD1    H1 3653   1.086   1.945  15.224  0.4540  0.1020  0.3980
  237MPD1    H2 3654   1.416   2.197  15.190 -1.2906 -0.3295  3.0622
  237MPD1    H3 3655   1.326   1.996  15.252  2.5350  1.2259 -4.0592
  237MPD1     N 3656   0.910   2.104  15.140  0.0780  0.3797  0.4648
  237MPD1    H5 3657   0.881   2.007  15.152 -1.3580  0.8487  0.8018
  237MPD1    N1 3658   1.291   2.399  15.069  0.3159 -0.0917 -0.3715
  237MPD1    H6 3659   1.229   2.479  15.061 -0.8131 -0.9481 -0.1135
  237MPD1    H7 3660   1.375   2.426  15.121  0.1882 -0.0611 -0.1816
  238MPD1     C 3661   2.267   0.049  15.084  0.2424  0.2021 -0.4687
  238MPD1    C1 3662   2.217   4.691  14.998  0.2107 -0.4761  0.0702
  238MPD1    C2 3663   2.164   0.007  14.874 -0.4504 -0.2038 -0.9421
  238MPD1    C3 3664   2.151   0.142  14.854 -0.3140  0.2202  0.0423
  238MPD1    C4 3665   2.212   0.232  14.947  0.3332  0.5742  0.2459
  238MPD1    C5 3666   2.281   0.179  15.046  0.3285  0.3022  0.3975
  238MPD1     H 3667   2.127   4.668  14.806 -0.2448 -0.9625 -0.2155
  238MPD1    H1 3668   2.193   0.339  14.941 -0.8519  0.3776  0.3373
  238MPD1    H2 3669   2.308   0.032  15.183 -0.4164  1.4140  0.0003
  238MPD1    H3 3670   2.308   0.251  15.121  0.2019  1.6405 -0.8377
  238MPD1     N 3671   2.083   0.197  14.739  0.7249 -0.1685 -0.0484
  238MPD1    H5 3672   2.067   0.297  14.730 -0.7737 -0.4886 -0.8569
  238MPD1    N1 3673   2.179   4.560  15.022  0.3627  0.7152 -0.0937
  238MPD1    H6 3674   2.238   4.502  15.081 -2.9266 -1.8809  0.6354
  238MPD1    H7 3675   2.145   4.504  14.944 -0.2354  1.7394 -0.5704
  239MPD1     C 3676   2.233   1.355  15.194  0.2583  0.1296 -0.6920
  239MPD1    C1 3677   2.326   1.321  15.104 -0.0910  0.3727  0.2457
  239MPD1    C2 3678   2.342   1.402  14.993  0.0301  0.3570 -0.5002
  239MPD1    C3 3679   2.254   1.502  14.959  0.0025 -0.3133 -1.3744
  239MPD1    C4 3680   2.151   1.531  15.049  0.1173 -0.4440 -0.9608
  239MPD1    C5 3681   2.147   1.459  15.165  0.1647 -0.0443  0.2445
  239MPD1     H 3682   2.419   1.391  14.917 -0.6889 -2.0213 -0.8919
  239MPD1    H1 3683   2.077   1.609  15.033  1.8702  0.8187 -2.8265
  239MPD1    H2 3684   2.235   1.298  15.286  2.8688  0.0090 -0.8295
  239MPD1    H3 3685   2.069   1.482  15.236  0.2462 -3.1471  1.3428
  239MPD1     N 3686   2.247   1.576  14.835  0.4715  0.3119  0.8248
  239MPD1    H5 3687   2.185   1.656  14.836  1.0613  0.7893 -1.0389
  239MPD1    N1 3688   2.423   1.233  15.137 -1.2829 -0.3436  0.0700
  239MPD1    H6 3689   2.447   1.177  15.056  1.6997  0.5778  0.3367
  239MPD1    H7 3690   2.370   1.172  15.199  1.1420 -2.8084 -0.3096
  240MPD1     C 3691   1.247   1.464  13.542  0.3442 -0.6006  0.2861
  240MPD1    C1 3692   1.164   1.403  13.641  0.2215 -0.3105  0.4316
  240MPD1    C2 3693   1.212   1.284  13.695  0.7022 -0.1635  0.3582
  240MPD1    C3 3694   1.345   1.255  13.683  0.1017  0.4623 -0.2585
  240MPD1    C4 3695   1.425   1.327  13.595 -0.2365 -0.4897  0.3890
  240MPD1    C5 3696   1.365   1.419  13.517  0.7026 -0.2611  0.1433
  240MPD1     H 3697   1.144   1.215  13.744  0.6331 -0.4042 -0.0796
  240MPD1    H1 3698   1.532   1.313  13.595 -0.0955  0.6229  1.0329
  240MPD1    H2 3699   1.211   1.540  13.474 -0.4807 -1.0273  0.2422
  240MPD1    H3 3700   1.427   1.475  13.448 -0.5066  0.3992 -0.4041
  240MPD1     N 3701   1.395   1.149  13.758 -0.5471  0.4758  0.3567
  240MPD1    H5 3702   1.329   1.114  13.827 -1.8621  2.5692  0.1581
  240MPD1    N1 3703   1.033   1.445  13.651  0.1185 -0.4369 -0.5189
  240MPD1    H6 3704   1.008   1.430  13.749  1.8441 -0.6548 -0.1134
  240MPD1    H7 3705   1.030   1.545  13.631  2.6887 -0.3009 -0.2977
  241MPD1     C 3706   2.139   0.326  13.880  0.2485 -0.2747  0.0691
  241MPD1    C1 3707   2.151   0.452  13.832 -0.1183 -0.1982  0.3426
  241MPD1    C2 3708   2.042   0.533  13.822 -0.3451  0.2788 -0.0119
  241MPD1    C3 3709   1.922   0.498  13.875 -0.0285  0.3172 -0.2989
  241MPD1    C4 3710   1.910   0.376  13.923 -0.1861 -0.2987 -0.4552
  241MPD1    C5 3711   2.018   0.291  13.920 -0.4655 -0.4279  0.3513
  241MPD1     H 3712   2.049   0.630  13.774  0.0826  0.7438  0.9894
  241MPD1    H1 3713   1.824   0.338  13.976 -1.0416 -0.8130 -2.2165
  241MPD1    H2 3714   2.211   0.246  13.890  0.6889  0.0774 -0.2923
  241MPD1    H3 3715   2.001   0.187  13.941  0.0063 -0.9588 -1.8379
  241MPD1     N 3716   1.809   0.585  13.874  0.7704  0.3560  0.5413
  241MPD1    H5 3717   1.723   0.550  13.913  0.3867  2.4478  1.5740
  241MPD1    N1 3718   2.278   0.481  13.778  0.3368  0.0986  0.1518
  241MPD1    H6 3719   2.311   0.571  13.812 -0.9996  0.2642  1.0369
  241MPD1    H7 3720   2.342   0.410  13.814  0.0733  1.0839  2.5460
  242MPD1     C 3721   1.433   4.521  15.829 -0.4617 -0.0630  0.1429
  242MPD1    C1 3722   1.357   4.546  15.719  0.2766 -0.1517  0.6989
  242MPD1    C2 3723   1.389   4.478  15.604 -0.7492 -0.1295 -0.1829
  242MPD1    C3 3724   1.477   4.375  15.597  0.2664 -0.9400  0.5375
  242MPD1    C4 3725   1.536   4.336  15.715 -0.1578 -0.7721  0.0184
  242MPD1    C5 3726   1.517   4.410  15.831  0.7767  0.7756 -0.3983
  242MPD1     H 3727   1.347   4.507  15.509  0.8819 -1.2295 -1.2332
  242MPD1    H1 3728   1.601   4.250  15.729  1.9471  0.8747  0.2161
  242MPD1    H2 3729   1.423   4.579  15.920 -0.4016  0.4827 -0.1993
  242MPD1    H3 3730   1.569   4.390  15.924 -0.3180  0.5268  0.1621
  242MPD1     N 3731   1.514   4.307  15.479  0.2418 -0.3217 -0.1811
  242MPD1    H5 3732   1.587   4.239  15.495 -1.0379 -1.6431  0.0018
  242MPD1    N1 3733   1.277   4.659  15.718 -0.0607  0.0400 -0.6858
  242MPD1    H6 3734   1.248   4.698  15.807 -1.8248  0.6683 -1.5269
  242MPD1    H7 3735   1.206   4.660  15.644 -1.1016  0.2836  0.3244
  243MPD1     C 3736   3.267   4.295  17.717 -0.6603 -0.0183 -0.1677
  243MPD1    C1 3737   3.277   4.175   0.038 -0.8933  0.4404 -0.1112
  243MPD1    C2 3738   3.308   4.061  17.698  0.5823 -0.0162  0.6042
  243MPD1    C3 3739   3.350   4.079  17.565  0.7257  0.5336 -0.0621
  243MPD1    C4 3740   3.356   4.209  17.515 -0.5451  0.0844  0.1088
  243MPD1    C5 3741   3.303   4.309  17.583  0.2860 -0.7335  0.0297
  243MPD1     H 3742   3.311   3.958  17.731  0.0096  0.3250  1.7023
  243MPD1    H1 3743   3.377   4.232  17.411  1.0508 -0.7021  0.2559
  243MPD1    H2 3744   3.244   4.381   0.036  0.7521  0.4403 -0.2734
  243MPD1    H3 3745   3.285   4.400  17.527  0.3517 -0.3682  0.6073
  243MPD1     N 3746   3.389   3.968  17.495 -0.0152  0.0521  0.1548
  243MPD1    H5 3747   3.365   3.879  17.536 -0.2568  0.0467  0.0052
  243MPD1    N1 3748   3.227   4.157   0.167  0.4522  0.0320 -0.2790
  243MPD1    H6 3749   3.274   4.079   0.214  2.1576 -0.2772 -2.5109
  243MPD1    H7 3750   3.234   4.243   0.221 -0.3061 -1.2816  1.8803
  244MPD1     C 3751   3.051   3.304   0.039 -0.1295  0.1906 -0.0199
  244MPD1    C1 3752   3.095   3.428   0.066 -0.1005 -0.2142  0.5320
  244MPD1    C2 3753   3.190   3.480  17.718  0.2835 -0.2133  0.4029
  244MPD1    C3 3754   3.235   3.415  17.603  0.1045 -0.2552 -0.6076
  244MPD1    C4 3755   3.195   3.286  17.579 -0.1824 -0.8602  0.2005
  244MPD1    C5 3756   3.104   3.236  17.672 -0.2526  0.2275 -0.0026
  244MPD1     H 3757   3.224   3.580  17.741  1.6915 -0.9371  1.5091
  244MPD1    H1 3758   3.231   3.231  17.493  0.3550  1.1038 -0.8292
  244MPD1    H2 3759   2.977   3.259   0.103  1.6082 -5.8683 -2.2234
  244MPD1    H3 3760   3.071   3.134  17.656  2.9370 -0.6140 -1.1712
  244MPD1     N 3761   3.322   3.495  17.524 -0.0502 -0.0554 -0.3676
  244MPD1    H5 3762   3.365   3.571  17.577 -0.1208 -0.0098 -0.3757
  244MPD1    N1 3763   3.058   3.493   0.185  0.2277  0.4309  0.5555
  244MPD1    H6 3764   2.965   3.461   0.215 -0.4975  2.0294 -0.0265
  244MPD1    H7 3765   3.061   3.594   0.181 -0.4657  0.2626 -3.8448
  245MPD1     C 3766   0.194   3.083  13.018 -1.2176 -0.3406  0.4466
  245MPD1    C1 3767   0.322   3.135  13.039  0.1550  0.6271  0.2830
  245MPD1    C2 3768   0.359   3.184  13.161  0.7349  0.0361 -0.5155
  245MPD1    C3 3769   0.258   3.204  13.252  0.1807  0.5862  0.1917
  245MPD1    C4 3770   0.122   3.170  13.223 -0.0008  0.7120  0.5106
  245MPD1    C5 3771   0.094   3.113  13.106 -0.1036  0.3689 -0.2139
  245MPD1     H 3772   0.464   3.206  13.178  1.0566 -0.5008 -1.7445
  245MPD1    H1 3773   0.047   3.173  13.301  0.0760 -2.1993  0.7143
  245MPD1    H2 3774   0.164   3.025  12.931  4.2746 -2.7571  0.1649
  245MPD1    H3 3775   4.732   3.072  13.085  0.2673  1.0866 -3.3650
  245MPD1     N 3776   0.278   3.260  13.379 -0.0288  1.3375  0.1038
  245MPD1    H5 3777   0.196   3.278  13.436 -1.7873  0.4633 -2.1434
  245MPD1    N1 3778   0.419   3.097  12.945 -0.3675 -0.9331  0.1732
  245MPD1    H6 3779   0.496   3.164  12.949 -1.2700 -0.0037  2.1551
  245MPD1    H7 3780   0.368   3.113  12.858  0.5663 -1.0964 -0.3963
  246MPD1     C 3781   0.889   0.824  10.521 -0.1635 -0.3195 -0.2425
  246MPD1    C1 3782   0.974   0.732  10.581  0.3573 -0.2254  0.6720
  246MPD1    C2 3783   1.051   0.653  10.494  0.1173  0.3650 -0.5500
  246MPD1    C3 3784   1.033   0.654  10.357 -0.0126  0.8210 -0.0581
  246MPD1    C4 3785   0.935   0.734  10.307  0.3520  0.2126  0.2789
  246MPD1    C5 3786   0.881   0.829  10.384 -0.0297  0.6626  0.3928
  246MPD1     H 3787   1.128   0.590  10.538 -0.3757  0.0472 -0.1502
  246MPD1    H1 3788   0.930   0.756  10.200  2.1904  0.7674  0.3174
  246MPD1    H2 3789   0.842   0.900  10.583 -1.4152 -0.7880 -0.6226
  246MPD1    H3 3790   0.813   0.901  10.339 -2.0249  0.2964  2.8386
  246MPD1     N 3791   1.130   0.586  10.277 -0.3766  0.3714  0.8062
  246MPD1    H5 3792   1.216   0.549  10.317  0.2146  1.4744  0.5409
  246MPD1    N1 3793   1.010   0.744  10.721  0.3006 -0.0062  0.2951
  246MPD1    H6 3794   1.042   0.654  10.755  2.6707 -0.0363 -2.0381
  246MPD1    H7 3795   0.928   0.767  10.776 -0.7277 -1.2563 -0.7301
  247MPD1     C 3796   4.320   3.927  16.916 -0.4490 -0.5777 -0.1285
  247MPD1    C1 3797   4.229   3.890  16.818 -0.2536 -0.1764  0.0442
  247MPD1    C2 3798   4.250   3.768  16.744 -0.0788  0.2450 -0.7406
  247MPD1    C3 3799   4.375   3.710  16.757 -0.1481  0.4233 -0.1444
  247MPD1    C4 3800   4.467   3.756  16.846 -0.5112  0.5946  0.7883
  247MPD1    C5 3801   4.437   3.862  16.932  0.0500  0.9155 -0.3012
  247MPD1     H 3802   4.178   3.727  16.674 -0.3011 -1.3870  0.4418
  247MPD1    H1 3803   4.567   3.714  16.847 -1.0427 -0.6349  2.0459
  247MPD1    H2 3804   4.306   4.014  16.980 -0.1698 -0.1578 -0.6352
  247MPD1    H3 3805   4.515   3.903  16.995  0.5889  0.9600 -0.9966
  247MPD1     N 3806   4.421   3.598  16.680 -0.5580 -0.0736 -0.2069
  247MPD1    H5 3807   4.509   3.557  16.711 -0.8427  0.4874  1.3572
  247MPD1    N1 3808   4.101   3.948  16.826 -0.6934 -0.1514  0.4208
  247MPD1    H6 3809   4.109   4.045  16.854 -0.6834  0.3503 -1.3141
  247MPD1    H7 3810   4.064   3.953  16.731 -0.1520 -2.1933  0.0931
  248MPD1     C 3811   0.563   3.235   0.339  0.4071  0.0919  0.2283
  248MPD1    C1 3812   0.643   3.299   0.432  0.0473  0.5482 -0.3426
  248MPD1    C2 3813   0.587   3.388   0.522 -0.3489  0.3548 -0.0075
  248MPD1    C3 3814   0.450   3.403   0.523 -0.2003  0.4970 -0.5724
  248MPD1    C4 3815   0.365   3.327   0.450 -0.6571 -0.2474 -0.3056
  248MPD1    C5 3816   0.425   3.250   0.352  0.3840  0.2268 -1.0724
  248MPD1     H 3817   0.653   3.444   0.587 -1.5654  0.6795  0.9589
  248MPD1    H1 3818   0.258   3.344   0.445 -0.5870  0.0572 -0.7999
  248MPD1    H2 3819   0.596   3.180   0.252 -1.5541  0.1660 -0.5684
  248MPD1    H3 3820   0.356   3.199   0.286  1.6250  0.7508 -2.7757
  248MPD1     N 3821   0.406   3.498   0.616 -0.2196  0.3054  0.5754
  248MPD1    H5 3822   0.480   3.553   0.656  0.6582 -1.9806  2.0754
  248MPD1    N1 3823   0.785   3.296   0.411  0.7147 -0.0343 -0.4196
  248MPD1    H6 3824   0.824   3.222   0.353  2.7565  0.9095 -0.2427
  248MPD1    H7 3825   0.842   3.312   0.494 -0.0574  3.2490 -0.5439
  249MPD1     C 3826   2.151   1.265  10.616 -0.8898  0.6207 -0.7023
  249MPD1    C1 3827   2.194   1.384  10.571  0.1356 -0.3120 -0.0850
  249MPD1    C2 3828   2.104   1.470  10.509  0.4112  0.0809  0.1136
  249MPD1    C3 3829   1.981   1.417  10.468 -0.3964 -0.2012 -0.0228
  249MPD1    C4 3830   1.944   1.289  10.488 -0.2615 -0.1572 -0.1259
  249MPD1    C5 3831   2.029   1.220  10.571  0.2018  0.2085  0.1692
  249MPD1     H 3832   2.126   1.573  10.484 -0.1626 -0.2186 -1.6090
  249MPD1    H1 3833   1.842   1.263  10.461 -0.7121  0.5277  0.9203
  249MPD1    H2 3834   2.212   1.201  10.680 -1.8233  0.4818  0.0549
  249MPD1    H3 3835   2.005   1.117  10.598 -0.2306  0.2752  0.0491
  249MPD1     N 3836   1.895   1.512  10.412  0.0395  0.9002  0.0219
  249MPD1    H5 3837   1.930   1.607  10.398  2.0578 -0.2791 -2.9091
  249MPD1    N1 3838   2.315   1.430  10.616 -0.5256 -0.0063  0.4693
  249MPD1    H6 3839   2.386   1.364  10.647 -1.3991 -1.2978 -0.3081
  249MPD1    H7 3840   2.352   1.517  10.578 -0.5915 -0.0731  0.2518
  250MPD2     C 3841   3.500   1.924  12.814 -0.2755  0.0533  0.1616
  250MPD2    C1 3842   3.398   2.002  12.774  0.1597 -0.0275  0.8524
  250MPD2    C2 3843   3.267   1.962  12.792  1.1715 -0.2732 -0.2021
  250MPD2    C3 3844   3.243   1.853  12.866 -0.0412  0.6653  0.1484
  250MPD2    C4 3845   3.344   1.778  12.915 -0.4416  0.1068  0.1109
  250MPD2    C5 3846   3.474   1.817  12.897 -0.4404 -0.8177  0.3133
  250MPD2     H 3847   3.188   2.024  12.751 -0.1987 -1.7807  0.1536
  250MPD2    H1 3848   3.322   1.694  12.980  1.3557  0.6375  1.4219
  250MPD2    H2 3849   3.600   1.961  12.793 -0.4099 -1.5866 -3.3688
  250MPD2    H3 3850   3.559   1.758  12.929 -0.8160 -0.4854  1.9398
  250MPD2     N 3851   3.106   1.800  12.884 -0.3528  0.0477 -0.0208
  250MPD2    H5 3852   3.101   1.713  12.937 -2.2234  0.1916  0.0680
  250MPD2    N1 3853   3.427   2.126  12.710  0.1174  0.0121  0.0663
  250MPD2    H7 3854   3.525   2.150  12.704  0.1128  0.3281  1.4143
  251TMC3    C1 3855   3.391   2.344  12.616  0.0700  1.2793 -0.2144
  251TMC3    C2 3856   3.319   2.459  12.636  0.6316  0.0959 -0.0503
  251TMC3    C3 3857   3.384   2.581  12.667  0.4015 -0.1048 -0.8913
  251TMC3    C4 3858   3.527   2.346  12.605 -0.2205  0.2238 -0.5820
  251TMC3    C5 3859   3.597   2.462  12.640 -0.0061 -0.6511 -0.1920
  251TMC3    C6 3860   3.526   2.581  12.666  0.3197 -0.3532  0.3087
  251TMC3     C 3861   3.332   2.219  12.665 -0.2670  0.2475  0.2648
  251TMC3     O 3862   3.215   2.228  12.688  0.3953 -0.4266  0.1231
  251TMC3     H 3863   3.211   2.460  12.629  0.6225 -2.2980 -0.1173
  251TMC3    H1 3864   3.587   2.265  12.566  2.0260  1.8593 -0.5223
  251TMC3    H2 3865   3.567   2.682  12.670  1.4895 -0.8586  1.1136
  251TMC3    C7 3866   3.734   2.477  12.599 -0.0574  0.3500  0.0422
  251TMC3    C8 3867   3.294   2.699  12.689 -0.1624  0.3613  0.4974
  251TMC3    O1 3868   3.766   2.588  12.552  0.4558 -0.1257  0.0795
  251TMC3    O2 3869   3.182   2.681  12.652 -0.5057  0.3196  0.6230
  252TMC3    C1 3870   2.575   3.496   9.590  0.3290  0.1434  0.6147
  252TMC3    C2 3871   2.700   3.473   9.554 -0.0988  0.0510 -0.2053
  252TMC3    C3 3872   2.745   3.352   9.605  0.8463 -0.3038 -0.4677
  252TMC3    C4 3873   2.500   3.412   9.669 -0.4650  0.6674  0.5954
  252TMC3    C5 3874   2.549   3.294   9.707  0.1212  0.0064 -0.7256
  252TMC3    C6 3875   2.681   3.263   9.687  0.1645  0.0806  0.2194
  252TMC3     C 3876   2.509   3.610   9.526  0.5304  0.0861  0.3400
  252TMC3     O 3877   2.406   3.647   9.576  0.8021  0.7467 -0.1328
  252TMC3     H 3878   2.760   3.539   9.491 -0.1800 -0.6653 -1.0345
  252TMC3    H1 3879   2.396   3.441   9.680 -0.8049 -0.6958  0.9561
  252TMC3    H2 3880   2.723   3.168   9.719 -1.9117 -0.4769  1.3263
  252TMC3    C7 3881   2.470   3.211   9.801 -0.2835 -0.1398 -0.6149
  252TMC3    C8 3882   2.885   3.326   9.558 -0.1927  0.0754 -0.1577
  252TMC3    O1 3883   2.354   3.247   9.829  0.0960  0.5920 -0.1935
  252TMC3    O2 3884   2.914   3.363   9.444 -0.5252  0.0380 -0.6414
  253MPD2     C 3885   4.690   1.847  14.926  0.3949 -0.1679  0.4333
  253MPD2    C1 3886   4.555   1.828  14.938  0.1097  0.3265  0.4237
  253MPD2    C2 3887   4.490   1.851  15.060  0.8043  0.0784  0.6103
  253MPD2    C3 3888   4.557   1.911  15.167  1.1284 -0.1015  0.4178
  253MPD2    C4 3889   4.687   1.937  15.151 -0.3834 -0.1415 -0.0159
  253MPD2    C5 3890   0.020   1.898  15.036 -0.3472 -0.2775  0.7089
  253MPD2     H 3891   4.386   1.827  15.076  0.8991 -0.6573  0.1293
  253MPD2    H1 3892   0.011   1.965  15.236  0.1723 -0.7102 -0.2238
  253MPD2    H2 3893   4.730   1.831  14.827  0.3375  1.1964  0.1916
  253MPD2    H3 3894   0.124   1.923  15.023 -0.1472 -0.9784  0.9895
  253MPD2     N 3895   4.490   1.946  15.290  0.1227  0.6658  0.0057
  253MPD2    H5 3896   4.539   1.964  15.376  0.6670  1.4330 -0.4680
  253MPD2    N1 3897   4.476   1.779  14.835 -0.1826 -0.0352 -0.2116
  253MPD2    H7 3898   4.381   1.763  14.868 -0.2931 -1.7634 -1.4093
  254TMC3    C1 3899   4.318   2.032  15.421  0.1717  0.1255  0.1670
  254TMC3    C2 3900   4.205   2.105  15.406  0.8452 -0.0809 -0.2819
  254TMC3    C3 3901   4.169   2.171  15.520  1.0696 -0.0726 -0.1047
  254TMC3    C4 3902   4.393   2.029  15.532  0.2774  0.7141 -0.0306
  254TMC3    C5 3903   4.349   2.097  15.641  0.0343  0.8604 -0.7477
  254TMC3    C6 3904   4.247   2.179  15.629  0.6570  0.4400 -0.0813
  254TMC3     C 3905   4.358   1.983  15.292 -0.7076 -0.4560  0.3277
  254TMC3     O 3906   4.289   2.012  15.192  0.1225  0.3721  0.7143
  254TMC3     H 3907   4.140   2.116  15.320 -0.2585  0.7124  0.6542
  254TMC3    H1 3908   4.485   1.973  15.536 -1.1935 -1.5382  2.0235
  254TMC3    H2 3909   4.234   2.254  15.706  1.0147 -0.3382  0.7375
  254TMC3    C7 3910   4.415   2.099  15.773  0.4703 -0.2244 -0.4555
  254TMC3    C8 3911   4.082   2.293  15.505 -0.7280  0.9921 -0.0170
  254TMC3    O1 3912   4.339   2.096  15.866  0.0866  0.0641 -0.6019
  254TMC3    O2 3913   4.071   2.342  15.390  0.5662  0.2758  0.3663
  255MPD2     C 3914   2.246   4.262  10.420  0.0554  0.5116  0.5271
  255MPD2    C1 3915   2.374   4.310  10.436 -0.1072 -0.4498 -0.9660
  255MPD2    C2 3916   2.475   4.226  10.380 -0.1208  0.4353  0.2658
  255MPD2    C3 3917   2.444   4.116  10.307  0.3100  0.2148  0.3202
  255MPD2    C4 3918   2.321   4.068  10.296 -0.0736  0.0819  0.9404
  255MPD2    C5 3919   2.224   4.146  10.352 -0.5085 -0.3276  0.2416
  255MPD2     H 3920   2.579   4.257  10.381 -1.0883  3.6942  1.5097
  255MPD2    H1 3921   2.308   3.977  10.240  1.3659 -0.1192  0.9362
  255MPD2    H2 3922   2.170   4.313  10.477 -0.6265  0.9423 -0.7713
  255MPD2    H3 3923   2.122   4.109  10.345 -0.4978 -0.2336 -0.4337
  255MPD2     N 3924   2.561   4.050  10.254  0.7420  0.0214 -0.5792
  255MPD2    H5 3925   2.649   4.098  10.274  1.1066 -0.4656 -1.0074
  255MPD2    N1 3926   2.404   4.422  10.516 -0.3439 -0.6162 -0.2564
  255MPD2    H7 3927   2.327   4.467  10.565 -0.8310 -1.9313  0.2113
  256TMC3    C1 3928   2.539   4.586  10.616  0.7974  0.0178 -0.3847
  256TMC3    C2 3929   2.642   4.670  10.589  0.0542 -0.4234 -0.0615
  256TMC3    C3 3930   2.630   0.063  10.621 -1.6243  0.5804 -0.0802
  256TMC3    C4 3931   2.424   4.632  10.682  0.1243  0.1653 -0.0498
  256TMC3    C5 3932   2.420   0.031  10.728 -0.0424 -0.0794  0.1163
  256TMC3    C6 3933   2.517   0.113  10.686  0.1978  0.0067  0.2679
  256TMC3     C 3934   2.531   4.470  10.537  1.1473 -0.0365  0.3680
  256TMC3     O 3935   2.626   4.453  10.465 -0.2892 -0.3796 -0.1682
  256TMC3     H 3936   2.732   4.633  10.542 -0.6418 -2.4522  0.2295
  256TMC3    H1 3937   2.344   4.569  10.721 -1.2636  1.7489 -0.3718
  256TMC3    H2 3938   2.522   0.212  10.730  4.2678 -0.7197  1.4393
  256TMC3    C7 3939   2.299   0.077  10.801 -0.4474  0.5823  0.3985
  256TMC3    C8 3940   2.718   0.152  10.540  0.0528 -1.0386 -0.0608
  256TMC3    O1 3941   2.249   4.720  10.871  0.3086  0.0994 -0.2984
  256TMC3    O2 3942   2.791   0.108  10.452 -0.0921 -0.9031  0.2028
  257MPD2     C 3943   1.569   2.157  13.214  0.3674  0.4676 -0.5247
  257MPD2    C1 3944   1.667   2.080  13.154  0.5122 -0.3568  0.1068
  257MPD2    C2 3945   1.693   1.952  13.201 -0.4905 -0.2579 -0.6260
  257MPD2    C3 3946   1.618   1.898  13.302  0.1695  0.0920  0.3674
  257MPD2    C4 3947   1.502   1.963  13.343 -0.3484 -0.0592  0.7037
  257MPD2    C5 3948   1.479   2.094  13.297  0.2607  0.9379 -0.4261
  257MPD2     H 3949   1.784   1.898  13.178 -0.3015  0.2136 -0.9875
  257MPD2    H1 3950   1.440   1.934  13.427 -1.6678 -0.3735 -0.3755
  257MPD2    H2 3951   1.549   2.260  13.186  1.3958  0.7776 -0.1158
  257MPD2    H3 3952   1.389   2.140  13.336 -1.0304  0.2261 -2.5978
  257MPD2     N 3953   1.660   1.777  13.355  0.0843  0.2089  0.0007
  257MPD2    H5 3954   1.742   1.737  13.310  0.2827  2.5094 -1.6497
  257MPD2    N1 3955   1.744   2.135  13.054 -0.7966 -0.0257  0.2504
  257MPD2    H7 3956   1.702   2.214  13.006  1.8810  0.5929 -1.0540
  258TMC3    C1 3957   1.693   1.614  13.523  0.6485  0.3237 -0.1620
  258TMC3    C2 3958   1.775   1.540  13.448 -0.2273 -0.9441 -0.4837
  258TMC3    C3 3959   1.865   1.450  13.505  0.9160  0.3191  0.1310
  258TMC3    C4 3960   1.691   1.594  13.662  0.2033  0.3047 -0.2953
  258TMC3    C5 3961   1.773   1.508  13.719 -0.7581  0.2803 -0.4412
  258TMC3    C6 3962   1.863   1.428  13.642  0.4185 -0.4230 -0.6396
  258TMC3     C 3963   1.602   1.708  13.461  0.5234  0.6014 -0.7243
  258TMC3     O 3964   1.503   1.734  13.521 -0.1054  0.1845 -0.7720
  258TMC3     H 3965   1.769   1.542  13.339  2.7988 -2.0414 -0.6900
  258TMC3    H1 3966   1.626   1.659  13.720  0.2043 -0.0673  0.1190
  258TMC3    H2 3967   1.945   1.378  13.692 -0.2861 -0.8870  0.0724
  258TMC3    C7 3968   1.774   1.525  13.867 -0.4603 -0.1328 -0.1048
  258TMC3    C8 3969   1.918   1.345  13.422  0.4905  0.2058 -1.1404
  258TMC3    O1 3970   1.699   1.595  13.931  0.2669 -0.2935 -0.3099
  258TMC3    O2 3971   1.930   1.373  13.302 -0.1971 -0.1041  0.0569
  259MPD2     C 3972   0.825   4.110   0.633 -0.0893 -0.1350 -0.1465
  259MPD2    C1 3973   0.899   4.003   0.613  0.5260  0.1398  0.0313
  259MPD2    C2 3974   0.926   3.965   0.480  0.1300 -0.2389  0.5955
  259MPD2    C3 3975   0.866   4.039   0.377 -0.1027  1.0116  0.1515
  259MPD2    C4 3976   0.795   4.157   0.405 -1.0374 -0.1066  0.1800
  259MPD2    C5 3977   0.776   4.188   0.536  0.0381  0.5086  0.2054
  259MPD2     H 3978   0.986   3.878   0.458  0.4639 -0.1894  1.3245
  259MPD2    H1 3979   0.747   4.218   0.329 -2.0619 -0.2031  0.7500
  259MPD2    H2 3980   0.812   4.132   0.739  2.5438 -1.0747  0.3982
  259MPD2    H3 3981   0.712   4.274   0.555 -0.3252  0.1492  0.6227
  259MPD2     N 3982   0.897   4.003   0.239  0.3904 -0.5386  0.0926
  259MPD2    H5 3983   0.936   3.910   0.230  0.4088 -0.6730  1.4702
  259MPD2    N1 3984   0.965   3.945   0.722  0.3730 -0.2155  0.0827
  259MPD2    H7 3985   0.942   3.977   0.816 -3.1400  0.0281 -0.8914
  260TMC3    C1 3986   0.981   4.054   0.020 -0.1065 -0.2402  0.7599
  260TMC3    C2 3987   1.098   4.125   0.009 -0.1321  0.7002 -0.9090
  260TMC3    C3 3988   1.204   4.063  17.696  0.0556 -0.6200  0.2729
  260TMC3    C4 3989   0.975   3.919  17.735  0.3081 -0.5156  0.2676
  260TMC3    C5 3990   1.084   3.859  17.684  0.8691 -0.5448 -0.1637
  260TMC3    C6 3991   1.205   3.924  17.672 -0.5065 -0.5387 -0.1347
  260TMC3     C 3992   0.913   4.096   0.142 -0.1678  0.0045  0.7221
  260TMC3     O 3993   0.899   4.215   0.145 -0.0377  0.1025  0.1111
  260TMC3     H 3994   1.105   4.226   0.045  2.7207 -0.7260  2.5819
  260TMC3    H1 3995   0.880   3.868   0.007  0.3147 -0.0802  1.9147
  260TMC3    H2 3996   1.292   3.871  17.635 -0.2651 -0.4453  0.2983
  260TMC3    C7 3997   1.086   3.707  17.647  0.0608 -0.3577  0.0037
  260TMC3    C8 3998   1.334   4.132  17.734  0.6950  0.3682  0.4750
  260TMC3    O1 3999   1.174   3.662  17.567 -0.2350  0.7660 -0.4500
  260TMC3    O2 4000   1.325   4.254  17.736  0.0349 -0.0387 -0.6341
  261MPD2     C 4001   2.279   1.907  12.692  0.4067 -0.1686 -0.2850
  261MPD2    C1 4002   2.404   1.913  12.632  0.2630  0.0400  0.3745
  261MPD2    C2 4003   2.412   1.980  12.505  0.7025 -0.2909 -1.0285
  261MPD2    C3 4004   2.299   2.029  12.443  0.3531  0.6224  0.7283
  261MPD2    C4 4005   2.176   2.017  12.504 -0.3589  0.2275 -0.8473
  261MPD2    C5 4006   2.166   1.952  12.626  0.9707 -0.5357 -0.4401
  261MPD2     H 4007   2.505   1.972  12.449 -0.2693 -0.7995 -2.5780
  261MPD2    H1 4008   2.085   2.048  12.455 -1.3414  0.2027  0.9790
  261MPD2    H2 4009   2.264   1.854  12.785  0.2384  2.6738  1.2939
  261MPD2    H3 4010   2.067   1.957  12.668  1.3092  0.5755  0.2164
  261MPD2     N 4011   2.324   2.088  12.315  0.3059 -0.5951 -0.0350
  261MPD2    H5 4012   2.420   2.089  12.283  0.5199 -0.2013  0.6207
  261MPD2    N1 4013   2.514   1.860  12.695 -0.6553 -0.1595  0.2226
  261MPD2    H7 4014   2.604   1.877  12.650 -2.2583  0.3917 -2.7743
  262TMC3    C1 4015   2.303   2.227  12.131 -0.1203 -0.4765 -0.9114
  262TMC3    C2 4016   2.292   2.364  12.132  1.0765  0.0891 -0.0662
  262TMC3    C3 4017   2.384   2.441  12.074  0.0559 -0.0615 -0.0973
  262TMC3    C4 4018   2.417   2.160  12.090 -0.4331  0.4785  0.0457
  262TMC3    C5 4019   2.512   2.241  12.026 -0.2773  0.0393 -0.3432
  262TMC3    C6 4020   2.499   2.378  12.019  0.0420 -0.1236 -0.5385
  262TMC3     C 4021   2.230   2.155  12.233 -0.1502 -0.0860  0.3530
  262TMC3     O 4022   2.116   2.190  12.268  0.4716 -0.7719 -0.2160
  262TMC3     H 4023   2.212   2.395  12.199  1.6872 -0.8164  1.0761
  262TMC3    H1 4024   2.414   2.052  12.077 -2.0997  0.6375 -0.7940
  262TMC3    H2 4025   2.569   2.446  11.973  0.2057  2.0088  2.8158
  262TMC3    C7 4026   2.586   2.181  11.918 -0.4611  0.1043 -0.4869
  262TMC3    C8 4027   2.362   2.581  12.053  0.2577  0.0815 -0.3171
  262TMC3    O1 4028   2.597   2.058  11.919 -0.5005  0.2038 -0.4350
  262TMC3    O2 4029   2.454   2.644  12.007  0.5735 -0.0381 -1.4024
  263MPD2     C 4030   3.736   1.108  11.850 -0.0589  0.6770  0.1035
  263MPD2    C1 4031   3.825   1.087  11.745 -1.0885 -0.3154  0.8577
  263MPD2    C2 4032   3.803   1.133  11.614 -0.2520  0.1806  0.7318
  263MPD2    C3 4033   3.683   1.195  11.589  0.3744  0.5923 -0.2305
  263MPD2    C4 4034   3.589   1.207  11.690 -0.7751  0.1119 -0.1516
  263MPD2    C5 4035   3.616   1.168  11.815  0.1491 -0.6470 -0.1757
  263MPD2     H 4036   3.872   1.116  11.533 -0.8891  0.3680  0.1451
  263MPD2    H1 4037   3.494   1.259  11.676 -0.1572  1.3660  0.2710
  263MPD2    H2 4038   3.754   1.077  11.953 -1.2087  0.4109  0.2265
  263MPD2    H3 4039   3.537   1.182  11.887 -0.8320  0.0469 -1.3856
  263MPD2     N 4040   3.654   1.248  11.455 -0.2139 -0.1527 -0.5172
  263MPD2    H5 4041   3.737   1.252  11.397 -0.7040  0.1400 -1.2000
  263MPD2    N1 4042   3.946   1.016  11.787  0.4040 -0.4667 -0.4994
  263MPD2    H7 4043   3.956   0.993  11.885  0.5719 -0.2564 -0.4648
  264TMC3    C1 4044   3.572   1.379  11.272  0.6309  0.1360  0.1805
  264TMC3    C2 4045   3.469   1.447  11.209  0.6897  0.2661  0.4169
  264TMC3    C3 4046   3.479   1.473  11.076 -0.4083  0.5979  0.4149
  264TMC3    C4 4047   3.679   1.339  11.200  0.1719  0.4348 -0.4902
  264TMC3    C5 4048   3.687   1.361  11.065 -0.9478  0.3004 -0.4334
  264TMC3    C6 4049   3.587   1.425  11.004  0.2371  0.2451  0.0874
  264TMC3     C 4050   3.548   1.331  11.408  0.7325  0.2036  0.0393
  264TMC3     O 4051   3.435   1.349  11.461 -0.6633  0.1875 -0.3401
  264TMC3     H 4052   3.380   1.470  11.266 -0.3335  2.2206 -1.9569
  264TMC3    H1 4053   3.768   1.294  11.244  0.6113  0.4985 -1.3184
  264TMC3    H2 4054   3.601   1.466  10.904 -1.3091 -1.4587 -0.8232
  264TMC3    C7 4055   3.814   1.367  11.000  0.3276 -0.4652 -0.2833
  264TMC3    C8 4056   3.439   1.600  11.035  0.6452  0.5081 -0.0511
  264TMC3    O1 4057   3.819   1.397  10.881 -0.5883  0.1982 -0.4998
  264TMC3    O2 4058   3.470   1.631  10.921 -0.1716 -0.3527  0.4747
  265MPD2     C 4059   1.006   1.528  15.540  0.0790 -1.0744 -0.3993
  265MPD2    C1 4060   1.034   1.643  15.467  0.1916 -0.7646 -0.9228
  265MPD2    C2 4061   1.068   1.626  15.333 -0.4153 -0.7576 -0.4868
  265MPD2    C3 4062   1.069   1.502  15.268  0.4329 -0.2721  0.2932
  265MPD2    C4 4063   1.040   1.386  15.342 -0.0608  0.8711  0.0532
  265MPD2    C5 4064   1.008   1.407  15.475  0.3430 -0.8793  0.2070
  265MPD2     H 4065   1.117   1.711  15.287 -1.6373  0.7509  0.9862
  265MPD2    H1 4066   1.035   1.287  15.298 -0.5616  1.6891 -1.7072
  265MPD2    H2 4067   0.986   1.534  15.646 -0.3942 -0.0774 -0.5406
  265MPD2    H3 4068   0.984   1.315  15.527  2.0616 -0.4740  1.7251
  265MPD2     N 4069   1.124   1.492  15.136 -0.3667 -0.1573 -0.5029
  265MPD2    H5 4070   1.123   1.401  15.092  0.7775 -1.2497  1.7575
  265MPD2    N1 4071   1.031   1.776  15.525  0.2527  0.2356  0.2601
  265MPD2    H7 4072   1.081   1.851  15.477 -0.4091  1.7898  1.9955
  266TMC3    C1 4073   0.962   1.951  15.668 -0.3239 -0.0488  0.0778
  266TMC3    C2 4074   0.919   1.983  15.792 -0.0588  0.1480 -0.1956
  266TMC3    C3 4075   0.914   2.115  15.830 -0.3286 -0.3804  0.1224
  266TMC3    C4 4076   0.983   2.046  15.574  0.3589  0.2645  0.4611
  266TMC3    C5 4077   0.966   2.178  15.609  0.0311  0.6994 -0.1310
  266TMC3    C6 4078   0.931   2.217  15.737 -0.6208  0.9020 -0.2455
  266TMC3     C 4079   0.971   1.807  15.644 -0.3873 -0.4204  0.6363
  266TMC3     O 4080   0.905   1.741  15.718 -0.4039  0.7957 -0.1402
  266TMC3     H 4081   0.895   1.908  15.867 -1.8730  1.3278  0.3963
  266TMC3    H1 4082   1.012   2.023  15.472  1.6682  0.4663  0.7914
  266TMC3    H2 4083   0.911   2.323  15.751  1.1509  1.3773 -1.3422
  266TMC3    C7 4084   0.924   2.260  15.501 -0.0621  0.3252  0.3636
  266TMC3    C8 4085   0.891   2.147  15.970  0.4721 -0.0179  0.2285
  266TMC3    O1 4086   0.881   2.211  15.400 -0.0990 -0.2603  0.1172
  266TMC3    O2 4087   0.843   2.058  16.035  0.1608  0.5053 -0.3383
  267MPD2     C 4088   3.333   4.659   0.200 -0.2923  0.2402 -0.7311
  267MPD2    C1 4089   3.402   4.616   0.089  0.5393  0.6896  0.6766
  267MPD2    C2 4090   3.339   4.633  17.707  0.1817  0.6021 -0.3262
  267MPD2    C3 4091   3.212   4.697  17.699 -0.0030  0.2736  0.3859
  267MPD2    C4 4092   3.150   0.009   0.070 -0.0342  0.4207 -0.3826
  267MPD2    C5 4093   3.215   4.728   0.187  0.0347  0.0255  0.1477
  267MPD2     H 4094   3.388   4.607  17.613 -1.6742 -2.9926 -0.2572
  267MPD2    H1 4095   3.048   0.047   0.066  0.2132  1.3186  1.8818
  267MPD2    H2 4096   3.381   4.639   0.295  1.4788 -1.1049 -1.9182
  267MPD2    H3 4097   3.165   0.019   0.280  0.4880 -0.1241  0.4352
  267MPD2     N 4098   3.156   4.692  17.575  0.2459 -0.3676  0.0876
  267MPD2    H5 4099   3.217   4.657  17.502  0.5067  1.0206 -0.3393
  267MPD2    N1 4100   3.513   4.536   0.110  0.1757  0.1448 -0.5940
  267MPD2    H7 4101   3.552   4.528   0.204 -1.9769 -1.9329  0.1002
  268TMC3    C1 4102   3.685   4.385   0.052  0.3244  0.7731  0.5460
  268TMC3    C2 4103   3.783   4.353  17.707  0.1908 -0.9239  0.0322
  268TMC3    C3 4104   3.866   4.248  17.739 -0.4789  0.0876 -0.2385
  268TMC3    C4 4105   3.659   4.315   0.166  0.4937 -0.0430  0.2408
  268TMC3    C5 4106   3.755   4.220   0.205  0.3473 -0.0254  0.7039
  268TMC3    C6 4107   3.851   4.173   0.114 -0.2815 -0.8559 -0.7201
  268TMC3     C 4108   3.581   4.474   0.002  1.1409 -0.4309 -0.3256
  268TMC3     O 4109   3.561   4.479  17.625 -0.3629  0.1472 -0.5856
  268TMC3     H 4110   3.797   4.410  17.616 -0.6195 -0.4130  0.2283
  268TMC3    H1 4111   3.561   4.322   0.213  0.9982  2.3663  0.9357
  268TMC3    H2 4112   3.921   4.091   0.130 -0.0023 -0.8560 -1.8744
  268TMC3    C7 4113   3.746   4.155   0.331  0.2888  0.1708 -0.4784
  268TMC3    C8 4114   3.976   4.223  17.658  0.2338 -0.3642  0.0388
  268TMC3    O1 4115   3.827   4.060   0.350  0.0065  0.3307 -0.1484
  268TMC3    O2 4116   4.068   4.155  17.701  0.1179 -0.4234 -0.0351
  269MPD2     C 4117   3.849   2.551  15.211 -0.1870  0.1316  0.0092
  269MPD2    C1 4118   3.736   2.561  15.293  0.2106 -0.4649  0.2276
  269MPD2    C2 4119   3.667   2.681  15.280  0.1166 -0.5321 -0.2860
  269MPD2    C3 4120   3.710   2.791  15.203 -0.6210  0.4004  0.4682
  269MPD2    C4 4121   3.819   2.767  15.115 -0.2700  0.1399  0.3250
  269MPD2    C5 4122   3.892   2.646  15.128  0.7369  0.9085  0.4090
  269MPD2     H 4123   3.574   2.689  15.334  0.6420  1.0540  0.3809
  269MPD2    H1 4124   3.864   2.831  15.040 -1.1309 -1.2992 -1.4341
  269MPD2    H2 4125   3.905   2.460  15.231 -2.5201 -1.1610  0.7545
  269MPD2    H3 4126   3.983   2.623  15.074  1.1943  0.3511  1.4051
  269MPD2     N 4127   3.639   2.910  15.207  0.6872 -0.1124 -0.3988
  269MPD2    H5 4128   3.560   2.920  15.270  1.5904  0.8905  0.5817
  269MPD2    N1 4129   3.698   2.451  15.384  0.3543 -1.1498  0.3704
  269MPD2    H7 4130   3.747   2.362  15.385  1.0519 -0.7921 -1.0730
  270TMC3    C1 4131   3.572   2.332  15.541  0.0771 -0.1964  0.0118
  270TMC3    C2 4132   3.448   2.288  15.569  0.1291  0.2795 -0.0785
  270TMC3    C3 4133   3.423   2.172  15.635 -0.0638  0.0219  0.6072
  270TMC3    C4 4134   3.684   2.263  15.586 -0.2828 -0.4644  0.4687
  270TMC3    C5 4135   3.660   2.154  15.663  0.3339 -0.1974  0.1822
  270TMC3    C6 4136   3.532   2.112  15.694  0.8140 -0.1941  0.0889
  270TMC3     C 4137   3.600   2.459  15.480 -1.5608  0.5082  0.3812
  270TMC3     O 4138   3.517   2.554  15.497  0.4046  0.3250  0.5667
  270TMC3     H 4139   3.359   2.339  15.534  0.3991  0.3392 -0.6704
  270TMC3    H1 4140   3.786   2.289  15.560 -0.1680  1.3620  2.8497
  270TMC3    H2 4141   3.515   2.031  15.764 -0.7233  0.9955  1.0868
  270TMC3    C7 4142   3.739   2.044  15.615  0.3752  0.5428 -0.0607
  270TMC3    C8 4143   3.335   2.071  15.577 -0.3656  0.1754 -0.4181
  270TMC3    O1 4144   3.858   2.058  15.599  0.2188  0.3326  0.9894
  270TMC3    O2 4145   3.386   1.958  15.574  0.5784 -0.5213 -0.2042
  271MPD2     C 4146   2.637   1.846  13.787  0.5670 -0.5257 -0.2301
  271MPD2    C1 4147   2.587   1.872  13.907  0.4458 -0.0038 -0.2533
  271MPD2    C2 4148   2.462   1.922  13.918 -0.1319  0.3249  0.8069
  271MPD2    C3 4149   2.381   1.957  13.811 -0.2818  0.7152  0.6862
  271MPD2    C4 4150   2.431   1.915  13.691 -0.8951 -0.2730  0.1753
  271MPD2    C5 4151   2.567   1.874  13.674 -0.1089  0.0259 -0.2241
  271MPD2     H 4152   2.417   1.941  14.015 -1.8707  1.4329 -0.2258
  271MPD2    H1 4153   2.378   1.924  13.597 -0.3492  0.9896 -0.0160
  271MPD2    H2 4154   2.734   1.802  13.764  1.2615 -0.3991  2.3697
  271MPD2    H3 4155   2.607   1.843  13.578 -0.0823  1.2730 -0.6053
  271MPD2     N 4156   2.262   2.029  13.817  0.1889 -0.1296 -0.2507
  271MPD2    H5 4157   2.244   2.072  13.727 -1.9565  2.1747  1.2993
  271MPD2    N1 4158   2.652   1.842  14.033  0.1486  0.0815  0.6057
  271MPD2    H7 4159   2.607   1.876  14.118  0.8369  1.3734  0.4505
  272TMC3    C1 4160   2.807   1.727  14.178 -0.2371 -0.3371 -0.0551
  272TMC3    C2 4161   2.911   1.639  14.192  0.2765 -0.8341 -0.5740
  272TMC3    C3 4162   2.965   1.605  14.313  0.4115 -0.3770 -0.1751
  272TMC3    C4 4163   2.758   1.786  14.286 -0.6109 -0.4961 -0.6493
  272TMC3    C5 4164   2.814   1.751  14.407 -0.3817 -0.3307  0.0023
  272TMC3    C6 4165   2.922   1.663  14.425  0.0786 -0.1082 -0.1651
  272TMC3     C 4166   2.762   1.756  14.043  0.0761  0.4555 -0.5452
  272TMC3     O 4167   2.826   1.710  13.951  0.3591 -0.0199  0.6614
  272TMC3     H 4168   2.938   1.582  14.104 -1.2192 -0.1494 -1.4921
  272TMC3    H1 4169   2.683   1.864  14.281  1.3995  1.4531 -0.1152
  272TMC3    H2 4170   2.958   1.623  14.520 -0.7533 -0.0516  0.1796
  272TMC3    C7 4171   2.757   1.816  14.526  0.5039 -0.2508  0.4416
  272TMC3    C8 4172   3.057   1.491  14.311 -0.5011 -1.1029  0.3596
  272TMC3    O1 4173   2.638   1.849  14.513 -0.2541  0.5304 -0.7775
  272TMC3    O2 4174   3.060   1.426  14.210 -0.2625 -0.1129 -0.3522
  273MPD2     C 4175   4.475   4.731  12.245 -0.3118 -0.7182 -0.0528
  273MPD2    C1 4176   4.595   4.736  12.174  0.3219 -1.0230  0.3418
  273MPD2    C2 4177   4.583   4.714  12.035 -0.6113  0.0373 -0.8812
  273MPD2    C3 4178   4.465   4.713  11.971  0.3015 -0.1953 -0.1787
  273MPD2    C4 4179   4.350   4.724  12.040 -0.1308 -0.1990  0.1103
  273MPD2    C5 4180   4.357   4.727  12.177 -0.2968 -0.1330 -0.0444
  273MPD2     H 4181   4.671   4.719  11.972 -0.0130  0.2487 -0.0239
  273MPD2    H1 4182   4.253   0.006  11.996 -1.0330 -2.7220  1.0389
  273MPD2    H2 4183   4.466   0.010  12.352 -1.5162 -0.4314 -0.1869
  273MPD2    H3 4184   4.265   0.008  12.232 -0.1636  0.8789 -0.1374
  273MPD2     N 4185   4.456   4.717  11.836 -0.4776  0.3517  0.6065
  273MPD2    H5 4186   4.382   0.028  11.785  2.3355  2.4054 -1.5857
  273MPD2    N1 4187   4.721   0.029  12.240 -0.1973  0.1700  0.2631
  273MPD2    H7 4188   4.719   0.051  12.338  1.9171  1.8105 -0.0678
  274TMC3    C1 4189   4.527   4.707  11.622  0.6572 -0.6925 -0.4511
  274TMC3    C2 4190   4.405   0.010  11.582 -0.4110  0.3703 -0.0583
  274TMC3    C3 4191   4.401   0.096  11.478  0.3629 -0.8414  0.3483
  274TMC3    C4 4192   4.639   0.021  11.573  0.1792  0.2757  1.0453
  274TMC3    C5 4193   4.627   0.130  11.495  0.1793  0.0349  0.1361
  274TMC3    C6 4194   4.512   0.154  11.424  0.0534  0.1189 -0.5545
  274TMC3     C 4195   4.546   4.661  11.755  0.3515  0.0893  0.0702
  274TMC3     O 4196   4.641   4.592  11.793 -0.1433 -0.5681 -0.0959
  274TMC3     H 4197   4.320   4.702  11.634  0.8441 -1.6176  0.2893
  274TMC3    H1 4198   4.731   4.732  11.623  1.4887  0.5821 -1.1956
  274TMC3    H2 4199   4.497   0.252  11.379  0.6674  0.5247  0.1400
  274TMC3    C7 4200   4.655   0.256  11.574 -0.5165 -0.6260  0.0288
  274TMC3    C8 4201   4.277   0.148  11.424  0.2632 -0.2057  0.0767
  274TMC3    O1 4202   4.624   0.360  11.516 -0.4267 -0.4444  0.1107
  274TMC3    O2 4203   4.274   0.233  11.338 -0.5628  0.9182 -0.2054
  275MPD2     C 4204   4.089   3.040  14.316 -0.0187  0.5335 -0.0205
  275MPD2    C1 4205   4.110   2.919  14.381  0.1819  0.2333 -0.0053
  275MPD2    C2 4206   4.012   2.823  14.398 -0.2764 -0.3171 -0.2236
  275MPD2    C3 4207   3.885   2.853  14.354 -0.2806  0.2578  0.2344
  275MPD2    C4 4208   3.864   2.975  14.296 -0.7900  0.1862 -0.2439
  275MPD2    C5 4209   3.964   3.068  14.278 -0.5617 -0.4707  0.3900
  275MPD2     H 4210   4.029   2.733  14.457  0.5243  0.1417  0.2476
  275MPD2    H1 4211   3.765   3.011  14.269 -0.3248 -0.0636 -2.3200
  275MPD2    H2 4212   4.157   3.123  14.298  0.2388 -0.1397 -2.1231
  275MPD2    H3 4213   3.947   3.163  14.229  0.0812 -1.6994 -2.2365
  275MPD2     N 4214   3.778   2.763  14.360  0.0768 -0.5076  0.3606
  275MPD2    H5 4215   3.687   2.795  14.328  0.9281 -0.0659 -1.5837
  275MPD2    N1 4216   4.230   2.885  14.449  0.4704  0.2586 -0.8572
  275MPD2    H7 4217   4.226   2.798  14.501 -2.4676  2.0365  1.9309
  276TMC3    C1 4218   4.415   2.943  14.596  0.0648 -0.2888  0.9582
  276TMC3    C2 4219   4.442   2.810  14.623  0.6937  0.2964 -0.0301
  276TMC3    C3 4220   4.512   2.782  14.746  0.6789  0.0221 -0.4486
  276TMC3    C4 4221   4.478   3.040  14.672 -0.2279 -0.1408  0.2380
  276TMC3    C5 4222   4.526   3.010  14.788 -0.3386  1.4092 -0.3324
  276TMC3    C6 4223   4.543   2.878  14.830 -0.1099 -0.4688 -0.7893
  276TMC3     C 4224   4.337   2.976  14.472 -0.4739  0.2118 -0.5979
  276TMC3     O 4225   4.366   3.084  14.420 -0.1569 -0.3104  0.0740
  276TMC3     H 4226   4.423   2.734  14.549  2.3489 -1.8318  1.7320
  276TMC3    H1 4227   4.477   3.144  14.641  0.3116 -0.1186  0.3091
  276TMC3    H2 4228   4.572   2.862  14.933  0.6474  0.2336 -0.8930
  276TMC3    C7 4229   4.550   3.105  14.900 -0.2379  0.1532  0.3104
  276TMC3    C8 4230   4.577   2.654  14.763  0.4949  0.1081 -0.0249
  276TMC3    O1 4231   4.615   3.065  14.998  0.8069  0.4697  0.2265
  276TMC3    O2 4232   4.674   2.665  14.840  0.1935 -0.0470  0.5182
  277MPD2     C 4233   1.097   2.065  13.230 -0.5433  0.0168  0.0976
  277MPD2    C1 4234   0.970   2.115  13.241  0.1091  0.1472 -0.4171
  277MPD2    C2 4235   0.904   2.073  13.358 -0.2540 -0.1731  0.3973
  277MPD2    C3 4236   0.949   1.973  13.441 -0.0786  0.6918 -0.1623
  277MPD2    C4 4237   1.076   1.918  13.414  0.3157  0.1921 -0.1806
  277MPD2    C5 4238   1.145   1.975  13.314  0.1233  0.0407 -0.5142
  277MPD2     H 4239   0.800   2.097  13.374 -0.4714 -0.7695 -0.1136
  277MPD2    H1 4240   1.133   1.848  13.474  1.1029 -0.3020 -1.5107
  277MPD2    H2 4241   1.151   2.089  13.139  0.1270  0.1664  0.5324
  277MPD2    H3 4242   1.242   1.932  13.290  0.0068  0.4986 -1.8042
  277MPD2     N 4243   0.870   1.936  13.553 -0.7174  0.0633  0.1814
  277MPD2    H5 4244   0.784   1.989  13.568 -0.8739 -0.4106  0.9808
  277MPD2    N1 4245   0.922   2.209  13.148 -0.6246 -0.2313 -0.0602
  277MPD2    H7 4246   0.979   2.216  13.064  1.2963 -0.0322  1.2739
  278TMC3    C1 4247   0.783   1.803  13.724 -0.2461  0.9878  0.6825
  278TMC3    C2 4248   0.769   1.670  13.756 -0.4358 -0.3738 -0.5836
  278TMC3    C3 4249   0.703   1.651  13.875 -0.7844  0.4181  0.1350
  278TMC3    C4 4250   0.721   1.908  13.787  0.7403  0.1606  0.6249
  278TMC3    C5 4251   0.643   1.877  13.888 -0.0144 -0.2436 -0.1372
  278TMC3    C6 4252   0.632   1.749  13.937 -0.5319  0.1675  0.3288
  278TMC3     C 4253   0.893   1.827  13.632  0.2108  0.8604  0.1875
  278TMC3     O 4254   0.977   1.735  13.630 -0.3776  0.2160  0.0421
  278TMC3     H 4255   0.806   1.590  13.693  0.4622 -1.2437  1.0298
  278TMC3    H1 4256   0.729   2.011  13.755  2.2622  0.3657  1.6435
  278TMC3    H2 4257   0.590   1.724  14.034  0.6967  1.0595  1.0973
  278TMC3    C7 4258   0.532   1.974  13.913 -0.5937 -0.1633  0.4551
  278TMC3    C8 4259   0.710   1.525  13.949 -0.1565  0.0927  0.6873
  278TMC3    O1 4260   0.532   2.079  13.843  0.0553  0.1616 -0.3610
  278TMC3    O2 4261   0.726   1.527  14.068  0.3299 -0.0722 -0.4960
  279MPD2     C 4262   0.503   1.842   0.230  0.3426 -0.7207 -0.0173
  279MPD2    C1 4263   0.420   1.946   0.189 -0.4355  0.2944  0.1917
  279MPD2    C2 4264   0.452   2.005   0.065 -0.9320  0.3366 -0.6896
  279MPD2    C3 4265   0.561   1.965  17.731  0.0454 -0.1977 -0.2603
  279MPD2    C4 4266   0.641   1.860   0.036  0.8192  0.2867 -0.0878
  279MPD2    C5 4267   0.616   1.810   0.158 -0.0824 -0.5223  0.1678
  279MPD2     H 4268   0.387   2.077   0.017 -0.7561  0.8631 -0.1497
  279MPD2    H1 4269   0.729   1.827  17.726  0.3548 -2.6072  0.9740
  279MPD2    H2 4270   0.492   1.788   0.324 -1.7524  0.6704  0.5481
  279MPD2    H3 4271   0.676   1.732   0.202 -1.8989 -1.2588  1.3163
  279MPD2     N 4272   0.574   2.014  17.600  0.1896 -0.2851 -0.5215
  279MPD2    H5 4273   0.654   1.971  17.555 -0.2062 -2.5820  0.9548
  279MPD2    N1 4274   0.300   1.974   0.255  0.1273 -0.7401  0.5971
  279MPD2    H7 4275   0.274   1.915   0.333 -1.1192 -1.1523 -0.1269
  280TMC3    C1 4276   0.099   2.084   0.323 -0.6952 -0.2824 -0.5594
  280TMC3    C2 4277   0.002   2.008   0.273  0.2850  0.1268 -0.1038
  280TMC3    C3 4278   4.608   2.056   0.273  0.6382  0.1532  0.7527
  280TMC3    C4 4279   0.072   2.208   0.380  0.0302 -0.6985  0.3618
  280TMC3    C5 4280   4.678   2.255   0.380 -0.3639 -0.5568 -1.0119
  280TMC3    C6 4281   4.580   2.174   0.330 -0.3592  0.6626 -0.9183
  280TMC3     C 4282   0.213   2.085   0.231 -0.3275  0.4545 -0.4398
  280TMC3     O 4283   0.223   2.190   0.170  0.3280 -0.5412 -0.1978
  280TMC3     H 4284   0.018   1.909   0.232  0.9681  0.5720 -0.9150
  280TMC3    H1 4285   0.145   2.285   0.403  0.2835 -1.6206  2.6497
  280TMC3    H2 4286   4.480   2.216   0.322 -1.2745 -1.0639  1.1679
  280TMC3    C7 4287   4.660   2.396   0.386 -0.6193  0.1721  0.1867
  280TMC3    C8 4288   4.500   1.961   0.272  0.1095  0.6122  0.4450
  280TMC3    O1 4289   4.726   2.455   0.471 -0.5324  0.0446 -0.6386
  280TMC3    O2 4290   4.408   1.969   0.353  0.0634  0.4889  0.8835
  281TMC3    C1 4291   3.401   2.242  13.389 -0.4569  0.2307 -0.5489
  281TMC3    C2 4292   3.479   2.275  13.279  0.1392 -0.3639 -0.1336
  281TMC3    C3 4293   3.515   2.176  13.188  0.4439 -0.4814 -0.0967
  281TMC3    C4 4294   3.350   2.116  13.400  0.0200 -0.4794 -0.2261
  281TMC3    C5 4295   3.369   2.025  13.297  0.7517  0.5669  0.4512
  281TMC3    C6 4296   3.466   2.046  13.198 -1.0139  0.0230 -0.7154
  281TMC3     C 4297   3.390   2.326  13.506 -0.2635  0.3152 -0.3821
  281TMC3     O 4298   3.287   2.318  13.575 -0.3829  0.2131 -0.0897
  281TMC3     H 4299   3.504   2.377  13.253  1.2506 -0.7555 -0.5945
  281TMC3    H1 4300   3.283   2.093  13.482 -1.4346  1.6034 -0.8313
  281TMC3    H2 4301   3.491   1.966  13.129 -2.8244  0.1440 -1.5128
  281TMC3    C7 4302   3.334   1.888  13.333  0.2792  0.0756  0.1068
  281TMC3    C8 4303   3.572   2.216  13.061 -0.0316 -0.4656  0.2358
  281TMC3    O1 4304   3.410   1.797  13.308  0.0256  0.3728 -0.2799
  281TMC3    O2 4305   3.555   2.332  13.024 -0.0822  0.0828 -0.0999
  282MPD2     C 4306   1.258   3.802  15.051 -0.3370  0.6958  0.1758
  282MPD2    C1 4307   1.128   3.834  15.097 -0.1771 -0.2501  0.0915
  282MPD2    C2 4308   1.021   3.810  15.009  0.3437 -0.1131 -0.3148
  282MPD2    C3 4309   1.043   3.745  14.887  1.2502  0.1668 -0.1341
  282MPD2    C4 4310   1.173   3.704  14.851 -0.1734  0.4164  0.7456
  282MPD2    C5 4311   1.276   3.738  14.933 -0.3230  0.3265 -0.3428
  282MPD2     H 4312   0.927   3.852  15.043 -0.5607 -1.7608 -0.8209
  282MPD2    H1 4313   1.207   3.657  14.759  0.6794 -0.0929  1.3273
  282MPD2    H2 4314   1.342   3.803  15.120  1.0194 -0.8768 -1.4770
  282MPD2    H3 4315   1.372   3.694  14.910  1.3592  3.9661 -0.3781
  282MPD2     N 4316   0.927   3.720  14.807  0.3152 -0.1170 -0.0624
  282MPD2    H5 4317   0.839   3.766  14.830  0.8856  1.5943 -1.2999
  282MPD2    N1 4318   1.096   3.867  15.227 -0.0885  0.4760  0.3191
  282MPD2    H7 4319   0.997   3.865  15.250 -0.2760  3.4184 -0.3082
  283TMC3    C1 4320   1.118   3.914  15.449  0.0882 -0.1044  0.6569
  283TMC3    C2 4321   1.106   4.044  15.486  0.2742 -0.1853  0.1381
  283TMC3    C3 4322   1.020   4.074  15.589  0.1373 -0.0476 -0.1362
  283TMC3    C4 4323   1.040   3.816  15.511  0.1939 -0.0798 -0.0232
  283TMC3    C5 4324   0.955   3.853  15.611 -0.0328 -0.3244 -0.4863
  283TMC3    C6 4325   0.941   3.982  15.654 -0.2783 -0.3836 -0.3037
  283TMC3     C 4326   1.191   3.895  15.325  0.1494 -0.2101 -0.6593
  283TMC3     O 4327   1.303   3.937  15.302  0.2174 -0.7609  0.1898
  283TMC3     H 4328   1.166   4.123  15.441 -1.4916  1.8735  1.3756
  283TMC3    H1 4329   1.041   3.716  15.468 -1.4446 -1.3169  2.7698
  283TMC3    H2 4330   0.882   4.005  15.741  0.5748  0.9556 -0.0800
  283TMC3    C7 4331   0.890   3.744  15.688  0.0754 -0.4440  0.6180
  283TMC3    C8 4332   1.016   4.205  15.641  0.4604 -0.7777 -1.0354
  283TMC3    O1 4333   0.811   3.788  15.775  0.1223 -0.6831 -0.4901
  283TMC3    O2 4334   0.954   4.218  15.750  0.5822  0.2484  0.6289
  284MPD2     C 4335   3.669   2.457  11.866 -0.4979 -0.1760 -0.1658
  284MPD2    C1 4336   3.769   2.427  11.776 -0.2683  0.0991  0.0594
  284MPD2    C2 4337   3.762   2.307  11.700  0.3430  0.4428  0.2168
  284MPD2    C3 4338   3.651   2.227  11.711 -0.0178 -0.4588 -0.9028
  284MPD2    C4 4339   3.554   2.256  11.804 -0.5638 -0.3243  0.1705
  284MPD2    C5 4340   3.568   2.367  11.878 -0.1634 -0.8530 -0.1976
  284MPD2     H 4341   3.843   2.274  11.637  1.5244  0.2767  1.8250
  284MPD2    H1 4342   3.472   2.188  11.824 -1.7624  0.3848 -2.3358
  284MPD2    H2 4343   3.665   2.550  11.922 -2.0477  0.1709 -0.8568
  284MPD2    H3 4344   3.487   2.396  11.944  0.3415  2.5736 -1.0898
  284MPD2     N 4345   3.627   2.110  11.626 -0.2132  1.1423  0.3422
  284MPD2    H5 4346   3.539   2.059  11.633  1.0985 -0.9065  2.0410
  284MPD2    N1 4347   3.874   2.514  11.746  0.1223  0.8299  0.2544
  284MPD2    H7 4348   3.943   2.490  11.676 -1.3213 -1.3552 -0.4379
  285TMC3    C1 4349   4.029   2.686  11.743  0.1798  0.1692 -0.5439
  285TMC3    C2 4350   4.105   2.620  11.654 -0.4077 -0.0793  0.5017
  285TMC3    C3 4351   4.188   2.685  11.567 -0.3466  0.3455 -0.2225
  285TMC3    C4 4352   4.027   2.827  11.729  0.0643  0.0692 -0.6649
  285TMC3    C5 4353   4.119   2.889  11.644  0.1079 -0.4461  0.7233
  285TMC3    C6 4354   4.201   2.822  11.562  0.0069 -0.1137 -0.3799
  285TMC3     C 4355   3.909   2.631  11.801 -0.8083  0.9102  0.3002
  285TMC3     O 4356   3.838   2.703  11.873 -0.0992 -0.0061 -0.0517
  285TMC3     H 4357   4.124   2.513  11.661 -2.2076 -0.4270 -0.1461
  285TMC3    H1 4358   3.962   2.888  11.791  1.7368  1.7358 -0.5562
  285TMC3    H2 4359   4.272   2.871  11.497 -0.1377 -0.9027 -1.1504
  285TMC3    C7 4360   4.085   3.029  11.612 -0.3359 -0.5581  0.1192
  285TMC3    C8 4361   4.230   2.596  11.456  0.0380 -0.3361 -0.1715
  285TMC3    O1 4362   4.184   3.092  11.569 -1.0319 -0.1379 -0.3367
  285TMC3    O2 4363   4.157   2.500  11.438 -0.0117 -0.3962  0.1398
  286MPD2     C 4364   4.526   2.279   1.460  0.3360 -0.5056 -0.1727
  286MPD2    C1 4365   4.400   2.247   1.404  0.7514 -0.5003  0.0538
  286MPD2    C2 4366   4.389   2.113   1.367  0.0505  0.4505  0.4340
  286MPD2    C3 4367   4.481   2.012   1.402 -0.9442 -1.2335  0.0062
  286MPD2    C4 4368   4.582   2.050   1.481  0.5036  0.9293 -0.7166
  286MPD2    C5 4369   4.612   2.185   1.507  0.4612  0.3740  0.1718
  286MPD2     H 4370   4.295   2.087   1.318  0.0560 -1.5312  1.4533
  286MPD2    H1 4371   4.635   1.970   1.533  2.6355  2.0296 -1.1904
  286MPD2    H2 4372   4.560   2.381   1.469 -2.3291  0.4848 -1.2862
  286MPD2    H3 4373   4.705   2.213   1.556  1.1212 -0.8777 -0.3489
  286MPD2     N 4374   4.465   1.881   1.381  0.5574  0.3730  0.2241
  286MPD2    H5 4375   4.542   1.823   1.414  0.2475  0.7843  1.6686
  286MPD2    N1 4376   4.309   2.349   1.351 -0.1528  0.2051  0.2068
  286MPD2    H7 4377   4.244   2.311   1.283 -0.0524  0.3807  0.0110
  287TMC3    C1 4378   4.382   1.684   1.264  0.3013 -0.1489 -0.2548
  287TMC3    C2 4379   4.313   1.633   1.154  0.7937  1.1950 -0.0243
  287TMC3    C3 4380   4.314   1.497   1.130 -0.0968 -0.1942 -0.0240
  287TMC3    C4 4381   4.438   1.600   1.352 -0.2850  0.1329  0.0698
  287TMC3    C5 4382   4.435   1.467   1.322 -0.4617  0.0531 -0.2320
  287TMC3    C6 4383   4.390   1.409   1.208 -0.1369  0.5175  0.2731
  287TMC3     C 4384   4.376   1.828   1.289 -0.0310 -0.2374 -0.5662
  287TMC3     O 4385   4.283   1.880   1.231 -0.0045 -0.5725 -0.6368
  287TMC3     H 4386   4.272   1.710   1.090  0.5410  0.0775 -1.1931
  287TMC3    H1 4387   4.490   1.629   1.442  0.9382  2.2418 -1.3044
  287TMC3    H2 4388   4.383   1.301   1.193  0.2034  0.4578  0.5509
  287TMC3    C7 4389   4.532   1.392   1.397 -0.5089 -0.6061 -0.4444
  287TMC3    C8 4390   4.304   1.460   0.988  0.1716 -0.3886 -0.4274
  287TMC3    O1 4391   4.640   1.442   1.427 -0.0136  0.4512  0.1178
  287TMC3    O2 4392   4.310   1.338   0.972  0.2879  0.1100 -0.2670
  288TMC3    C1 4393   1.152   1.196  14.187 -0.6607 -0.9364 -0.3886
  288TMC3    C2 4394   1.067   1.184  14.299  0.1130 -0.2736  0.6807
  288TMC3    C3 4395   0.980   1.283  14.328  0.2904 -0.8974 -0.3029
  288TMC3    C4 4396   1.141   1.306  14.114  0.1054  0.5203  0.0183
  288TMC3    C5 4397   1.050   1.406  14.145  0.0455  0.0110  0.1821
  288TMC3    C6 4398   0.963   1.396  14.253  0.0259  0.1236  0.6794
  288TMC3     C 4399   1.258   1.108  14.155 -0.3798  0.9267 -0.2372
  288TMC3     O 4400   1.339   1.138  14.069  0.0458  0.2380  0.3227
  288TMC3     H 4401   1.089   1.105  14.371  0.4056 -0.2276  0.6439
  288TMC3    H1 4402   1.216   1.325  14.038  0.7613  2.4123  1.1317
  288TMC3    H2 4403   0.880   1.462  14.275 -0.1734  0.8944 -2.4370
  288TMC3    C7 4404   1.050   1.515  14.054  0.6294  0.1507  0.4473
  288TMC3    C8 4405   0.915   1.274  14.459 -0.5693 -0.1904 -0.2476
  288TMC3    O1 4406   1.107   1.499  13.946 -0.3212  0.5197  0.8935
  288TMC3    O2 4407   0.879   1.382  14.510 -0.3673 -0.5178  0.6396
  289MPD2     C 4408   1.273   0.329  13.979 -1.2096 -0.3387 -0.4004
  289MPD2    C1 4409   1.227   0.457  13.950 -0.3301 -0.3676  0.7512
  289MPD2    C2 4410   1.085   0.486  13.968 -0.2023 -0.5725 -0.0298
  289MPD2    C3 4411   0.997   0.382  14.009 -0.3813 -0.1534  0.0478
  289MPD2    C4 4412   1.044   0.251  14.011  0.2533  0.0589  0.4739
  289MPD2    C5 4413   1.179   0.228  14.005  0.9080 -0.7509  0.1170
  289MPD2     H 4414   1.047   0.587  13.959  1.8818  0.2639  0.5560
  289MPD2    H1 4415   0.989   0.165  14.047 -1.6482  1.1916  0.2882
  289MPD2    H2 4416   1.374   0.293  13.974 -0.8029  0.8492 -0.7451
  289MPD2    H3 4417   1.221   0.130  14.028 -1.1929 -1.6366  0.2370
  289MPD2     N 4418   0.859   0.399  14.017  0.0587 -0.0245  0.7871
  289MPD2    H5 4419   0.801   0.316  14.008 -0.3111  0.3491 -0.2218
  289MPD2    N1 4420   1.320   0.547  13.915 -0.5286  0.0925  0.1161
  289MPD2    H7 4421   1.413   0.508  13.905 -0.6078  0.0844 -0.5808
  290TMC3    C1 4422   0.645   0.525  13.996  0.7720  0.3160 -0.0079
  290TMC3    C2 4423   0.591   0.637  13.938  0.4378  0.6677  0.1746
  290TMC3    C3 4424   0.473   0.626  13.867 -0.2074 -0.3782  0.1793
  290TMC3    C4 4425   0.576   0.406  13.971  0.0939 -0.6469  0.4011
  290TMC3    C5 4426   0.460   0.407  13.894  0.0259 -0.2802 -0.4158
  290TMC3    C6 4427   0.403   0.511  13.833  0.2591 -0.0684 -0.4146
  290TMC3     C 4428   0.793   0.527  14.019  0.3072  0.0216  0.1340
  290TMC3     O 4429   0.842   0.634  14.053  0.0145  0.0092  0.1876
  290TMC3     H 4430   0.635   0.733  13.964  0.8223  0.4076  0.4772
  290TMC3    H1 4431   0.625   0.312  13.993  1.1884 -0.1212  0.2119
  290TMC3    H2 4432   0.303   0.507  13.793  0.7849  0.4284 -1.7886
  290TMC3    C7 4433   0.389   0.274  13.876  0.9052  0.0332 -0.1774
  290TMC3    C8 4434   0.409   0.746  13.826  0.4220  0.2102 -0.6216
  290TMC3    O1 4435   0.295   0.275  13.797 -0.3589 -0.3027 -0.2623
  290TMC3    O2 4436   0.338   0.745  13.724 -0.5011  0.2025 -0.3585
  291MPD2     C 4437   0.117   0.670   0.452  0.2146 -0.1678 -0.4276
  291MPD2    C1 4438   0.154   0.599   0.338  0.4286 -0.6016  0.5781
  291MPD2    C2 4439   0.252   0.649   0.257  0.5850  0.1758 -0.3742
  291MPD2    C3 4440   0.303   0.784   0.274  0.3891  0.0517 -0.8347
  291MPD2    C4 4441   0.251   0.857   0.382 -0.1128  0.1813  0.1950
  291MPD2    C5 4442   0.162   0.798   0.469 -0.7039  0.3944  0.0434
  291MPD2     H 4443   0.299   0.583   0.185  0.9130  0.6021 -0.5556
  291MPD2    H1 4444   0.289   0.951   0.418 -0.8016  0.3797  0.3986
  291MPD2    H2 4445   0.034   0.636   0.513  1.6709 -2.8715  0.0647
  291MPD2    H3 4446   0.129   0.865   0.547  0.6616  0.5768  0.4726
  291MPD2     N 4447   0.401   0.831   0.193 -1.0852 -0.4309  0.1459
  291MPD2    H5 4448   0.404   0.931   0.175 -0.9801 -0.3264  0.7539
  291MPD2    N1 4449   0.106   0.466   0.317 -0.2460 -0.4022  0.1167
  291MPD2    H7 4450   0.142   0.413   0.238 -0.9977 -0.3703 -0.2466
  292TMC3    C1 4451   0.028   0.247   0.364 -0.2915  0.0052  0.2864
  292TMC3    C2 4452   0.000   0.160   0.467 -0.0612 -0.3341 -0.1420
  292TMC3    C3 4453   4.732   0.030   0.439  0.7555 -0.5371  0.7634
  292TMC3    C4 4454   0.028   0.202   0.232 -0.8279  0.2283  0.5352
  292TMC3    C5 4455   0.007   0.068   0.210  0.0102 -0.5301 -0.2455
  292TMC3    C6 4456   0.004   4.713   0.312 -0.3228  0.0382  0.9370
  292TMC3     C 4457   0.028   0.389   0.397  0.2492  0.3520  0.1269
  292TMC3     O 4458   4.690   0.426   0.486  0.1835  0.3223 -0.1565
  292TMC3     H 4459   4.721   0.199   0.567  1.6247 -0.3714  0.1217
  292TMC3    H1 4460   0.025   0.278   0.155 -1.5178 -0.2881  0.0560
  292TMC3    H2 4461   4.723   4.607   0.299  0.9723 -0.3080  2.0662
  292TMC3    C7 4462   0.057   0.018   0.086 -0.6528  0.4409 -0.0568
  292TMC3    C8 4463   0.024   4.670   0.542  0.8179 -0.2690 -0.1872
  292TMC3    O1 4464   0.070   4.635   0.076  0.6944  0.0068  0.0900
  292TMC3    O2 4465   0.091   4.575   0.508  0.4289  0.6302  0.0766
  293MPD2     C 4466   1.946   1.643  12.642  0.2900  0.2687  0.0216
  293MPD2    C1 4467   1.866   1.735  12.700  0.2486 -0.2258 -0.2530
  293MPD2    C2 4468   1.911   1.776  12.824  0.2077 -0.2009  0.5793
  293MPD2    C3 4469   2.018   1.721  12.888  0.3211  0.2603  0.9742
  293MPD2    C4 4470   2.100   1.636  12.820 -0.4314  0.0107 -0.6775
  293MPD2    C5 4471   2.063   1.596  12.698 -0.1664 -0.6635  0.1466
  293MPD2     H 4472   1.865   1.856  12.880 -1.8230 -0.6885 -0.3936
  293MPD2    H1 4473   2.200   1.609  12.854 -0.4325  0.5260 -0.2651
  293MPD2    H2 4474   1.929   1.610  12.540  0.5294 -1.4560  0.5380
  293MPD2    H3 4475   2.127   1.529  12.642  0.7290  1.7572 -1.7058
  293MPD2     N 4476   2.051   1.767  13.020 -0.7666  0.4286  0.3530
  293MPD2    H5 4477   2.011   1.854  13.055 -2.6892 -0.5175  0.5261
  293MPD2    N1 4478   1.762   1.794  12.634  0.4888  0.0473  0.0734
  293MPD2    H7 4479   1.753   1.780  12.534 -0.8117 -0.0085  0.1985
  294TMC3    C1 4480   1.557   1.884  12.593 -0.0928  0.4399 -0.1575
  294TMC3    C2 4481   1.431   1.858  12.623 -0.4182  0.0428 -0.4236
  294TMC3    C3 4482   1.346   1.831  12.522  0.4966  0.2027  0.6486
  294TMC3    C4 4483   1.599   1.905  12.468  0.2076 -0.9341 -0.0076
  294TMC3    C5 4484   1.509   1.885  12.366  0.2979 -0.0589  0.0260
  294TMC3    C6 4485   1.384   1.834  12.394  0.2574 -0.2667 -0.6037
  294TMC3     C 4486   1.660   1.864  12.696  0.4794  0.0069  0.0636
  294TMC3     O 4487   1.631   1.876  12.816  0.0353 -0.5103  0.4417
  294TMC3     H 4488   1.398   1.848  12.725  0.9027 -0.6161 -0.0605
  294TMC3    H1 4489   1.700   1.941  12.453 -0.0438 -0.2501 -0.0697
  294TMC3    H2 4490   1.307   1.836  12.318  0.2020 -0.5872 -0.5546
  294TMC3    C7 4491   1.517   1.980  12.257 -0.2068  0.1944 -0.1360
  294TMC3    C8 4492   1.280   1.708  12.559  0.3435  0.1502 -0.1027
  294TMC3    O1 4493   1.417   2.055  12.241  0.1196 -0.6348  0.2186
  294TMC3    O2 4494   1.243   1.705  12.678  0.4455 -0.4758  0.3788
  295MPD2     C 4495   3.531   1.735   0.682  0.1417 -0.4769 -0.3114
  295MPD2    C1 4496   3.455   1.641   0.611  0.1703 -0.1714 -0.6993
  295MPD2    C2 4497   3.379   1.540   0.677  0.4807 -0.5207 -0.1111
  295MPD2    C3 4498   3.402   1.517   0.811 -0.2143  0.1510 -0.5902
  295MPD2    C4 4499   3.483   1.610   0.881  0.0953 -0.5974  0.0715
  295MPD2    C5 4500   3.541   1.723   0.818  0.4989 -0.7070 -0.8628
  295MPD2     H 4501   3.317   1.474   0.618  1.5998  0.5958 -2.5144
  295MPD2    H1 4502   3.491   1.596   0.989 -1.6811  1.0052  0.3968
  295MPD2    H2 4503   3.578   1.824   0.641  2.1945 -1.4063  0.0527
  295MPD2    H3 4504   3.587   1.805   0.872  0.0070 -0.9302 -0.1032
  295MPD2     N 4505   3.349   1.408   0.882 -0.6509 -0.1613  0.1823
  295MPD2    H5 4506   3.398   1.391   0.970 -1.0458  1.0524  0.6452
  295MPD2    N1 4507   3.440   1.637   0.470  0.0862  0.1707 -0.2220
  295MPD2    H7 4508   3.384   1.560   0.436  0.8409  0.1148 -1.3302
  296TMC3    C1 4509   3.268   1.194   0.919 -0.1912 -0.8442  0.2071
  296TMC3    C2 4510   3.264   1.209   1.057 -0.3102  0.4407 -0.6136
  296TMC3    C3 4511   3.259   1.099   1.135  0.5274 -0.0317  0.1396
  296TMC3    C4 4512   3.248   1.077   0.858 -0.6197 -0.7500  0.6457
  296TMC3    C5 4513   3.233   0.965   0.942 -0.0072  0.4725 -0.7001
  296TMC3    C6 4514   3.251   0.971   1.081  0.2827 -0.2760  0.7621
  296TMC3     C 4515   3.267   1.311   0.835  0.0601  0.3057 -0.6317
  296TMC3     O 4516   3.191   1.301   0.737 -0.1047 -0.4684 -0.2564
  296TMC3     H 4517   3.267   1.309   1.098 -0.0022  0.7852 -1.4699
  296TMC3    H1 4518   3.229   1.070   0.752 -1.1255  0.8058  0.6367
  296TMC3    H2 4519   3.249   0.888   1.150  0.1741 -0.3925  0.6185
  296TMC3    C7 4520   3.204   0.839   0.874 -0.9754  1.0428  0.5549
  296TMC3    C8 4521   3.212   1.107   1.275 -0.6854  0.1740  0.0182
  296TMC3    O1 4522   3.209   0.836   0.752 -0.1844  0.7630  0.6071
  296TMC3    O2 4523   3.252   1.029   1.358 -0.2293  0.3225 -0.4445
  297MPD2     C 4524   0.312   2.453  16.462  0.1428 -0.1572 -0.3594
  297MPD2    C1 4525   0.295   2.543  16.361 -0.0055  0.1044  0.0315
  297MPD2    C2 4526   0.382   2.647  16.352 -0.1669 -0.3593 -1.1574
  297MPD2    C3 4527   0.485   2.661  16.443 -0.4804  0.2751  0.6144
  297MPD2    C4 4528   0.494   2.573  16.545 -0.1562  0.1250 -0.4055
  297MPD2    C5 4529   0.415   2.462  16.555  0.4397 -0.5671 -0.5120
  297MPD2     H 4530   0.375   2.719  16.271 -2.1388 -0.7088 -1.2951
  297MPD2    H1 4531   0.569   2.579  16.623 -0.6085  2.6026 -0.1645
  297MPD2    H2 4532   0.241   2.372  16.474  0.9656 -0.7049  0.8511
  297MPD2    H3 4533   0.423   2.392  16.637 -1.8560 -0.1895  0.0283
  297MPD2     N 4534   0.567   2.769  16.418  0.1619 -0.6428  0.6318
  297MPD2    H5 4535   0.555   2.806  16.325  1.8842  0.3979  0.8391
  297MPD2    N1 4536   0.175   2.542  16.281 -0.3431  0.6500  0.2579
  297MPD2    H7 4537   0.176   2.619  16.215  1.3310 -2.5989 -3.5063
  298TMC3    C1 4538   4.716   2.492  16.179  0.4581 -0.2928 -0.0624
  298TMC3    C2 4539   0.039   2.495  16.056 -0.0823 -0.6749 -0.3532
  298TMC3    C3 4540   4.704   2.544  15.946 -0.5294  0.2724 -0.0724
  298TMC3    C4 4541   4.584   2.536  16.201 -0.8176 -0.5098  0.5367
  298TMC3    C5 4542   4.522   2.578  16.087 -0.3840  0.2454 -1.0694
  298TMC3    C6 4543   4.571   2.588  15.958  0.0286 -0.0891  0.3692
  298TMC3     C 4544   0.063   2.470  16.295 -0.2778 -0.5745  0.0796
  298TMC3     O 4545   0.023   2.404  16.386 -0.0060 -0.1557 -1.0088
  298TMC3     H 4546   0.145   2.479  16.046 -0.2029 -0.5781 -1.8542
  298TMC3    H1 4547   4.527   2.532  16.294  3.4666 -0.1824  3.1670
  298TMC3    H2 4548   4.522   2.623  15.868 -0.1944  1.6676  1.1857
  298TMC3    C7 4549   4.415   2.675  16.125 -0.1180  0.1146  0.0895
  298TMC3    C8 4550   0.013   2.511  15.809 -0.7916 -0.0758  0.3110
  298TMC3    O1 4551   4.426   2.721  16.239 -0.2105  0.2585 -0.6034
  298TMC3    O2 4552   4.677   2.552  15.716  0.5320 -0.4655 -0.0135
  299MPD2     C 4553   0.630   2.201  10.314 -0.3011 -0.8680 -0.0092
  299MPD2    C1 4554   0.591   2.095  10.393 -0.6150 -0.3583 -0.4815
  299MPD2    C2 4555   0.498   2.002  10.353 -0.1128  0.2420  0.4027
  299MPD2    C3 4556   0.449   2.007  10.225  0.2255 -0.4291  0.0826
  299MPD2    C4 4557   0.482   2.116  10.142  0.2685  0.5020  0.0749
  299MPD2    C5 4558   0.575   2.201  10.184 -0.4042  0.1626 -0.4268
  299MPD2     H 4559   0.456   1.935  10.427  0.6561 -1.3593 -0.6245
  299MPD2    H1 4560   0.451   2.116  10.038 -1.7486  1.8877  0.6593
  299MPD2    H2 4561   0.710   2.270  10.338  0.7099 -1.8679 -0.4934
  299MPD2    H3 4562   0.608   2.281  10.118 -3.6359 -0.6035 -2.9461
  299MPD2     N 4563   0.341   1.925  10.182  0.4837  0.0838 -0.7059
  299MPD2    H5 4564   0.323   1.930  10.083 -3.3850  1.3379  0.0829
  299MPD2    N1 4565   0.647   2.086  10.523 -0.1825 -0.4839  0.5076
  299MPD2    H7 4566   0.704   2.168  10.544  0.7048 -1.7407  3.0240
  300TMC3    C1 4567   0.168   1.772  10.170 -0.7073  1.0801  0.3479
  300TMC3    C2 4568   0.197   1.759  10.039  0.0843  0.0394  0.7925
  300TMC3    C3 4569   0.087   1.747   9.962 -0.2450 -0.0697  0.1813
  300TMC3    C4 4570   0.046   1.746  10.227 -0.1974  0.4559  0.2999
  300TMC3    C5 4571   4.672   1.740  10.139  0.0975  0.3636  0.0968
  300TMC3    C6 4572   4.698   1.734  10.004 -0.1782 -0.2574 -0.2342
  300TMC3     C 4573   0.264   1.839  10.257  0.8544 -0.0908  0.0960
  300TMC3     O 4574   0.262   1.822  10.378 -0.4827  0.3248 -0.4087
  300TMC3     H 4575   0.299   1.769  10.003 -0.6646 -0.8137 -1.5123
  300TMC3    H1 4576   0.033   1.754  10.334  0.3698  2.7038  0.1997
  300TMC3    H2 4577   4.616   1.747   9.933 -0.1096  1.9467  0.0743
  300TMC3    C7 4578   4.563   1.670  10.194  0.1751 -0.0793 -0.1047
  300TMC3    C8 4579   0.113   1.835   9.851 -0.0699  0.1571  0.8011
  300TMC3    O1 4580   4.529   1.569  10.136 -0.7265  0.0088 -0.3444
  300TMC3    O2 4581   0.142   1.792   9.740 -0.4686  0.2974 -0.2028
  301MPD2     C 4582   3.039   4.135   1.010  0.3743  0.4126  0.1199
  301MPD2    C1 4583   2.904   4.105   1.004  0.5692 -0.4024 -0.2215
  301MPD2    C2 4584   2.873   3.975   0.980 -1.1285  0.2162  0.0249
  301MPD2    C3 4585   2.971   3.871   0.973 -0.3424  0.0992  0.9401
  301MPD2    C4 4586   3.104   3.906   0.984  0.3528  0.2265 -0.5755
  301MPD2    C5 4587   3.136   4.042   1.009  0.7192  0.5039 -0.6128
  301MPD2     H 4588   2.769   3.944   0.967 -1.1284 -0.2356  1.1251
  301MPD2    H1 4589   3.176   3.825   0.985 -1.2146 -1.1659 -0.9341
  301MPD2    H2 4590   3.067   4.239   1.018  0.6676  0.2250  1.6523
  301MPD2    H3 4591   3.238   4.076   1.022  1.4689 -0.7909 -3.1030
  301MPD2     N 4592   2.938   3.731   0.951  0.6094  0.1987  0.6861
  301MPD2    H5 4593   3.001   3.654   0.974  2.4498  1.4009 -0.3539
  301MPD2    N1 4594   2.794   4.199   1.013  0.1779  0.3093  0.2183
  301MPD2    H7 4595   2.705   4.150   1.004 -0.3463  0.9429  2.1108
  302TMC3    C1 4596   2.801   3.551   0.870 -0.1561  0.3584 -0.3652
  302TMC3    C2 4597   2.850   3.453   0.955  0.1081 -0.2118  0.2008
  302TMC3    C3 4598   2.816   3.328   0.927  0.1904  0.7510  0.2510
  302TMC3    C4 4599   2.709   3.524   0.772 -0.1415 -0.0207 -0.5856
  302TMC3    C5 4600   2.682   3.394   0.755  0.5273  0.6250  0.2698
  302TMC3    C6 4601   2.736   3.289   0.822 -0.1926 -0.5975 -0.1045
  302TMC3     C 4602   2.819   3.696   0.893 -0.0745  0.3717  0.2239
  302TMC3     O 4603   2.742   3.763   0.829  0.5950  0.2415  0.0640
  302TMC3     H 4604   2.903   3.483   1.044 -0.1650 -2.5300  1.1300
  302TMC3    H1 4605   2.658   3.597   0.710 -1.1059  1.2109  1.6584
  302TMC3    H2 4606   2.706   3.185   0.814  0.9009 -0.9951  0.9870
  302TMC3    C7 4607   2.558   3.362   0.679  0.8011 -0.5374  0.1479
  302TMC3    C8 4608   2.871   3.221   1.015 -0.1833  0.7779  0.0836
  302TMC3    O1 4609   2.541   3.240   0.648 -0.0122 -0.3893 -0.6681
  302TMC3    O2 4610   2.984   3.256   1.046  0.0158 -0.3608  0.6483
  303MPD2     C 4611   3.234   1.573  10.502 -0.2669 -0.8202 -0.1941
  303MPD2    C1 4612   3.166   1.466  10.549 -0.1083 -0.9137  0.0590
  303MPD2    C2 4613   3.082   1.383  10.470  0.1594  0.1838  0.4352
  303MPD2    C3 4614   3.063   1.415  10.337  0.6757  0.3618  0.8926
  303MPD2    C4 4615   3.143   1.516  10.286 -0.4328 -0.1191 -0.0362
  303MPD2    C5 4616   3.212   1.603  10.369  0.5747  0.8399 -0.7379
  303MPD2     H 4617   3.026   1.305  10.521  1.5999 -0.1912  1.4502
  303MPD2    H1 4618   3.142   1.537  10.179  0.4745  0.0441 -0.0105
  303MPD2    H2 4619   3.295   1.636  10.566  0.7242 -2.0346  0.0638
  303MPD2    H3 4620   3.272   1.682  10.325  0.3655  0.0497 -2.4547
  303MPD2     N 4621   2.991   1.334  10.247  0.0031 -0.2360  0.4590
  303MPD2    H5 4622   2.987   1.365  10.150  3.1636 -1.4265 -0.0693
  303MPD2    N1 4623   3.200   1.446  10.688  0.0719  0.6448 -0.3321
  303MPD2    H7 4624   3.247   1.522  10.736 -1.6953  0.1105  2.2563
  304TMC3    C1 4625   3.182   1.350  10.908 -0.2843 -0.7140  0.2800
  304TMC3    C2 4626   3.150   1.469  10.967 -0.5560  0.5978  0.6271
  304TMC3    C3 4627   3.092   1.475  11.089 -0.4093  0.0381 -0.5590
  304TMC3    C4 4628   3.160   1.235  10.977  0.0767  0.3464 -0.1740
  304TMC3    C5 4629   3.110   1.241  11.107  0.1502  0.8004 -0.1962
  304TMC3    C6 4630   3.091   1.357  11.167 -0.0510  0.5766 -0.2720
  304TMC3     C 4631   3.153   1.339  10.767  0.1384  0.3765 -0.9986
  304TMC3     O 4632   3.097   1.233  10.737  0.2832  0.0307  0.3122
  304TMC3     H 4633   3.126   1.557  10.908 -0.5015  0.1007 -0.1388
  304TMC3    H1 4634   3.159   1.142  10.923 -0.0826  1.5755 -2.2960
  304TMC3    H2 4635   3.056   1.358  11.270 -0.6036  0.1592 -0.4605
  304TMC3    C7 4636   3.007   1.148  11.138 -0.2043 -0.2640 -0.6316
  304TMC3    C8 4637   2.975   1.561  11.094  0.2685  0.1062  0.6601
  304TMC3    O1 4638   2.902   1.196  11.174  0.3236  0.0066 -0.1815
  304TMC3    O2 4639   2.977   1.679  11.083  0.1901  0.5403 -0.0704
  305MPD2     C 4640   0.811   3.837  13.808  0.0170 -0.0513 -0.1285
  305MPD2    C1 4641   0.936   3.784  13.800  0.2698  0.3975 -0.4311
  305MPD2    C2 4642   0.973   3.711  13.687  0.3919 -0.4907  0.1011
  305MPD2    C3 4643   0.887   3.681  13.584  0.1955  0.1811 -0.3118
  305MPD2    C4 4644   0.756   3.718  13.608 -0.0550  0.5020  0.5170
  305MPD2    C5 4645   0.718   3.782  13.723 -0.1010  0.1318 -0.6056
  305MPD2     H 4646   1.069   3.661  13.694  1.6229  1.8288 -0.3048
  305MPD2    H1 4647   0.676   3.700  13.536  0.1892  0.7446  0.1855
  305MPD2    H2 4648   0.771   3.899  13.887  1.4095  0.4686  0.1659
  305MPD2    H3 4649   0.618   3.825  13.715 -0.7991 -1.2839  0.3572
  305MPD2     N 4650   0.924   3.603  13.472  0.0355 -0.7650 -0.6697
  305MPD2    H5 4651   0.848   3.570  13.414 -0.0172 -0.4727 -0.7701
  305MPD2    N1 4652   1.019   3.802  13.917 -0.4636 -0.0757 -0.7809
  305MPD2    H7 4653   0.972   3.832  14.002 -0.3463  0.6468 -0.9766
  306TMC3    C1 4654   1.199   3.773  14.070 -0.1525 -0.3437  0.9719
  306TMC3    C2 4655   1.319   3.702  14.085 -0.0727 -0.0511 -0.1302
  306TMC3    C3 4656   1.341   3.662  14.216 -0.3826 -1.2142  0.2819
  306TMC3    C4 4657   1.137   3.838  14.170  0.1007  0.2733 -0.1956
  306TMC3    C5 4658   1.173   3.807  14.297  0.2045  0.0829  0.4290
  306TMC3    C6 4659   1.266   3.710  14.325 -0.0391  0.0386 -0.3726
  306TMC3     C 4660   1.154   3.773  13.929  0.2839  0.2304 -0.4720
  306TMC3     O 4661   1.227   3.737  13.840 -0.4195 -0.8020  0.6522
  306TMC3     H 4662   1.372   3.668  13.997  0.1531  0.0907 -0.0494
  306TMC3    H1 4663   1.072   3.922  14.150 -1.9568 -1.4722 -0.8741
  306TMC3    H2 4664   1.281   3.672  14.425  0.0352  1.1318  0.0224
  306TMC3    C7 4665   1.105   3.877  14.407 -0.3175  0.0102 -0.0636
  306TMC3    C8 4666   1.450   3.572  14.237 -1.0030  0.7212 -0.5864
  306TMC3    O1 4667   0.983   3.901  14.390 -0.2983 -0.5298 -0.4018
  306TMC3    O2 4668   1.490   3.512  14.139 -0.4297  0.1829  0.8139
  307MPD2     C 4669   3.856   2.814   0.258 -0.0619 -0.0483  0.9686
  307MPD2    C1 4670   3.808   2.941   0.280  0.2626  0.3021  0.3378
  307MPD2    C2 4671   3.695   2.956   0.356  0.0430  0.2944  0.5194
  307MPD2    C3 4672   3.637   2.849   0.413 -0.2595  0.1637 -0.8952
  307MPD2    C4 4673   3.691   2.721   0.403 -0.2663  0.2716 -0.5928
  307MPD2    C5 4674   3.805   2.712   0.327 -0.3270 -0.3953  0.3214
  307MPD2     H 4675   3.659   3.053   0.385  1.1093  0.8792 -0.1239
  307MPD2    H1 4676   3.664   2.639   0.468 -1.0241 -0.1374 -1.4162
  307MPD2    H2 4677   3.936   2.796   0.187  0.0393  0.4110  0.9638
  307MPD2    H3 4678   3.842   2.612   0.309  1.1127  0.3426 -0.8323
  307MPD2     N 4679   3.526   2.878   0.500  0.2712 -0.3489  0.3386
  307MPD2    H5 4680   3.483   2.970   0.496 -1.2458 -1.2449 -3.6246
  307MPD2    N1 4681   3.874   3.055   0.235 -0.6028  0.0227  0.1619
  307MPD2    H7 4682   3.832   3.145   0.257 -0.2749  0.0998  0.4656
  308TMC3    C1 4683   3.142   2.800   0.757  0.5426 -0.3514 -0.2542
  308TMC3    C2 4684   3.172   2.889   0.856 -0.3225 -0.2842  0.6493
  308TMC3    C3 4685   3.288   2.959   0.845 -0.2387 -0.4705  0.0389
  308TMC3    C4 4686   3.237   2.756   0.672 -0.3237 -0.0281 -0.5741
  308TMC3    C5 4687   3.347   2.832   0.655 -0.1158 -0.1889 -0.0488
  308TMC3    C6 4688   3.373   2.942   0.737 -0.2789  0.6560 -0.1580
  308TMC3     C 4689   3.013   2.743   0.759  0.1129 -0.3230 -0.5309
  308TMC3     O 4690   3.009   2.622   0.742  0.3199 -1.0329  0.2058
  308TMC3     H 4691   3.101   2.914   0.934 -1.5015 -1.7174  0.0431
  308TMC3    H1 4692   3.211   2.678   0.602  0.1085 -0.6069 -0.0888
  308TMC3    H2 4693   3.463   3.001   0.727 -0.3502  0.9902  1.1125
  308TMC3    C7 4694   3.452   2.780   0.568  0.2957  0.2360 -0.4837
  308TMC3    C8 4695   3.324   3.054   0.946 -0.7267 -0.1157 -0.0673
  308TMC3    O1 4696   3.452   2.656   0.562 -0.2092  0.4366 -0.3403
  308TMC3    O2 4697   3.303   3.025   1.062  0.7866 -0.1176 -0.0165
  309MPD2     C 4698   3.092   2.903  17.276  0.4465  0.2678 -0.1905
  309MPD2    C1 4699   3.008   2.830  17.193  0.7115 -0.1046  0.6425
  309MPD2    C2 4700   2.866   2.823  17.215 -0.3312  0.6356  0.0895
  309MPD2    C3 4701   2.813   2.897  17.322  0.4405  0.7877  0.7454
  309MPD2    C4 4702   2.904   2.975  17.400 -0.2940  0.5781  0.6593
  309MPD2    C5 4703   3.040   2.981  17.376  0.1681  0.3597 -0.0587
  309MPD2     H 4704   2.805   2.765  17.147  1.7919 -2.1775  0.5630
  309MPD2    H1 4705   2.873   3.046  17.476 -2.1763  1.4720 -0.9400
  309MPD2    H2 4706   3.200   2.900  17.267  0.7277  1.4646  2.7900
  309MPD2    H3 4707   3.103   3.037  17.444  1.2731 -2.5176  1.2778
  309MPD2     N 4708   2.674   2.883  17.360 -0.3291  0.5163 -0.5395
  309MPD2    H5 4709   2.648   2.939  17.440 -0.4940 -0.7107  0.2695
  309MPD2    N1 4710   3.060   2.772  17.067 -0.5063 -0.4756 -0.6521
  309MPD2    H7 4711   2.994   2.738  16.998 -2.7872  0.0155  1.2772
  310TMC3    C1 4712   3.201   2.736  16.899  0.1628 -0.5334  0.2014
  310TMC3    C2 4713   3.114   2.796  16.812 -0.2181 -0.3814  0.9281
  310TMC3    C3 4714   3.112   2.758  16.678 -0.4024 -0.5087  0.0380
  310TMC3    C4 4715   3.284   2.630  16.853 -0.0135 -0.2410 -0.1162
  310TMC3    C5 4716   3.279   2.600  16.719  0.0093 -0.5388 -0.3400
  310TMC3    C6 4717   3.193   2.659  16.633 -0.0206  0.2844  0.1584
  310TMC3     C 4718   3.196   2.752  17.040 -0.1361 -0.0651  0.4840
  310TMC3     O 4719   3.299   2.744  17.108  0.2821 -0.3529  0.2265
  310TMC3     H 4720   3.058   2.885  16.839 -0.7213  0.5038 -3.0542
  310TMC3    H1 4721   3.336   2.572  16.929  2.5157  1.9028 -0.2256
  310TMC3    H2 4722   3.200   2.635  16.528  0.3045  1.3172 -0.0620
  310TMC3    C7 4723   3.315   2.465  16.675  0.3499 -0.7709 -0.3333
  310TMC3    C8 4724   2.996   2.801  16.599  0.7431 -0.5462  0.1644
  310TMC3    O1 4725   3.239   2.419  16.596 -0.6211 -0.0900 -0.2536
  310TMC3    O2 4726   2.895   2.824  16.663  0.3531  0.2793  0.5216
  311MPD2     C 4727   0.162   3.044  12.644 -0.2771  0.0701 -0.3170
  311MPD2    C1 4728   0.164   3.175  12.676  0.4534  0.1456 -0.2965
  311MPD2    C2 4729   0.058   3.239  12.733  0.3884 -0.6333 -0.0348
  311MPD2    C3 4730   4.680   3.168  12.761  0.2157  0.4251 -0.0378
  311MPD2    C4 4731   4.671   3.039  12.723 -0.0140 -0.2066  0.0308
  311MPD2    C5 4732   0.044   2.981  12.668 -1.0896  0.3081  0.1480
  311MPD2     H 4733   0.067   3.340  12.771 -1.1956  0.1427 -1.6737
  311MPD2    H1 4734   4.590   2.971  12.743  1.7674 -3.6711 -4.5070
  311MPD2    H2 4735   0.246   2.988  12.604  0.7381 -0.3481  2.3477
  311MPD2    H3 4736   0.031   2.879  12.634  0.0521  0.1657  0.1589
  311MPD2     N 4737   4.574   3.238  12.821  0.3277 -0.3249  0.0301
  311MPD2    H5 4738   4.600   3.324  12.869 -0.6585  1.0106 -1.8603
  311MPD2    N1 4739   0.282   3.257  12.672 -0.1528 -0.8524  1.0926
  311MPD2    H7 4740   0.261   3.355  12.686 -0.4506 -0.7088 -0.4311
  312TMC3    C1 4741   4.349   3.292  12.889  0.1750  0.0994 -0.0915
  312TMC3    C2 4742   4.220   3.289  12.850  0.9173  0.6373  0.1942
  312TMC3    C3 4743   4.150   3.408  12.857 -0.3337 -0.3872  0.8252
  312TMC3    C4 4744   4.404   3.406  12.949 -0.1015  0.4135  0.7401
  312TMC3    C5 4745   4.326   3.522  12.959  0.1636 -0.3194  0.3301
  312TMC3    C6 4746   4.195   3.529  12.915  0.3130  0.2837  0.1953
  312TMC3     C 4747   4.439   3.198  12.828 -0.3158  0.0900 -0.1771
  312TMC3     O 4748   4.393   3.101  12.771 -0.7000 -0.8225 -0.3129
  312TMC3     H 4749   4.177   3.201  12.803  1.8745 -0.2057  0.8963
  312TMC3    H1 4750   4.502   3.407  12.994 -0.2922 -0.9001  1.1954
  312TMC3    H2 4751   4.144   3.624  12.910 -0.4067  0.1017  4.3128
  312TMC3    C7 4752   4.374   3.641  13.021 -0.7234 -0.0214 -0.1672
  312TMC3    C8 4753   4.009   3.401  12.826 -0.1919  0.1742 -0.8078
  312TMC3    O1 4754   4.331   3.751  12.984 -0.0887  0.1028  0.4168
  312TMC3    O2 4755   3.935   3.309  12.860  0.2043  0.4791 -0.1337
  313MPD2     C 4756   3.180   2.567  11.491 -0.7313  0.0975 -0.3865
  313MPD2    C1 4757   3.239   2.600  11.368 -0.0584  0.0503  0.0960
  313MPD2    C2 4758   3.237   2.502  11.264  0.6274 -0.3287  0.0503
  313MPD2    C3 4759   3.183   2.377  11.281  0.1804 -0.1339 -0.2071
  313MPD2    C4 4760   3.119   2.340  11.398  0.4437  0.0408  0.2380
  313MPD2    C5 4761   3.122   2.440  11.497  0.7203 -0.2422  0.6169
  313MPD2     H 4762   3.295   2.521  11.175 -1.1231  0.2950 -0.9495
  313MPD2    H1 4763   3.087   2.239  11.420  0.4200 -0.4254 -1.9805
  313MPD2    H2 4764   3.182   2.631  11.579  0.3347  2.7401 -2.3039
  313MPD2    H3 4765   3.069   2.418  11.589 -0.1813  0.9832  0.3998
  313MPD2     N 4766   3.194   2.297  11.165  0.3946 -0.0645  0.0674
  313MPD2    H5 4767   3.258   2.325  11.091  0.5592 -3.0765 -0.8883
  313MPD2    N1 4768   3.292   2.722  11.330 -0.0401  0.3055  0.4690
  313MPD2    H7 4769   3.306   2.734  11.230 -0.4292 -0.1421  0.3603
  314TMC3    C1 4770   3.366   2.939  11.342 -0.8336  0.7095 -0.0125
  314TMC3    C2 4771   3.490   2.984  11.326  0.5763  0.2353  0.1093
  314TMC3    C3 4772   3.519   3.065  11.227  0.4898  0.1405  0.0717
  314TMC3    C4 4773   3.267   2.961  11.248 -0.1856 -0.0355 -0.4824
  314TMC3    C5 4774   3.297   3.040  11.144  0.6810 -0.2434  0.0744
  314TMC3    C6 4775   3.423   3.097  11.137 -0.2438 -0.4006  0.2140
  314TMC3     C 4776   3.338   2.821  11.415 -0.4915  0.2592  0.4517
  314TMC3     O 4777   3.342   2.818  11.537 -0.5339 -0.3198  0.8517
  314TMC3     H 4778   3.561   2.958  11.403  0.0842  0.1992  0.5571
  314TMC3    H1 4779   3.163   2.934  11.260  0.5695 -2.4685  0.6455
  314TMC3    H2 4780   3.455   3.151  11.048 -0.1713  0.0612  0.5180
  314TMC3    C7 4781   3.247   2.979  11.022  0.2872  0.3987  0.5209
  314TMC3    C8 4782   3.656   3.098  11.189  0.0708 -0.3590  0.4486
  314TMC3    O1 4783   3.207   2.865  11.037 -0.2586  0.3294 -0.3896
  314TMC3    O2 4784   3.674   3.197  11.124 -0.4362 -0.3383  0.3447
  315MPD2     C 4785   3.694   2.479  17.677  0.4207 -0.3857 -0.6311
  315MPD2    C1 4786   3.811   2.476   0.008  0.7592 -0.1457  0.5958
  315MPD2    C2 4787   3.904   2.576  17.730 -0.2644  0.1910  0.5081
  315MPD2    C3 4788   3.890   2.666  17.628 -0.4790 -0.4983  0.0081
  315MPD2    C4 4789   3.774   2.662  17.546 -0.6184 -0.1228  0.2508
  315MPD2    C5 4790   3.676   2.577  17.582 -0.8795 -0.4640 -0.3965
  315MPD2     H 4791   3.996   2.571   0.044  0.4014 -1.0954 -0.6937
  315MPD2    H1 4792   3.740   2.722  17.462 -0.4714  1.5504  1.3780
  315MPD2    H2 4793   3.623   2.398  17.687  0.2882 -0.0912  0.8513
  315MPD2    H3 4794   3.589   2.586  17.519  0.4783 -0.1536 -2.2475
  315MPD2     N 4795   4.001   2.752  17.598 -0.0290 -0.5029 -0.4499
  315MPD2    H5 4796   4.073   2.751  17.670  1.4222 -2.3982 -1.9351
  315MPD2    N1 4797   3.846   2.380   0.105 -0.0858 -0.0639 -0.4438
  315MPD2    H7 4798   3.929   2.394   0.163 -1.2301  0.0997  1.1657
  316TMC3    C1 4799   4.154   2.882  17.483  0.2000  0.5906 -0.0103
  316TMC3    C2 4800   4.233   2.876  17.600 -0.3554 -0.4668 -1.3001
  316TMC3    C3 4801   4.347   2.948  17.593 -0.3145 -0.7518  0.5114
  316TMC3    C4 4802   4.178   2.964  17.382  0.1657  0.3156 -0.7511
  316TMC3    C5 4803   4.302   3.029  17.381  0.1722  0.4582 -0.2348
  316TMC3    C6 4804   4.380   3.031  17.493 -0.8006 -0.2371 -0.5158
  316TMC3     C 4805   4.026   2.819  17.481  0.3641 -0.4819 -0.1598
  316TMC3     O 4806   3.947   2.822  17.389  0.2597  0.6520  0.3630
  316TMC3     H 4807   4.228   2.808  17.684 -1.0676 -0.5949 -1.4462
  316TMC3    H1 4808   4.100   2.976  17.307 -1.4501  2.2709  1.1999
  316TMC3    H2 4809   4.475   3.082  17.493  1.0433 -3.6796  0.6680
  316TMC3    C7 4810   4.318   3.153  17.309  0.0644  0.5795 -0.3980
  316TMC3    C8 4811   4.444   2.934  17.693  0.1439 -0.3872 -0.1825
  316TMC3    O1 4812   4.402   3.232  17.343 -0.4608 -0.1428  0.3035
  316TMC3    O2 4813   4.535   3.014  17.708 -0.1416 -0.0003  0.5066
  317MPD2     C 4814   0.926   0.679  12.918  0.0729  0.7646  0.0800
  317MPD2    C1 4815   0.926   0.557  12.857 -1.1271 -0.0199 -0.3393
  317MPD2    C2 4816   0.997   0.452  12.917  0.1173  0.5248 -0.5130
  317MPD2    C3 4817   1.084   0.470  13.029 -0.1044 -0.0617 -0.9086
  317MPD2    C4 4818   1.094   0.598  13.071 -0.0953  1.0369 -0.7541
  317MPD2    C5 4819   1.010   0.695  13.020 -0.2380  0.0480 -0.2752
  317MPD2     H 4820   0.990   0.353  12.875 -1.7813  0.2379  0.4830
  317MPD2    H1 4821   1.158   0.622  13.155  0.4408  0.0511 -0.8798
  317MPD2    H2 4822   0.884   0.766  12.870 -0.1516  0.9661  0.6441
  317MPD2    H3 4823   1.017   0.795  13.061 -1.2246  1.5350 -3.7341
  317MPD2     N 4824   1.168   0.364  13.076 -0.2152 -0.3125  0.2031
  317MPD2    H5 4825   1.163   0.280  13.020  0.1478  0.4364 -0.9597
  317MPD2    N1 4826   0.875   0.545  12.724  0.8764 -0.0790 -0.3775
  317MPD2    H7 4827   0.830   0.631  12.697 -0.2524 -0.2455  0.9595
  318TMC3    C1 4828   1.361   0.269  13.180 -0.0264 -0.0762 -0.1604
  318TMC3    C2 4829   1.362   0.166  13.083 -0.0372 -0.4168 -0.5076
  318TMC3    C3 4830   1.417   0.049  13.122 -0.2249 -0.1139 -0.1276
  318TMC3    C4 4831   1.426   0.255  13.297  0.1943 -0.6840  0.2398
  318TMC3    C5 4832   1.484   0.136  13.333 -0.9063  0.5498 -0.3534
  318TMC3    C6 4833   1.477   0.025  13.242  0.1162  0.6130  0.6677
  318TMC3     C 4834   1.264   0.379  13.174  0.0240 -0.4030  0.1829
  318TMC3     O 4835   1.271   0.465  13.256  0.4627 -0.2489  0.0507
  318TMC3     H 4836   1.290   0.172  13.003 -1.0946 -0.2381  0.4578
  318TMC3    H1 4837   1.413   0.330  13.374  0.6973  1.1027 -1.4306
  318TMC3    H2 4838   1.536   4.672  13.263 -1.1910 -0.6317 -0.9230
  318TMC3    C7 4839   1.596   0.147  13.423 -0.1847  0.3863  0.5184
  318TMC3    C8 4840   1.331   4.673  13.073  0.1546  0.0452 -0.4070
  318TMC3    O1 4841   1.594   0.254  13.484 -0.2726 -0.0851 -0.1830
  318TMC3    O2 4842   1.282   4.592  13.155  0.3705  0.0252 -0.0107
  319MPD2     C 4843   1.958   1.777  17.196 -0.3677  0.9855  0.5672
  319MPD2    C1 4844   1.832   1.818  17.222 -0.0559 -0.2790  0.1370
  319MPD2    C2 4845   1.740   1.823  17.118  0.1128 -0.0150 -0.8367
  319MPD2    C3 4846   1.763   1.763  16.992  0.0765  0.9831  0.3514
  319MPD2    C4 4847   1.889   1.716  16.974 -0.2271 -0.4826  0.0401
  319MPD2    C5 4848   1.987   1.739  17.070 -0.3447 -0.2182  0.0638
  319MPD2     H 4849   1.637   1.848  17.140  0.0318 -0.1836 -1.0149
  319MPD2    H1 4850   1.922   1.687  16.874 -0.1704  3.0470 -0.9568
  319MPD2    H2 4851   2.041   1.792  17.263  0.2215 -2.1510  0.5335
  319MPD2    H3 4852   2.090   1.717  17.044 -0.3097  0.1724 -0.1077
  319MPD2     N 4853   1.669   1.751  16.890 -0.1967 -0.0455  0.3662
  319MPD2    H5 4854   1.708   1.699  16.812 -0.6420 -1.5641  1.1588
  319MPD2    N1 4855   1.793   1.869  17.347 -0.1501 -0.2421 -0.2489
  319MPD2    H7 4856   1.704   1.917  17.342 -0.1205 -0.2362 -0.7269
  320TMC3    C1 4857   1.456   1.748  16.786  0.1842 -0.5673  0.2017
  320TMC3    C2 4858   1.406   1.851  16.704  0.6639 -0.3301 -0.6063
  320TMC3    C3 4859   1.349   1.809  16.586  0.3140 -0.3188 -0.2731
  320TMC3    C4 4860   1.461   1.617  16.752 -0.0660 -0.8218  0.5913
  320TMC3    C5 4861   1.416   1.587  16.623 -0.3811 -0.4696  0.4366
  320TMC3    C6 4862   1.363   1.678  16.539 -0.1072  0.1727  0.1109
  320TMC3     C 4863   1.535   1.796  16.895  0.7815  0.5198  0.5574
  320TMC3     O 4864   1.479   1.869  16.976  0.2663  0.3793  0.2053
  320TMC3     H 4865   1.391   1.954  16.735 -1.4372 -0.4170 -1.3083
  320TMC3    H1 4866   1.499   1.544  16.823  3.5243 -0.7569 -1.2780
  320TMC3    H2 4867   1.345   1.656  16.435 -0.2369  0.1793  0.1318
  320TMC3    C7 4868   1.427   1.451  16.580 -0.2027 -0.0430  0.1240
  320TMC3    C8 4869   1.311   1.913  16.487 -0.0854 -0.1748 -0.1752
  320TMC3    O1 4870   1.391   1.425  16.468  0.0392 -0.1730 -0.4994
  320TMC3    O2 4871   1.346   2.026  16.512  0.2893  0.1714  0.5803
  321TMC3    C1 4872   1.838   1.963  17.559 -0.0580 -0.2270  0.8990
  321TMC3    C2 4873   1.885   1.938  17.691  0.5687  0.0597  0.7208
  321TMC3    C3 4874   1.874   2.039   0.037 -0.2155  0.0006  0.2781
  321TMC3    C4 4875   1.782   2.079  17.518  0.7028  0.4468  0.1419
  321TMC3    C5 4876   1.772   2.175  17.611 -0.1134  0.8081 -0.3939
  321TMC3    C6 4877   1.820   2.156  17.739  0.4886  0.0699  0.1359
  321TMC3     C 4878   1.873   1.857  17.459  0.3793 -0.1612 -0.2573
  321TMC3     O 4879   1.980   1.806  17.477 -0.1439 -0.0315 -0.0426
  321TMC3     H 4880   1.931   1.846  17.725 -0.1017 -1.0741 -1.4319
  321TMC3    H1 4881   1.760   2.093  17.413  2.3967  0.9966 -0.1485
  321TMC3    H2 4882   1.811   2.239   0.066  0.6335  1.2762 -1.2663
  321TMC3    C7 4883   1.818   2.302  17.554 -0.5864  0.0474 -0.4098
  321TMC3    C8 4884   2.000   2.075   0.096 -0.2223  0.2489 -0.3336
  321TMC3    O1 4885   1.770   2.328  17.447  0.4816  0.0823  0.4567
  321TMC3    O2 4886   2.026   2.195   0.088  0.2919 -0.4682 -0.5566
  322MPD2     C 4887   0.707   3.086  13.507  0.4073  0.6969  0.1269
  322MPD2    C1 4888   0.716   3.022  13.625 -0.5617 -0.6252  0.2155
  322MPD2    C2 4889   0.747   2.887  13.628  0.1237  1.0287  0.0545
  322MPD2    C3 4890   0.756   2.817  13.517  0.1731 -0.2745  0.4149
  322MPD2    C4 4891   0.748   2.886  13.392 -0.0495  0.0147 -0.2793
  322MPD2    C5 4892   0.719   3.023  13.392 -0.0153 -0.6272  0.3012
  322MPD2     H 4893   0.762   2.840  13.725 -0.0673 -2.5834 -1.6548
  322MPD2    H1 4894   0.765   2.832  13.299 -1.5523  0.1824 -0.6382
  322MPD2    H2 4895   0.700   3.194  13.502  0.3069  0.6282 -1.1124
  322MPD2    H3 4896   0.710   3.075  13.297  0.9359 -0.6271  0.2093
  322MPD2     N 4897   0.787   2.677  13.523  0.2533  0.4360 -0.6570
  322MPD2    H5 4898   0.820   2.649  13.615  1.1257  1.7434 -0.5719
  322MPD2    N1 4899   0.742   3.103  13.744 -0.0781 -0.4656  0.2431
  322MPD2    H7 4900   0.753   3.204  13.744 -3.7415 -0.0729 -0.7360
  323TMC3    C1 4901   0.819   3.118  13.974 -0.6343  0.2579  0.0646
  323TMC3    C2 4902   0.929   3.191  13.936 -0.8879  0.0014 -0.2097
  323TMC3    C3 4903   1.018   3.231  14.042  0.1296 -0.0505  0.4163
  323TMC3    C4 4904   0.794   3.105  14.111 -0.3490 -0.8278  0.6141
  323TMC3    C5 4905   0.876   3.150  14.211  0.0461  1.0545  0.4859
  323TMC3    C6 4906   0.988   3.211  14.174  0.2754  0.3507 -0.4351
  323TMC3     C 4907   0.737   3.053  13.875  0.2297  0.2513 -0.4930
  323TMC3     O 4908   0.684   2.949  13.907 -0.0459 -0.3942 -0.6885
  323TMC3     H 4909   0.953   3.197  13.831 -2.3615 -1.7106 -0.6406
  323TMC3    H1 4910   0.704   3.052  14.142 -1.5198  0.2558 -0.9396
  323TMC3    H2 4911   1.074   3.222  14.239  1.5330 -1.2526 -1.8280
  323TMC3    C7 4912   0.873   3.079  14.337  0.0234  0.5139 -0.0519
  323TMC3    C8 4913   1.163   3.237  14.005  0.1079 -0.4511 -0.6905
  323TMC3    O1 4914   0.796   2.986  14.350  0.1485 -0.2371 -0.6161
  323TMC3    O2 4915   1.244   3.209  14.088 -0.6798 -0.4874 -0.0187
  324MPD2     C 4916   2.673   3.650  14.102 -0.0975  0.0049 -0.0347
  324MPD2    C1 4917   2.597   3.747  14.164 -0.1007  0.1919 -0.6239
  324MPD2    C2 4918   2.461   3.722  14.172 -0.3078  0.2421 -0.1195
  324MPD2    C3 4919   2.396   3.605  14.125  0.4766 -0.5203 -1.0650
  324MPD2    C4 4920   2.477   3.509  14.067 -0.1762  0.1725 -0.3372
  324MPD2    C5 4921   2.615   3.534  14.061 -0.4658 -0.2098  0.4979
  324MPD2     H 4922   2.398   3.795  14.220 -0.3901  0.4339 -0.5254
  324MPD2    H1 4923   2.432   3.415  14.038 -0.3899  1.2295 -3.3846
  324MPD2    H2 4924   2.780   3.651  14.086 -0.3875  0.4826 -1.9426
  324MPD2    H3 4925   2.672   3.454  14.015 -2.2611  0.5558 -3.0569
  324MPD2     N 4926   2.257   3.578  14.143 -0.4331  0.4181  0.1306
  324MPD2    H5 4927   2.231   3.480  14.136  1.5976 -0.1815  0.8635
  324MPD2    N1 4928   2.651   3.867  14.220 -0.2848  0.5858  0.0892
  324MPD2    H7 4929   2.576   3.925  14.256 -0.2831  0.8755 -0.3587
  325TMC3    C1 4930   2.032   3.615  14.209  0.0109  0.6877 -0.7621
  325TMC3    C2 4931   1.985   3.546  14.102 -0.2010  0.3677 -0.1573
  325TMC3    C3 4932   1.852   3.571  14.064 -0.0633 -0.3863 -0.2903
  325TMC3    C4 4933   1.950   3.691  14.294 -0.1246 -0.7147  0.2498
  325TMC3    C5 4934   1.822   3.716  14.244  0.1972 -1.1307 -0.7393
  325TMC3    C6 4935   1.766   3.653  14.135  0.2882  0.6766 -0.0092
  325TMC3     C 4936   2.167   3.655  14.212 -0.6555 -0.1123  0.3945
  325TMC3     O 4937   2.191   3.765  14.262  0.5635 -0.0893 -0.7585
  325TMC3     H 4938   2.052   3.505  14.028  0.4252  0.0825  0.5776
  325TMC3    H1 4939   1.991   3.753  14.372 -3.9758  0.9357  0.9780
  325TMC3    H2 4940   1.670   3.668  14.088  0.3382  3.9859  0.9721
  325TMC3    C7 4941   1.742   3.799  14.326 -0.0177 -0.1237 -0.1425
  325TMC3    C8 4942   1.814   3.532  13.931  0.0553 -0.4164  0.7379
  325TMC3    O1 4943   1.784   3.822  14.440  0.6394  0.1908  0.3215
  325TMC3    O2 4944   1.903   3.520  13.847  0.1621 -0.5760  0.2755
  326MPD2     C 4945   4.209   0.877  11.016 -0.3395  0.9135 -1.3097
  326MPD2    C1 4946   4.178   0.741  11.014  0.0479 -0.7989 -0.0833
  326MPD2    C2 4947   4.277   0.656  10.972  0.7033 -0.0331  0.3950
  326MPD2    C3 4948   4.402   0.703  10.930 -0.3952 -0.7381  0.0194
  326MPD2    C4 4949   4.421   0.835  10.927  0.1559 -0.2865 -1.0221
  326MPD2    C5 4950   4.331   0.923  10.980  0.5879 -0.5185  0.6480
  326MPD2     H 4951   4.255   0.551  10.954 -0.6178  0.2789  0.1360
  326MPD2    H1 4952   4.510   0.882  10.884  0.1887  0.6977  0.1171
  326MPD2    H2 4953   4.147   0.952  11.065 -0.9310 -0.2763 -0.2309
  326MPD2    H3 4954   4.361   1.025  11.000  1.0855 -0.2953 -1.2025
  326MPD2     N 4955   4.504   0.620  10.878 -0.2321 -0.2277 -0.0240
  326MPD2    H5 4956   4.587   0.661  10.836 -0.5286  1.0034  0.5869
  326MPD2    N1 4957   4.045   0.679  11.035  0.1267 -0.1145  0.4007
  326MPD2    H7 4958   4.044   0.579  11.052  3.2566 -0.3633 -0.9171
  327TMC3    C1 4959   3.808   0.672  11.053  0.0090  0.2192 -0.1073
  327TMC3    C2 4960   3.701   0.695  10.974 -0.2756  0.2291  0.8276
  327TMC3    C3 4961   3.590   0.617  10.992  0.1245  0.8928  0.0553
  327TMC3    C4 4962   3.811   0.576  11.153  0.3523 -0.3004 -0.4733
  327TMC3    C5 4963   3.697   0.502  11.168 -0.3015  0.2172 -0.4929
  327TMC3    C6 4964   3.588   0.512  11.079 -0.3438  0.7484 -0.2336
  327TMC3     C 4965   3.929   0.755  11.033 -0.4844  0.0381 -0.0522
  327TMC3     O 4966   3.917   0.869  10.993  0.0824 -0.2794  0.3200
  327TMC3     H 4967   3.699   0.783  10.911  0.1464 -0.4075 -0.0688
  327TMC3    H1 4968   3.895   0.582  11.222  1.3339  0.9776 -1.7934
  327TMC3    H2 4969   3.505   0.443  11.088  0.3133 -0.2072 -1.4825
  327TMC3    C7 4970   3.699   0.370  11.228 -0.4925 -0.7796  0.4542
  327TMC3    C8 4971   3.499   0.620  10.883 -0.6473  0.1894  1.0402
  327TMC3    O1 4972   3.593   0.309  11.234 -0.3730  0.3935  0.0061
  327TMC3    O2 4973   3.495   0.721  10.825  0.7572 -0.0732 -0.1390
  328MPD2     C 4974   1.572   0.740  17.396  0.1586 -1.1138 -0.1353
  328MPD2    C1 4975   1.552   0.673  17.278 -0.3513  0.2276 -0.8152
  328MPD2    C2 4976   1.544   0.743  17.159  0.9904 -0.3447 -0.1761
  328MPD2    C3 4977   1.545   0.884  17.165  0.5674  0.4027 -0.0796
  328MPD2    C4 4978   1.567   0.953  17.282 -0.1727 -0.3022 -0.0224
  328MPD2    C5 4979   1.577   0.878  17.394 -0.1001  0.2736 -0.5181
  328MPD2     H 4980   1.543   0.685  17.066  0.8513 -0.0907 -0.3317
  328MPD2    H1 4981   1.545   1.058  17.301  0.9284 -0.5076  2.2635
  328MPD2    H2 4982   1.565   0.686  17.490 -2.6156  0.6860  0.7206
  328MPD2    H3 4983   1.583   0.939  17.484  0.1898 -2.5322  1.3903
  328MPD2     N 4984   1.514   0.955  17.044  0.2707  0.2093 -1.2111
  328MPD2    H5 4985   1.492   1.054  17.056  2.7506  0.9116 -2.4682
  328MPD2    N1 4986   1.508   0.537  17.264 -0.2003 -0.2716 -0.2320
  328MPD2    H7 4987   1.522   0.489  17.176  0.4448  0.1671 -0.3661
  329TMC3    C1 4988   1.412   0.339  17.296 -0.1509  0.3909  0.2092
  329TMC3    C2 4989   1.277   0.327  17.310  0.3159  0.3521  0.4020
  329TMC3    C3 4990   1.210   0.242  17.222  0.2726 -0.9702 -0.4384
  329TMC3    C4 4991   1.486   0.277  17.201  0.4037  0.0890  0.0290
  329TMC3    C5 4992   1.424   0.191  17.121  0.1737  0.2203 -0.3378
  329TMC3    C6 4993   1.290   0.171  17.127 -0.5628 -0.3479 -0.2670
  329TMC3     C 4994   1.457   0.458  17.363  0.5660  0.9544  0.2268
  329TMC3     O 4995   1.431   0.482  17.481  0.6235 -0.3647  0.3549
  329TMC3     H 4996   1.223   0.405  17.363 -0.4727 -0.1354  0.3229
  329TMC3    H1 4997   1.592   0.286  17.185 -0.1213  0.2083 -3.3048
  329TMC3    H2 4998   1.242   0.103  17.059  0.4157 -1.6511  0.3528
  329TMC3    C7 4999   1.496   0.167  16.996  0.3062  0.0502  1.0597
  329TMC3    C8 5000   1.081   0.284  17.162  0.0006  0.1573 -0.5811
  329TMC3    O1 5001   1.597   0.233  16.983 -0.0321 -0.4126 -0.7222
  329TMC3    O2 5002   1.063   0.263  17.043 -0.0540  0.5080 -0.5928
  330TMC3    C1 5003   3.921   4.447   9.320  0.5348  0.2337  0.4351
  330TMC3    C2 5004   3.817   4.384   9.264 -0.4329 -0.3519  0.2348
  330TMC3    C3 5005   3.811   4.248   9.281  0.5680  0.2349  0.0900
  330TMC3    C4 5006   4.027   4.384   9.377  0.4603 -0.9681  0.9086
  330TMC3    C5 5007   4.018   4.247   9.396 -0.7512 -0.3363 -0.3821
  330TMC3    C6 5008   3.907   4.180   9.356  0.4223  0.4226 -0.2608
  330TMC3     C 5009   3.877   4.553   9.406 -0.1892 -0.3037 -0.0029
  330TMC3     O 5010   3.934   4.565   9.512 -0.3333 -0.0713  0.3315
  330TMC3     H 5011   3.732   4.439   9.224 -0.1514  0.7025  1.1020
  330TMC3    H1 5012   4.108   4.440   9.423  0.4520 -2.2236  2.4328
  330TMC3    H2 5013   3.903   4.073   9.340 -1.5060  0.2103  1.5572
  330TMC3    C7 5014   4.129   4.173   9.457 -0.1972 -0.7117  0.7544
  330TMC3    C8 5015   3.685   4.175   9.248  0.7661 -0.7171  0.4148
  330TMC3    O1 5016   4.243   4.222   9.451  0.4040  0.9430 -0.2987
  330TMC3    O2 5017   3.641   4.213   9.142  0.3528 -0.6476  0.1538
  331MPD2     C 5018   2.755   3.943  12.908 -1.2300 -0.0035  0.5231
  331MPD2    C1 5019   2.688   3.987  12.794 -0.0796  0.3700 -0.3599
  331MPD2    C2 5020   2.574   3.918  12.757 -0.2644 -0.0199  0.4549
  331MPD2    C3 5021   2.520   3.813  12.832  0.4248 -0.2094  0.1738
  331MPD2    C4 5022   2.585   3.771  12.943  0.4733  0.2307 -0.3869
  331MPD2    C5 5023   2.701   3.832  12.976 -0.5094 -0.1234 -0.4437
  331MPD2     H 5024   2.510   3.956  12.678  1.6232  1.8204 -0.1945
  331MPD2    H1 5025   2.559   3.690  13.010  0.2800 -0.5982 -1.4699
  331MPD2    H2 5026   2.846   3.990  12.944 -0.5294 -0.5489 -0.5491
  331MPD2    H3 5027   2.756   3.790  13.060 -1.8900 -3.2504 -1.0877
  331MPD2     N 5028   2.408   3.750  12.780 -0.4591  0.2495  0.8625
  331MPD2    H5 5029   2.374   3.787  12.691 -0.0654 -0.0244  0.6001
  331MPD2    N1 5030   2.725   4.106  12.736 -0.3025 -0.4913  0.3759
  331MPD2    H7 5031   2.803   4.160  12.773 -0.3247 -0.8694  0.9776
  332TMC3    C1 5032   2.263   3.580  12.729 -0.0260 -0.4271  0.4235
  332TMC3    C2 5033   2.185   3.653  12.646  0.6217 -0.6318  0.1364
  332TMC3    C3 5034   2.133   3.599  12.532  0.1693  0.0763 -0.6020
  332TMC3    C4 5035   2.293   3.452  12.692  0.4716  0.1592  0.1260
  332TMC3    C5 5036   2.240   3.403  12.576 -0.3852  0.7388 -0.8345
  332TMC3    C6 5037   2.165   3.477  12.489 -0.4631  0.4997  0.0534
  332TMC3     C 5038   2.348   3.636  12.830 -0.3808 -0.9908 -0.0210
  332TMC3     O 5039   2.382   3.560  12.922 -0.0442  0.0653 -0.1974
  332TMC3     H 5040   2.166   3.755  12.680  1.0444 -1.1398  1.9080
  332TMC3    H1 5041   2.366   3.402  12.755 -0.8933 -0.6718  1.0427
  332TMC3    H2 5042   2.130   3.446  12.391  1.2655 -2.0620  0.2367
  332TMC3    C7 5043   2.294   3.285  12.517  0.2910  0.5087  0.1908
  332TMC3    C8 5044   2.077   3.689  12.431  0.4692  0.2658 -0.5289
  332TMC3    O1 5045   2.214   3.213  12.456  0.3701  0.3613  0.1511
  332TMC3    O2 5046   2.098   3.655  12.313 -0.2452  0.7471 -1.0096
  333MPD2     C 5047   2.140   3.697  11.188  0.3404 -0.1723 -0.1646
  333MPD2    C1 5048   2.220   3.639  11.092  0.1193 -0.3813 -0.3597
  333MPD2    C2 5049   2.294   3.516  11.114  0.4144 -0.6650 -0.3833
  333MPD2    C3 5050   2.282   3.459  11.235  0.0879  0.4130  0.1048
  333MPD2    C4 5051   2.198   3.506  11.326 -0.3724 -0.4264 -0.2459
  333MPD2    C5 5052   2.122   3.622  11.299 -0.1513  0.2155  0.2622
  333MPD2     H 5053   2.348   3.468  11.033  1.0378  1.1445 -1.0324
  333MPD2    H1 5054   2.173   3.452  11.417 -1.3802 -0.1064 -0.3271
  333MPD2    H2 5055   2.073   3.781  11.172 -1.3136 -1.5253 -0.2332
  333MPD2    H3 5056   2.048   3.658  11.370 -1.4957 -2.1921  0.0925
  333MPD2     N 5057   2.345   3.336  11.251 -0.2165 -0.1084  0.0028
  333MPD2    H5 5058   2.398   3.307  11.170  0.7579 -0.1791  0.6624
  333MPD2    N1 5059   2.220   3.710  10.970  0.1143  0.1481  0.3727
  333MPD2    H7 5060   2.184   3.804  10.976  1.3350  0.6109  0.4068
  334TMC3    C1 5061   2.297   3.785  10.760  0.2192  0.0780  0.3446
  334TMC3    C2 5062   2.314   3.757  10.626  0.4209 -0.9321  0.3419
  334TMC3    C3 5063   2.394   3.832  10.544  0.1619 -0.3269  0.3220
  334TMC3    C4 5064   2.345   3.908  10.808  0.4778 -0.1339 -0.1094
  334TMC3    C5 5065   2.428   3.977  10.733 -0.0666 -0.1428  1.3583
  334TMC3    C6 5066   2.457   3.941  10.603  0.9715  1.0606 -0.4042
  334TMC3     C 5067   2.280   3.667  10.853 -0.3062 -0.1491  0.7870
  334TMC3     O 5068   2.311   3.552  10.820 -0.4292 -0.5837 -0.7910
  334TMC3     H 5069   2.270   3.666  10.589  2.2194 -1.0963 -1.4142
  334TMC3    H1 5070   2.347   3.934  10.913  0.1258  2.1668 -0.6895
  334TMC3    H2 5071   2.518   4.010  10.546 -0.1377  1.1994 -1.4366
  334TMC3    C7 5072   2.496   4.090  10.782 -0.2466  1.0044  0.1243
  334TMC3    C8 5073   2.473   3.750  10.458  1.0613  0.6968 -0.3173
  334TMC3    O1 5074   2.592   4.123  10.715 -0.1881 -0.4177 -0.1408
  334TMC3    O2 5075   2.430   3.641  10.417  0.1119 -0.0087 -0.0013
  335TMC3    C1 5076   2.449   0.974  17.169 -0.1049  0.0848  0.1862
  335TMC3    C2 5077   2.398   0.883  17.081 -0.2269 -0.0580 -0.2203
  335TMC3    C3 5078   2.482   0.800  17.021  0.1320  0.2460 -0.5206
  335TMC3    C4 5079   2.584   0.999  17.186 -0.3748  0.0722  0.4338
  335TMC3    C5 5080   2.663   0.912  17.121  0.8931  0.8992  0.3421
  335TMC3    C6 5081   2.616   0.816  17.031  0.0948 -0.1759  0.9898
  335TMC3     C 5082   2.349   1.046  17.244  0.5029  0.1676  0.1460
  335TMC3     O 5083   2.239   1.077  17.200  0.0392  0.1934 -0.1112
  335TMC3     H 5084   2.290   0.885  17.068  0.0705  0.1203 -2.6852
  335TMC3    H1 5085   2.612   1.085  17.246  1.6304 -0.0596 -0.3346
  335TMC3    H2 5086   2.688   0.761  16.971  0.6050 -0.3007  1.7185
  335TMC3    C7 5087   2.808   0.907  17.141  0.8002 -0.1205  0.3479
  335TMC3    C8 5088   2.424   0.739  16.909  0.7314  0.0073 -0.4015
  335TMC3    O1 5089   2.885   0.854  17.060  0.0441  0.3843 -0.1927
  335TMC3    O2 5090   2.502   0.735  16.815 -0.3590  0.2654 -0.3136
  336MPD2     C 5091   1.926   3.188  16.347  0.1098  0.4643  0.2800
  336MPD2    C1 5092   1.881   3.105  16.247 -0.3786  0.1823  0.0910
  336MPD2    C2 5093   1.903   2.969  16.265  0.4401 -0.0937 -0.5621
  336MPD2    C3 5094   1.978   2.912  16.366  0.2521 -0.1728 -0.5741
  336MPD2    C4 5095   2.037   2.997  16.457 -0.0326  0.6944 -0.4005
  336MPD2    C5 5096   2.004   3.131  16.449 -0.2801  0.3035 -0.8718
  336MPD2     H 5097   1.861   2.907  16.186 -1.1912  0.9677 -0.5405
  336MPD2    H1 5098   2.106   2.960  16.532 -0.2369  1.1407  0.0106
  336MPD2    H2 5099   1.924   3.296  16.337  0.1515  0.3755 -0.7183
  336MPD2    H3 5100   2.047   3.196  16.524 -1.2711 -1.3983  1.1797
  336MPD2     N 5101   2.000   2.773  16.373  1.0294 -0.4379 -0.1439
  336MPD2    H5 5102   2.052   2.737  16.452 -1.2903 -1.4367  0.9303
  336MPD2    N1 5103   1.821   3.157  16.129  0.2129 -0.1650  0.2631
  336MPD2    H7 5104   1.808   3.088  16.056  2.7103 -0.4497  0.0940
  337TMC3    C1 5105   1.711   3.300  15.981  0.1884 -0.1821  0.3730
  337TMC3    C2 5106   1.666   3.194  15.909 -0.1311 -0.5718 -0.1521
  337TMC3    C3 5107   1.566   3.227  15.824  0.0961 -0.5501 -0.0435
  337TMC3    C4 5108   1.668   3.424  15.960 -0.0166  0.4625  0.2146
  337TMC3    C5 5109   1.578   3.452  15.863 -0.3338 -0.4443 -0.1396
  337TMC3    C6 5110   1.517   3.354  15.800  0.3761  0.1593  0.0341
  337TMC3     C 5111   1.792   3.289  16.096  0.5362  0.3176 -0.1457
  337TMC3     O 5112   1.808   3.390  16.166  0.0043 -0.2065  0.1506
  337TMC3     H 5113   1.695   3.093  15.934  1.1380  1.0970  5.0110
  337TMC3    H1 5114   1.709   3.509  16.014  0.1818  0.5648 -0.0946
  337TMC3    H2 5115   1.449   3.376  15.718 -0.5446  1.2833  1.1005
  337TMC3    C7 5116   1.517   3.588  15.850  0.1586 -0.5664  0.7532
  337TMC3    C8 5117   1.478   3.121  15.770  0.1945  0.5245  0.0143
  337TMC3    O1 5118   1.474   3.610  15.737  0.6555  0.0207  0.6811
  337TMC3    O2 5119   1.526   3.007  15.781 -0.2213  0.4981  0.1510
  338MPD2     C 5120   1.676   3.232   0.945 -0.0731 -0.2700  0.3405
  338MPD2    C1 5121   1.691   3.186   0.817 -0.2224  1.0212  0.2266
  338MPD2    C2 5122   1.587   3.139   0.746  0.7644 -0.0761 -0.1502
  338MPD2    C3 5123   1.462   3.109   0.802 -0.9732 -0.4943 -0.0293
  338MPD2    C4 5124   1.445   3.150   0.931  0.7291 -0.7910 -0.2504
  338MPD2    C5 5125   1.548   3.215   1.000  0.4615 -0.0874 -0.0039
  338MPD2     H 5126   1.602   3.105   0.644  1.2987  2.1668 -0.8109
  338MPD2    H1 5127   1.353   3.130   0.984  2.1392 -1.7847  1.8380
  338MPD2    H2 5128   1.753   3.281   1.005  0.6294 -1.0961  0.1061
  338MPD2    H3 5129   1.528   3.250   1.101  1.1672 -0.3086  0.2147
  338MPD2     N 5130   1.365   3.053   0.722 -0.3283 -0.7101 -0.3162
  338MPD2    H5 5131   1.391   3.041   0.624 -1.6960  1.1648 -0.9066
  338MPD2    N1 5132   1.811   3.193   0.744  0.1457  0.7466 -0.2101
  338MPD2    H7 5133   1.808   3.164   0.647  1.3631 -1.1889  0.3307
  339TMC3    C1 5134   1.187   2.956   0.639 -0.4686 -1.0386  0.5607
  339TMC3    C2 5135   1.179   2.817   0.634  0.5576  0.1424  0.1355
  339TMC3    C3 5136   1.205   2.756   0.512 -0.2674 -0.2001 -0.3024
  339TMC3    C4 5137   1.210   3.038   0.532 -0.1431  0.1185  0.5910
  339TMC3    C5 5138   1.253   2.972   0.420 -0.4077 -0.1497  0.2752
  339TMC3    C6 5139   1.250   2.833   0.407  0.0451 -0.3830 -0.2195
  339TMC3     C 5140   1.245   2.998   0.761  0.2492 -0.3770 -0.1385
  339TMC3     O 5141   1.215   2.934   0.859  0.4389  0.2393 -0.2806
  339TMC3     H 5142   1.158   2.749   0.716 -2.0560  0.6229 -0.1293
  339TMC3    H1 5143   1.216   3.146   0.535 -3.4095  0.3201  0.5167
  339TMC3    H2 5144   1.280   2.789   0.312  0.1854  0.4667 -0.5731
  339TMC3    C7 5145   1.365   3.047   0.351 -0.2915  0.4697  0.0995
  339TMC3    C8 5146   1.253   2.617   0.511 -0.7849 -0.6642 -0.0072
  339TMC3    O1 5147   1.427   3.118   0.428 -0.1408 -0.3504  0.2903
  339TMC3    O2 5148   1.339   2.606   0.424  0.1695 -0.5412 -0.3545
  340MPD2     C 5149   2.275   0.465  10.484  0.0410  0.1884 -0.0068
  340MPD2    C1 5150   2.251   0.329  10.469  0.3578 -0.1585 -0.1562
  340MPD2    C2 5151   2.241   0.255  10.584 -0.0748  0.5096  0.1013
  340MPD2    C3 5152   2.282   0.300  10.704 -0.1132 -0.0890 -0.1305
  340MPD2    C4 5153   2.321   0.430  10.719  0.0676  0.0318 -0.1424
  340MPD2    C5 5154   2.315   0.510  10.609  0.4652  0.1855 -1.0995
  340MPD2     H 5155   2.188   0.160  10.586 -0.5592  0.8310  2.6965
  340MPD2    H1 5156   2.362   0.462  10.814  0.6288 -0.9618 -0.0522
  340MPD2    H2 5157   2.279   0.524  10.392  3.2422 -0.9483 -0.6035
  340MPD2    H3 5158   2.338   0.615  10.620 -1.1305  0.5551 -1.4115
  340MPD2     N 5159   2.284   0.215  10.818 -0.5093 -0.7785 -0.2509
  340MPD2    H5 5160   2.315   0.253  10.907 -0.8441 -2.4597  0.5698
  340MPD2    N1 5161   2.242   0.275  10.339  0.0258 -0.1052  0.7059
  340MPD2    H7 5162   2.280   0.327  10.261  3.4958 -0.9136  1.8851
  341TMC3    C1 5163   2.286   0.077  10.210 -0.3232  0.3678 -0.6726
  341TMC3    C2 5164   2.251   4.685  10.190  0.6422 -0.0055 -0.4503
  341TMC3    C3 5165   2.354   4.592  10.162  0.1318  0.0957  0.1602
  341TMC3    C4 5166   2.418   0.120  10.205 -0.5804 -0.5774 -0.7548
  341TMC3    C5 5167   2.512   0.026  10.182  0.5454 -0.1285  0.2994
  341TMC3    C6 5168   2.487   4.629  10.162  0.0755  0.2978 -0.7667
  341TMC3     C 5169   2.214   0.136  10.324  0.1201  0.1060 -0.0834
  341TMC3     O 5170   2.163   0.056  10.398  0.0954 -0.8725 -0.0549
  341TMC3     H 5171   2.155   4.643  10.220  0.7162 -0.4932 -0.8913
  341TMC3    H1 5172   2.449   0.219  10.236 -2.0472 -0.4091  0.1422
  341TMC3    H2 5173   2.576   4.568  10.163  0.0799  0.3483  0.8870
  341TMC3    C7 5174   2.637   0.074  10.110 -0.0909  0.0235 -0.1708
  341TMC3    C8 5175   2.306   4.478  10.083 -0.5625  0.1688  0.6237
  341TMC3    O1 5176   2.718   4.727  10.069  0.2855  0.1270 -0.6124
  341TMC3    O2 5177   2.188   4.456  10.093  0.2338 -0.5978 -0.1450
  342MPD2     C 5178   0.114   3.742  17.511 -0.2108  0.4464  0.0441
  342MPD2    C1 5179   0.223   3.738  17.429  0.3732  0.5846  0.4612
  342MPD2    C2 5180   0.283   3.855  17.389  0.6014  0.5262  0.3652
  342MPD2    C3 5181   0.246   3.980  17.438  1.0670 -0.2625  0.0357
  342MPD2    C4 5182   0.142   3.983  17.526 -0.2223  0.3475  0.4347
  342MPD2    C5 5183   0.079   3.871  17.561 -0.3231 -0.5874 -0.5699
  342MPD2     H 5184   0.346   3.859  17.302  0.4320 -0.1619  0.2095
  342MPD2    H1 5185   0.108   4.074  17.575  2.2138  2.2705 -1.4490
  342MPD2    H2 5186   0.063   3.650  17.539 -0.8130  0.2076 -1.8239
  342MPD2    H3 5187   4.722   3.873  17.616  0.4447 -1.2238  0.7590
  342MPD2     N 5188   0.313   4.102  17.403  0.4506  0.8823  0.9093
  342MPD2    H5 5189   0.281   4.191  17.440  0.4402  0.9439  0.7559
  342MPD2    N1 5190   0.282   3.615  17.379  0.0887  0.3749  0.0388
  342MPD2    H7 5191   0.360   3.630  17.316  1.3326  0.3077  1.5608
  343TMC3    C1 5192   0.308   3.379  17.337  0.2442  0.0165 -0.3798
  343TMC3    C2 5193   0.396   3.413  17.235 -0.5740  0.6632 -0.0457
  343TMC3    C3 5194   0.427   3.314  17.142  0.0333 -0.1120 -0.2266
  343TMC3    C4 5195   0.258   3.247  17.353  0.1302  0.4681 -0.6189
  343TMC3    C5 5196   0.291   3.158  17.255 -0.1496 -0.1057  0.4141
  343TMC3    C6 5197   0.370   3.185  17.145  0.1751  0.3591  0.3267
  343TMC3     C 5198   0.229   3.483  17.403  0.3154  0.8625  0.3331
  343TMC3     O 5199   0.140   3.449  17.477  0.0228  0.0591  0.2617
  343TMC3     H 5200   0.442   3.510  17.227 -0.9743  0.8833  0.3445
  343TMC3    H1 5201   0.188   3.226  17.432  2.4665 -1.9484  0.7998
  343TMC3    H2 5202   0.392   3.109  17.070 -1.6095 -0.1693  0.3426
  343TMC3    C7 5203   0.259   3.016  17.288 -0.4633 -0.7085  0.8789
  343TMC3    C8 5204   0.546   3.336  17.059 -0.3343 -0.1544 -0.0146
  343TMC3    O1 5205   0.258   2.948  17.187 -0.2500 -0.1113 -0.2152
  343TMC3    O2 5206   0.592   3.448  17.058  0.2834 -0.5873 -0.1260
  344MPD2     C 5207   1.114   2.450  10.922  0.1150  0.4317 -0.1373
  344MPD2    C1 5208   1.013   2.445  10.829  0.0269  0.1300 -0.2967
  344MPD2    C2 5209   0.995   2.554  10.741  0.3751 -0.2431  0.1483
  344MPD2    C3 5210   1.067   2.668  10.749  0.3735  0.6915  0.3358
  344MPD2    C4 5211   1.170   2.669  10.837 -1.0289 -0.0110  0.4567
  344MPD2    C5 5212   1.198   2.560  10.922  0.1681  0.8069  0.5347
  344MPD2     H 5213   0.917   2.540  10.667  0.0794  0.2264  0.3709
  344MPD2    H1 5214   1.238   2.753  10.845 -1.2940  0.2970 -0.4421
  344MPD2    H2 5215   1.135   2.374  10.996  0.1690  1.0275  0.4569
  344MPD2    H3 5216   1.284   2.568  10.988  1.0179  0.4073 -0.5307
  344MPD2     N 5217   1.062   2.780  10.670 -0.2880  0.0133 -0.0341
  344MPD2    H5 5218   1.117   2.858  10.706 -2.0494  1.5308 -0.6562
  344MPD2    N1 5219   0.928   2.332  10.823  0.1879  0.4855 -0.4731
  344MPD2    H7 5220   0.859   2.337  10.748 -1.0834 -0.9128  0.6142
  345TMC3    C1 5221   0.977   2.945  10.531  0.3155 -0.5972 -0.1522
  345TMC3    C2 5222   1.004   3.044  10.628  0.3812  0.6922  0.3508
  345TMC3    C3 5223   1.020   3.172  10.572 -0.0538 -0.0782 -0.0275
  345TMC3    C4 5224   0.974   2.973  10.395  0.2375  0.3040 -0.1972
  345TMC3    C5 5225   0.998   3.102  10.355  0.5890 -0.6915  0.0717
  345TMC3    C6 5226   1.024   3.199  10.446  0.1330  0.0603 -0.0031
  345TMC3     C 5227   0.984   2.801  10.565 -0.4872  0.2497 -0.2064
  345TMC3     O 5228   0.917   2.719  10.503  0.4066 -0.1984  0.4245
  345TMC3     H 5229   1.019   3.024  10.733 -1.2968 -0.7411  0.3107
  345TMC3    H1 5230   0.948   2.893  10.326  3.1374 -0.3242 -0.5709
  345TMC3    H2 5231   1.038   3.302  10.417  1.4705  0.2794  1.4189
  345TMC3    C7 5232   1.014   3.128  10.212 -0.7392  0.6933  0.7360
  345TMC3    C8 5233   1.037   3.287  10.655 -0.1465 -0.7280 -0.3980
  345TMC3    O1 5234   0.984   3.035  10.136 -0.2132  0.0775 -0.0051
  345TMC3    O2 5235   1.026   3.393  10.601 -0.1429  0.2348 -0.1705
  346MPD2     C 5236   0.901   3.975  13.324  0.3014 -0.2565  0.4499
  346MPD2    C1 5237   1.031   4.008  13.351 -0.0092 -1.1670 -0.5484
  346MPD2    C2 5238   1.053   4.060  13.475  0.2639  0.4717  0.7483
  346MPD2    C3 5239   0.946   4.090  13.555  0.1750  0.6073  0.3639
  346MPD2    C4 5240   0.816   4.055  13.530 -0.4393  0.4423 -0.5740
  346MPD2    C5 5241   0.799   3.990  13.410 -0.6423  0.6545 -1.0570
  346MPD2     H 5242   1.156   4.071  13.505 -0.2122  2.6491  1.5817
  346MPD2    H1 5243   0.734   4.067  13.599  1.0206  1.4661  0.9834
  346MPD2    H2 5244   0.870   3.929  13.231  0.1508  2.1975 -0.6891
  346MPD2    H3 5245   0.701   3.952  13.384 -1.2360 -0.5278  2.9562
  346MPD2     N 5246   0.975   4.149  13.680  0.1992 -0.4850 -0.2329
  346MPD2    H5 5247   1.071   4.158  13.711 -0.4817 -0.6977  1.9193
  346MPD2    N1 5248   1.136   3.990  13.262 -0.3157 -0.3991  0.4428
  346MPD2    H7 5249   1.232   4.016  13.282 -0.2896 -0.2694  0.1445
  347TMC3    C1 5250   0.951   4.239  13.894 -0.4095 -0.5285  0.5470
  347TMC3    C2 5251   1.069   4.178  13.927  0.2245  0.2601 -0.4558
  347TMC3    C3 5252   1.141   4.241  14.022 -1.1986 -0.0857 -0.2701
  347TMC3    C4 5253   0.906   4.356  13.941 -0.6948  0.3750  0.0663
  347TMC3    C5 5254   0.995   4.427  14.020 -0.1629 -0.0807 -0.1883
  347TMC3    C6 5255   1.103   4.365  14.075 -0.1944  0.2648  0.5452
  347TMC3     C 5256   0.888   4.198  13.766  0.2692 -0.5699  0.0061
  347TMC3     O 5257   0.766   4.203  13.778 -0.2151  0.0546  0.4213
  347TMC3     H 5258   1.110   4.095  13.871  0.0937  0.2676 -0.5642
  347TMC3    H1 5259   0.809   4.386  13.903 -1.4872 -2.9656 -0.5250
  347TMC3    H2 5260   1.165   4.415  14.148 -0.1392  0.7088  0.1992
  347TMC3    C7 5261   0.947   4.546  14.086 -0.6534  0.0455 -0.3666
  347TMC3    C8 5262   1.260   4.166  14.069 -0.2200 -0.0361 -0.6078
  347TMC3    O1 5263   0.831   4.577  14.062 -0.1041 -0.3671 -0.1644
  347TMC3    O2 5264   1.309   4.080  13.997  0.3463  0.3139  0.6388
  348MPD2     C 5265   4.555   3.929  12.237  0.2460  0.4294  0.5879
  348MPD2    C1 5266   4.667   3.923  12.155  0.6090 -0.6838 -1.1927
  348MPD2    C2 5267   4.671   4.014  12.051 -0.2757  0.2328 -0.0055
  348MPD2    C3 5268   4.563   4.099  12.023  0.3715 -0.1594 -0.6803
  348MPD2    C4 5269   4.450   4.098  12.103  0.8369  0.0448  0.6663
  348MPD2    C5 5270   4.454   4.012  12.211  0.3454 -0.5129  0.0533
  348MPD2     H 5271   0.018   4.016  11.982 -0.2493 -0.1290  0.0138
  348MPD2    H1 5272   4.358   4.154  12.093  0.9632  0.2794  0.8251
  348MPD2    H2 5273   4.543   3.862  12.322 -0.1862 -0.0822  0.1270
  348MPD2    H3 5274   4.371   4.013  12.282  0.7986 -1.8436  0.6042
  348MPD2     N 5275   4.580   4.183  11.914 -0.2635  0.4736 -0.0253
  348MPD2    H5 5276   4.665   4.176  11.859 -1.0617 -1.5881 -1.0228
  348MPD2    N1 5277   0.034   3.826  12.162 -0.6589 -0.0981 -0.1545
  348MPD2    H7 5278   0.101   3.832  12.087 -0.5625 -1.3075 -0.1711
  349TMC3    C1 5279   0.138   3.633  12.212 -0.7242  0.5231  0.0004
  349TMC3    C2 5280   0.081   3.512  12.255 -0.1416 -0.5767 -0.9233
  349TMC3    C3 5281   0.075   3.413  12.166  1.1337  0.5536 -0.9706
  349TMC3    C4 5282   0.177   3.643  12.082  0.5078 -0.3469 -0.5632
  349TMC3    C5 5283   0.158   3.543  11.989  0.2353  0.3064  0.9602
  349TMC3    C6 5284   0.107   3.423  12.034  1.2703 -0.7116 -0.1778
  349TMC3     C 5285   0.038   3.731  12.258 -0.3488 -0.4547  0.4323
  349TMC3     O 5286   4.703   3.702  12.352  0.0345  0.2259  0.5634
  349TMC3     H 5287   0.040   3.491  12.353  2.1547  0.0484  0.1740
  349TMC3    H1 5288   0.233   3.731  12.053  0.6668 -0.2887 -0.0854
  349TMC3    H2 5289   0.094   3.343  11.963 -0.2245  0.3549 -1.1129
  349TMC3    C7 5290   0.100   3.586  11.863 -0.0702 -0.7092  1.1509
  349TMC3    C8 5291   0.090   3.282  12.227  0.8677 -0.1520 -0.0016
  349TMC3    O1 5292   0.006   3.517  11.823  0.1078  0.5441 -0.0964
  349TMC3    O2 5293   0.148   3.268  12.334 -0.1997 -0.8506 -0.6482
  350MPD2     C 5294   3.835   2.152  10.426 -0.1373  0.2365  0.3911
  350MPD2    C1 5295   3.804   2.023  10.447  0.3754  0.7102  0.3690
  350MPD2    C2 5296   3.722   1.995  10.559  0.3170 -0.1398  0.2332
  350MPD2    C3 5297   3.646   2.097  10.613  0.4396  0.2835 -0.7252
  350MPD2    C4 5298   3.670   2.228  10.570 -0.1393 -0.2594 -0.5402
  350MPD2    C5 5299   3.766   2.254  10.478  0.0342  0.9869  0.4767
  350MPD2     H 5300   3.706   1.889  10.578 -2.2066 -0.0497 -1.3394
  350MPD2    H1 5301   3.618   2.310  10.618 -0.6916 -0.2683 -1.1233
  350MPD2    H2 5302   3.910   2.174  10.351  0.8004  0.6454  1.4343
  350MPD2    H3 5303   3.789   2.357  10.453  0.6859  0.8487  0.4974
  350MPD2     N 5304   3.536   2.068  10.701  0.2628  0.2219  0.5768
  350MPD2    H5 5305   3.518   1.970  10.721 -0.2247  0.4695  1.3662
  350MPD2    N1 5306   3.862   1.936  10.356 -1.0191  0.0360  0.0240
  350MPD2    H7 5307   3.934   1.968  10.292 -0.3875 -0.1457  0.6462
  351TMC3    C1 5308   3.887   1.730  10.241 -0.1771  0.2688  0.0571
  351TMC3    C2 5309   3.857   1.599  10.239  0.3071  0.0730 -0.6344
  351TMC3    C3 5310   3.930   1.521  10.154 -0.1473  0.2464 -0.2372
  351TMC3    C4 5311   3.995   1.778  10.172 -0.4885 -0.0404  0.0594
  351TMC3    C5 5312   4.052   1.701  10.069  0.0499  0.4311  0.2333
  351TMC3    C6 5313   4.027   1.571  10.072  0.1859 -0.1017 -0.2049
  351TMC3     C 5314   3.820   1.812  10.338  0.0337  0.4085 -0.0677
  351TMC3     O 5315   3.713   1.767  10.381 -0.3083 -0.5361 -0.2273
  351TMC3     H 5316   3.770   1.562  10.291  0.3223 -0.3587 -0.9106
  351TMC3    H1 5317   3.998   1.883  10.147  1.9309  0.0078  0.5033
  351TMC3    H2 5318   4.088   1.503  10.013  0.6278 -0.8377  1.0910
  351TMC3    C7 5319   4.143   1.757   9.979  0.2468 -0.5713  0.4507
  351TMC3    C8 5320   3.907   1.378  10.147 -0.6728 -0.4638  0.2945
  351TMC3    O1 5321   4.173   1.697   9.879  0.3332 -0.2557  0.1956
  351TMC3    O2 5322   3.972   1.329  10.060  0.2117 -0.0107  0.1151
  352MPD2     C 5323   2.695   0.450   0.775 -0.8414  0.3973 -0.4395
  352MPD2    C1 5324   2.579   0.415   0.849  0.1929 -0.0957 -0.4976
  352MPD2    C2 5325   2.570   0.291   0.903  0.3829  0.2211 -0.3763
  352MPD2    C3 5326   2.662   0.198   0.870 -0.6923  0.1481  0.8810
  352MPD2    C4 5327   2.780   0.223   0.801 -0.2349  0.8440 -0.5066
  352MPD2    C5 5328   2.801   0.359   0.762  1.0771  0.8798  0.5704
  352MPD2     H 5329   2.488   0.263   0.968  0.3769 -0.9622 -0.8973
  352MPD2    H1 5330   2.851   0.147   0.769 -1.5700 -0.7085  0.2231
  352MPD2    H2 5331   2.703   0.553   0.739 -1.7928  1.3538  2.0852
  352MPD2    H3 5332   2.897   0.376   0.714  0.0700 -0.4590 -1.9330
  352MPD2     N 5333   2.663   0.061   0.908  0.3027 -0.1579  0.0101
  352MPD2    H5 5334   2.737   4.734   0.877 -0.9902 -0.8016 -1.7599
  352MPD2    N1 5335   2.482   0.519   0.882 -0.4551  0.1408  0.6219
  352MPD2    H7 5336   2.479   0.607   0.832  1.4456  0.4998  1.1468
  353TMC3    C1 5337   2.550   4.594   0.986  0.3161 -0.3439 -0.3270
  353TMC3    C2 5338   2.674   4.537   0.991  0.4730  0.3290 -0.0584
  353TMC3    C3 5339   2.672   4.402   1.022  0.4478  1.0134 -0.2113
  353TMC3    C4 5340   2.431   4.529   1.024 -0.0320 -0.8102  1.1207
  353TMC3    C5 5341   2.443   4.396   1.043 -0.0495 -0.4203 -0.0659
  353TMC3    C6 5342   2.559   4.326   1.037 -0.4940  0.0735  0.3380
  353TMC3     C 5343   2.550   0.002   0.966 -0.4407  0.4280 -0.4024
  353TMC3     O 5344   2.440   0.040   1.015 -0.2931 -0.8649 -0.0659
  353TMC3     H 5345   2.766   4.587   0.967  0.7358 -0.8640 -1.5541
  353TMC3    H1 5346   2.340   4.584   1.002  0.8896  0.2823 -0.0192
  353TMC3    H2 5347   2.563   4.223   1.069  1.4116 -0.7452 -2.5659
  353TMC3    C7 5348   2.326   4.306   1.037 -0.3417  0.6092 -0.4376
  353TMC3    C8 5349   2.804   4.334   1.030  0.7699 -0.5439 -0.2043
  353TMC3    O1 5350   2.343   4.192   0.996  0.5192 -0.2624 -0.3340
  353TMC3    O2 5351   2.902   4.406   1.035 -0.4391 -0.5315 -0.0592
  354TMC3    C1 5352   3.880   0.418  13.709 -0.9995  0.6630  0.1570
  354TMC3    C2 5353   3.793   0.484  13.630 -0.2514 -0.3969  0.4211
  354TMC3    C3 5354   3.848   0.570  13.538  0.8328  0.2356  0.6931
  354TMC3    C4 5355   4.013   0.433  13.700  0.0460 -0.3836 -0.2299
  354TMC3    C5 5356   4.065   0.495  13.591 -0.1109 -0.0784 -0.3539
  354TMC3    C6 5357   3.983   0.571  13.509  0.0126 -0.3552  0.1792
  354TMC3     C 5358   3.829   0.338  13.816 -0.2427 -0.2949  0.6472
  354TMC3     O 5359   3.708   0.309  13.818 -0.1577  0.5723 -0.3585
  354TMC3     H 5360   3.687   0.488  13.649 -0.4330  1.8758 -1.1132
  354TMC3    H1 5361   4.079   0.364  13.752 -0.5536 -0.5598  0.2967
  354TMC3    H2 5362   4.015   0.622  13.419  2.0305  1.1109  1.7091
  354TMC3    C7 5363   4.203   0.466  13.550 -0.2212 -0.3946  0.4146
  354TMC3    C8 5364   3.763   0.624  13.438 -0.3869 -0.2103  0.2902
  354TMC3    O1 5365   4.258   0.358  13.578  0.0885  0.7991 -0.0337
  354TMC3    O2 5366   3.793   0.600  13.320  0.3041  0.6073  0.6776
  355MPD2     C 5367   0.002   0.715  11.550  0.3377  0.2259  0.2476
  355MPD2    C1 5368   4.672   0.826  11.606 -0.2512  0.4096 -0.2290
  355MPD2    C2 5369   4.658   0.821  11.738 -0.5817  0.6910 -0.5388
  355MPD2    C3 5370   4.726   0.732  11.820 -0.0039  0.8234  0.0709
  355MPD2    C4 5371   0.067   0.637  11.759 -0.5611 -0.0174  0.0533
  355MPD2    C5 5372   0.065   0.621  11.629  0.0777  0.5746  0.1693
  355MPD2     H 5373   4.583   0.884  11.785  0.4685  1.2994  0.3144
  355MPD2    H1 5374   0.124   0.565  11.816 -0.7536 -0.3153 -0.1300
  355MPD2    H2 5375   0.017   0.713  11.442 -4.2187  2.1176 -0.4143
  355MPD2    H3 5376   0.118   0.541  11.579  0.0934 -0.0902  1.2601
  355MPD2     N 5377   4.721   0.729  11.958  0.4590  0.6565  0.4209
  355MPD2    H5 5378   0.036   0.651  11.997 -1.0235 -0.4531  0.1271
  355MPD2    N1 5379   4.627   0.933  11.530  0.9118  0.0112  0.1409
  355MPD2    H7 5380   4.656   0.928  11.432  0.7524 -3.1679  0.2624
  356TMC3    C1 5381   4.702   0.962  12.000 -0.4994 -0.2250 -0.0548
  356TMC3    C2 5382   0.076   0.997  11.923  0.6147  0.3279 -0.2135
  356TMC3    C3 5383   0.067   1.120  11.873  0.4610 -0.6375 -1.0795
  356TMC3    C4 5384   4.608   1.051  12.040  0.2040 -0.7691 -0.0286
  356TMC3    C5 5385   4.611   1.182  11.996 -0.5046  0.6243  0.1131
  356TMC3    C6 5386   4.708   1.213  11.906  0.1017 -0.4689  0.1097
  356TMC3     C 5387   4.676   0.827  12.038 -0.1645 -0.6199  0.5239
  356TMC3     O 5388   4.622   0.809  12.147  0.1861  0.2907 -0.4660
  356TMC3     H 5389   0.150   0.925  11.890 -1.5167 -0.6356 -2.8239
  356TMC3    H1 5390   4.526   1.016  12.101 -0.5899 -2.2326 -1.9186
  356TMC3    H2 5391   4.693   1.301  11.843  0.2368 -1.7139 -1.6547
  356TMC3    C7 5392   4.499   1.268  12.011  0.5585  0.4411  0.0860
  356TMC3    C8 5393   0.143   1.148  11.745  0.2198 -0.0177 -0.5170
  356TMC3    O1 5394   4.385   1.226  12.014 -0.2832  0.1788  0.2549
  356TMC3    O2 5395   0.172   1.049  11.678 -0.1343  0.1347  0.0477
  357MPD2     C 5396   3.866   2.043   0.643  0.5125  0.1477  0.0239
  357MPD2    C1 5397   3.910   1.976   0.754  0.0723  0.1316  0.1331
  357MPD2    C2 5398   3.876   2.031   0.877  0.4632  0.6280 -0.9509
  357MPD2    C3 5399   3.800   2.144   0.890  0.1810 -0.1946  0.2995
  357MPD2    C4 5400   3.750   2.200   0.782  0.7103  0.7958 -0.2756
  357MPD2    C5 5401   3.778   2.145   0.660  0.2055 -0.1445 -0.2956
  357MPD2     H 5402   3.898   1.973   0.965 -1.5696 -2.1124 -2.2570
  357MPD2    H1 5403   3.677   2.280   0.786  0.5928  0.6837 -0.1741
  357MPD2    H2 5404   3.877   2.012   0.539 -3.3953 -0.0216 -0.3153
  357MPD2    H3 5405   3.732   2.187   0.571 -0.1865  0.6040  0.2650
  357MPD2     N 5406   3.735   2.182   1.010  0.5078  0.4331  0.3658
  357MPD2    H5 5407   3.659   2.248   1.017  2.8094  3.0116  1.1527
  357MPD2    N1 5408   3.953   1.853   0.723 -0.0915 -0.1149  0.0184
  357MPD2    H7 5409   3.935   1.820   0.629 -2.5323  0.9052  0.1346
  358TMC3    C1 5410   3.952   1.612   0.787 -0.5497 -0.2283 -0.3350
  358TMC3    C2 5411   3.876   1.573   0.677  0.0282 -0.0064  0.4241
  358TMC3    C3 5412   3.844   1.436   0.680 -0.1665 -0.2340 -0.5330
  358TMC3    C4 5413   3.984   1.530   0.890 -0.3427 -0.2072 -0.2703
  358TMC3    C5 5414   3.953   1.393   0.881 -0.3243  0.2827  1.2501
  358TMC3    C6 5415   3.875   1.348   0.779  0.0253 -0.3113 -0.1394
  358TMC3     C 5416   3.998   1.751   0.816  0.1014 -0.1600 -0.5395
  358TMC3     O 5417   4.064   1.772   0.915 -0.5159  0.5032  0.1300
  358TMC3     H 5418   3.848   1.646   0.602  1.0567  0.7480  0.7678
  358TMC3    H1 5419   4.041   1.564   0.976 -2.1184 -0.1192  0.8731
  358TMC3    H2 5420   3.814   1.260   0.791  1.5048 -1.3500 -0.1987
  358TMC3    C7 5421   3.996   1.301   0.986  0.5865 -0.7462 -0.6255
  358TMC3    C8 5422   3.774   1.384   0.563 -0.3388 -0.0432  0.1616
  358TMC3    O1 5423   4.027   1.351   1.093  0.2855 -0.4440  0.4530
  358TMC3    O2 5424   3.802   1.444   0.460  0.1083 -0.0483 -0.6690
  359MPD2     C 5425   0.193   0.425  12.777  0.1463  0.1814 -0.4341
  359MPD2    C1 5426   0.146   0.300  12.739 -0.0203 -0.4180  0.1761
  359MPD2    C2 5427   0.053   0.236  12.824 -0.8484 -0.4757 -1.4094
  359MPD2    C3 5428   4.735   0.294  12.936  0.2329 -0.0394  0.0477
  359MPD2    C4 5429   0.045   0.422  12.963  0.4376 -0.7290 -0.5603
  359MPD2    C5 5430   0.138   0.486  12.888  0.4071  0.0084  0.5006
  359MPD2     H 5431   0.020   0.136  12.795 -1.6957 -1.3064  2.4488
  359MPD2    H1 5432   0.004   0.475  13.048  2.2904 -0.6716  0.2834
  359MPD2    H2 5433   0.267   0.489  12.730  0.7176  1.6244  2.4508
  359MPD2    H3 5434   0.167   0.587  12.914 -3.8801  1.9742 -2.4526
  359MPD2     N 5435   4.640   0.239  13.018  0.0071 -0.0052  0.0141
  359MPD2    H5 5436   4.594   0.294  13.091  0.2548  1.8462 -1.2269
  359MPD2    N1 5437   0.189   0.241  12.621 -0.5697  0.2421 -0.0633
  359MPD2    H7 5438   0.153   0.150  12.594 -0.1529 -0.0150  0.2701
  360TMC3    C1 5439   0.320   0.204  12.433 -0.8077  0.3085 -0.1660
  360TMC3    C2 5440   0.436   0.228  12.364  0.8673 -0.7272  0.2570
  360TMC3    C3 5441   0.449   0.157  12.254 -0.2653 -0.1844 -0.0369
  360TMC3    C4 5442   0.209   0.136  12.385  0.2199  0.0698  0.6384
  360TMC3    C5 5443   0.224   0.074  12.267 -0.1919 -0.3287  0.3097
  360TMC3    C6 5444   0.353   0.075  12.202 -0.0905 -1.1251 -0.4456
  360TMC3     C 5445   0.291   0.293  12.542 -0.6871  0.3186  0.4725
  360TMC3     O 5446   0.355   0.398  12.538  0.2720 -0.1791 -0.5031
  360TMC3     H 5447   0.528   0.275  12.398  0.8521  0.4340 -1.2900
  360TMC3    H1 5448   0.117   0.109  12.435 -0.3636  0.7778 -0.0399
  360TMC3    H2 5449   0.370   0.034  12.103  0.1947  0.6904 -1.1533
  360TMC3    C7 5450   0.111   0.014  12.186  0.0211 -0.5442  0.6493
  360TMC3    C8 5451   0.558   0.198  12.177  0.4735  1.3480  0.2763
  360TMC3    O1 5452   0.147   4.703  12.081 -0.2518  0.1347  0.0224
  360TMC3    O2 5453   0.600   0.315  12.185  0.3908 -0.2946  0.0866
  361MPD2     C 5454   1.310   4.540  17.149 -0.0912  0.7876  0.6835
  361MPD2    C1 5455   1.285   4.427  17.076 -0.0378 -0.3712  0.1991
  361MPD2    C2 5456   1.363   4.312  17.088  0.4424 -0.0190 -0.3823
  361MPD2    C3 5457   1.469   4.313  17.178 -0.6680 -0.4297  0.3133
  361MPD2    C4 5458   1.489   4.427  17.260  0.0185  0.3431 -0.1550
  361MPD2    C5 5459   1.413   4.541  17.240 -0.0238 -0.0433  0.2575
  361MPD2     H 5460   1.344   4.220  17.033  3.3257 -0.9022  0.1047
  361MPD2    H1 5461   1.566   4.430  17.336 -0.9857  0.7091  0.8495
  361MPD2    H2 5462   1.243   4.624  17.164  0.1593  1.0142  0.5277
  361MPD2    H3 5463   1.422   4.625  17.307 -0.7482 -0.6108  1.0659
  361MPD2     N 5464   1.570   4.210  17.195 -0.5664  0.2362 -0.4905
  361MPD2    H5 5465   1.648   4.224  17.259 -2.6306  0.8378  1.8682
  361MPD2    N1 5466   1.176   4.424  16.980 -0.2180 -0.0598  0.0546
  361MPD2    H7 5467   1.136   4.333  16.964 -1.2673  0.6294 -1.2666
  362TMC3    C1 5468   0.993   4.501  16.858  0.0080  0.9275 -0.5028
  362TMC3    C2 5469   0.884   4.450  16.925  0.1321  0.2201 -0.2490
  362TMC3    C3 5470   0.766   4.465  16.852  0.2926  0.1040 -0.0672
  362TMC3    C4 5471   0.988   4.576  16.742 -0.0861 -0.1235 -0.7604
  362TMC3    C5 5472   0.870   4.573  16.672 -0.5304  0.2141 -0.2582
  362TMC3    C6 5473   0.756   4.526  16.731 -0.3933  0.8474  0.1996
  362TMC3     C 5474   1.110   4.530  16.941 -0.9089 -0.5147  0.6583
  362TMC3     O 5475   1.139   4.648  16.944  0.6280 -0.1867  0.9874
  362TMC3     H 5476   0.895   4.392  17.016  0.4269 -0.5491 -0.7679
  362TMC3    H1 5477   1.074   4.623  16.697 -0.8957  0.2327 -1.9223
  362TMC3    H2 5478   0.658   4.533  16.686 -0.8081 -0.9381  0.8211
  362TMC3    C7 5479   0.866   4.619  16.530  0.6196  0.3056  0.0123
  362TMC3    C8 5480   0.651   4.396  16.907 -0.2453  0.0679 -0.1398
  362TMC3    O1 5481   0.950   4.694  16.494 -0.0500  0.1533 -0.5143
  362TMC3    O2 5482   0.667   4.315  16.994  0.2362  0.4112  0.2405
  363TMC3    C1 5483   3.997   1.185   9.474  0.5145 -0.1341 -0.2603
  363TMC3    C2 5484   4.063   1.096   9.557  0.5922 -0.1976  0.6831
  363TMC3    C3 5485   4.044   1.094   9.698 -0.3279 -0.6033 -0.8515
  363TMC3    C4 5486   3.909   1.274   9.529 -0.1209  0.3817 -0.2410
  363TMC3    C5 5487   3.886   1.273   9.665 -0.0034  0.4730  0.4447
  363TMC3    C6 5488   3.953   1.179   9.749 -0.5781 -0.2106 -0.2450
  363TMC3     C 5489   4.043   1.192   9.337 -0.0005 -0.3580  0.3173
  363TMC3     O 5490   4.132   1.115   9.299 -0.2722 -0.4166 -0.3388
  363TMC3     H 5491   4.140   1.037   9.509  1.0095  0.8642  0.0508
  363TMC3    H1 5492   3.847   1.316   9.451  0.7250  0.6708 -0.7583
  363TMC3    H2 5493   3.941   1.180   9.857  0.2347  1.0686 -0.1651
  363TMC3    C7 5494   3.783   1.363   9.714  0.8643 -0.2757  0.2339
  363TMC3    C8 5495   4.102   0.991   9.779  0.1430  0.1292  0.1757
  363TMC3    O1 5496   3.772   1.466   9.649  0.6065 -0.6253 -0.3353
  363TMC3    O2 5497   4.061   0.997   9.895 -0.0523 -0.6421 -0.5446
  364MPD2     C 5498   3.183   0.418  10.540 -0.3602  0.6549 -0.3924
  364MPD2    C1 5499   3.213   0.546  10.571 -0.7795  0.3274 -0.9650
  364MPD2    C2 5500   3.304   0.578  10.671 -0.5999  0.4478  0.7023
  364MPD2    C3 5501   3.353   0.480  10.753 -0.1039 -0.7496 -0.6645
  364MPD2    C4 5502   3.304   0.351  10.737 -0.2546 -0.0453  0.0333
  364MPD2    C5 5503   3.225   0.321  10.629  0.1302  0.4409  0.1939
  364MPD2     H 5504   3.322   0.682  10.698 -0.1781  0.5292  0.0921
  364MPD2    H1 5505   3.318   0.270  10.808 -1.1682 -0.0407  0.2158
  364MPD2    H2 5506   3.103   0.394  10.470 -0.7955 -0.9472  0.6506
  364MPD2    H3 5507   3.191   0.218  10.625 -0.5605  0.7085 -0.7274
  364MPD2     N 5508   3.445   0.497  10.859 -0.1287  0.4076  0.1851
  364MPD2    H5 5509   3.468   0.419  10.919 -0.7030  0.7713  0.8782
  364MPD2    N1 5510   3.152   0.646  10.495 -0.6822 -0.1459  0.1577
  364MPD2    H7 5511   3.136   0.624  10.397  0.1420  3.0483 -0.7120
  365TMC3    C1 5512   3.160   0.874  10.423 -0.2528  0.5389 -0.0432
  365TMC3    C2 5513   3.211   0.833  10.301 -1.1873  0.5015  0.1293
  365TMC3    C3 5514   3.288   0.923  10.232  0.6589  0.3644  0.0169
  365TMC3    C4 5515   3.182   1.004  10.469 -0.2042 -0.1485  0.1849
  365TMC3    C5 5516   3.257   1.091  10.394  0.3427 -0.2837  0.3893
  365TMC3    C6 5517   3.309   1.053  10.275 -0.4525 -0.2825  0.0225
  365TMC3     C 5518   3.145   0.779  10.535  0.2024  0.2085  0.8865
  365TMC3     O 5519   3.135   0.817  10.652  0.1263 -0.0659  0.1377
  365TMC3     H 5520   3.190   0.735  10.262  0.2040  0.4511 -0.4970
  365TMC3    H1 5521   3.138   1.026  10.565  3.2340  2.7745  1.0745
  365TMC3    H2 5522   3.357   1.130  10.215 -0.4879 -0.2575  0.0263
  365TMC3    C7 5523   3.348   1.168  10.473  0.6628 -0.3592 -0.1736
  365TMC3    C8 5524   3.353   0.881  10.108 -0.5256 -0.2742 -0.1836
  365TMC3    O1 5525   3.446   1.221  10.422  0.3294  0.3942  0.2415
  365TMC3    O2 5526   3.392   0.972  10.035 -0.1641 -0.0084  0.3414
  366MPD2     C 5527   1.366   2.591  15.431 -0.7930  0.0292  0.0330
  366MPD2    C1 5528   1.500   2.619  15.458  0.4846 -0.0080 -0.0770
  366MPD2    C2 5529   1.587   2.518  15.483  0.1624  0.1147  0.2721
  366MPD2    C3 5530   1.551   2.387  15.470  0.3532  0.6197 -0.2416
  366MPD2    C4 5531   1.421   2.359  15.434  0.2846 -0.3880  0.2893
  366MPD2    C5 5532   1.332   2.460  15.423  0.1633 -0.0020  0.1474
  366MPD2     H 5533   1.693   2.538  15.495 -0.0684  1.2592  0.4100
  366MPD2    H1 5534   1.383   2.262  15.405  0.1696 -0.4048  0.4959
  366MPD2    H2 5535   1.288   2.666  15.422  0.0719  0.6479 -2.3565
  366MPD2    H3 5536   1.229   2.440  15.396  0.4074 -1.2837  0.1366
  366MPD2     N 5537   1.656   2.287  15.479 -0.0692 -0.2491  1.4311
  366MPD2    H5 5538   1.747   2.326  15.502 -0.8661  2.8584 -0.6232
  366MPD2    N1 5539   1.553   2.755  15.464 -0.0049  0.3508 -0.0519
  366MPD2    H7 5540   1.649   2.775  15.492 -0.7731 -1.4611  3.8236
  367TMC3    C1 5541   1.551   2.988  15.431  0.1056  0.1203  0.1562
  367TMC3    C2 5542   1.666   3.014  15.509 -0.4574 -0.6531  0.2961
  367TMC3    C3 5543   1.706   3.139  15.527  0.4228  0.3401 -0.0554
  367TMC3    C4 5544   1.503   3.087  15.348 -0.0839  0.3671  0.3557
  367TMC3    C5 5545   1.543   3.219  15.379  0.2917  0.1599  1.0515
  367TMC3    C6 5546   1.637   3.248  15.481  1.1260  0.0145  0.0612
  367TMC3     C 5547   1.486   2.863  15.408 -1.2670 -0.8191  0.2078
  367TMC3     O 5548   1.391   2.864  15.329  0.2427  0.2162  0.4000
  367TMC3     H 5549   1.716   2.931  15.558 -1.1669 -1.7069 -0.7592
  367TMC3    H1 5550   1.433   3.065  15.269 -0.2761  1.4464  0.2240
  367TMC3    H2 5551   1.658   3.350  15.511  1.3138  0.5128 -1.7483
  367TMC3    C7 5552   1.441   3.317  15.358 -0.2578 -0.3216  0.2233
  367TMC3    C8 5553   1.822   3.154  15.611 -0.0866  0.4082 -0.3214
  367TMC3    O1 5554   1.376   3.361  15.450 -0.7868 -0.2189 -0.5078
  367TMC3    O2 5555   1.884   3.052  15.633  0.7778 -0.2098 -0.1459
  368MPD2     C 5556   3.050   3.853  13.255 -0.4130  0.4327  0.1699
  368MPD2    C1 5557   3.048   3.986  13.229  0.5146  0.2822  0.6704
  368MPD2    C2 5558   3.166   4.041  13.201  0.1468  0.0756  0.4761
  368MPD2    C3 5559   3.290   3.983  13.207  0.0462 -0.6829 -0.3898
  368MPD2    C4 5560   3.288   3.850  13.234 -0.3310 -0.2346 -0.7109
  368MPD2    C5 5561   3.169   3.790  13.251  0.4603 -0.3446  0.0147
  368MPD2     H 5562   3.161   4.147  13.182  1.4305  0.3184  1.4506
  368MPD2    H1 5563   3.371   3.780  13.243 -2.0242 -1.8852  1.9009
  368MPD2    H2 5564   2.954   3.809  13.279 -0.8217  1.7811  1.0174
  368MPD2    H3 5565   3.163   3.685  13.278  2.4816  0.3097  2.9987
  368MPD2     N 5566   3.408   4.056  13.191  0.6116  0.4422  0.0052
  368MPD2    H5 5567   3.498   4.012  13.200 -0.2060 -0.7332  2.3932
  368MPD2    N1 5568   2.925   4.061  13.230 -0.1203 -0.6366  0.3505
  368MPD2    H7 5569   2.837   4.012  13.243  1.5415 -4.0828 -1.2464
  369TMC3    C1 5570   2.780   4.253  13.193  0.2422  0.3618  0.3493
  369TMC3    C2 5571   2.772   4.387  13.168  0.2607  0.5967 -0.1720
  369TMC3    C3 5572   2.672   4.435  13.087 -0.3094 -0.0938 -0.1196
  369TMC3    C4 5573   2.689   4.172  13.145  0.6694 -0.7702  0.2172
  369TMC3    C5 5574   2.578   4.218  13.074  0.0535  0.1143  0.0848
  369TMC3    C6 5575   2.566   4.354  13.047  0.1170 -0.6108 -0.2170
  369TMC3     C 5576   2.913   4.201  13.219  0.5311  0.2968 -0.3359
  369TMC3     O 5577   2.993   4.293  13.233 -0.0275 -0.3676 -0.4124
  369TMC3     H 5578   2.855   4.455  13.180  1.1323 -0.5735  0.4867
  369TMC3    H1 5579   2.694   4.065  13.164  0.2972 -0.9999 -1.0077
  369TMC3    H2 5580   2.482   4.385  12.986  1.6006  0.7417 -1.5885
  369TMC3    C7 5581   2.460   4.135  13.068 -0.7371 -0.7608  1.2240
  369TMC3    C8 5582   2.681   4.565  13.025 -0.5192 -0.1905 -0.1618
  369TMC3    O1 5583   2.457   4.048  13.153 -0.0721 -0.2339  0.4491
  369TMC3    O2 5584   2.690   4.562  12.902  0.0854  0.2631  0.2154
  370TMC3    C1 5585   2.449   0.106  16.131  0.0036  0.5968  0.0345
  370TMC3    C2 5586   2.381   0.027  16.222  0.2326 -0.5475  0.2223
  370TMC3    C3 5587   2.307   4.659  16.183 -0.3270  0.5652 -0.2017
  370TMC3    C4 5588   2.445   0.074  16.000 -0.0861  0.0879  0.2253
  370TMC3    C5 5589   2.395   4.686  15.970  0.1835  0.3991  0.5285
  370TMC3    C6 5590   2.312   4.615  16.055 -0.0982  0.5662  0.2986
  370TMC3     C 5591   2.554   0.199  16.180  0.0179  0.7358  0.3581
  370TMC3     O 5592   2.578   0.162  16.294  0.3685  0.2341  0.9627
  370TMC3     H 5593   2.379   0.056  16.326 -0.1632  1.7607 -0.4212
  370TMC3    H1 5594   2.505   0.125  15.925 -0.7686  0.4172 -0.0995
  370TMC3    H2 5595   2.275   4.517  16.029 -0.8611  0.3316  2.2537
  370TMC3    C7 5596   2.441   4.631  15.841 -1.2384 -0.7780  0.9081
  370TMC3    C8 5597   2.235   4.579  16.282  0.2698 -0.7709  0.3103
  370TMC3    O1 5598   2.476   4.704  15.745  0.3816  0.1454 -0.3099
  370TMC3    O2 5599   2.209   4.468  16.257  0.4251 -0.3716  0.2357
  371TMC3    C1 5600   3.600   3.139  15.162  0.5289 -0.6999 -0.1062
  371TMC3    C2 5601   3.501   3.135  15.255 -1.2672  0.9551  0.1765
  371TMC3    C3 5602   3.443   3.250  15.298  0.8812  0.3154 -0.4386
  371TMC3    C4 5603   3.648   3.258  15.117 -0.4859  0.1640  0.2216
  371TMC3    C5 5604   3.585   3.371  15.158 -0.7492 -0.1412  0.5614
  371TMC3    C6 5605   3.486   3.376  15.249  0.6084 -0.4260 -0.4448
  371TMC3     C 5606   3.679   3.020  15.136 -0.0729  0.5366 -0.7237
  371TMC3     O 5607   3.775   3.039  15.059  0.0602  0.5487  0.0573
  371TMC3     H 5608   3.461   3.047  15.303 -0.0687 -0.3733 -1.2860
  371TMC3    H1 5609   3.732   3.259  15.048 -0.8812  0.1043 -0.2566
  371TMC3    H2 5610   3.438   3.468  15.279 -1.1337 -1.5717  0.3453
  371TMC3    C7 5611   3.650   3.495  15.127 -0.2842 -0.5180  0.1062
  371TMC3    C8 5612   3.395   3.254  15.440  0.5001  0.0896  0.9266
  371TMC3    O1 5613   3.590   3.583  15.065 -0.2705 -0.0825  0.0344
  371TMC3    O2 5614   3.418   3.152  15.504 -0.8626  0.1966 -0.5192
  372MPD2     C 5615   2.768   3.816  13.709  0.0986 -0.2546 -0.6525
  372MPD2    C1 5616   2.872   3.730  13.676  0.9065 -0.8115  0.1571
  372MPD2    C2 5617   2.849   3.593  13.675 -0.0054  0.2677 -0.8529
  372MPD2    C3 5618   2.717   3.543  13.699  0.1763  0.1852 -0.9341
  372MPD2    C4 5619   2.621   3.628  13.748  0.2251  0.4084  0.8044
  372MPD2    C5 5620   2.648   3.761  13.741  0.1812  0.2139  0.0233
  372MPD2     H 5621   2.927   3.525  13.642  1.5339  1.5191  0.1448
  372MPD2    H1 5622   2.519   3.595  13.765  0.3059  0.5347  1.5388
  372MPD2    H2 5623   2.776   3.922  13.731 -1.6213  0.1273 -1.7959
  372MPD2    H3 5624   2.568   3.825  13.777 -1.5319 -0.7926 -2.0275
  372MPD2     N 5625   2.709   3.400  13.687  0.0327  0.6157 -0.0532
  372MPD2    H5 5626   2.790   3.346  13.659 -1.2988 -0.5883 -1.5334
  372MPD2    N1 5627   2.996   3.777  13.652 -0.3516 -0.4999  0.6557
  372MPD2    H7 5628   3.074   3.711  13.652  1.4244  1.6031 -2.7360
  373TMC3    C1 5629   2.616   3.196  13.659  0.2565  0.1185  0.3029
  373TMC3    C2 5630   2.532   3.097  13.714 -1.2165 -0.1599 -0.4623
  373TMC3    C3 5631   2.565   2.965  13.691 -0.2594 -0.3514 -0.6803
  373TMC3    C4 5632   2.717   3.170  13.574 -0.2179 -0.6746  0.4198
  373TMC3    C5 5633   2.738   3.031  13.555  0.3056  0.0173 -0.4612
  373TMC3    C6 5634   2.669   2.928  13.609  0.2164  0.3880  0.4518
  373TMC3     C 5635   2.595   3.329  13.700 -0.5861  0.3492 -0.0035
  373TMC3     O 5636   2.487   3.350  13.756  0.4295  0.3259  0.1801
  373TMC3     H 5637   2.439   3.117  13.767 -0.6767  2.4715 -0.4804
  373TMC3    H1 5638   2.782   3.238  13.521  1.2158 -1.9498  0.5002
  373TMC3    H2 5639   2.710   2.828  13.621  1.2123  0.7731  0.2742
  373TMC3    C7 5640   2.846   2.995  13.469 -0.4322 -0.3124  0.3981
  373TMC3    C8 5641   2.557   2.889  13.818 -0.1493 -0.2107  0.6940
  373TMC3    O1 5642   2.945   3.068  13.461  0.0740  0.3995 -0.0460
  373TMC3    O2 5643   2.452   2.900  13.877 -0.0473  0.0502 -0.0809
  374TMC3    C1 5644   3.433   4.184   9.796 -0.2880  0.0132  0.2976
  374TMC3    C2 5645   3.563   4.222   9.834 -0.6083 -0.4352  0.0342
  374TMC3    C3 5646   3.631   4.311   9.752 -0.4788  0.6654  0.2724
  374TMC3    C4 5647   3.379   4.234   9.676 -0.6928  0.0752  0.0250
  374TMC3    C5 5648   3.460   4.300   9.586  0.9577 -0.6910  0.1256
  374TMC3    C6 5649   3.581   4.349   9.628  0.2874  0.2636  0.3891
  374TMC3     C 5650   3.364   4.068   9.849  0.4148 -0.3432  0.0313
  374TMC3     O 5651   3.250   4.045   9.815 -0.9292  0.0995 -0.2426
  374TMC3     H 5652   3.600   4.184   9.928 -0.2611  2.1914  0.9522
  374TMC3    H1 5653   3.281   4.200   9.643  0.1346 -0.8522 -1.4528
  374TMC3    H2 5654   3.643   4.409   9.564 -0.5116  1.5115  0.7808
  374TMC3    C7 5655   3.425   4.321   9.453  0.7389 -0.1657  0.1292
  374TMC3    C8 5656   3.773   4.297   9.764  0.4999  1.2214  0.1871
  374TMC3    O1 5657   3.496   4.400   9.394  0.5658 -0.1204  0.0229
  374TMC3    O2 5658   3.840   4.282   9.661 -0.0210 -0.1325  0.0235
  375MPD2     C 5659   4.110   0.751  16.963  0.0122 -0.4755 -0.1463
  375MPD2    C1 5660   4.010   0.724  16.876  0.6659 -0.0849 -0.2813
  375MPD2    C2 5661   4.015   0.612  16.795  0.0851 -0.2221  0.7424
  375MPD2    C3 5662   4.125   0.527  16.806  0.2325  0.1384 -0.2151
  375MPD2    C4 5663   4.219   0.554  16.897  0.0031  0.2991 -0.1455
  375MPD2    C5 5664   4.208   0.663  16.985  0.4270  1.7202 -0.1986
  375MPD2     H 5665   3.933   0.592  16.727 -0.2460  0.4632  0.9380
  375MPD2    H1 5666   4.305   0.491  16.916 -0.6371 -0.7987 -0.9351
  375MPD2    H2 5667   4.113   0.848  17.011  1.1159 -1.7689  2.4629
  375MPD2    H3 5668   4.279   0.680  17.065  0.5356 -1.2432  0.3191
  375MPD2     N 5669   4.152   0.421  16.718  0.2390 -0.3507  0.1545
  375MPD2    H5 5670   4.246   0.384  16.726  1.0217  1.2870 -1.5136
  375MPD2    N1 5671   3.899   0.815  16.865  0.3328  0.1112 -0.1458
  375MPD2    H7 5672   3.840   0.798  16.784 -1.9168 -0.7048  1.6779
  376TMC3    C1 5673   4.157   0.319  16.511 -0.0045  0.3457  0.4244
  376TMC3    C2 5674   4.271   0.245  16.550  0.4448  0.2983  0.2540
  376TMC3    C3 5675   4.348   0.187  16.450 -1.2390 -0.3099 -0.3148
  376TMC3    C4 5676   4.111   0.317  16.381  0.7707 -0.5090 -0.6926
  376TMC3    C5 5677   4.188   0.250  16.291  0.5465  0.3966  0.0704
  376TMC3    C6 5678   4.301   0.176  16.323  0.3834 -0.1185 -0.1356
  376TMC3     C 5679   4.073   0.386  16.607  0.3168  0.1865  0.4291
  376TMC3     O 5680   3.962   0.424  16.571  0.1840  0.5459  0.3646
  376TMC3     H 5681   4.309   0.246  16.651  0.3000  0.5161  0.3060
  376TMC3    H1 5682   4.025   0.375  16.350  0.8661  0.3625  0.6550
  376TMC3    H2 5683   4.366   0.136  16.246 -0.3963  3.0262 -2.4334
  376TMC3    C7 5684   4.121   0.224  16.163 -0.0537  0.3495 -0.1972
  376TMC3    C8 5685   4.488   0.154  16.483  0.3459  0.2118 -0.5633
  376TMC3    O1 5686   4.032   0.304  16.140  0.6750 -0.8298 -0.6529
  376TMC3    O2 5687   4.505   0.099  16.591  0.3830  0.2185  0.0109
  377MPD2     C 5688   2.377   4.733  13.037 -0.0841  0.6659  0.2659
  377MPD2    C1 5689   2.290   4.678  12.943 -0.1465  0.3417 -0.3595
  377MPD2    C2 5690   2.216   4.574  12.983 -1.0171  0.3099 -0.0060
  377MPD2    C3 5691   2.228   4.516  13.105  0.0674  0.1798  0.1521
  377MPD2    C4 5692   2.318   4.573  13.194 -0.3057  0.6056  0.4954
  377MPD2    C5 5693   2.390   4.682  13.161 -0.1800 -0.3715 -0.2418
  377MPD2     H 5694   2.136   4.541  12.918 -1.8361  0.9980  0.6493
  377MPD2    H1 5695   2.314   4.545  13.299 -2.4709 -3.4070 -0.6220
  377MPD2    H2 5696   2.426   0.092  13.018  0.1339  0.8116  1.6013
  377MPD2    H3 5697   2.462   4.716  13.235 -0.8121 -1.2181  0.7598
  377MPD2     N 5698   2.148   4.409  13.155  0.1579 -0.3932 -0.6093
  377MPD2    H5 5699   2.169   4.368  13.245 -0.3256  0.3474 -0.1601
  377MPD2    N1 5700   2.278   0.015  12.820 -0.2481  0.0289 -0.5307
  377MPD2    H7 5701   2.355   0.078  12.802  1.2437 -1.6477  0.0399
  378TMC3    C1 5702   2.150   0.078  12.367 -0.3667  0.1914 -0.7529
  378TMC3    C2 5703   2.120   0.053  12.501 -0.6158 -0.5695 -0.4830
  378TMC3    C3 5704   2.210   0.069  12.599 -0.0592 -0.3434 -0.1955
  378TMC3    C4 5705   2.281   0.130  12.342 -0.7744  0.3420  0.2600
  378TMC3    C5 5706   2.367   0.147  12.443  0.5404 -0.0276  1.0667
  378TMC3    C6 5707   2.337   0.123  12.574  0.3676  0.2291  0.6725
  378TMC3     C 5708   2.034   0.094  12.279  0.4388  0.5561  0.1094
  378TMC3     O 5709   1.926   0.085  12.333 -0.0695 -0.4754 -0.1975
  378TMC3     H 5710   2.018   0.023  12.523 -1.0533  1.4545  0.2353
  378TMC3    H1 5711   2.308   0.148  12.239  0.0772 -0.5980  0.3187
  378TMC3    H2 5712   2.410   0.144  12.651  0.9145  0.0836  0.1880
  378TMC3    C7 5713   2.510   0.130  12.407  0.1163 -0.0300 -0.0220
  378TMC3    C8 5714   2.182   4.731  12.724 -0.0238 -0.4910 -0.1164
  378TMC3    O1 5715   2.588   0.123  12.500 -0.0604 -1.0577  0.0240
  378TMC3    O2 5716   2.078   4.666  12.727  0.0911 -0.3448  0.7670
  379MPD2     C 5717   2.863   3.008  16.140 -1.5586  1.2424  0.0974
  379MPD2    C1 5718   2.791   2.992  16.257 -0.8538 -0.4299  0.7541
  379MPD2    C2 5719   2.847   2.928  16.366 -0.2000 -0.2565 -0.6382
  379MPD2    C3 5720   2.967   2.873  16.353 -0.8372 -0.7012 -0.7872
  379MPD2    C4 5721   3.042   2.889  16.238  0.6681 -0.0244  0.1305
  379MPD2    C5 5722   2.991   2.957  16.129  0.1543  0.6673 -0.4094
  379MPD2     H 5723   2.790   2.917  16.457  0.5559 -0.6737 -0.2176
  379MPD2    H1 5724   3.146   2.859  16.243  0.9821  1.0121 -0.1391
  379MPD2    H2 5725   2.822   3.058  16.052 -0.2503 -0.7412 -1.6380
  379MPD2    H3 5726   3.059   2.979  16.048 -0.8597  1.2243 -1.1038
  379MPD2     N 5727   3.037   2.815  16.465  0.2224 -0.0267  0.2775
  379MPD2    H5 5728   3.135   2.796  16.450 -0.1142 -1.6590  0.0950
  379MPD2    N1 5729   2.660   3.038  16.264 -0.5724 -0.4410 -0.0836
  379MPD2    H7 5730   2.615   3.059  16.175 -1.8282 -2.6106  0.0329
  380TMC3    C1 5731   2.439   3.041  16.318  0.6968  0.3331  0.3643
  380TMC3    C2 5732   2.401   2.917  16.287 -0.1858  0.2082  0.4620
  380TMC3    C3 5733   2.304   2.896  16.199 -0.3815  0.4545 -0.6140
  380TMC3    C4 5734   2.372   3.147  16.267 -0.1071  0.0161  0.0023
  380TMC3    C5 5735   2.260   3.125  16.192  0.5537  0.1453  0.0067
  380TMC3    C6 5736   2.225   3.000  16.154  0.4116 -0.4179 -0.1571
  380TMC3     C 5737   2.573   3.053  16.372  0.8952  0.3233  0.5840
  380TMC3     O 5738   2.587   3.035  16.490  0.3729 -0.4944  0.7982
  380TMC3     H 5739   2.480   2.849  16.317  1.4306  2.1798  0.6957
  380TMC3    H1 5740   2.411   3.244  16.295  1.8127 -0.8215  0.2810
  380TMC3    H2 5741   2.135   2.980  16.096  1.2587 -3.7622 -0.2828
  380TMC3    C7 5742   2.203   3.239  16.132  0.2397  0.1424  0.1862
  380TMC3    C8 5743   2.305   2.775  16.111 -0.0759 -1.2145 -0.4601
  380TMC3    O1 5744   2.193   3.336  16.202  0.3924 -0.2866 -0.3156
  380TMC3    O2 5745   2.242   2.776  16.009 -0.2088  0.3005  0.0973
  381TMC3    C1 5746   1.989   3.962  16.037 -0.2611  1.1372 -0.1005
  381TMC3    C2 5747   2.125   3.981  16.028  0.0780 -0.8375 -0.1702
  381TMC3    C3 5748   2.182   4.059  16.126 -0.0522 -0.4935 -0.0752
  381TMC3    C4 5749   1.910   4.007  16.132 -0.0450  1.0417 -0.7754
  381TMC3    C5 5750   1.973   4.084  16.229 -0.7780 -0.1695  1.3008
  381TMC3    C6 5751   2.104   4.111  16.226 -0.1636  0.1092 -0.0698
  381TMC3     C 5752   1.920   3.876  15.942 -0.0340  0.3405  0.9848
  381TMC3     O 5753   1.825   3.810  15.981 -0.1488 -0.5540 -0.3395
  381TMC3     H 5754   2.185   3.939  15.948 -0.0917 -0.4666 -0.4896
  381TMC3    H1 5755   1.805   3.979  16.139  0.9572 -1.6645  2.8670
  381TMC3    H2 5756   2.145   4.177  16.301 -1.1174  0.1926  0.3722
  381TMC3    C7 5757   1.901   4.060  16.354  0.4555  0.2991 -0.3794
  381TMC3    C8 5758   2.323   4.094  16.107  0.4840  0.0395 -0.2173
  381TMC3    O1 5759   1.873   3.943  16.374  0.1878  0.4886 -0.4463
  381TMC3    O2 5760   2.384   4.055  16.004  0.4403  0.0694  0.1378
  382MPD2     C 5761   1.399   1.752  17.354 -0.1537 -0.3233  0.6067
  382MPD2    C1 5762   1.301   1.824  17.410  0.5212 -0.6181  0.2751
  382MPD2    C2 5763   1.184   1.769  17.463  0.1604  0.4401  0.0930
  382MPD2    C3 5764   1.180   1.628  17.459  0.0584  0.5218 -0.3106
  382MPD2    C4 5765   1.272   1.555  17.390  0.6700  0.7740 -1.1248
  382MPD2    C5 5766   1.388   1.613  17.345 -0.0708 -0.4428  0.0842
  382MPD2     H 5767   1.113   1.828  17.520  2.1199  0.9390  1.9720
  382MPD2    H1 5768   1.269   1.447  17.394 -1.0990  0.9072  0.9729
  382MPD2    H2 5769   1.486   1.799  17.310 -0.4177 -0.1090  0.3102
  382MPD2    H3 5770   1.465   1.553  17.298  0.7425  0.4045  0.3316
  382MPD2     N 5771   1.068   1.558  17.501  0.4025  0.3100 -0.7077
  382MPD2    H5 5772   1.071   1.458  17.483  0.8754  0.4163 -1.2085
  382MPD2    N1 5773   1.311   1.962  17.430  0.3782 -0.2242  0.1655
  382MPD2    H7 5774   1.225   2.005  17.460 -0.6015 -1.1180 -1.3083
  383TMC3    C1 5775   0.866   1.494  17.602 -0.0350  0.3904  0.2152
  383TMC3    C2 5776   0.863   1.390  17.517  0.0719 -0.0623  0.0449
  383TMC3    C3 5777   0.819   1.273  17.563  0.6080 -0.2787  0.7485
  383TMC3    C4 5778   0.828   1.495  17.729  0.1759 -0.1341 -0.0453
  383TMC3    C5 5779   0.792   1.367   0.039 -0.8686 -0.1704  0.1510
  383TMC3    C6 5780   0.784   1.255  17.696 -0.2688  0.4532 -0.0100
  383TMC3     C 5781   0.961   1.600  17.575 -0.1333  0.1179  0.0977
  383TMC3     O 5782   0.933   1.710  17.621 -0.4347  0.0417  0.0930
  383TMC3     H 5783   0.876   1.395  17.410 -4.1433  0.8384 -0.4182
  383TMC3    H1 5784   0.838   1.588   0.041  0.0960  0.8477 -1.7353
  383TMC3    H2 5785   0.741   1.165  17.737 -0.1556  1.0802  1.4762
  383TMC3    C7 5786   0.713   1.355   0.163  0.0346  0.0150  0.5908
  383TMC3    C8 5787   0.823   1.146  17.488 -0.7140  0.5255  0.9242
  383TMC3    O1 5788   0.628   1.267   0.171 -0.1746 -0.1853  0.4413
  383TMC3    O2 5789   0.820   1.041  17.548  0.8499  0.5111  0.2585
  384MPD2     C 5790   3.193   2.443  11.982  0.0747  0.1326  0.1705
  384MPD2    C1 5791   3.094   2.384  12.057 -0.5961  0.3879 -0.0435
  384MPD2    C2 5792   3.022   2.275  12.009  0.3530 -0.5596 -0.0477
  384MPD2    C3 5793   3.057   2.225  11.885 -0.0643 -0.3001  0.2960
  384MPD2    C4 5794   3.152   2.288  11.807  0.4763  0.4452 -0.0070
  384MPD2    C5 5795   3.219   2.399  11.854  0.1283  0.4060  0.2178
  384MPD2     H 5796   2.946   2.232  12.073  0.2922 -0.3853 -0.0033
  384MPD2    H1 5797   3.177   2.263  11.704 -1.5148  0.3114 -0.4600
  384MPD2    H2 5798   3.233   2.534  12.024 -1.9941  1.1189  0.0466
  384MPD2    H3 5799   3.279   2.455  11.783  0.9725  2.1369  2.2980
  384MPD2     N 5800   3.006   2.097  11.854 -0.2152 -0.2691  0.9902
  384MPD2    H5 5801   2.950   2.056  11.929 -0.1623 -3.2381 -0.6138
  384MPD2    N1 5802   3.077   2.443  12.179  0.2186  0.9572 -0.1784
  384MPD2    H7 5803   3.159   2.480  12.226  0.2080 -0.5805  1.0475
  385TMC3    C1 5804   3.043   1.882  11.793 -0.3358  0.0161  0.5529
  385TMC3    C2 5805   2.975   1.785  11.726 -0.4749  0.2146 -0.2569
  385TMC3    C3 5806   3.002   1.658  11.754  0.5174 -0.3610  0.1708
  385TMC3    C4 5807   3.147   1.866  11.875 -0.5991 -0.2956 -0.0423
  385TMC3    C5 5808   3.181   1.735  11.896  0.1239 -0.1790  0.4777
  385TMC3    C6 5809   3.106   1.633  11.842 -0.3533 -0.1560 -0.9047
  385TMC3     C 5810   3.035   2.017  11.749 -0.1333  0.1990  0.7548
  385TMC3     O 5811   3.094   2.046  11.645 -0.5031  0.0646 -0.1459
  385TMC3     H 5812   2.901   1.820  11.655  1.6493  0.7748 -2.2000
  385TMC3    H1 5813   3.200   1.939  11.935 -0.5117  0.3532 -0.9186
  385TMC3    H2 5814   3.139   1.530  11.858 -1.1462 -0.5928 -2.1407
  385TMC3    C7 5815   3.243   1.709  12.019 -0.4948 -0.3935 -0.0768
  385TMC3    C8 5816   2.929   1.551  11.685 -0.0141  0.4713 -0.0316
  385TMC3    O1 5817   3.323   1.788  12.063 -0.0012  0.0204 -0.0191
  385TMC3    O2 5818   2.828   1.577  11.622 -0.2853  0.9856  0.4954
  386TMC3    C1 5819   3.847   4.313  11.728  0.3239 -0.8276  0.8263
  386TMC3    C2 5820   3.826   4.391  11.619  0.3418 -0.6844 -0.6881
  386TMC3    C3 5821   3.714   4.470  11.625  0.2613 -0.0866  0.1310
  386TMC3    C4 5822   3.779   4.320  11.852  0.2258 -0.4440 -0.3913
  386TMC3    C5 5823   3.672   4.407  11.854  0.4529  0.0920 -0.9280
  386TMC3    C6 5824   3.635   4.473  11.737  0.1342  0.2084 -0.1623
  386TMC3     C 5825   3.974   4.245  11.734  0.2235 -0.0842 -0.3659
  386TMC3     O 5826   4.075   4.308  11.699  0.3434  0.6935 -0.6511
  386TMC3     H 5827   3.893   4.375  11.535 -1.1856 -1.6653 -1.7235
  386TMC3    H1 5828   3.811   4.257  11.934  1.7578 -0.0117 -0.6586
  386TMC3    H2 5829   3.547   4.535  11.740  0.4147  0.7327 -2.5854
  386TMC3    C7 5830   3.614   4.450  11.975  0.4778 -0.7219  0.6428
  386TMC3    C8 5831   3.640   4.490  11.505 -0.4180 -0.8023  0.3246
  386TMC3    O1 5832   3.527   4.537  11.974  0.0056  0.5697  0.0386
  386TMC3    O2 5833   3.553   4.572  11.513  0.1126  0.0094  0.1813
  387MPD2     C 5834   1.022   4.648   9.984 -0.2535 -0.7696  0.2939
  387MPD2    C1 5835   1.150   4.631  10.028 -0.3273  0.8286 -0.0148
  387MPD2    C2 5836   1.211   4.514   9.985 -0.6153 -1.0146  0.2723
  387MPD2    C3 5837   1.143   4.409   9.926 -0.3946  0.8790  0.2452
  387MPD2    C4 5838   1.010   4.428   9.891 -0.7570  0.3169  0.6891
  387MPD2    C5 5839   0.948   4.547   9.923 -0.6794 -0.6702 -0.2575
  387MPD2     H 5840   1.318   4.510  10.002 -0.6310 -2.3143  0.1297
  387MPD2    H1 5841   0.947   4.351   9.848 -0.9306 -0.0478  1.5899
  387MPD2    H2 5842   0.971   0.008   9.992 -1.5773 -1.6178  2.1203
  387MPD2    H3 5843   0.844   4.564   9.897 -1.1745 -3.4666 -0.1218
  387MPD2     N 5844   1.217   4.293   9.895  0.2939  1.1244 -0.4800
  387MPD2    H5 5845   1.314   4.289   9.926 -0.3685  0.6226  1.5184
  387MPD2    N1 5846   1.228   4.714  10.108 -0.5841 -0.0222 -0.3449
  387MPD2    H7 5847   1.323   4.683  10.127 -1.1106 -2.7456 -2.0526
  388TMC3    C1 5848   1.267   0.094  10.298  0.1354 -0.5396 -0.2573
  388TMC3    C2 5849   1.286   0.220  10.341 -0.7262 -0.4330 -0.7809
  388TMC3    C3 5850   1.385   0.241  10.420  0.0917  0.5962  0.5318
  388TMC3    C4 5851   1.343   4.723  10.340  0.1724  0.1086 -0.0270
  388TMC3    C5 5852   1.446   0.012  10.423 -0.0740  0.6162 -0.6421
  388TMC3    C6 5853   1.472   0.141  10.461  0.6693 -0.4330 -0.3008
  388TMC3     C 5854   1.183   0.080  10.188 -0.2871 -0.5369 -0.1135
  388TMC3     O 5855   1.085   0.153  10.182 -0.4055  0.6559  0.0643
  388TMC3     H 5856   1.206   0.291  10.327 -0.4166  0.6832  2.9218
  388TMC3    H1 5857   1.341   4.624  10.296 -2.1388  0.0520  0.1846
  388TMC3    H2 5858   1.544   0.167  10.538  1.8716 -1.2649 -1.1438
  388TMC3    C7 5859   1.528   4.636  10.477 -0.4680 -0.4618  0.0849
  388TMC3    C8 5860   1.399   0.379  10.458  0.3119  0.1099  0.1622
  388TMC3    O1 5861   1.535   4.626  10.599 -0.0940  0.6956 -0.2887
  388TMC3    O2 5862   1.353   0.467  10.385 -0.0657  0.6694 -0.0124
  389MPD2     C 5863   0.223   2.758  10.741 -0.7897  0.5915 -0.2227
  389MPD2    C1 5864   0.228   2.653  10.653  0.1835 -0.0086  0.1576
  389MPD2    C2 5865   0.194   2.535  10.703  1.0384 -0.4325 -0.5934
  389MPD2    C3 5866   0.167   2.504  10.836 -0.6208  0.0895  0.0332
  389MPD2    C4 5867   0.173   2.605  10.926  0.4331  0.2056 -0.2930
  389MPD2    C5 5868   0.188   2.737  10.873  0.0362 -0.7027  0.1771
  389MPD2     H 5869   0.197   2.459  10.626  0.2880  1.3794 -2.4015
  389MPD2    H1 5870   0.146   2.590  11.030  1.7576 -1.6144 -0.1886
  389MPD2    H2 5871   0.228   2.857  10.698 -3.1865  1.1903  0.8655
  389MPD2    H3 5872   0.184   2.828  10.931  1.0381 -0.5402 -0.0052
  389MPD2     N 5873   0.132   2.377  10.890  0.2750 -0.2815  0.1664
  389MPD2    H5 5874   0.129   2.373  10.992 -0.8598 -2.0821  0.0718
  389MPD2    N1 5875   0.256   2.678  10.513  0.2672 -0.1123 -0.3333
  389MPD2    H7 5876   0.246   2.773  10.478 -1.8712 -1.3088 -2.9765
  390TMC3    C1 5877   0.030   2.159  10.901  0.2983 -0.2770 -0.2327
  390TMC3    C2 5878   0.064   2.162  11.034 -0.0301 -0.1332 -0.3917
  390TMC3    C3 5879   4.728   2.104  11.128  0.3239 -0.0192  0.5206
  390TMC3    C4 5880   4.646   2.098  10.860  0.2868  0.7690  0.0452
  390TMC3    C5 5881   4.572   2.046  10.963 -1.3248 -0.0757  0.3761
  390TMC3    C6 5882   4.603   2.057  11.095  0.4275 -0.7111  0.1610
  390TMC3     C 5883   0.082   2.266  10.821 -0.0417  0.5349 -0.8032
  390TMC3     O 5884   0.056   2.251  10.701  0.0753 -0.1068 -0.0364
  390TMC3     H 5885   0.165   2.192  11.058 -0.1457 -0.8345  0.9507
  390TMC3    H1 5886   4.601   2.108  10.762 -0.0102 -0.1132  0.0968
  390TMC3    H2 5887   4.545   2.010  11.174  1.1831 -1.4513  0.2786
  390TMC3    C7 5888   4.461   1.968  10.920  0.1425  0.1334 -0.6421
  390TMC3    C8 5889   0.052   2.066  11.248  0.3628 -0.4971 -0.8740
  390TMC3    O1 5890   4.466   1.921  10.809  0.4997 -0.0894 -0.3445
  390TMC3    O2 5891   0.149   1.991  11.240 -0.3457  0.6928 -0.4107
  391MPD2     C 5892   4.034   4.519  11.340  0.6082  0.1545 -0.1965
  391MPD2    C1 5893   4.154   4.451  11.315  0.3595  0.7158  0.0195
  391MPD2    C2 5894   4.167   4.406  11.186  0.8889  0.4208 -0.3946
  391MPD2    C3 5895   4.091   4.434  11.074 -0.2009 -0.7022 -0.2692
  391MPD2    C4 5896   3.969   4.495  11.102 -0.3413 -0.3193 -0.0195
  391MPD2    C5 5897   3.944   4.536  11.235 -0.1592 -0.1262 -0.2685
  391MPD2     H 5898   4.256   4.353  11.157  0.4835  0.0854 -1.0175
  391MPD2    H1 5899   3.893   4.527  11.031 -1.6904 -0.9558  1.1479
  391MPD2    H2 5900   4.015   4.571  11.433  3.9503 -1.7183  1.5388
  391MPD2    H3 5901   3.854   4.593  11.253  0.9198  0.7558  2.3715
  391MPD2     N 5902   4.134   4.403  10.943 -0.0515 -0.3150  0.2750
  391MPD2    H5 5903   4.233   4.383  10.933  0.5836  3.4228 -0.9360
  391MPD2    N1 5904   4.249   4.419  11.416  0.1648  0.3803 -0.0899
  391MPD2    H7 5905   4.222   4.445  11.511 -0.5117  0.6773 -0.3590
  392TMC3    C1 5906   4.133   4.383  10.708 -0.1665 -0.1989 -1.1995
  392TMC3    C2 5907   4.074   4.355  10.586  0.1209  0.3009  0.4025
  392TMC3    C3 5908   4.156   4.347  10.474  0.1315 -0.1367 -0.7665
  392TMC3    C4 5909   4.268   4.393  10.704 -0.0614 -0.3855  0.5496
  392TMC3    C5 5910   4.344   4.373  10.591 -0.0664  0.2291  0.5841
  392TMC3    C6 5911   4.293   4.349  10.470  0.4636 -0.3668  0.2908
  392TMC3     C 5912   4.054   4.414  10.833  0.3374 -0.7478 -0.1329
  392TMC3     O 5913   3.932   4.437  10.835 -0.3125 -0.2223 -0.2476
  392TMC3     H 5914   3.967   4.342  10.585 -0.1198  2.5266 -2.9087
  392TMC3    H1 5915   4.320   4.433  10.791  1.3373  1.5318 -1.1483
  392TMC3    H2 5916   4.350   4.335  10.380 -0.7913  1.0670 -0.7251
  392TMC3    C7 5917   4.480   4.397  10.608 -0.9404 -0.1217 -0.0746
  392TMC3    C8 5918   4.082   4.332  10.349 -0.2166 -0.2710 -0.6190
  392TMC3    O1 5919   4.518   4.451  10.707 -0.7492  0.6198  0.4646
  392TMC3    O2 5920   3.970   4.388  10.347 -0.0283 -0.2655  0.2615
  393TMC3    C1 5921   2.314   2.114  10.462 -0.5500  0.2311  0.1572
  393TMC3    C2 5922   2.197   2.074  10.414 -0.3974 -0.2917 -0.0103
  393TMC3    C3 5923   2.145   1.953  10.447  0.1253 -0.6314 -0.0522
  393TMC3    C4 5924   2.389   2.029  10.526  0.1113  0.9639 -0.1357
  393TMC3    C5 5925   2.339   1.902  10.564 -0.3006  0.5848  0.4645
  393TMC3    C6 5926   2.214   1.870  10.525  0.2029 -0.5272 -0.0162
  393TMC3     C 5927   2.371   2.246  10.430 -0.2485  0.0978  0.0586
  393TMC3     O 5928   2.291   2.335  10.393 -0.0527  0.0944  0.3469
  393TMC3     H 5929   2.146   2.148  10.353 -1.3091  0.4291  1.6297
  393TMC3    H1 5930   2.485   2.059  10.569 -1.8461  0.0783  4.8917
  393TMC3    H2 5931   2.187   1.770  10.555  0.9601 -0.1991  1.7821
  393TMC3    C7 5932   2.433   1.790  10.585 -0.4242 -0.8057  0.1886
  393TMC3    C8 5933   2.088   1.874  10.336 -0.1351  0.4591 -0.3203
  393TMC3    O1 5934   2.387   1.675  10.569 -0.1642 -0.8558 -0.5470
  393TMC3    O2 5935   2.068   1.753  10.348 -0.4699  0.8985  0.0874
  394TMC3    C1 5936   0.333   2.636  10.295 -0.4651 -0.1182 -0.9222
  394TMC3    C2 5937   0.309   2.555  10.186 -0.1295  0.3913 -0.2687
  394TMC3    C3 5938   0.376   2.596  10.074  0.4573  1.3347 -0.3475
  394TMC3    C4 5939   0.419   2.739  10.297 -0.4162  0.2948  0.1776
  394TMC3    C5 5940   0.464   2.784  10.178  0.3425 -0.0117  0.1014
  394TMC3    C6 5941   0.449   2.712  10.064  0.4299 -0.4401  0.2880
  394TMC3     C 5942   0.284   2.582  10.418  0.2481 -0.3268  0.0135
  394TMC3     O 5943   0.294   2.461  10.424  0.0813  0.1800 -0.6041
  394TMC3     H 5944   0.253   2.465  10.211 -0.2836  0.4339 -0.4617
  394TMC3    H1 5945   0.425   2.801  10.385  0.3362  0.2903  0.1248
  394TMC3    H2 5946   0.510   2.733   9.977 -2.8605  2.6561 -1.2639
  394TMC3    C7 5947   0.547   2.910  10.170 -0.2792 -0.2866 -0.0799
  394TMC3    C8 5948   0.369   2.518   9.955  0.2768  0.6194 -0.6309
  394TMC3    O1 5949   0.554   2.957  10.056 -0.0651 -0.1537  0.0396
  394TMC3    O2 5950   0.448   2.542   9.864 -0.3936  0.0075  0.0918
  395TMC3    C1 5951   4.620   4.314  14.751 -0.3188  0.3058 -0.4940
  395TMC3    C2 5952   4.487   4.302  14.741  0.5658  0.2578  0.4238
  395TMC3    C3 5953   4.430   4.404  14.676 -0.5375 -0.0806  0.3945
  395TMC3    C4 5954   4.695   4.425  14.705 -0.1700  0.0117 -0.4894
  395TMC3    C5 5955   4.628   4.514  14.623  0.0642  0.9063 -0.0916
  395TMC3    C6 5956   4.497   4.504  14.610 -1.0932  0.2476 -0.1399
  395TMC3     C 5957   4.678   4.236  14.858 -0.0285  0.4094  0.4256
  395TMC3     O 5958   4.643   4.117  14.870  0.5387  0.0341 -0.4223
  395TMC3     H 5959   4.427   4.241  14.807 -0.4621  1.0780  0.2348
  395TMC3    H1 5960   0.065   4.432  14.724 -0.1693 -0.4951 -0.3048
  395TMC3    H2 5961   4.447   4.579  14.550 -0.0110  0.2654 -1.0200
  395TMC3    C7 5962   4.697   4.643  14.620 -0.3745  0.2276 -0.3027
  395TMC3    C8 5963   4.290   4.400  14.644  0.5020 -1.2410 -0.0556
  395TMC3    O1 5964   4.671   4.727  14.702 -0.1649  0.5940 -0.7708
  395TMC3    O2 5965   4.243   4.504  14.606 -0.1066 -0.2581  0.4696
  396MPD2     C 5966   4.044   1.650  17.013 -0.3632 -0.4450  0.0896
  396MPD2    C1 5967   4.179   1.671  17.041  1.1165  0.0876 -0.0604
  396MPD2    C2 5968   4.244   1.772  16.972 -0.0220  0.0313  0.2058
  396MPD2    C3 5969   4.188   1.839  16.867  0.4043 -0.6115 -0.0627
  396MPD2    C4 5970   4.054   1.810  16.829 -0.0950  0.2123  0.3825
  396MPD2    C5 5971   3.990   1.713  16.901 -0.0957  0.1666  0.2978
  396MPD2     H 5972   4.347   1.799  16.995 -0.0696  0.9081 -0.6162
  396MPD2    H1 5973   4.002   1.854  16.745 -3.0212 -0.9264  1.6228
  396MPD2    H2 5974   3.979   1.591  17.076  0.7680  0.4619  2.1090
  396MPD2    H3 5975   3.889   1.691  16.871  0.0093 -0.4749  0.3952
  396MPD2     N 5976   4.269   1.926  16.801 -0.0053 -0.9179 -0.4146
  396MPD2    H5 5977   4.364   1.937  16.836  0.0256 -0.9765 -0.4783
  396MPD2    N1 5978   4.237   1.592  17.148 -0.2851 -0.1697  0.4803
  396MPD2    H7 5979   4.169   1.548  17.209 -1.4689 -0.3752 -0.9954
  397TMC3    C1 5980   4.400   1.495  17.279 -0.1472  0.8138 -0.1001
  397TMC3    C2 5981   4.503   1.414  17.234  0.0262 -0.6455  0.2577
  397TMC3    C3 5982   4.487   1.280  17.221  0.2047 -0.0860  0.3250
  397TMC3    C4 5983   4.288   1.430  17.321  0.0473 -0.2477 -0.1641
  397TMC3    C5 5984   4.282   1.294  17.315 -0.3777  0.6400 -0.9736
  397TMC3    C6 5985   4.375   1.211  17.265 -0.1375 -0.0852 -0.4230
  397TMC3     C 5986   4.371   1.594  17.181  0.1902 -0.1276 -0.6129
  397TMC3     O 5987   4.466   1.657  17.130  0.0662  0.0683 -0.5345
  397TMC3     H 5988   4.589   1.464  17.190  0.4819 -1.4229  0.2619
  397TMC3    H1 5989   4.218   1.491  17.376 -1.9696 -1.1456 -1.6999
  397TMC3    H2 5990   4.369   1.104  17.277 -1.8924  0.0398 -0.2438
  397TMC3    C7 5991   4.196   1.242  17.422  0.3435  0.0114  0.2536
  397TMC3    C8 5992   4.532   1.239  17.091 -0.2135 -0.5882  0.8124
  397TMC3    O1 5993   4.186   1.321  17.512  0.0244 -0.3024  0.2856
  397TMC3    O2 5994   4.538   1.331  17.015  0.4092 -0.7438 -0.1852
  398MPD2     C 5995   2.674   3.427   0.323 -0.2555 -0.8330 -0.2215
  398MPD2    C1 5996   2.773   3.367   0.395  0.0709 -0.5291 -0.0319
  398MPD2    C2 5997   2.867   3.449   0.456  0.2858 -0.0556  0.0288
  398MPD2    C3 5998   2.866   3.588   0.438  0.3436  0.0465  0.1664
  398MPD2    C4 5999   2.768   3.651   0.357 -0.6142 -0.5304  0.1160
  398MPD2    C5 6000   2.671   3.568   0.303  0.1016  0.1897  0.3756
  398MPD2     H 6001   2.945   3.397   0.511  0.9667  1.0992  0.1534
  398MPD2    H1 6002   2.757   3.758   0.352  1.6303 -0.3336 -0.7138
  398MPD2    H2 6003   2.586   3.373   0.290 -1.4493  0.4310  0.8948
  398MPD2    H3 6004   2.581   3.611   0.259  0.3740  1.2824  0.8836
  398MPD2     N 6005   2.963   3.671   0.493  0.1643  0.2918 -0.1170
  398MPD2    H5 6006   2.960   3.762   0.450  0.0305  0.6001  0.5474
  398MPD2    N1 6007   2.779   3.222   0.415  0.6657 -0.6362 -0.7745
  398MPD2    H7 6008   2.857   3.188   0.471  1.9680  1.0128 -1.6113
  399TMC3    C1 6009   2.733   2.990   0.374 -0.0123 -1.1538 -0.4970
  399TMC3    C2 6010   2.863   2.956   0.357  0.3272 -0.2428  0.0198
  399TMC3    C3 6011   2.905   2.822   0.356 -0.4078 -1.0948 -0.4589
  399TMC3    C4 6012   2.635   2.899   0.404 -0.7434  0.0981  0.9272
  399TMC3    C5 6013   2.683   2.766   0.411 -0.2422 -0.6054  0.1228
  399TMC3    C6 6014   2.815   2.726   0.390  0.3846  0.5251 -0.2933
  399TMC3     C 6015   2.685   3.130   0.363 -0.5669  0.1037  0.3138
  399TMC3     O 6016   2.575   3.153   0.310  0.5468  0.3947 -0.1053
  399TMC3     H 6017   2.936   3.035   0.344  1.2050 -1.1161 -0.3625
  399TMC3    H1 6018   2.531   2.926   0.422 -1.0101 -0.4431  0.2109
  399TMC3    H2 6019   2.840   2.621   0.390 -3.2196 -0.3262 -0.7898
  399TMC3    C7 6020   2.586   2.656   0.427  0.1215 -0.2948 -0.4857
  399TMC3    C8 6021   3.043   2.793   0.323  0.4549  0.1864 -0.8405
  399TMC3    O1 6022   2.619   2.539   0.446 -0.2062  0.2165  0.0554
  399TMC3    O2 6023   3.106   2.891   0.289  0.3227  0.2110 -0.3672
  400TMC3    C1 6024   1.419   0.994  16.830 -0.0329 -0.5601 -0.1771
  400TMC3    C2 6025   1.337   0.935  16.737  0.3281  1.5835 -0.0954
  400TMC3    C3 6026   1.232   1.008  16.691 -0.2185  0.2442  0.0992
  400TMC3    C4 6027   1.415   1.122  16.857 -0.3419 -0.2786  0.1530
  400TMC3    C5 6028   1.300   1.196  16.814  0.0648 -0.0987  0.4129
  400TMC3    C6 6029   1.208   1.138  16.731 -0.4871 -0.8788 -0.7924
  400TMC3     C 6030   1.491   0.903  16.922  0.2339 -0.8107 -0.1374
  400TMC3     O 6031   1.527   0.799  16.870 -0.4574 -0.4076  0.0926
  400TMC3     H 6032   1.337   0.830  16.709 -0.3633  1.9737 -1.5359
  400TMC3    H1 6033   1.480   1.176  16.924 -1.8611  1.1396  0.4649
  400TMC3    H2 6034   1.127   1.192  16.683 -0.3332 -0.5645 -0.6923
  400TMC3    C7 6035   1.269   1.314  16.888 -0.8738  0.1786  0.5364
  400TMC3    C8 6036   1.107   0.945  16.650 -0.3302 -0.1312  0.0995
  400TMC3    O1 6037   1.367   1.372  16.932 -0.7609  0.5498  0.0361
  400TMC3    O2 6038   1.008   1.002  16.696 -0.4256 -0.0726 -0.0176
  401MPD2     C 6039   4.070   0.132   1.109 -0.8424  0.0366 -0.5890
  401MPD2    C1 6040   4.138   0.033   1.186 -0.2378 -0.3385  0.1794
  401MPD2    C2 6041   4.085   4.641   1.181 -0.2908 -0.4706  0.0278
  401MPD2    C3 6042   3.966   4.613   1.120 -0.6176  0.3227  0.3317
  401MPD2    C4 6043   3.890   4.715   1.057  0.5794 -0.4721 -0.0393
  401MPD2    C5 6044   3.953   0.100   1.052  0.6504 -0.4202 -0.2217
  401MPD2     H 6045   4.123   4.563   1.246  0.5855  0.2247  0.3623
  401MPD2    H1 6046   3.792   4.695   1.014  0.6302 -0.3750 -0.1985
  401MPD2    H2 6047   4.107   0.233   1.092 -2.4912  0.8977  0.8038
  401MPD2    H3 6048   3.896   0.176   0.999  0.2806 -0.9768 -0.6207
  401MPD2     N 6049   3.924   4.481   1.136 -0.4099 -0.4654  0.0625
  401MPD2    H5 6050   3.984   4.421   1.191 -1.8239 -1.0128  1.0150
  401MPD2    N1 6051   4.254   0.062   1.261 -0.0478 -0.3798  0.3156
  401MPD2    H7 6052   4.304   4.724   1.309  0.8817  1.1521  1.6985
  402TMC3    C1 6053   3.852   4.272   1.072 -0.5298 -0.4553 -0.2827
  402TMC3    C2 6054   3.891   4.232   1.196 -0.1077  0.1399 -0.7251
  402TMC3    C3 6055   3.998   4.146   1.213 -0.1768 -0.4117 -0.1743
  402TMC3    C4 6056   3.906   4.213   0.962  0.1895 -0.3034 -0.0819
  402TMC3    C5 6057   4.022   4.140   0.987 -0.0749  0.7711 -1.0018
  402TMC3    C6 6058   4.065   4.096   1.108 -0.3580  0.0946 -0.7163
  402TMC3     C 6059   3.842   4.416   1.042  0.4128 -0.1386 -0.4001
  402TMC3     O 6060   3.797   4.467   0.941  0.3387  0.0634 -0.2431
  402TMC3     H 6061   3.837   4.282   1.276  1.6687  0.4721  0.2639
  402TMC3    H1 6062   3.899   4.271   0.871 -2.1237 -0.9948 -0.3381
  402TMC3    H2 6063   4.138   4.016   1.112 -0.0803  0.3730 -0.2189
  402TMC3    C7 6064   4.099   4.114   0.869 -0.6580 -0.3648  0.8653
  402TMC3    C8 6065   4.070   4.158   1.337  0.3988  0.2014 -0.1239
  402TMC3    O1 6066   4.058   4.163   0.767 -0.2071 -0.5738  0.2096
  402TMC3    O2 6067   4.001   4.215   1.421  0.5487  0.7512  0.8794
  403MPD2     C 6068   2.532   2.205  13.216 -0.0947  0.2245 -0.7567
  403MPD2    C1 6069   2.472   2.159  13.331  0.1164  0.1197  0.6128
  403MPD2    C2 6070   2.533   2.183  13.450 -0.5550 -0.3689 -0.5482
  403MPD2    C3 6071   2.656   2.252  13.451  0.1859 -0.5010 -0.2311
  403MPD2    C4 6072   2.722   2.294  13.335 -0.1193 -0.2733  0.8809
  403MPD2    C5 6073   2.651   2.271  13.222  0.0287 -0.3169 -0.0121
  403MPD2     H 6074   2.484   2.156  13.543  1.0193 -0.4526  0.2579
  403MPD2    H1 6075   2.817   2.345  13.324 -0.5940  0.3007 -0.6424
  403MPD2    H2 6076   2.490   2.193  13.117 -0.2783 -0.0130 -0.6509
  403MPD2    H3 6077   2.690   2.323  13.135 -1.0335 -1.6864 -1.2996
  403MPD2     N 6078   2.726   2.250  13.578  0.1533  0.0366 -0.2133
  403MPD2    H5 6079   2.678   2.218  13.661 -0.1202 -1.6079 -1.0061
  403MPD2    N1 6080   2.351   2.086  13.312  0.0580 -0.5409 -0.4491
  403MPD2    H7 6081   2.335   2.050  13.218  0.2046 -0.0288 -0.6724
  404TMC3    C1 6082   2.169   1.956  13.374 -0.3296 -0.0429 -0.3844
  404TMC3    C2 6083   2.135   1.874  13.482  0.0367  0.5183  0.1739
  404TMC3    C3 6084   2.092   1.748  13.472  0.4787 -0.5176 -0.9935
  404TMC3    C4 6085   2.150   1.907  13.251  0.8018 -0.0644  0.4680
  404TMC3    C5 6086   2.125   1.773  13.241  0.1049 -0.3087 -0.1523
  404TMC3    C6 6087   2.077   1.697  13.345 -0.2042  0.2023  0.3144
  404TMC3     C 6088   2.263   2.060  13.413 -0.6406 -0.0132 -0.1479
  404TMC3     O 6089   2.267   2.101  13.529 -0.2078  0.1641  0.2621
  404TMC3     H 6090   2.156   1.915  13.580  1.1457 -0.9832  0.5585
  404TMC3    H1 6091   2.181   1.962  13.163 -0.3888 -0.4025 -0.1625
  404TMC3    H2 6092   2.056   1.592  13.330  3.0623 -0.2191 -1.3156
  404TMC3    C7 6093   2.141   1.703  13.107  0.1883  0.0279  0.0313
  404TMC3    C8 6094   2.166   1.649  13.554 -0.1029  0.2920 -0.1276
  404TMC3    O1 6095   2.184   1.587  13.107 -0.3005 -1.0585 -0.5071
  404TMC3    O2 6096   2.209   1.547  13.502 -0.1530 -0.7110  0.6281
  405MPD2     C 6097   3.062   2.847  15.334 -0.0702 -0.6583  0.0233
  405MPD2    C1 6098   2.970   2.805  15.244 -0.7466 -0.4122 -0.9781
  405MPD2    C2 6099   2.915   2.895  15.153  0.2158  0.6263  0.8972
  405MPD2    C3 6100   2.950   3.030  15.153  0.6052 -0.4705  0.3301
  405MPD2    C4 6101   3.043   3.068  15.240 -0.7106  0.2443 -0.6399
  405MPD2    C5 6102   3.101   2.976  15.326  0.0614  0.7482  0.0962
  405MPD2     H 6103   2.845   2.858  15.079  1.3544 -1.1286  0.7131
  405MPD2    H1 6104   3.062   3.173  15.258  0.0674 -0.3300  1.7800
  405MPD2    H2 6105   3.099   2.778  15.409 -0.2966 -0.5608  0.2242
  405MPD2    H3 6106   3.166   3.009  15.406 -0.5474  3.3633 -0.4992
  405MPD2     N 6107   2.893   3.118  15.052  0.4926  0.5234 -0.1923
  405MPD2    H5 6108   2.841   3.078  14.975  0.3134  0.8270 -0.2331
  405MPD2    N1 6109   2.930   2.663  15.248  0.1602  0.6989 -0.5121
  405MPD2    H7 6110   2.973   2.612  15.325 -2.7661  2.6570  2.4101
  406TMC3    C1 6111   2.762   3.286  14.704 -0.4303 -0.5827  0.5873
  406TMC3    C2 6112   2.633   3.250  14.734 -0.3295  0.6195  0.1788
  406TMC3    C3 6113   2.597   3.242  14.863 -0.7007  0.1431 -0.7935
  406TMC3    C4 6114   2.853   3.296  14.806  0.4470 -0.0022  0.4171
  406TMC3    C5 6115   2.816   3.289  14.936 -0.6023  0.1106 -0.0718
  406TMC3    C6 6116   2.683   3.252  14.970 -0.1787 -0.4826 -0.0266
  406TMC3     C 6117   2.815   3.270  14.575 -0.5667 -0.1021 -0.2459
  406TMC3     O 6118   2.931   3.259  14.553 -0.0581  0.4095  0.4429
  406TMC3     H 6119   2.566   3.191  14.672  0.4459  1.0950 -1.1092
  406TMC3    H1 6120   2.954   3.323  14.780  0.5348  0.1104  0.8670
  406TMC3    H2 6121   2.643   3.225  15.067 -2.7525 -0.0195 -0.9663
  406TMC3    C7 6122   2.912   3.254  15.030  0.0450 -0.8739  0.1261
  406TMC3    C8 6123   2.485   3.151  14.883 -0.2667 -0.2987  0.4431
  406TMC3    O1 6124   3.000   3.322  15.078  0.2198  0.0514  0.2920
  406TMC3    O2 6125   2.377   3.202  14.860 -0.3312 -0.0327  0.0799
  407MPD2     C 6126   0.861   3.915   9.390  0.6355  0.6486  0.2838
  407MPD2    C1 6127   0.907   3.991   9.499 -0.6097  0.4582  0.9418
  407MPD2    C2 6128   0.820   4.026   9.599 -1.4451 -0.0470 -0.1248
  407MPD2    C3 6129   0.690   3.977   9.614  0.7805  1.3245 -0.2046
  407MPD2    C4 6130   0.649   3.903   9.504 -0.0296 -0.0279 -0.3522
  407MPD2    C5 6131   0.731   3.875   9.397 -0.5020  0.4027  0.3360
  407MPD2     H 6132   0.845   4.092   9.682 -2.4767 -0.3232  0.4084
  407MPD2    H1 6133   0.543   3.881   9.507 -0.0359 -0.0035 -0.4090
  407MPD2    H2 6134   0.934   3.889   9.314  1.1953 -0.4726  1.2048
  407MPD2    H3 6135   0.690   3.819   9.314 -0.3229  0.9903 -0.1418
  407MPD2     N 6136   0.594   4.011   9.711  0.0718  0.3149 -0.3420
  407MPD2    H5 6137   0.499   3.997   9.678  0.1357 -1.9263  0.4020
  407MPD2    N1 6138   1.040   4.042   9.515  0.7783 -0.4272  0.2054
  407MPD2    H7 6139   1.056   4.090   9.603 -0.0668 -1.8177  1.1184
  408TMC3    C1 6140   1.250   4.123   9.463 -0.0740  0.0860 -0.7178
  408TMC3    C2 6141   1.381   4.087   9.448 -0.6415 -0.6261  0.8903
  408TMC3    C3 6142   1.483   4.174   9.473 -0.4667 -0.4791  0.2818
  408TMC3    C4 6143   1.222   4.245   9.514 -0.2224 -0.1446  0.3915
  408TMC3    C5 6144   1.327   4.331   9.548 -0.0251 -0.8292 -0.3801
  408TMC3    C6 6145   1.456   4.294   9.528 -0.0545 -0.2702  0.4269
  408TMC3     C 6146   1.144   4.039   9.429 -0.2981  0.2486  0.2421
  408TMC3     O 6147   1.151   3.974   9.326 -0.0150  0.3331  0.1229
  408TMC3     H 6148   1.398   3.986   9.411 -0.4777 -0.7584  1.3239
  408TMC3    H1 6149   1.119   4.274   9.533 -0.1406  1.5243 -1.7432
  408TMC3    H2 6150   1.536   4.366   9.543  0.0971 -0.2985 -0.2241
  408TMC3    C7 6151   1.294   4.468   9.594 -0.0464  0.5291  0.1396
  408TMC3    C8 6152   1.614   4.122   9.442  0.0427  0.7583  0.4283
  408TMC3    O1 6153   1.383   4.525   9.662  0.3426  0.8701  0.1118
  408TMC3    O2 6154   1.614   4.007   9.392  0.3987 -0.5897  0.1351
  409MPD2     C 6155   4.601   0.549  16.551 -0.2298  0.2516 -0.0253
  409MPD2    C1 6156   4.697   0.533  16.648 -0.1538 -0.5036  0.0150
  409MPD2    C2 6157   0.059   0.626  16.659  0.9510  1.0005  0.4651
  409MPD2    C3 6158   0.067   0.733  16.574  0.2211  0.2414 -0.5488
  409MPD2    C4 6159   4.719   0.737  16.464  0.0678  0.3264  0.4342
  409MPD2    C5 6160   4.613   0.648  16.453 -0.1871  0.4470  0.5649
  409MPD2     H 6161   0.126   0.617  16.743 -1.4900 -2.8084  1.9962
  409MPD2    H1 6162   4.726   0.821  16.395  0.1291  0.8182  1.0447
  409MPD2    H2 6163   4.523   0.476  16.531  0.2170  0.1044 -1.2341
  409MPD2    H3 6164   4.544   0.653  16.370 -0.4914  3.9878  1.0276
  409MPD2     N 6165   0.154   0.843  16.599  0.6977 -0.5339  0.8443
  409MPD2    H5 6166   0.155   0.914  16.526  0.5715  0.5838  1.9226
  409MPD2    N1 6167   4.689   0.438  16.742  0.4016 -0.3998 -0.3449
  409MPD2    H7 6168   0.042   0.422  16.787  0.5808 -0.8513 -0.8598
  410TMC3    C1 6169   0.310   0.967  16.710 -0.1268 -0.5322 -0.0879
  410TMC3    C2 6170   0.425   0.967  16.789 -0.0270  0.1373  0.0228
  410TMC3    C3 6171   0.495   1.088  16.789  0.2868 -0.0243  0.0497
  410TMC3    C4 6172   0.263   1.078  16.643 -0.4835  0.2568 -0.3497
  410TMC3    C5 6173   0.329   1.194  16.649 -0.1477 -0.0525 -0.6550
  410TMC3    C6 6174   0.445   1.200  16.723 -0.5821 -0.7920 -0.4402
  410TMC3     C 6175   0.228   0.853  16.717 -0.1813 -0.1105 -0.2371
  410TMC3     O 6176   0.252   0.780  16.811 -0.4178  0.1173 -0.4979
  410TMC3     H 6177   0.450   0.881  16.851 -0.8438 -0.6124 -0.6921
  410TMC3    H1 6178   0.169   1.085  16.590  0.8545  0.1346 -2.7445
  410TMC3    H2 6179   0.519   1.278  16.712 -2.0335  0.5487 -0.6626
  410TMC3    C7 6180   0.326   1.275  16.526 -1.6325  0.3278 -1.0004
  410TMC3    C8 6181   0.599   1.110  16.889  0.0501 -0.3065  0.8400
  410TMC3    O1 6182   0.289   1.216  16.428 -0.5505 -0.3060 -0.4431
  410TMC3    O2 6183   0.606   1.222  16.939  0.2641  0.3002  0.0802
  411MPD2     C 6184   0.267   0.653  14.194 -0.7799  0.8156  0.1709
  411MPD2    C1 6185   0.167   0.715  14.278 -0.1751 -0.2877 -0.5538
  411MPD2    C2 6186   0.103   0.650  14.383  0.2070 -0.3651  0.6429
  411MPD2    C3 6187   0.116   0.511  14.392  0.5757 -0.3458  1.3211
  411MPD2    C4 6188   0.203   0.450  14.299 -0.1193  0.1951 -0.1377
  411MPD2    C5 6189   0.287   0.519  14.219  0.0616  0.2967  0.3696
  411MPD2     H 6190   0.032   0.711  14.437 -1.6368 -3.6493  1.9668
  411MPD2    H1 6191   0.224   0.344  14.313 -1.0384  0.0680  0.2536
  411MPD2    H2 6192   0.325   0.706  14.120 -1.0768 -0.6312 -1.0945
  411MPD2    H3 6193   0.371   0.464  14.179  0.4340  0.4030  1.0041
  411MPD2     N 6194   0.043   0.425  14.485 -0.0627 -0.1192 -0.0873
  411MPD2    H5 6195   0.034   0.328  14.454 -1.8006  0.6576 -2.0212
  411MPD2    N1 6196   0.140   0.852  14.263 -0.0905 -0.5535 -0.8165
  411MPD2    H7 6197   0.086   0.901  14.334  3.6945  0.6452  1.2561
  412TMC3    C1 6198   4.609   0.378  14.634  0.2697  0.2619 -0.2641
  412TMC3    C2 6199   4.505   0.445  14.697  0.4123  0.0014  0.6134
  412TMC3    C3 6200   4.374   0.414  14.677 -0.1154 -0.2412 -0.1106
  412TMC3    C4 6201   4.588   0.269  14.547 -0.3492  0.6850 -0.0310
  412TMC3    C5 6202   4.455   0.243  14.531 -0.4981 -0.1340  0.2743
  412TMC3    C6 6203   4.345   0.300  14.601  0.0682  0.3178 -0.1453
  412TMC3     C 6204   4.707   0.475  14.591 -0.2691 -0.5602  0.1135
  412TMC3     O 6205   4.715   0.579  14.651  0.6026 -0.1760 -0.2060
  412TMC3     H 6206   4.545   0.521  14.765  1.1775 -0.1734  0.3603
  412TMC3    H1 6207   4.669   0.210  14.507 -0.4096 -1.6114  3.1935
  412TMC3    H2 6208   4.246   0.272  14.566 -0.4222  1.6148  0.2216
  412TMC3    C7 6209   4.422   0.126  14.451  0.2890  0.5383 -0.5188
  412TMC3    C8 6210   4.294   0.531  14.662  0.2746  0.1053 -0.5252
  412TMC3    O1 6211   4.309   0.080  14.462  0.1231 -0.6390 -0.3704
  412TMC3    O2 6212   4.349   0.638  14.684 -0.0731 -0.0478 -0.6382
  413MPD2     C 6213   2.120   4.284  15.424 -0.5971 -0.5621  0.2823
  413MPD2    C1 6214   2.074   4.209  15.320 -0.4846  0.2211  1.2331
  413MPD2    C2 6215   2.157   4.106  15.271 -0.4092 -0.1674  0.7440
  413MPD2    C3 6216   2.274   4.068  15.336  0.5069 -0.5551  0.2855
  413MPD2    C4 6217   2.318   4.148  15.447 -0.2730  0.0605  0.1370
  413MPD2    C5 6218   2.242   4.254  15.481 -0.4581 -0.0055 -0.4331
  413MPD2     H 6219   2.117   4.046  15.190 -0.2336 -0.7554  1.0904
  413MPD2    H1 6220   2.415   4.126  15.491 -0.4712  0.1742  0.6267
  413MPD2    H2 6221   2.065   4.374  15.451  0.5454  0.0800  0.4893
  413MPD2    H3 6222   2.277   4.329  15.551 -2.1019 -0.8820  1.3440
  413MPD2     N 6223   2.351   3.969  15.269 -0.6455  0.4512 -0.3471
  413MPD2    H5 6224   2.324   3.918  15.186  0.5460 -0.8942  0.0794
  413MPD2    N1 6225   1.944   4.234  15.266  0.2003 -0.0827 -0.4649
  413MPD2    H7 6226   1.890   4.304  15.316 -3.3392 -1.2128 -2.7129
  414TMC3    C1 6227   2.515   3.820  15.227  0.0104  0.3988  0.7537
  414TMC3    C2 6228   2.539   3.696  15.282  0.1632 -0.5728 -1.0815
  414TMC3    C3 6229   2.539   3.594  15.188  0.1393  0.9117  0.3460
  414TMC3    C4 6230   2.506   3.840  15.092 -0.4703  0.4479 -0.2642
  414TMC3    C5 6231   2.519   3.739  15.002 -0.2926  0.2700  0.0267
  414TMC3    C6 6232   2.532   3.614  15.052  0.2043 -0.2470 -0.0958
  414TMC3     C 6233   2.475   3.928  15.313 -0.0569 -0.1870 -0.4694
  414TMC3     O 6234   2.520   3.936  15.427 -0.3011 -0.3004 -0.4028
  414TMC3     H 6235   2.545   3.701  15.390  1.2462 -0.3047 -1.1483
  414TMC3    H1 6236   2.499   3.941  15.051 -0.6101  0.8243  0.6909
  414TMC3    H2 6237   2.547   3.530  14.986  2.0102 -0.9013  1.1513
  414TMC3    C7 6238   2.608   3.771  14.892 -0.4132  0.1708  0.1769
  414TMC3    C8 6239   2.573   3.450  15.227  0.1714 -0.1201  0.1067
  414TMC3    O1 6240   2.674   3.873  14.904 -0.1742 -0.2353  1.1145
  414TMC3    O2 6241   2.514   3.359  15.171 -0.3257  0.1867  0.6844
  415TMC3    C1 6242   2.796   1.213  10.184  0.2166  0.5259 -0.1533
  415TMC3    C2 6243   2.756   1.318  10.107 -0.3332  0.0306 -0.0039
  415TMC3    C3 6244   2.631   1.303  10.045  0.5473  0.1480  0.6633
  415TMC3    C4 6245   2.726   1.098  10.207  0.2328  0.2226 -0.0445
  415TMC3    C5 6246   2.612   1.085  10.124  0.0257 -0.2271 -0.3823
  415TMC3    C6 6247   2.562   1.184  10.045 -0.2562 -0.9036  0.0026
  415TMC3     C 6248   2.906   1.235  10.282  1.0620 -0.6550  0.3698
  415TMC3     O 6249   2.904   1.162  10.380 -0.3444  0.5340 -0.1843
  415TMC3     H 6250   2.806   1.414  10.097 -1.1719  0.6678  1.9730
  415TMC3    H1 6251   2.764   1.021  10.272 -1.1009 -0.3957  0.0056
  415TMC3    H2 6252   2.462   1.189  10.004 -0.1335 -0.4705 -0.2429
  415TMC3    C7 6253   2.510   1.002  10.178  0.3977 -0.0397 -0.2162
  415TMC3    C8 6254   2.564   1.410   9.978 -0.2790 -0.2399  0.0726
  415TMC3    O1 6255   2.436   0.955  10.093  0.1490 -0.5145 -0.0574
  415TMC3    O2 6256   2.484   1.377   9.895 -0.2798  0.0334 -0.9345
  416MPD2     C 6257   4.545   0.413  12.031  0.4971  0.2341 -0.1186
  416MPD2    C1 6258   4.510   0.462  11.912  0.0284  0.3360  0.2739
  416MPD2    C2 6259   4.571   0.412  11.803 -0.4658  0.0312 -0.0378
  416MPD2    C3 6260   4.661   0.304  11.815 -0.0861 -0.0055  0.2363
  416MPD2    C4 6261   4.705   0.260  11.935  0.1581  0.0107  0.6567
  416MPD2    C5 6262   4.645   0.319  12.043  0.1504  0.4058 -0.4483
  416MPD2     H 6263   4.554   0.454  11.705  3.7554  1.8779  0.0092
  416MPD2    H1 6264   0.050   0.190  11.945 -0.1913 -0.6469 -1.0591
  416MPD2    H2 6265   4.498   0.459  12.118  0.4157  2.5737 -1.4030
  416MPD2    H3 6266   4.662   0.281  12.143 -0.9583  1.6839  0.2322
  416MPD2     N 6267   4.698   0.230  11.701 -0.0682 -0.0959 -0.4085
  416MPD2    H5 6268   0.021   0.150  11.719  0.8072  0.2939 -1.4930
  416MPD2    N1 6269   4.414   0.567  11.905 -0.3402 -0.0172  0.3370
  416MPD2    H7 6270   4.392   0.597  12.000  1.1726 -0.6126  0.8782
  417TMC3    C1 6271   4.318   0.768  11.841 -0.0657  0.1162  0.1303
  417TMC3    C2 6272   4.335   0.820  11.969 -0.4157 -0.2874 -0.1126
  417TMC3    C3 6273   4.239   0.918  12.009 -0.0130  0.3626  0.3250
  417TMC3    C4 6274   4.235   0.840  11.750  0.0126 -0.2798  0.3446
  417TMC3    C5 6275   4.161   0.944  11.794 -0.0093 -0.5361 -0.3976
  417TMC3    C6 6276   4.164   0.987  11.925 -0.5327  0.7885  0.8023
  417TMC3     C 6277   4.385   0.648  11.799 -0.2632 -0.4763  0.0284
  417TMC3     O 6278   4.374   0.618  11.678  0.1999 -0.1255 -0.4794
  417TMC3     H 6279   4.406   0.772  12.035  1.0649  1.2738 -0.5725
  417TMC3    H1 6280   4.208   0.802  11.652 -1.6991  1.2846  0.2117
  417TMC3    H2 6281   4.110   1.075  11.960 -0.5806  1.6096 -1.3041
  417TMC3    C7 6282   4.053   0.994  11.710  0.6189 -0.3364 -0.5227
  417TMC3    C8 6283   4.218   0.949  12.144 -0.1995  0.0612 -0.5318
  417TMC3    O1 6284   4.083   1.016  11.593  0.7014 -0.1896  0.3962
  417TMC3    O2 6285   4.121   1.010  12.180  0.5366  0.1974  0.0098
  418TMC3    C1 6286   3.326   3.842   0.516  0.0265 -0.8030 -0.3653
  418TMC3    C2 6287   3.197   3.808   0.516  0.1385  0.4060 -0.1511
  418TMC3    C3 6288   3.147   3.747   0.629  0.0977  0.5858  0.2662
  418TMC3    C4 6289   3.409   3.815   0.615  0.5448  0.3390  0.4196
  418TMC3    C5 6290   3.356   3.762   0.732  0.1227 -0.2687 -0.4529
  418TMC3    C6 6291   3.226   3.722   0.735 -0.0817 -0.1587  0.0658
  418TMC3     C 6292   3.382   3.867   0.382  0.3445  0.0799 -0.2830
  418TMC3     O 6293   3.308   3.932   0.304 -0.5280  0.0875 -0.3990
  418TMC3     H 6294   3.143   3.816   0.422  0.0892  2.3977  0.0559
  418TMC3    H1 6295   3.510   3.855   0.614  1.0636 -0.9105  1.8734
  418TMC3    H2 6296   3.192   3.667   0.821 -1.1428  0.1761 -0.1301
  418TMC3    C7 6297   3.445   3.652   0.766 -0.2557  0.4237 -0.2012
  418TMC3    C8 6298   3.048   3.639   0.607  0.1811 -0.6790 -1.3455
  418TMC3    O1 6299   3.482   3.583   0.675  0.3258 -0.3497  0.5134
  418TMC3    O2 6300   3.052   3.535   0.672  0.0482 -0.2786  0.2862
  419MPD2     C 6301   1.947   0.735  12.594 -0.0667 -0.1267 -0.0756
  419MPD2    C1 6302   1.807   0.748  12.596  0.2811 -0.3863 -0.1137
  419MPD2    C2 6303   1.747   0.768  12.722  0.5309 -0.6826  0.0997
  419MPD2    C3 6304   1.819   0.777  12.839 -0.5453  0.1810 -0.3404
  419MPD2    C4 6305   1.951   0.742  12.832 -0.1516 -0.1295  1.1298
  419MPD2    C5 6306   2.015   0.730  12.714  0.1027  0.3149 -0.1032
  419MPD2     H 6307   1.639   0.778  12.726  0.9921  4.2998 -0.2872
  419MPD2    H1 6308   2.018   0.743  12.918  0.2542 -0.6741  0.8218
  419MPD2    H2 6309   2.002   0.719  12.502 -0.0148 -2.3410  0.3303
  419MPD2    H3 6310   2.120   0.701  12.709  0.0744  0.0588  0.7405
  419MPD2     N 6311   1.757   0.823  12.963  0.4453  0.2080  0.0093
  419MPD2    H5 6312   1.673   0.875  12.941 -1.9772 -3.1539  1.3378
  419MPD2    N1 6313   1.728   0.758  12.477 -0.3990  0.6472 -0.2561
  419MPD2    H7 6314   1.628   0.751  12.491 -0.2711  2.2675  1.4348
  420TMC3    C1 6315   1.732   0.876  13.189 -0.4081 -0.0129  0.2657
  420TMC3    C2 6316   1.670   0.995  13.162 -0.1476 -0.3619  0.3285
  420TMC3    C3 6317   1.583   1.043  13.250  0.3879 -0.1903  0.3271
  420TMC3    C4 6318   1.719   0.823  13.314  0.8515  0.8351 -0.2672
  420TMC3    C5 6319   1.622   0.869  13.399  0.0591 -0.4094  0.2114
  420TMC3    C6 6320   1.554   0.977  13.369 -1.0658 -0.0460  0.6229
  420TMC3     C 6321   1.802   0.804  13.089 -0.4971 -0.3170  0.0351
  420TMC3     O 6322   1.880   0.713  13.123  0.4657 -0.2915  0.1235
  420TMC3     H 6323   1.679   1.043  13.065 -1.3201  0.6430  0.7231
  420TMC3    H1 6324   1.769   0.728  13.329 -0.5161  0.3852  1.4765
  420TMC3    H2 6325   1.473   1.026  13.421 -0.8755  1.7060 -0.7276
  420TMC3    C7 6326   1.577   0.783  13.497 -0.3457  0.4290 -0.3950
  420TMC3    C8 6327   1.522   1.173  13.224  0.6830 -0.0708  0.5048
  420TMC3    O1 6328   1.631   0.677  13.494  0.3980 -0.3090 -0.1515
  420TMC3    O2 6329   1.408   1.193  13.268 -0.0811 -0.2591 -0.2620
  421TMC3    C1 6330   2.909   2.236  13.717  0.8087 -0.2899 -0.2821
  421TMC3    C2 6331   2.817   2.242  13.821  0.3786  0.1886 -0.3729
  421TMC3    C3 6332   2.838   2.164  13.929  0.3665 -0.2089  0.3347
  421TMC3    C4 6333   3.009   2.144  13.720  0.3949  0.1966  0.0719
  421TMC3    C5 6334   3.026   2.066  13.835 -0.4114 -0.0031 -0.0297
  421TMC3    C6 6335   2.939   2.069  13.942 -0.3428  0.6784  0.3587
  421TMC3     C 6336   2.860   2.274  13.589 -1.0407 -0.5171  0.1781
  421TMC3     O 6337   2.943   2.299  13.504 -0.0301  0.3570  0.3651
  421TMC3     H 6338   2.747   2.324  13.831 -0.9179 -0.8413 -0.9357
  421TMC3    H1 6339   3.080   2.130  13.639  1.0564  0.7377  0.5588
  421TMC3    H2 6340   2.970   2.022  14.034  0.9807  2.5177  0.8502
  421TMC3    C7 6341   3.143   1.980  13.845  0.2222 -0.3193  0.3377
  421TMC3    C8 6342   2.768   2.195  14.049 -0.8290 -0.3060  0.5286
  421TMC3    O1 6343   3.255   2.018  13.805  0.5285  0.1641  0.1217
  421TMC3    O2 6344   2.806   2.145  14.154  0.0138  0.7862 -0.5053
  422TMC3    C1 6345   0.659   3.455  12.508  0.6981 -0.2076 -0.2201
  422TMC3    C2 6346   0.664   3.556  12.603  0.7526 -0.2955  0.5049
  422TMC3    C3 6347   0.570   3.536  12.696 -0.4251  0.1250 -0.4816
  422TMC3    C4 6348   0.573   3.350  12.495 -0.3998 -0.9340 -0.6441
  422TMC3    C5 6349   0.476   3.347  12.594  0.4165  0.1997  0.2676
  422TMC3    C6 6350   0.476   3.436  12.702  0.3548 -0.0792 -0.2934
  422TMC3     C 6351   0.762   3.483  12.410  0.1794 -0.1074 -0.9745
  422TMC3     O 6352   0.820   3.593  12.413  0.3651  0.3500  0.0431
  422TMC3     H 6353   0.734   3.639  12.607  1.1711 -0.6328  0.1626
  422TMC3    H1 6354   0.565   3.285  12.408  1.6077 -3.9903  1.4623
  422TMC3    H2 6355   0.423   3.416  12.794 -0.3600  1.8590 -0.2891
  422TMC3    C7 6356   0.395   3.232  12.597  0.2999 -0.4623  0.7864
  422TMC3    C8 6357   0.540   3.663  12.755 -0.5738 -0.6210 -1.1582
  422TMC3    O1 6358   0.416   3.126  12.532 -0.0850  0.4026 -0.9626
  422TMC3    O2 6359   0.628   3.750  12.756 -0.3737  0.1696 -0.2512
  423MPD2     C 6360   1.969   0.714   0.433  0.2686  0.3723 -0.2681
  423MPD2    C1 6361   2.040   0.609   0.490 -0.3976  0.0195  0.1651
  423MPD2    C2 6362   2.062   0.494   0.406  0.3938 -0.1864  0.7760
  423MPD2    C3 6363   1.997   0.477   0.282 -0.3757 -0.8837  0.0396
  423MPD2    C4 6364   1.920   0.579   0.239 -0.0523  0.4303  0.2536
  423MPD2    C5 6365   1.902   0.696   0.312  0.4042 -0.5619  0.0570
  423MPD2     H 6366   2.129   0.423   0.454 -0.6272 -2.5261 -1.2614
  423MPD2    H1 6367   1.861   0.576   0.148  1.1644 -1.4405 -0.4672
  423MPD2    H2 6368   1.949   0.804   0.491  0.4310  0.7402 -0.7791
  423MPD2    H3 6369   1.837   0.769   0.266  1.4881  0.9565  0.9274
  423MPD2     N 6370   2.019   0.360   0.200 -0.2264  0.1472 -0.2709
  423MPD2    H5 6371   1.989   0.374   0.104 -3.5840  0.7610  0.8675
  423MPD2    N1 6372   2.093   0.614   0.620 -0.4499 -0.1365 -0.3466
  423MPD2    H7 6373   2.155   0.537   0.641  0.6702  0.2583 -2.2729
  424TMC3    C1 6374   2.098   0.661   0.845 -0.1856 -0.8860  0.3389
  424TMC3    C2 6375   2.222   0.603   0.852 -0.2720  0.3438  0.0328
  424TMC3    C3 6376   2.291   0.609   0.970 -0.7928  0.3432  0.6829
  424TMC3    C4 6377   2.042   0.721   0.954 -0.7395 -0.3441  0.7787
  424TMC3    C5 6378   2.111   0.711   1.074 -0.4513  0.2435 -0.0063
  424TMC3    C6 6379   2.232   0.654   1.079  0.3037 -0.2696  0.4730
  424TMC3     C 6380   2.037   0.690   0.717 -0.4870  1.0081  0.1269
  424TMC3     O 6381   1.923   0.733   0.718 -0.5484 -0.1551 -0.1121
  424TMC3     H 6382   2.253   0.542   0.768  0.1414  0.8741 -0.2080
  424TMC3    H1 6383   1.947   0.773   0.944  0.3348  1.1624 -1.4214
  424TMC3    H2 6384   2.281   0.653   1.176  0.7819 -1.0417  0.2221
  424TMC3    C7 6385   2.053   0.742   1.202  0.0615  0.1214 -0.1105
  424TMC3    C8 6386   2.392   0.512   0.983 -0.4356 -0.2597 -0.0892
  424TMC3    O1 6387   2.122   0.760   1.303  0.0978  0.2175 -0.2808
  424TMC3    O2 6388   2.382   0.439   1.078 -0.0840 -0.0211 -0.0921
  425MPD2     C 6389   1.264   4.105  17.394 -0.5645  0.1075 -0.5709
  425MPD2    C1 6390   1.172   4.025  17.339  0.8689 -0.0228  0.4095
  425MPD2    C2 6391   1.047   4.071  17.307  1.4517  0.3636 -0.8858
  425MPD2    C3 6392   1.017   4.205  17.335  0.4521 -0.0081  0.0628
  425MPD2    C4 6393   1.108   4.284  17.401  0.1738  0.2482  0.3452
  425MPD2    C5 6394   1.234   4.237  17.433  0.7026  0.0562 -0.0508
  425MPD2     H 6395   0.975   4.021  17.243  0.2711 -1.1185  1.5704
  425MPD2    H1 6396   1.085   4.384  17.435 -1.3320  0.0529 -0.0801
  425MPD2    H2 6397   1.363   4.067  17.420 -0.2202  0.6373 -1.0935
  425MPD2    H3 6398   1.304   4.300  17.487  0.2276  0.2721  0.3174
  425MPD2     N 6399   0.891   4.252  17.305  0.0912 -0.4054 -0.2363
  425MPD2    H5 6400   0.835   4.180  17.260 -2.0261  1.8733 -1.2546
  425MPD2    N1 6401   1.210   3.893  17.322 -0.5210 -0.2560  0.3884
  425MPD2    H7 6402   1.307   3.866  17.336 -0.1821 -0.5933 -2.6673
  426TMC3    C1 6403   1.185   3.659  17.272 -0.2529  0.5088 -0.1867
  426TMC3    C2 6404   1.284   3.660  17.178  0.4950  0.2368 -0.3679
  426TMC3    C3 6405   1.286   3.570  17.082 -0.2501 -0.0769  0.2410
  426TMC3    C4 6406   1.086   3.568  17.270  0.1407  0.6039  0.3592
  426TMC3    C5 6407   1.090   3.480  17.175 -0.0121 -0.6429 -0.3316
  426TMC3    C6 6408   1.197   3.467  17.092 -0.0818  0.1858 -0.0753
  426TMC3     C 6409   1.119   3.788  17.291  0.3635 -0.0130  0.1749
  426TMC3     O 6410   0.995   3.791  17.288 -0.0502  0.4552  0.0826
  426TMC3     H 6411   1.353   3.744  17.172 -1.2470  1.6003 -1.1748
  426TMC3    H1 6412   1.034   3.555  17.364 -0.2289  2.2039  0.3759
  426TMC3    H2 6413   1.189   3.395  17.012 -0.1822 -1.6678  1.6096
  426TMC3    C7 6414   1.006   3.372  17.203 -0.1749 -0.7216 -0.0542
  426TMC3    C8 6415   1.415   3.554  17.004  0.2725  0.3460 -0.3147
  426TMC3    O1 6416   1.030   3.266  17.146 -0.4519 -0.2671 -0.0080
  426TMC3    O2 6417   1.516   3.611  17.049  0.8570 -0.1882  0.8641
  427MPD2     C 6418   3.990   0.712  14.795 -0.6721  0.1169 -1.0911
  427MPD2    C1 6419   4.053   0.806  14.874 -0.4822  0.0553  0.3751
  427MPD2    C2 6420   3.990   0.928  14.899 -0.5096 -0.1893  0.9449
  427MPD2    C3 6421   3.856   0.955  14.858 -0.4060  0.6479 -0.0799
  427MPD2    C4 6422   3.795   0.859  14.782 -0.4880 -0.6352  0.9896
  427MPD2    C5 6423   3.858   0.734  14.750  0.5855 -0.1664  0.0430
  427MPD2     H 6424   4.054   1.008  14.936 -0.9042  0.7926 -0.4631
  427MPD2    H1 6425   3.694   0.868  14.744 -0.8553  0.0879  2.1531
  427MPD2    H2 6426   4.029   0.613  14.775 -0.6793  0.2643 -1.8228
  427MPD2    H3 6427   3.800   0.659  14.698  1.8619 -0.8228 -0.4312
  427MPD2     N 6428   3.778   1.062  14.901 -0.1712 -0.3684 -0.3733
  427MPD2    H5 6429   3.683   1.061  14.866  0.0820  1.5329 -1.1568
  427MPD2    N1 6430   4.175   0.772  14.932 -0.9133  0.0917  0.3380
  427MPD2    H7 6431   4.234   0.852  14.951  0.1008 -0.3638 -0.9786
  428TMC3    C1 6432   4.343   0.625  15.003  0.2431 -0.0578  0.1341
  428TMC3    C2 6433   4.377   0.501  15.050  0.8398  0.0330  0.1032
  428TMC3    C3 6434   4.500   0.474  15.079  0.0383 -0.5800  0.0139
  428TMC3    C4 6435   4.444   0.723  14.979 -0.9503  0.2304  0.1200
  428TMC3    C5 6436   4.574   0.674  14.983  0.2549 -0.4528 -0.6097
  428TMC3    C6 6437   4.610   0.551  15.034  0.1596 -0.1661 -0.2442
  428TMC3     C 6438   4.207   0.640  14.956  0.5364 -0.6219 -0.4190
  428TMC3     O 6439   4.128   0.546  14.974  0.3977 -0.3561  0.0564
  428TMC3     H 6440   4.304   0.423  15.071  0.1700  1.6122  3.6952
  428TMC3    H1 6441   4.414   0.803  14.912  0.3729  1.7478  1.3232
  428TMC3    H2 6442   4.715   0.547  15.060 -0.5112 -3.1647  1.9052
  428TMC3    C7 6443   4.683   0.776  14.973  0.3815  0.2406  0.4316
  428TMC3    C8 6444   4.523   0.354  15.156  0.2321  0.2090  0.9297
  428TMC3    O1 6445   4.667   0.879  15.034  0.4203  0.3220  0.8651
  428TMC3    O2 6446   4.639   0.313  15.136 -0.2468  0.0149 -0.0883
  429MPD2     C 6447   4.619   1.249  17.677 -0.6834  0.6611 -0.9651
  429MPD2    C1 6448   4.716   1.160  17.642  0.2721  0.5651 -0.5346
  429MPD2    C2 6449   0.073   1.193  17.540  0.2596 -0.8431 -0.0892
  429MPD2    C3 6450   0.071   1.324  17.496  0.2247 -0.6121  0.5362
  429MPD2    C4 6451   4.712   1.419  17.539 -0.4864  0.2522 -0.0273
  429MPD2    C5 6452   4.614   1.376  17.619  0.5373 -0.1754  0.2151
  429MPD2     H 6453   0.140   1.118  17.501 -0.0155 -0.8115 -0.6197
  429MPD2    H1 6454   4.710   1.522  17.506 -1.8997  0.1723 -0.1976
  429MPD2    H2 6455   4.538   1.219   0.000  0.0290 -1.9155 -1.2684
  429MPD2    H3 6456   4.530   1.444  17.630 -0.4397 -1.2243 -0.7213
  429MPD2     N 6457   0.159   1.358  17.395 -0.4345 -0.8871 -0.0905
  429MPD2    H5 6458   0.231   1.291  17.372  0.9704  0.3998  0.5837
  429MPD2    N1 6459   4.716   1.025  17.692  0.2483 -0.9465  0.3101
  429MPD2    H7 6460   0.046   0.958  17.652  0.1683 -0.1440 -1.1524
  430TMC3    C1 6461   0.265   1.474  17.216  0.3092 -0.1637 -0.2004
  430TMC3    C2 6462   0.239   1.514  17.087  0.0411 -0.2659  0.6358
  430TMC3    C3 6463   0.345   1.518  16.997 -0.0370 -0.2934  0.4185
  430TMC3    C4 6464   0.391   1.449  17.265  0.7279 -0.6017  0.0417
  430TMC3    C5 6465   0.492   1.441  17.171  0.2744  0.0024 -0.6684
  430TMC3    C6 6466   0.469   1.488  17.043 -0.4499 -0.4010  0.0285
  430TMC3     C 6467   0.160   1.473  17.314  0.2874 -0.0420  0.1732
  430TMC3     O 6468   0.084   1.565  17.309  0.1546  0.5360  0.1077
  430TMC3     H 6469   0.136   1.535  17.060  0.0088 -0.6596  0.4489
  430TMC3    H1 6470   0.416   1.414  17.364 -1.4710 -0.2776  0.7115
  430TMC3    H2 6471   0.553   1.498  16.975 -2.2026  1.9675 -1.7733
  430TMC3    C7 6472   0.626   1.442  17.221  0.4279 -0.6036 -0.7028
  430TMC3    C8 6473   0.341   1.569  16.857  0.5668  0.0713 -0.1175
  430TMC3    O1 6474   0.653   1.494  17.330 -0.3370 -0.3454  0.0062
  430TMC3    O2 6475   0.447   1.579  16.792 -0.3744 -0.0121  0.2114
  431MPD2     C 6476   1.283   1.436  12.675 -0.2638 -0.4756 -0.1050
  431MPD2    C1 6477   1.318   1.465  12.543 -0.2220 -0.7261  1.0098
  431MPD2    C2 6478   1.368   1.368  12.458  0.3168 -0.0167  0.4373
  431MPD2    C3 6479   1.392   1.241  12.498 -0.4192  0.2307 -0.1840
  431MPD2    C4 6480   1.352   1.210  12.625 -0.5734 -0.1910 -0.0832
  431MPD2    C5 6481   1.291   1.301  12.713  0.8196  0.1557 -0.3979
  431MPD2     H 6482   1.397   1.389  12.356 -0.4301  1.4548  0.5249
  431MPD2    H1 6483   1.368   1.110  12.664 -1.0106  0.1623  1.0164
  431MPD2    H2 6484   1.239   1.509  12.742  0.6320 -0.7955  0.8335
  431MPD2    H3 6485   1.264   1.271  12.813 -0.7031  0.3559 -0.7529
  431MPD2     N 6486   1.439   1.140  12.418 -0.2244 -0.0340 -0.4088
  431MPD2    H5 6487   1.432   1.046  12.456  2.5052 -0.3884 -0.7919
  431MPD2    N1 6488   1.320   1.597  12.486 -0.0956 -0.5097  0.4082
  431MPD2    H7 6489   1.350   1.611  12.390  0.2967 -0.0459  0.5999
  432TMC3    C1 6490   1.560   1.023  12.241 -0.2469  0.4739 -0.5359
  432TMC3    C2 6491   1.598   1.034  12.103 -0.7627 -0.6321  0.2441
  432TMC3    C3 6492   1.683   0.938  12.060  0.4738 -0.4457  0.1137
  432TMC3    C4 6493   1.585   0.910  12.319  0.5055  0.0414 -0.1101
  432TMC3    C5 6494   1.669   0.816  12.260  0.0377  0.6588  0.0874
  432TMC3    C6 6495   1.708   0.822  12.131  0.7717 -0.1859 -0.3186
  432TMC3     C 6496   1.507   1.149  12.298 -0.4201  0.1913  1.0478
  432TMC3     O 6497   1.530   1.249  12.233 -0.0616  0.6921  0.5649
  432TMC3     H 6498   1.584   1.128  12.050 -0.4142 -1.8219 -1.9317
  432TMC3    H1 6499   1.569   0.912  12.426 -2.9408 -0.1537 -0.5908
  432TMC3    H2 6500   1.784   0.757  12.090 -0.4111 -0.0151 -2.8242
  432TMC3    C7 6501   1.772   0.777  12.350 -0.3830  0.6656 -0.6281
  432TMC3    C8 6502   1.783   0.982  11.969 -0.1550 -0.1972 -0.1219
  432TMC3    O1 6503   1.883   0.781  12.297  0.1443 -0.0303  0.1592
  432TMC3    O2 6504   1.812   1.100  11.961  0.0272 -0.4968 -0.6075
  433MPD2     C 6505   0.590   4.386  10.734  0.4372 -0.0240 -0.7162
  433MPD2    C1 6506   0.514   4.304  10.815 -0.4244 -0.9795  0.4523
  433MPD2    C2 6507   0.521   4.308  10.955  0.4230  0.1256  0.3861
  433MPD2    C3 6508   0.616   4.388  11.019  0.1492  0.4566 -0.3828
  433MPD2    C4 6509   0.709   4.446  10.941  0.3557  0.1295  0.3653
  433MPD2    C5 6510   0.693   4.448  10.807 -0.3876  0.1678  0.2674
  433MPD2     H 6511   0.446   4.253  11.011  1.9632  1.5212  3.7958
  433MPD2    H1 6512   0.790   4.509  10.977  0.4004 -0.0075  0.5063
  433MPD2    H2 6513   0.585   4.382  10.625  1.1875 -0.6884 -0.7331
  433MPD2    H3 6514   0.785   4.476  10.757  0.3644 -0.4414  1.2936
  433MPD2     N 6515   0.626   4.395  11.164  0.7458 -0.0562  0.0204
  433MPD2    H5 6516   0.554   4.344  11.213  0.5449 -1.4667 -1.7319
  433MPD2    N1 6517   0.420   4.219  10.758 -0.1410 -0.0889 -0.4849
  433MPD2    H7 6518   0.406   4.227  10.658 -0.8816  0.5574 -0.3330
  434TMC3    C1 6519   0.265   4.028  10.736  0.3351  0.3969  0.0564
  434TMC3    C2 6520   0.242   3.908  10.801  0.0978  0.3443  0.4039
  434TMC3    C3 6521   0.258   3.787  10.737  0.1848  0.7315 -0.7124
  434TMC3    C4 6522   0.292   4.025  10.602  0.7494 -0.1714 -0.4429
  434TMC3    C5 6523   0.304   3.906  10.535  0.2407 -0.3617  0.3946
  434TMC3    C6 6524   0.282   3.787  10.607  0.9763  0.2357 -0.1682
  434TMC3     C 6525   0.349   4.117  10.821  0.0931 -0.1836  0.2756
  434TMC3     O 6526   0.334   4.090  10.941 -0.5300  0.4053 -0.1799
  434TMC3     H 6527   0.219   3.910  10.907  1.0997 -0.6703  0.6386
  434TMC3    H1 6528   0.311   4.113  10.541 -2.4330  0.6143 -0.3081
  434TMC3    H2 6529   0.305   3.698  10.550  0.0420  0.6782 -1.2396
  434TMC3    C7 6530   0.306   3.906  10.389 -0.0828 -0.0058 -0.1625
  434TMC3    C8 6531   0.310   3.678  10.819  1.4285 -0.2793 -0.0109
  434TMC3    O1 6532   0.374   3.987  10.332  0.0443 -0.3415 -0.5599
  434TMC3    O2 6533   0.277   3.679  10.935 -0.0911  0.4403 -0.3939
  435MPD2     C 6534   2.757   0.103  15.395  0.0170  0.8629  0.2953
  435MPD2    C1 6535   2.687   0.058  15.502 -0.0707 -0.1360 -0.1619
  435MPD2    C2 6536   2.741   4.694  15.582 -0.1968  0.1928  0.7102
  435MPD2    C3 6537   2.856   4.634  15.536  0.0597 -0.1955  0.7573
  435MPD2    C4 6538   2.923   4.679  15.423  0.1613  0.2162  0.1572
  435MPD2    C5 6539   2.875   0.050  15.356  0.2939 -0.1301 -0.2683
  435MPD2     H 6540   2.692   4.647  15.667  0.3971  1.9723  2.0406
  435MPD2    H1 6541   3.015   4.628  15.397 -0.3829 -1.0975  0.7919
  435MPD2    H2 6542   2.729   0.194  15.342 -1.8922 -0.3088 -0.6893
  435MPD2    H3 6543   2.930   0.091  15.273 -1.0445 -1.6206 -1.9025
  435MPD2     N 6544   2.890   4.512  15.598  0.5318 -0.2133  0.2237
  435MPD2    H5 6545   2.841   4.478  15.680  2.8873 -1.2033  1.2318
  435MPD2    N1 6546   2.570   0.120  15.547 -0.3478 -0.0676 -0.0406
  435MPD2    H7 6547   2.523   0.086  15.630 -0.5204 -0.5753 -0.3436
  436TMC3    C1 6548   2.258   0.287  15.738  0.3922  0.5487 -0.3470
  436TMC3    C2 6549   2.369   0.243  15.675 -0.8123 -0.9329 -0.2764
  436TMC3    C3 6550   2.363   0.212  15.538 -0.9890  0.5980  0.1675
  436TMC3    C4 6551   2.137   0.273  15.676  0.8769 -0.1692 -0.0886
  436TMC3    C5 6552   2.125   0.235  15.545 -0.0251 -0.1040 -0.6747
  436TMC3    C6 6553   2.244   0.201  15.474  0.1082 -0.2365  0.6656
  436TMC3     C 6554   2.286   0.351  15.867 -0.0587 -0.0204 -0.0156
  436TMC3     O 6555   2.401   0.384  15.892 -0.5448  0.3466  0.1563
  436TMC3     H 6556   2.465   0.247  15.725 -1.1721 -0.3918  0.3806
  436TMC3    H1 6557   2.047   0.304  15.728  1.4054 -0.4315  0.9705
  436TMC3    H2 6558   2.249   0.176  15.369  0.7261  1.0367  0.3877
  436TMC3    C7 6559   1.991   0.246  15.489  0.1382 -0.2000 -0.3954
  436TMC3    C8 6560   2.485   0.194  15.467  0.4458 -0.1177  0.9765
  436TMC3    O1 6561   1.898   0.194  15.546  0.2469 -0.4383  0.4567
  436TMC3    O2 6562   2.478   0.187  15.345 -0.5408 -0.0606  0.3056
  437TMC3    C1 6563   1.093   2.118  12.066 -0.5613  0.2305  0.1842
  437TMC3    C2 6564   1.076   2.139  11.926 -0.5021  0.1909  0.3541
  437TMC3    C3 6565   1.135   2.243  11.868 -0.2251  1.0728 -0.1642
  437TMC3    C4 6566   1.169   2.208  12.145  0.0595 -0.3019 -0.0052
  437TMC3    C5 6567   1.225   2.308  12.072 -0.2066  0.6500  0.3547
  437TMC3    C6 6568   1.200   2.337  11.940 -1.5089  0.5674 -0.1482
  437TMC3     C 6569   1.029   2.000  12.130 -0.2899  0.2435  0.6455
  437TMC3     O 6570   0.998   1.906  12.054  0.0358  0.1808 -0.1513
  437TMC3     H 6571   1.012   2.072  11.871  0.4030 -0.6852  0.3713
  437TMC3    H1 6572   1.188   2.182  12.249  1.2516 -0.2522 -0.2080
  437TMC3    H2 6573   1.239   2.423  11.886  3.0256 -0.9878  0.7058
  437TMC3    C7 6574   1.319   2.396  12.134 -0.0878  0.8759  0.8460
  437TMC3    C8 6575   1.181   2.232  11.735  0.6831  0.4350  0.4213
  437TMC3    O1 6576   1.306   2.511  12.088 -0.7119 -0.2996 -0.3847
  437TMC3    O2 6577   1.276   2.304  11.710 -0.4282 -0.2338 -0.5683
  438MPD2     C 6578   3.739   3.168  16.521  0.4010  0.2133 -0.0018
  438MPD2    C1 6579   3.806   3.064  16.578 -0.7346 -0.3036  0.0404
  438MPD2    C2 6580   3.826   3.064  16.718  0.5715  0.3957 -0.3316
  438MPD2    C3 6581   3.782   3.175  16.791 -0.7113  0.4943 -0.3327
  438MPD2    C4 6582   3.715   3.276  16.730  0.1050  0.2656  1.1462
  438MPD2    C5 6583   3.682   3.269  16.596  0.0610  0.6002 -0.7389
  438MPD2     H 6584   3.887   2.989  16.766  1.9618  1.5657 -0.2753
  438MPD2    H1 6585   3.679   3.362  16.786 -3.0824 -0.9819  1.0132
  438MPD2    H2 6586   3.713   3.167  16.416  1.1297  0.6114 -0.1848
  438MPD2    H3 6587   3.626   3.350  16.549  2.5306  1.4994 -2.1042
  438MPD2     N 6588   3.814   3.198  16.928 -0.5741  0.1142 -0.2822
  438MPD2    H5 6589   3.778   3.278  16.978 -1.4443 -1.5351  1.7514
  438MPD2    N1 6590   3.862   2.953  16.513  0.2416 -0.5884 -0.0111
  438MPD2    H7 6591   3.915   2.886  16.568  1.7839 -0.1620 -0.9964
  439TMC3    C1 6592   3.931   2.804  16.349  0.0064  0.1808 -0.1109
  439TMC3    C2 6593   3.915   2.753  16.225 -0.3762  0.1320  0.1484
  439TMC3    C3 6594   3.926   2.616  16.208  0.1395  0.2022 -0.0399
  439TMC3    C4 6595   3.975   2.721  16.449  0.3600 -0.3326 -0.5115
  439TMC3    C5 6596   4.015   2.593  16.424 -0.4906 -0.3220  0.5533
  439TMC3    C6 6597   3.982   2.540  16.300  0.2699  0.1902  0.5125
  439TMC3     C 6598   3.855   2.921  16.379  0.3052 -0.0450  0.2013
  439TMC3     O 6599   3.808   2.981  16.282 -0.6025  0.0929 -0.2608
  439TMC3     H 6600   3.866   2.812  16.148 -0.3392  0.7302  0.5865
  439TMC3    H1 6601   3.974   2.742  16.556  1.8362 -1.5673 -0.2599
  439TMC3    H2 6602   3.988   2.432  16.291 -1.4859  0.1933 -0.7528
  439TMC3    C7 6603   3.978   2.507  16.531 -0.1095 -0.4703  0.2597
  439TMC3    C8 6604   3.914   2.554  16.080 -0.3489 -0.3978 -0.2636
  439TMC3    O1 6605   3.864   2.467  16.546 -0.5241 -0.0898  0.2781
  439TMC3    O2 6606   3.936   2.432  16.075 -0.1424 -0.1249 -0.5124
  440MPD2     C 6607   1.883   3.008  15.254  0.7360  0.4276 -0.2992
  440MPD2    C1 6608   2.002   3.062  15.284 -0.4030 -0.3092 -0.6615
  440MPD2    C2 6609   2.114   2.983  15.277 -0.2891  0.2065 -0.3518
  440MPD2    C3 6610   2.106   2.843  15.294  0.4762 -0.0193  0.0533
  440MPD2    C4 6611   1.983   2.787  15.278 -0.3509 -0.4314 -0.4412
  440MPD2    C5 6612   1.873   2.867  15.257  0.6602 -0.1177 -0.3974
  440MPD2     H 6613   2.202   3.045  15.291  0.0897 -0.2217 -0.8400
  440MPD2    H1 6614   1.972   2.679  15.283  3.1656 -0.7996 -0.6999
  440MPD2    H2 6615   1.785   3.054  15.255  0.6662  0.2684  0.1803
  440MPD2    H3 6616   1.775   2.824  15.241 -0.0722  2.0659 -1.7163
  440MPD2     N 6617   2.219   2.765  15.301 -0.1804  0.3337  0.7507
  440MPD2    H5 6618   2.193   2.668  15.288 -2.3553  1.2159 -1.4587
  440MPD2    N1 6619   2.026   3.198  15.301 -0.1517  0.1134 -0.4828
  440MPD2    H7 6620   2.123   3.224  15.315 -0.3518  1.5198 -1.7044
  441TMC3    C1 6621   2.443   2.714  15.338  0.6793 -0.6165  0.0205
  441TMC3    C2 6622   2.567   2.768  15.333 -0.6760 -0.1195  0.3761
  441TMC3    C3 6623   2.652   2.745  15.441  0.3136  0.4260  0.4431
  441TMC3    C4 6624   2.408   2.616  15.436  0.0576  0.0952  0.2855
  441TMC3    C5 6625   2.502   2.584  15.523 -0.0095 -0.0307 -0.2153
  441TMC3    C6 6626   2.620   2.651  15.534  0.3567  0.2792 -0.3145
  441TMC3     C 6627   2.348   2.814  15.321  0.0884 -0.7028 -0.5193
  441TMC3     O 6628   2.385   2.930  15.345 -1.2303  0.2560  0.5804
  441TMC3     H 6629   2.577   2.843  15.255 -2.1208 -1.3921 -1.0443
  441TMC3    H1 6630   2.313   2.565  15.438  0.2469 -0.2739 -0.5205
  441TMC3    H2 6631   2.694   2.625  15.609 -0.0280 -1.6570 -0.6197
  441TMC3    C7 6632   2.455   2.550  15.653  0.3874 -0.0215  0.8301
  441TMC3    C8 6633   2.721   2.856  15.495  0.1899 -0.3583 -0.5263
  441TMC3    O1 6634   2.339   2.574  15.678 -0.0513 -0.0743  0.1166
  441TMC3    O2 6635   2.777   2.843  15.600  0.1441 -0.0752  0.0017
  442MPD2     C 6636   0.898   3.761  16.674 -0.1828 -0.2979 -0.2890
  442MPD2    C1 6637   0.793   3.687  16.724 -0.4575 -0.7040  0.3462
  442MPD2    C2 6638   0.778   3.554  16.685  0.0743  0.3659 -0.1079
  442MPD2    C3 6639   0.872   3.505  16.597  0.2809 -0.6788  0.0995
  442MPD2    C4 6640   0.971   3.575  16.541 -0.2155  0.3402 -0.3585
  442MPD2    C5 6641   0.974   3.706  16.575  0.5834  0.1882 -0.0630
  442MPD2     H 6642   0.689   3.504  16.723  0.0342 -1.9579 -3.2367
  442MPD2    H1 6643   1.047   3.538  16.473 -2.4387 -1.5083 -1.8044
  442MPD2    H2 6644   0.926   3.860  16.705 -2.5380 -0.1214  1.3121
  442MPD2    H3 6645   1.053   3.770  16.537  1.4486 -2.0493 -1.9877
  442MPD2     N 6646   0.866   3.371  16.545  0.2154 -0.2961 -0.3183
  442MPD2    H5 6647   0.944   3.341  16.488  0.7574  3.4437 -1.5757
  442MPD2    N1 6648   0.692   3.733  16.814  0.6629  0.7070 -1.3349
  442MPD2    H7 6649   0.612   3.672  16.829 -1.2905  2.8912 -2.6409
  443TMC3    C1 6650   0.540   3.884  16.873  0.0877  0.9768  0.9148
  443TMC3    C2 6651   0.473   3.988  16.805 -0.3747  0.6891  0.7710
  443TMC3    C3 6652   0.338   3.999  16.806 -0.3133  0.4158  0.0991
  443TMC3    C4 6653   0.474   3.807  16.960  0.6153  0.7981 -0.3745
  443TMC3    C5 6654   0.337   3.841  16.976 -0.7336  0.1404  0.0278
  443TMC3    C6 6655   0.268   3.936  16.903 -0.2730 -0.3134  0.5964
  443TMC3     C 6656   0.679   3.867  16.851  0.3959  0.4211 -0.0318
  443TMC3     O 6657   0.759   3.950  16.816 -0.3087  0.0082  0.6658
  443TMC3     H 6658   0.531   4.048  16.736 -1.5760 -0.2254 -1.0149
  443TMC3    H1 6659   0.527   3.730  17.015 -2.3319  0.4638  2.0262
  443TMC3    H2 6660   0.161   3.947  16.918 -0.2655  1.3422 -0.5532
  443TMC3    C7 6661   0.255   3.736  17.030 -0.2699 -0.1113 -0.9716
  443TMC3    C8 6662   0.297   3.949  16.678 -0.4137 -0.0308  0.1873
  443TMC3    O1 6663   0.311   3.625  17.025 -0.3939 -0.6718 -0.6522
  443TMC3    O2 6664   0.380   3.899  16.602  0.3585 -0.3128 -0.6336
  444MPD2     C 6665   0.799   3.302  16.930 -0.5790  0.5777 -0.8345
  444MPD2    C1 6666   0.712   3.203  16.934 -0.8741 -0.3950  0.0341
  444MPD2    C2 6667   0.752   3.073  16.889 -0.3820  0.0850  0.7645
  444MPD2    C3 6668   0.890   3.048  16.844  0.2017 -0.4368  0.7241
  444MPD2    C4 6669   0.969   3.158  16.833  0.1653 -0.0000  0.0585
  444MPD2    C5 6670   0.923   3.282  16.875 -0.2727 -0.6050  0.5163
  444MPD2     H 6671   0.689   2.986  16.904  0.7594 -0.5373  1.9070
  444MPD2    H1 6672   1.070   3.151  16.795 -0.8631  1.2287 -2.9421
  444MPD2    H2 6673   0.778   3.406  16.951  0.0315  0.8509 -1.5821
  444MPD2    H3 6674   1.000   3.360  16.875  0.4834 -1.3216 -3.6615
  444MPD2     N 6675   0.934   2.916  16.819  0.2812 -0.3355  0.7235
  444MPD2    H5 6676   0.864   2.844  16.805  0.6634 -0.2312 -1.7551
  444MPD2    N1 6677   0.583   3.219  16.991 -0.3367 -0.7666  0.2454
  444MPD2    H7 6678   0.523   3.137  16.992 -0.3426 -0.7484  2.6783
  445TMC3    C1 6679   1.075   2.725  16.784  0.3175  0.2850 -0.4820
  445TMC3    C2 6680   0.968   2.644  16.792  0.0828  0.4171  0.1415
  445TMC3    C3 6681   0.986   2.510  16.786 -0.2295 -0.2460  0.0169
  445TMC3    C4 6682   1.200   2.678  16.753 -0.2736  0.0718 -0.5519
  445TMC3    C5 6683   1.213   2.542  16.736 -0.4419  0.1085  0.1709
  445TMC3    C6 6684   1.107   2.453  16.757  0.1097 -0.1336 -0.1455
  445TMC3     C 6685   1.064   2.871  16.822 -0.9061  0.2833  0.3086
  445TMC3     O 6686   1.164   2.925  16.856 -0.8286 -0.7391 -0.0546
  445TMC3     H 6687   0.868   2.680  16.809  0.8784  3.2685 -1.1615
  445TMC3    H1 6688   1.289   2.740  16.750 -0.1653 -0.0622 -0.1077
  445TMC3    H2 6689   1.109   2.350  16.726 -0.3508 -0.6408  1.5197
  445TMC3    C7 6690   1.344   2.498  16.694 -0.1194 -0.0841 -0.2411
  445TMC3    C8 6691   0.867   2.425  16.783 -0.2521  0.4130 -0.8576
  445TMC3    O1 6692   1.410   2.567  16.614 -0.1523  0.1265  0.2403
  445TMC3    O2 6693   0.762   2.481  16.783 -0.0938 -0.4639  0.2248
  446MPD2     C 6694   0.031   3.600  11.408  0.1614  0.2843  0.1100
  446MPD2    C1 6695   0.013   3.648  11.279  0.4510 -0.4502 -0.2695
  446MPD2    C2 6696   0.126   3.699  11.213 -0.5631 -0.3544  0.3613
  446MPD2    C3 6697   0.254   3.708  11.269  0.1704  0.4793 -0.3934
  446MPD2    C4 6698   0.266   3.672  11.404  0.0659 -0.1477 -0.3180
  446MPD2    C5 6699   0.156   3.618  11.465 -0.1888  0.6952  0.2322
  446MPD2     H 6700   0.121   3.743  11.114  0.4207 -0.4408  0.2707
  446MPD2    H1 6701   0.354   3.676  11.467  1.9318  0.1593 -2.9429
  446MPD2    H2 6702   4.687   3.571  11.475 -0.3313 -1.4828 -1.2342
  446MPD2    H3 6703   0.166   3.597  11.571  0.2066 -0.4198 -0.0333
  446MPD2     N 6704   0.361   3.754  11.184 -1.0376  0.2926  0.3923
  446MPD2    H5 6705   0.334   3.770  11.088  0.0616 -1.9953 -0.2838
  446MPD2    N1 6706   4.627   3.647  11.208 -0.2791 -0.5081 -0.0067
  446MPD2    H7 6707   4.625   3.676  11.111 -0.8725  0.0164  0.1628
  447TMC3    C1 6708   0.595   3.792  11.130  0.1817 -0.2990 -0.2190
  447TMC3    C2 6709   0.568   3.847  11.003 -0.5345  0.4457  0.5129
  447TMC3    C3 6710   0.681   3.880  10.927  0.1615  0.8168 -0.5097
  447TMC3    C4 6711   0.721   3.778  11.179  0.7323  0.2043 -0.0226
  447TMC3    C5 6712   0.822   3.834  11.097 -0.5012  0.0549  0.5189
  447TMC3    C6 6713   0.802   3.879  10.971  0.9339  0.0739 -0.5624
  447TMC3     C 6714   0.491   3.756  11.228  0.2070  0.5997  0.1080
  447TMC3     O 6715   0.526   3.701  11.328  0.0926  0.6206  0.1443
  447TMC3     H 6716   0.470   3.849  10.956  0.7716 -0.4944 -2.2388
  447TMC3    H1 6717   0.728   3.733  11.277 -0.1007  0.2998  0.0768
  447TMC3    H2 6718   0.892   3.915  10.923  0.7744  1.1833 -0.0229
  447TMC3    C7 6719   0.946   3.857  11.158  0.3634  0.5384  0.4414
  447TMC3    C8 6720   0.657   3.926  10.790  0.7009  0.2261  0.3124
  447TMC3    O1 6721   1.043   3.906  11.099  0.1799  0.8573 -0.1458
  447TMC3    O2 6722   0.556   3.892  10.728  0.5334  0.2017  0.0179
  448TMC3    C1 6723   3.783   4.407  16.755 -0.0096  0.3714  0.4960
  448TMC3    C2 6724   3.795   4.326  16.644 -0.8495 -0.1532 -0.0074
  448TMC3    C3 6725   3.911   4.259  16.639 -0.0800 -0.4585  0.6284
  448TMC3    C4 6726   3.884   4.428  16.847 -0.5861  0.4072 -0.4602
  448TMC3    C5 6727   3.994   4.351  16.831  0.5086 -0.5547  0.3526
  448TMC3    C6 6728   4.013   4.271  16.727 -0.5655 -0.2850  0.2519
  448TMC3     C 6729   3.683   4.521  16.746  0.0269 -0.4235  0.3140
  448TMC3     O 6730   3.621   4.539  16.640  0.0677 -0.0489  0.3775
  448TMC3     H 6731   3.711   4.316  16.577 -1.0559 -0.6405  0.3260
  448TMC3    H1 6732   3.888   4.504  16.924 -1.4197 -0.6905  0.6872
  448TMC3    H2 6733   4.094   4.199  16.721 -1.8000 -1.7101  0.5113
  448TMC3    C7 6734   4.080   4.304  16.938 -0.3554 -0.2988 -0.4235
  448TMC3    C8 6735   3.911   4.141  16.554  0.0097 -0.0506  0.0346
  448TMC3    O1 6736   4.158   4.216  16.923  0.0374 -0.4440 -0.4298
  448TMC3    O2 6737   3.983   4.054  16.600 -0.1409  0.1961  0.9666
  449MPD2     C 6738   0.110   1.403  13.300  0.1234 -0.3113 -0.2215
  449MPD2    C1 6739   4.725   1.465  13.251 -0.6764  0.3573 -0.1011
  449MPD2    C2 6740   4.629   1.494  13.342 -0.1034  0.2367 -0.3285
  449MPD2    C3 6741   4.647   1.468  13.478  0.2672 -0.3198 -0.0259
  449MPD2    C4 6742   0.029   1.414  13.518  0.2872 -0.7667 -0.1754
  449MPD2    C5 6743   0.126   1.396  13.430  0.2344  0.2696 -0.0427
  449MPD2     H 6744   4.543   1.543  13.296  1.4465  2.2273 -1.1464
  449MPD2    H1 6745   0.036   1.393  13.624  0.4550 -0.8131 -0.1956
  449MPD2    H2 6746   0.184   1.356  13.237 -0.5973  1.1351 -2.1412
  449MPD2    H3 6747   0.225   1.366  13.460  0.8125  1.8645 -0.3463
  449MPD2     N 6748   4.540   1.515  13.565 -0.0572 -0.2286 -0.6663
  449MPD2    H5 6749   4.458   1.545  13.513 -0.1791 -0.0395 -0.3646
  449MPD2    N1 6750   4.703   1.491  13.118  0.2100 -0.1431  0.7733
  449MPD2    H7 6751   4.608   1.519  13.097  0.5742 -0.4446 -1.2664
  450TMC3    C1 6752   4.731   1.524  12.890  0.1312 -0.5764 -0.2017
  450TMC3    C2 6753   0.042   1.628  12.819 -0.6325  0.0532  0.4112
  450TMC3    C3 6754   4.684   1.706  12.759  0.8623  0.5461 -0.5212
  450TMC3    C4 6755   4.601   1.483  12.897 -0.4399  1.0139 -0.1966
  450TMC3    C5 6756   4.506   1.564  12.846  0.2534 -0.1949  0.1641
  450TMC3    C6 6757   4.549   1.676  12.776 -0.5841 -0.1203  0.2045
  450TMC3     C 6758   0.061   1.491  13.018 -1.2323 -0.5478  0.1213
  450TMC3     O 6759   0.183   1.482  13.022 -0.3998  0.4741  0.5359
  450TMC3     H 6760   0.148   1.649  12.821 -0.5047 -0.7451  2.2123
  450TMC3    H1 6761   4.584   1.389  12.948 -1.0511  0.8045 -0.8013
  450TMC3    H2 6762   4.480   1.748  12.734 -1.1303 -2.2045 -2.5250
  450TMC3    C7 6763   4.407   1.585  12.953 -0.3055  0.2420  0.3347
  450TMC3    C8 6764   4.726   1.815  12.675 -0.4528  0.1012 -0.6126
  450TMC3    O1 6765   4.435   1.529  13.057  0.9367 -0.1158  0.0230
  450TMC3    O2 6766   4.644   1.842  12.585 -0.1242 -0.4295  0.0821
  451MPD2     C 6767   1.361   1.223   1.530  0.0517  0.1438  1.0358
  451MPD2    C1 6768   1.375   1.250   1.397  0.0447  0.3325 -0.7387
  451MPD2    C2 6769   1.495   1.238   1.333 -0.1632 -0.2517  0.0418
  451MPD2    C3 6770   1.605   1.214   1.412 -0.5946  0.0761  0.3492
  451MPD2    C4 6771   1.587   1.196   1.543  0.5224 -0.2968  0.2493
  451MPD2    C5 6772   1.467   1.206   1.609  0.8974  0.3420 -0.0577
  451MPD2     H 6773   1.509   1.262   1.228  0.2028 -1.2489 -0.1366
  451MPD2    H1 6774   1.669   1.167   1.607  0.2851  1.3568  1.3013
  451MPD2    H2 6775   1.269   1.232   1.588 -2.3011  2.3074 -3.0189
  451MPD2    H3 6776   1.462   1.189   1.716  0.5439  0.0338 -0.1239
  451MPD2     N 6777   1.729   1.210   1.345  0.4308 -0.3535  0.2815
  451MPD2    H5 6778   1.735   1.234   1.246 -1.5726  0.4173  0.3646
  451MPD2    N1 6779   1.259   1.275   1.328  0.8926 -0.1930  0.0345
  451MPD2    H7 6780   1.167   1.259   1.368  0.5501 -0.0487 -0.6986
  452TMC3    C1 6781   1.958   1.217   1.309 -0.3049  0.0668  0.2084
  452TMC3    C2 6782   1.949   1.126   1.204 -0.3876  0.3628 -0.2008
  452TMC3    C3 6783   2.046   1.140   1.113  0.0562 -0.6169 -0.3409
  452TMC3    C4 6784   2.057   1.304   1.334  0.1730 -0.1056  0.1722
  452TMC3    C5 6785   2.155   1.306   1.236 -0.3316  0.1203 -0.7592
  452TMC3    C6 6786   2.152   1.227   1.127 -0.2383  0.7404 -0.2368
  452TMC3     C 6787   1.853   1.221   1.408  0.2710  0.0598  0.9100
  452TMC3     O 6788   1.886   1.254   1.524 -0.7297  0.3583 -0.2554
  452TMC3     H 6789   1.857   1.071   1.188 -0.6983  0.9125 -0.2729
  452TMC3    H1 6790   2.033   1.376   1.412  1.2409  0.6162 -0.1620
  452TMC3    H2 6791   2.216   1.254   1.044  0.9406  0.2019  0.4936
  452TMC3    C7 6792   2.207   1.433   1.203 -0.2239 -0.7166  0.2008
  452TMC3    C8 6793   2.031   1.070   0.984 -0.3035  0.5929  0.3901
  452TMC3    O1 6794   2.147   1.535   1.225 -0.2009 -0.2354  1.3208
  452TMC3    O2 6795   1.925   1.012   0.966  0.0472 -0.3233  0.1744
  453TMC3    C1 6796   2.521   3.371  12.059 -0.0826 -0.1297 -0.0322
  453TMC3    C2 6797   2.430   3.271  12.095  0.0901 -0.3616  0.1502
  453TMC3    C3 6798   2.305   3.298  12.051 -0.6759  0.6013 -0.3805
  453TMC3    C4 6799   2.488   3.474  11.978  0.1970 -0.3644  0.3225
  453TMC3    C5 6800   2.367   3.492  11.924  0.0636 -0.0628 -0.0349
  453TMC3    C6 6801   2.273   3.403  11.968  0.0063  0.2287  0.1552
  453TMC3     C 6802   2.660   3.374  12.118 -0.0277  0.3118  0.3540
  453TMC3     O 6803   2.714   3.475  12.087 -0.2383 -0.3241 -0.2031
  453TMC3     H 6804   2.459   3.190  12.161 -0.8013  1.3676  2.6978
  453TMC3    H1 6805   2.568   3.541  11.948  0.1201 -0.7664 -0.7645
  453TMC3    H2 6806   2.169   3.415  11.940  0.8102 -1.0624 -3.3275
  453TMC3    C7 6807   2.332   3.598  11.834  0.0067 -0.7677 -0.4224
  453TMC3    C8 6808   2.206   3.210  12.098 -0.8310  0.2644  0.4713
  453TMC3    O1 6809   2.423   3.667  11.791 -0.1828 -0.6446 -0.1983
  453TMC3    O2 6810   2.095   3.262  12.114  0.5094  0.4519  0.4073
  454MPD2     C 6811   1.728   2.247  16.145  0.2632 -0.6110  0.2798
  454MPD2    C1 6812   1.731   2.375  16.091 -0.0226  0.0986  0.1931
  454MPD2    C2 6813   1.682   2.477  16.171  0.2625  0.3852  0.6342
  454MPD2    C3 6814   1.629   2.460  16.297  0.6168  0.0350  0.4878
  454MPD2    C4 6815   1.623   2.334  16.348  0.0014  0.4077 -0.4386
  454MPD2    C5 6816   1.671   2.230  16.269 -0.2381  0.0473 -0.7653
  454MPD2     H 6817   1.688   2.581  16.144 -2.5022  0.0113 -1.3334
  454MPD2    H1 6818   1.582   2.324  16.447  0.3395  1.1191 -0.2291
  454MPD2    H2 6819   1.755   2.163  16.083  2.9797  0.7806 -0.4386
  454MPD2    H3 6820   1.663   2.127  16.303 -0.8443  0.1697 -0.5342
  454MPD2     N 6821   1.560   2.561  16.367 -0.7782  0.2522  0.0407
  454MPD2    H5 6822   1.491   2.538  16.438  1.1457  0.5652  1.9987
  454MPD2    N1 6823   1.751   2.393  15.953  0.5584  0.1536 -0.7462
  454MPD2    H7 6824   1.750   2.306  15.901 -2.3419  1.7221 -3.3213
  455TMC3    C1 6825   1.450   2.778  16.366 -0.6127  1.0600 -0.2536
  455TMC3    C2 6826   1.468   2.903  16.422  0.1690 -1.0804 -0.1584
  455TMC3    C3 6827   1.359   2.961  16.482 -0.1240 -0.1469  1.0594
  455TMC3    C4 6828   1.330   2.721  16.368 -0.5881  0.7333  0.6497
  455TMC3    C5 6829   1.224   2.793  16.403 -0.1255  0.9939 -0.5220
  455TMC3    C6 6830   1.236   2.907  16.469  0.3176  0.0701 -0.0129
  455TMC3     C 6831   1.567   2.698  16.345 -0.9904  0.2330 -0.7443
  455TMC3     O 6832   1.665   2.757  16.305 -0.6522 -0.3611 -0.0223
  455TMC3     H 6833   1.569   2.942  16.420  0.6623 -2.3620 -0.1246
  455TMC3    H1 6834   1.327   2.623  16.322 -0.6571  1.1675 -0.2777
  455TMC3    H2 6835   1.147   2.960  16.503  0.7861  1.2993 -0.6939
  455TMC3    C7 6836   1.099   2.719  16.397  0.2343  0.0612  0.4759
  455TMC3    C8 6837   1.372   3.078  16.560 -0.0048  0.5708  0.0416
  455TMC3    O1 6838   1.023   2.725  16.492  0.0316  0.3412  0.3245
  455TMC3    O2 6839   1.267   3.138  16.592  0.3499  0.2217  0.0438
  456MPD2     C 6840   4.169   2.836  15.910  0.1574 -0.1634  0.2966
  456MPD2    C1 6841   4.236   2.814  16.025 -0.1055 -0.2306 -0.1175
  456MPD2    C2 6842   4.221   2.906  16.128 -0.1691 -0.2385  0.1947
  456MPD2    C3 6843   4.148   3.021  16.120  1.3042 -0.5800 -0.6214
  456MPD2    C4 6844   4.072   3.041  16.006 -0.3524  0.1244 -0.0649
  456MPD2    C5 6845   4.084   2.945  15.903 -0.3622 -0.5147 -0.5237
  456MPD2     H 6846   4.273   2.899  16.223 -1.5922 -1.6476  0.8630
  456MPD2    H1 6847   4.005   3.126  16.000 -1.0229 -0.3772  0.3637
  456MPD2    H2 6848   4.170   2.765  15.828 -0.8425  0.9482 -0.6772
  456MPD2    H3 6849   4.041   2.966  15.806 -1.8540 -1.6015 -0.1052
  456MPD2     N 6850   4.134   3.104  16.237  0.3529  0.2397 -0.0544
  456MPD2    H5 6851   4.165   3.060  16.323  1.9035  0.4175 -0.5200
  456MPD2    N1 6852   4.336   2.711  16.018 -0.0008  0.1093 -0.0358
  456MPD2    H7 6853   4.326   2.651  15.937 -0.3197  1.0507 -0.6969
  457TMC3    C1 6854   4.082   3.308  16.359  0.1294  0.1946  0.2203
  457TMC3    C2 6855   4.032   3.435  16.351  0.2145 -0.0742  0.1352
  457TMC3    C3 6856   3.977   3.493  16.465  1.1636 -0.3817  0.7884
  457TMC3    C4 6857   4.099   3.240  16.481  0.2751  0.4501  0.4475
  457TMC3    C5 6858   4.061   3.312  16.587 -0.4356  0.1304  0.4071
  457TMC3    C6 6859   3.995   3.431  16.589  0.2903 -0.3633  0.5460
  457TMC3     C 6860   4.077   3.230  16.236 -0.0287  0.7597  0.7201
  457TMC3     O 6861   4.045   3.296  16.137 -0.7349  0.5434 -0.1634
  457TMC3     H 6862   3.999   3.481  16.258 -0.4192 -1.7622 -0.4757
  457TMC3    H1 6863   4.157   3.149  16.489  0.2033  0.2405 -1.3172
  457TMC3    H2 6864   3.954   3.491  16.669 -0.0739  0.4789 -0.2831
  457TMC3    C7 6865   4.121   3.269  16.711  0.5568  0.6216  0.0802
  457TMC3    C8 6866   3.934   3.631  16.455 -0.2804 -0.0431  0.3737
  457TMC3    O1 6867   4.185   3.166  16.716 -0.2524 -0.2317  0.1385
  457TMC3    O2 6868   3.943   3.695  16.561  0.4703 -0.4400 -0.9980
  458MPD2     C 6869   1.750   2.530  12.362  0.1372 -0.7767  0.0368
  458MPD2    C1 6870   1.713   2.412  12.405  0.4637 -0.1302  0.2091
  458MPD2    C2 6871   1.611   2.339  12.344  0.2951 -0.0759 -0.5553
  458MPD2    C3 6872   1.528   2.404  12.260 -0.3950  0.5811  0.1707
  458MPD2    C4 6873   1.563   2.528  12.219  0.5683  0.0305 -0.1370
  458MPD2    C5 6874   1.677   2.590  12.265  0.5499  0.0550  0.3831
  458MPD2     H 6875   1.591   2.237  12.377  0.2039  0.2995  0.5375
  458MPD2    H1 6876   1.507   2.590  12.150  0.4634  2.9170  2.5538
  458MPD2    H2 6877   1.846   2.579  12.370 -0.6053  0.4096  1.6595
  458MPD2    H3 6878   1.693   2.693  12.236  1.9362 -0.0358  0.8396
  458MPD2     N 6879   1.411   2.342  12.217 -0.2725  0.3462 -0.0572
  458MPD2    H5 6880   1.404   2.245  12.245  0.3733 -0.5970 -3.0785
  458MPD2    N1 6881   1.799   2.361  12.512 -0.3678  0.0786  0.1220
  458MPD2    H7 6882   1.879   2.417  12.537 -1.2883  0.7753  1.5292
  459TMC3    C1 6883   1.868   2.227  12.687  1.1016  0.8224 -0.4373
  459TMC3    C2 6884   1.998   2.271  12.669 -0.4871 -0.6113 -0.6301
  459TMC3    C3 6885   2.086   2.238  12.768 -0.4407  0.3400 -0.0380
  459TMC3    C4 6886   1.827   2.161  12.795 -0.2647  0.5306 -0.1299
  459TMC3    C5 6887   1.911   2.153  12.899 -0.4333  0.5798  0.7927
  459TMC3    C6 6888   2.041   2.195  12.889  0.8451  1.5094  0.3441
  459TMC3     C 6889   1.775   2.247  12.584 -0.6832 -0.1034  0.2318
  459TMC3     O 6890   1.685   2.164  12.573 -0.1465 -0.1767  0.4577
  459TMC3     H 6891   2.043   2.306  12.577 -1.2384  0.0413 -0.7425
  459TMC3    H1 6892   1.721   2.139  12.798  0.1206 -1.5522 -1.9543
  459TMC3    H2 6893   2.110   2.165  12.967  0.5514 -2.9804 -1.1332
  459TMC3    C7 6894   1.869   2.088  13.022  0.5223  0.0558 -0.4397
  459TMC3    C8 6895   2.221   2.284  12.754 -0.4082 -0.3416 -0.0727
  459TMC3    O1 6896   1.949   2.017  13.079 -0.2399  0.4065  0.1597
  459TMC3    O2 6897   2.265   2.291  12.640  0.3175 -0.1830  0.3103
  460MPD2     C 6898   0.859   4.194  10.632  0.3022 -0.7771 -0.8961
  460MPD2    C1 6899   0.766   4.095  10.632 -0.5533  1.0114 -0.3355
  460MPD2    C2 6900   0.667   4.096  10.538  0.1359 -0.0007 -0.3848
  460MPD2    C3 6901   0.660   4.198  10.441  0.0839 -0.1897 -0.7313
  460MPD2    C4 6902   0.748   4.302  10.446  0.1066 -0.2766  0.5724
  460MPD2    C5 6903   0.852   4.291  10.539 -0.5373  0.1387  0.8243
  460MPD2     H 6904   0.580   4.031  10.532  1.1726 -1.4981  0.8854
  460MPD2    H1 6905   0.759   4.386  10.379 -1.4833 -2.1010 -1.9330
  460MPD2    H2 6906   0.924   4.205  10.718 -0.5374  0.7474 -0.4609
  460MPD2    H3 6907   0.926   4.370  10.541 -2.0963  1.6093  0.5348
  460MPD2     N 6908   0.559   4.181  10.336 -0.0718  0.1312 -0.7297
  460MPD2    H5 6909   0.515   4.090  10.321 -2.7190  1.2735  0.1833
  460MPD2    N1 6910   0.756   4.017  10.751 -0.1968 -0.0885 -0.3471
  460MPD2    H7 6911   0.825   4.032  10.825  0.7854 -3.1406 -0.6448
  461TMC3    C1 6912   0.475   4.224  10.112  0.6068 -0.0053  0.4894
  461TMC3    C2 6913   0.536   4.115  10.051  0.1847 -0.9262 -0.0533
  461TMC3    C3 6914   0.512   4.107   9.913 -0.0352 -0.1729  0.9292
  461TMC3    C4 6915   0.398   4.321  10.038  0.1665 -0.2791 -0.3839
  461TMC3    C5 6916   0.377   4.302   9.904  0.5511 -0.0502 -0.6083
  461TMC3    C6 6917   0.433   4.198   9.834 -0.2117 -0.2117  0.3213
  461TMC3     C 6918   0.537   4.274  10.234  0.2402  0.1541 -0.5304
  461TMC3     O 6919   0.561   4.396  10.231 -0.0188  0.5042  0.2666
  461TMC3     H 6920   0.605   4.045  10.097  0.8871 -0.9561 -1.1594
  461TMC3    H1 6921   0.357   4.408  10.089  1.0829 -0.9707  1.5492
  461TMC3    H2 6922   0.440   4.188   9.726 -1.1776 -0.8616  0.3208
  461TMC3    C7 6923   0.300   4.396   9.831 -0.5854 -0.3621  0.2328
  461TMC3    C8 6924   0.628   4.047   9.838  0.2862 -0.9337 -0.0445
  461TMC3    O1 6925   0.290   4.513   9.869 -0.1979 -0.0521 -0.0196
  461TMC3    O2 6926   0.734   4.039   9.895 -0.3081  0.8504 -0.5814
  462TMC3    C1 6927   0.518   1.049  17.619  0.0342 -0.2636  0.1487
  462TMC3    C2 6928   0.537   0.974  17.505  0.5392  0.7221  0.0554
  462TMC3    C3 6929   0.558   0.843  17.512  0.4052  0.4516  0.1113
  462TMC3    C4 6930   0.522   0.982  17.740 -0.8273  0.4653  0.0481
  462TMC3    C5 6931   0.529   0.836  17.739 -0.4160  0.5905  0.8415
  462TMC3    C6 6932   0.551   0.763  17.623 -0.3799  0.3789  0.0175
  462TMC3     C 6933   0.454   1.183  17.588 -0.1848  0.5752  0.2736
  462TMC3     O 6934   0.456   1.217  17.467 -0.2341 -0.1047  0.3520
  462TMC3     H 6935   0.538   1.018  17.406 -0.0212  0.5845 -0.0111
  462TMC3    H1 6936   0.508   1.032   0.092 -0.1498 -2.0545  1.4705
  462TMC3    H2 6937   0.541   0.655  17.616 -0.2076  0.3772 -0.1868
  462TMC3    C7 6938   0.488   0.759   0.113 -0.2263  0.3491 -0.0298
  462TMC3    C8 6939   0.572   0.767  17.390  0.3158 -0.4080  0.0768
  462TMC3    O1 6940   0.532   0.643   0.117  0.4547 -0.9602  0.0051
  462TMC3    O2 6941   0.500   0.796  17.293  0.0305 -0.5425 -0.3175
  463MPD2     C 6942   2.676   4.166   1.366 -0.0475  0.1567  0.3874
  463MPD2    C1 6943   2.568   4.252   1.354 -0.3062 -0.0351  0.1332
  463MPD2    C2 6944   2.584   4.387   1.365  0.4488  0.0082  0.1826
  463MPD2    C3 6945   2.710   4.435   1.352 -0.2823  0.1783  0.1128
  463MPD2    C4 6946   2.820   4.353   1.346  0.2941  1.4512 -0.1507
  463MPD2    C5 6947   2.805   4.219   1.362  0.1053  0.1272  0.4354
  463MPD2     H 6948   2.492   4.443   1.374  1.7289  2.0082  0.7911
  463MPD2    H1 6949   2.921   4.391   1.346  1.0460 -0.5217  0.8255
  463MPD2    H2 6950   2.671   4.059   1.378  0.9937 -0.3107 -3.2714
  463MPD2    H3 6951   2.894   4.162   1.387  0.2233  0.3136  0.4424
  463MPD2     N 6952   2.730   4.575   1.346 -0.4122 -0.0898 -0.4799
  463MPD2    H5 6953   2.827   4.607   1.345  0.8877 -3.9837  1.0550
  463MPD2    N1 6954   2.430   4.197   1.348 -0.1732 -0.1766  0.4918
  463MPD2    H7 6955   2.354   4.264   1.339  0.9438  1.1305  0.7711
  464TMC3    C1 6956   2.242   4.050   1.304 -0.0441 -0.2789  0.2904
  464TMC3    C2 6957   2.156   4.141   1.361 -0.4431  0.9514  0.5998
  464TMC3    C3 6958   2.023   4.127   1.334  0.3224 -0.0952 -0.0174
  464TMC3    C4 6959   2.198   3.933   1.244  0.1463 -0.5165  0.1079
  464TMC3    C5 6960   2.061   3.922   1.226 -0.3309 -0.8448 -0.0023
  464TMC3    C6 6961   1.972   4.018   1.272 -0.2708  0.5822 -0.2370
  464TMC3     C 6962   2.391   4.068   1.326 -0.2328 -0.2618 -0.0150
  464TMC3     O 6963   2.457   3.966   1.314 -0.8228 -0.0228  0.3919
  464TMC3     H 6964   2.195   4.233   1.401  0.3558  1.4187 -1.2236
  464TMC3    H1 6965   2.267   3.867   1.194  2.0948  0.7627  1.1428
  464TMC3    H2 6966   1.865   4.009   1.260 -0.3712  0.0142  1.0758
  464TMC3    C7 6967   2.023   3.819   1.132 -0.1352  1.1443 -0.0587
  464TMC3    C8 6968   1.945   4.227   1.390  0.0548  0.0757  0.4758
  464TMC3    O1 6969   2.117   3.754   1.089  0.4842  0.1352  0.1674
  464TMC3    O2 6970   2.001   4.321   1.446  0.3420  0.1954  0.0576
  465MPD2     C 6971   3.564   3.678  16.704 -0.1249  0.7211 -0.3867
  465MPD2    C1 6972   3.489   3.597  16.784 -0.0073  0.9920  0.2381
  465MPD2    C2 6973   3.403   3.512  16.724 -0.0240 -0.2719 -0.0112
  465MPD2    C3 6974   3.390   3.507  16.585 -0.4916 -0.1383  0.6855
  465MPD2    C4 6975   3.480   3.577  16.508  0.7260  0.1264  0.0639
  465MPD2    C5 6976   3.563   3.660  16.570 -0.8096  0.0948 -0.6929
  465MPD2     H 6977   3.346   3.436  16.775 -0.9935 -0.6489 -1.6584
  465MPD2    H1 6978   3.477   3.571  16.400  1.8538  2.1253 -0.0821
  465MPD2    H2 6979   3.628   3.755  16.746 -0.7550 -0.1897  2.2882
  465MPD2    H3 6980   3.632   3.723  16.515  0.5025 -0.0684  0.7448
  465MPD2     N 6981   3.289   3.413  16.532  0.4431  0.2361  0.2762
  465MPD2    H5 6982   3.224   3.368  16.596  0.5570  1.1557  1.0276
  465MPD2    N1 6983   3.495   3.605  16.929  0.7369 -0.0536  0.2473
  465MPD2    H7 6984   3.431   3.547  16.982 -0.1876  0.7983  0.0649
  466TMC3    C1 6985   2.991   3.207  16.534 -0.0087  0.7381 -0.0186
  466TMC3    C2 6986   2.893   3.262  16.459  0.5179  0.0116 -0.5639
  466TMC3    C3 6987   2.930   3.320  16.341  0.7381 -0.1439 -0.7135
  466TMC3    C4 6988   3.119   3.233  16.503  0.0469  0.2479  0.6732
  466TMC3    C5 6989   3.148   3.299  16.390  0.4507 -0.3808 -0.1378
  466TMC3    C6 6990   3.057   3.334  16.292  0.0909 -0.0756  0.1649
  466TMC3     C 6991   2.964   3.166  16.675  0.0943  0.3227 -0.3975
  466TMC3     O 6992   3.064   3.164  16.747 -0.0651 -0.1125 -0.3824
  466TMC3     H 6993   2.793   3.225  16.481  0.4050 -0.1398 -1.3230
  466TMC3    H1 6994   3.206   3.188  16.549  0.2427 -0.8212 -0.7362
  466TMC3    H2 6995   3.084   3.413  16.222 -0.9320 -1.1034 -1.3797
  466TMC3    C7 6996   3.268   3.377  16.398  0.5298 -0.3347  0.2566
  466TMC3    C8 6997   2.817   3.374  16.269  0.4921 -0.0492  0.0559
  466TMC3    O1 6998   3.320   3.422  16.295  0.6943 -0.4293  0.1841
  466TMC3    O2 6999   2.835   3.386  16.149  0.5262  0.2653  0.1593
  467TMC3    C1 7000   3.630   1.272  13.832 -0.2629  0.5942  0.6531
  467TMC3    C2 7001   3.573   1.325  13.715  0.0149  0.2474  0.4956
  467TMC3    C3 7002   3.438   1.303  13.688  0.4533 -0.0354 -0.5942
  467TMC3    C4 7003   3.552   1.200  13.917  0.9287  0.2365 -0.0298
  467TMC3    C5 7004   3.421   1.183  13.898 -0.2597  0.1832 -0.3494
  467TMC3    C6 7005   3.361   1.230  13.777  0.6535  0.6536  1.3014
  467TMC3     C 7006   3.749   1.322  13.881 -1.2189 -0.0221 -0.1588
  467TMC3     O 7007   3.829   1.251  13.937 -0.0416 -0.3245 -0.4398
  467TMC3     H 7008   3.627   1.365  13.630  1.1905  0.4620  1.3475
  467TMC3    H1 7009   3.604   1.140  13.991 -1.2038 -1.0916  0.3808
  467TMC3    H2 7010   3.269   1.183  13.741 -0.3938  3.3910  0.4014
  467TMC3    C7 7011   3.341   1.109  13.993  0.1209  0.1428  0.9850
  467TMC3    C8 7012   3.378   1.407  13.612  0.0285  0.3108 -0.1616
  467TMC3    O1 7013   3.398   1.030  14.067 -0.4316 -0.3808 -0.0858
  467TMC3    O2 7014   3.449   1.454  13.526  0.7023  0.0803 -0.4817
  468MPD2     C 7015   2.495   4.536  11.013  0.5121  0.1301 -0.4344
  468MPD2    C1 7016   2.595   4.479  10.936  0.5024  0.0330 -0.7050
  468MPD2    C2 7017   2.568   4.360  10.883 -0.1363  0.0325 -0.1685
  468MPD2    C3 7018   2.459   4.290  10.920  0.1412 -0.7291  0.0439
  468MPD2    C4 7019   2.365   4.336  11.006 -0.9488 -0.4011  0.9716
  468MPD2    C5 7020   2.390   4.467  11.045 -0.1639  0.7246  0.4040
  468MPD2     H 7021   2.647   4.319  10.821  1.0046  1.8420  0.0748
  468MPD2    H1 7022   2.284   4.272  11.038  1.3061 -3.2334  1.0781
  468MPD2    H2 7023   2.501   4.638  11.049 -0.8577 -0.5861  1.8050
  468MPD2    H3 7024   2.313   4.516  11.103 -0.0793  1.4561 -0.0936
  468MPD2     N 7025   2.422   4.168  10.867 -0.1987  0.4973  0.9698
  468MPD2    H5 7026   2.331   4.128  10.886  0.6033 -1.2478  1.1654
  468MPD2    N1 7027   2.715   4.541  10.900 -0.3674 -0.0555  0.7025
  468MPD2    H7 7028   2.779   4.486  10.842 -0.0352  2.4412 -1.2960
  469TMC3    C1 7029   2.900   4.695  10.917 -0.4593  0.1059 -0.2918
  469TMC3    C2 7030   2.986   4.589  10.941 -0.2240  0.0329 -0.3192
  469TMC3    C3 7031   3.115   4.621  10.971 -0.3233  0.8088 -0.1236
  469TMC3    C4 7032   2.938   0.090  10.923 -0.5195  0.6275 -0.3818
  469TMC3    C5 7033   3.070   0.113  10.954 -0.4796  0.4704 -0.2694
  469TMC3    C6 7034   3.155   0.014  10.981 -0.7662  0.8178  0.6196
  469TMC3     C 7035   2.759   4.666  10.945  0.1888  0.2493  0.2564
  469TMC3     O 7036   2.691   0.023  10.985 -0.7158  0.7895 -0.3307
  469TMC3     H 7037   2.937   4.494  10.959  0.2649 -0.4217 -1.3844
  469TMC3    H1 7038   2.871   0.173  10.902  1.7306  2.1739 -1.4941
  469TMC3    H2 7039   3.260   0.037  10.992 -0.5793  0.1530  0.2743
  469TMC3    C7 7040   3.100   0.245  11.010  0.5609  0.4067  0.0341
  469TMC3    C8 7041   3.199   4.508  11.012  0.1460 -0.2184 -0.6094
  469TMC3    O1 7042   3.035   0.335  10.961  0.3147  0.1329  0.2029
  469TMC3    O2 7043   3.152   4.396  10.981  0.4028 -0.2743  0.9925
  470TMC3    C1 7044   4.216   0.901   0.136  0.9109 -0.6221  0.0111
  470TMC3    C2 7045   4.283   1.009   0.182 -0.4426 -0.1992 -0.0365
  470TMC3    C3 7046   4.289   1.029   0.316  0.1298 -0.3632  0.9234
  470TMC3    C4 7047   4.148   0.813   0.216  0.2003 -0.1944 -0.2134
  470TMC3    C5 7048   4.150   0.839   0.348  0.2838  0.1236  0.4082
  470TMC3    C6 7049   4.228   0.940   0.400 -0.4147 -0.8774 -0.2915
  470TMC3     C 7050   4.241   0.864   0.001 -0.2570  0.2883 -0.5530
  470TMC3     O 7051   4.347   0.905  17.702  0.4059 -0.3508  0.0333
  470TMC3     H 7052   4.339   1.071   0.113  0.3761  1.2121  1.9008
  470TMC3    H1 7053   4.095   0.727   0.178 -0.0552 -0.3046  0.4032
  470TMC3    H2 7054   4.228   0.956   0.507  2.6780  0.3002 -0.4632
  470TMC3    C7 7055   4.112   0.732   0.441 -0.1820 -0.0064  0.3499
  470TMC3    C8 7056   4.387   1.129   0.374  0.7036  0.2122  0.4162
  470TMC3    O1 7057   4.009   0.679   0.410  0.1063 -0.2250  0.0107
  470TMC3    O2 7058   4.438   1.104   0.484 -0.5315 -0.3172  0.1692
  471MPD2     C 7059   0.086   1.874  16.547 -0.6805  0.3822 -0.4731
  471MPD2    C1 7060   0.225   1.873  16.580 -0.3116  0.0138 -0.1380
  471MPD2    C2 7061   0.267   1.771  16.659 -0.1046  0.2952 -0.3791
  471MPD2    C3 7062   0.178   1.672  16.704 -0.2479  0.3207 -0.0676
  471MPD2    C4 7063   0.047   1.683  16.673  0.7052  0.0248  0.1419
  471MPD2    C5 7064   0.000   1.779  16.593  0.6291  0.3813  0.6750
  471MPD2     H 7065   0.369   1.775  16.697 -0.9931  0.5361  1.9956
  471MPD2    H1 7066   4.710   1.609  16.705  1.1690 -0.3374  0.3655
  471MPD2    H2 7067   0.045   1.954  16.486 -2.5380  1.3844  2.1042
  471MPD2    H3 7068   4.629   1.796  16.583  0.5976  0.5365  1.2636
  471MPD2     N 7069   0.215   1.583  16.804 -0.2521  0.6815 -0.3124
  471MPD2    H5 7070   0.143   1.534  16.857 -0.2506  0.4944 -0.4827
  471MPD2    N1 7071   0.323   1.962  16.526 -0.0792 -0.1893 -0.1713
  471MPD2    H7 7072   0.415   1.939  16.563  0.3933  0.2226 -1.0957
  472TMC3    C1 7073   0.424   2.142  16.430 -0.0969 -0.3438  0.9114
  472TMC3    C2 7074   0.412   2.153  16.295 -0.5736 -0.6663  0.1389
  472TMC3    C3 7075   0.509   2.096  16.216  0.4212 -0.0510  0.0718
  472TMC3    C4 7076   0.538   2.082  16.480 -0.3561  0.0612  0.3907
  472TMC3    C5 7077   0.624   2.004  16.402 -0.5456  0.3726 -0.6612
  472TMC3    C6 7078   0.618   2.027  16.268  0.4335  0.4247  0.9622
  472TMC3     C 7079   0.295   2.081  16.468 -0.3402 -0.5958  0.5950
  472TMC3     O 7080   0.186   2.106  16.416 -0.1931  0.0320 -0.8580
  472TMC3     H 7081   0.324   2.198  16.251 -0.6551 -0.8718  0.0908
  472TMC3    H1 7082   0.543   2.066  16.587  0.4923 -1.9778  0.0528
  472TMC3    H2 7083   0.679   1.970  16.199 -2.8135 -1.7077 -0.1522
  472TMC3    C7 7084   0.620   1.863  16.443 -0.2807  0.5326 -0.4392
  472TMC3    C8 7085   0.451   2.008  16.119 -0.1806 -0.4491 -0.3158
  472TMC3    O1 7086   0.583   1.836  16.555 -0.4959 -0.6049  0.3720
  472TMC3    O2 7087   0.514   1.991  16.012  0.3499  0.1337 -0.4131
  473MPD2     C 7088   0.778   3.518  14.054 -0.2268 -0.0072  0.3775
  473MPD2    C1 7089   0.673   3.601  14.021  0.4173 -0.2382  0.4411
  473MPD2    C2 7090   0.653   3.721  14.084  0.0627  0.1690  0.2214
  473MPD2    C3 7091   0.745   3.765  14.177  0.7974  1.8634 -0.1272
  473MPD2    C4 7092   0.838   3.680  14.215  0.4448  0.0623 -0.2198
  473MPD2    C5 7093   0.858   3.559  14.156  0.3542  0.7229  0.0319
  473MPD2     H 7094   0.564   3.777  14.055  1.6309  3.2968  1.4181
  473MPD2    H1 7095   0.901   3.705  14.300 -2.4149  1.3026  1.5510
  473MPD2    H2 7096   0.790   3.423  14.003  0.6430  0.9230 -1.1505
  473MPD2    H3 7097   0.933   3.490  14.194 -0.5985  0.2839  1.1364
  473MPD2     N 7098   0.745   3.903  14.222 -0.0134 -0.5154 -0.2139
  473MPD2    H5 7099   0.805   3.932  14.298 -1.5950  0.9805  0.4768
  473MPD2    N1 7100   0.588   3.569  13.916  0.0238 -0.0521  0.3423
  473MPD2    H7 7101   0.506   3.630  13.917 -0.8830 -1.2478 -1.4939
  474TMC3    C1 7102   0.708   4.130  14.218  0.6439 -0.2220 -0.6543
  474TMC3    C2 7103   0.608   4.224  14.209  0.2170  0.4838  0.8503
  474TMC3    C3 7104   0.623   4.346  14.269 -0.5278 -0.3415  0.0760
  474TMC3    C4 7105   0.814   4.149  14.302  0.1210  0.0126  0.2019
  474TMC3    C5 7106   0.824   4.269  14.372  0.8237 -0.5665  0.6989
  474TMC3    C6 7107   0.738   4.376  14.345 -0.0035 -0.6538  0.5568
  474TMC3     C 7108   0.683   4.001  14.158  0.5229  0.4465  0.4940
  474TMC3     O 7109   0.600   3.996  14.072  0.0274  0.3219  0.4001
  474TMC3     H 7110   0.516   4.202  14.156  2.1351 -1.6236 -1.6429
  474TMC3    H1 7111   0.891   4.073  14.307 -0.8661 -1.0451 -0.4059
  474TMC3    H2 7112   0.756   4.478  14.378  1.8908 -1.5980  2.4810
  474TMC3    C7 7113   0.958   4.321  14.394 -0.2384 -0.2725 -0.0427
  474TMC3    C8 7114   0.565   4.463  14.214  0.1472 -1.1058 -0.0288
  474TMC3    O1 7115   1.048   4.256  14.339  0.5371  0.0942 -0.5915
  474TMC3    O2 7116   0.599   4.569  14.263 -0.4972 -0.1630  0.0297
  475MPD2     C 7117   2.905   1.648  10.736 -0.6901 -0.2164 -0.1405
  475MPD2    C1 7118   2.894   1.785  10.757 -0.0899 -0.3572  1.0175
  475MPD2    C2 7119   2.774   1.837  10.728  0.1262 -0.0571  0.1688
  475MPD2    C3 7120   2.671   1.769  10.675 -0.6602  0.6126  0.4229
  475MPD2    C4 7121   2.686   1.636  10.644 -0.0137 -0.4971  0.3477
  475MPD2    C5 7122   2.807   1.571  10.676  0.1393  0.7378 -0.5180
  475MPD2     H 7123   2.758   1.942  10.749  1.3503 -0.3059  2.3311
  475MPD2    H1 7124   2.609   1.586  10.587 -1.3852  1.3645  0.5663
  475MPD2    H2 7125   3.000   1.603  10.764 -0.1181  1.4985  0.7105
  475MPD2    H3 7126   2.821   1.467  10.648 -0.1787 -0.4971  3.8112
  475MPD2     N 7127   2.554   1.843  10.639  0.3795  0.1724 -0.3858
  475MPD2    H5 7128   2.556   1.943  10.657  0.7384 -0.4320  2.8785
  475MPD2    N1 7129   2.992   1.871  10.812  0.1243 -0.5759 -0.7315
  475MPD2    H7 7130   2.967   1.964  10.844 -0.1669  0.6813 -4.5843
  476TMC3    C1 7131   3.200   1.938  10.878  0.2560 -0.2961 -0.9120
  476TMC3    C2 7132   3.311   1.980  10.808  0.7048  0.3641  0.2619
  476TMC3    C3 7133   3.358   2.097  10.855  0.4782 -0.4207 -0.3444
  476TMC3    C4 7134   3.143   1.993  10.987 -0.1674 -0.3336 -0.4935
  476TMC3    C5 7135   3.182   2.116  11.018 -0.2152  0.6114 -0.1800
  476TMC3    C6 7136   3.293   2.173  10.954  0.2885  0.1685 -0.5487
  476TMC3     C 7137   3.120   1.833  10.820  0.0023 -0.1383  0.2699
  476TMC3     O 7138   3.181   1.739  10.779 -0.2983 -0.1993 -0.4316
  476TMC3     H 7139   3.353   1.939  10.716 -1.3738 -2.8647  0.7557
  476TMC3    H1 7140   3.054   1.946  11.027  0.3297 -1.0120 -0.1787
  476TMC3    H2 7141   3.325   2.275  10.976  3.2556 -0.6352 -1.0898
  476TMC3    C7 7142   3.131   2.177  11.139  0.6385 -1.2698 -0.4947
  476TMC3    C8 7143   3.458   2.161  10.771  0.2118  0.0394  0.2976
  476TMC3    O1 7144   3.045   2.122  11.207  0.0776 -0.0254  0.2799
  476TMC3    O2 7145   3.478   2.280  10.782  0.2670 -0.7393  0.8590
  477MPD2     C 7146   1.122   3.412  11.493 -0.1433 -0.3354 -0.6552
  477MPD2    C1 7147   1.063   3.318  11.576 -0.3368 -0.9649  0.0324
  477MPD2    C2 7148   1.135   3.279  11.690 -0.0796 -0.5428 -0.3360
  477MPD2    C3 7149   1.275   3.302  11.700 -0.2185  0.2033  0.1167
  477MPD2    C4 7150   1.332   3.386  11.604 -0.0449  0.5559 -0.3006
  477MPD2    C5 7151   1.255   3.447  11.506 -0.2927 -1.1311  0.1943
  477MPD2     H 7152   1.099   3.206  11.762  2.9749  0.9782  2.7469
  477MPD2    H1 7153   1.439   3.407  11.602  0.2558 -0.9754  0.3002
  477MPD2    H2 7154   1.063   3.460  11.416 -0.9465 -1.1675 -0.5591
  477MPD2    H3 7155   1.298   3.514  11.432 -2.3761 -0.5148 -0.4631
  477MPD2     N 7156   1.343   3.236  11.807  0.6406  0.1693  0.3585
  477MPD2    H5 7157   1.293   3.171  11.868 -1.7520  1.3832 -0.3234
  477MPD2    N1 7158   0.927   3.283  11.548  0.0895  0.3887 -0.2749
  477MPD2    H7 7159   0.878   3.322  11.468  3.7734  3.0376 -1.2468
  478TMC3    C1 7160   0.725   3.186  11.560 -0.0351  0.0043 -0.0712
  478TMC3    C2 7161   0.643   3.267  11.632  0.3141 -1.2739  0.9581
  478TMC3    C3 7162   0.562   3.354  11.565  0.3875 -0.0348  0.0735
  478TMC3    C4 7163   0.742   3.204  11.427  0.4180 -0.2348  0.2441
  478TMC3    C5 7164   0.668   3.305  11.368 -0.2082 -0.3018  0.5838
  478TMC3    C6 7165   0.578   3.383  11.433 -0.6002 -0.9935  0.0385
  478TMC3     C 7166   0.846   3.203  11.630 -0.3306  0.5263 -0.1233
  478TMC3     O 7167   0.869   3.156  11.741 -0.1050 -0.0257 -0.5449
  478TMC3     H 7168   0.640   3.273  11.740  1.3363  0.3708  0.8911
  478TMC3    H1 7169   0.816   3.148  11.370 -0.5677 -0.5622 -0.7089
  478TMC3    H2 7170   0.518   3.457  11.381  1.7784 -0.2048 -1.5743
  478TMC3    C7 7171   0.692   3.326  11.230  0.0448 -0.8604 -0.2846
  478TMC3    C8 7172   0.512   3.455  11.645  0.1089 -0.3551  0.2287
  478TMC3    O1 7173   0.796   3.275  11.195 -0.0385 -0.6520 -0.6092
  478TMC3    O2 7174   0.457   3.416  11.748 -0.4810  0.2936  0.0148
  479MPD2     C 7175   0.207   0.803  14.717  0.7579 -0.1533  0.0380
  479MPD2    C1 7176   0.146   0.820  14.837  0.1399  0.2800  0.3748
  479MPD2    C2 7177   0.205   0.911  14.936 -0.6834  0.5495 -0.8021
  479MPD2    C3 7178   0.322   0.976  14.897  0.7266  0.0581  0.1544
  479MPD2    C4 7179   0.375   0.964  14.773 -0.5305 -0.4379  0.5725
  479MPD2    C5 7180   0.316   0.879  14.680 -0.1081  0.1672 -0.3069
  479MPD2     H 7181   0.159   0.940  15.030 -0.8964 -0.1348 -0.6916
  479MPD2    H1 7182   0.462   1.017  14.737  0.0614 -1.0350  1.1246
  479MPD2    H2 7183   0.172   0.730  14.646 -1.3503  0.4887  0.4323
  479MPD2    H3 7184   0.362   0.866  14.583 -0.2792  1.2638 -0.5238
  479MPD2     N 7185   0.378   1.072  14.980 -0.3589 -0.2400 -0.5086
  479MPD2    H5 7186   0.446   1.132  14.936 -0.0861 -0.1857 -0.0086
  479MPD2    N1 7187   0.024   0.753  14.866  0.0182  0.6677  0.5637
  479MPD2    H7 7188   4.733   0.682  14.799 -4.8038  1.0552  2.1416
  480TMC3    C1 7189   0.382   1.387  15.330  0.5588 -0.2435 -0.4887
  480TMC3    C2 7190   0.355   1.492  15.244  0.1431 -0.2931  0.1367
  480TMC3    C3 7191   0.333   1.461  15.110 -0.0835 -0.0554  0.3890
  480TMC3    C4 7192   0.402   1.257  15.286 -0.1182 -0.2875 -0.6399
  480TMC3    C5 7193   0.379   1.238  15.152  0.0212 -0.7137  0.0090
  480TMC3    C6 7194   0.353   1.334  15.058  0.0423 -0.9783 -0.2889
  480TMC3     C 7195   0.368   1.403  15.474  0.2934  0.2265 -0.7753
  480TMC3     O 7196   0.350   1.511  15.522 -0.8841 -0.5055 -0.1068
  480TMC3     H 7197   0.347   1.595  15.277  2.2647 -0.9787  2.7400
  480TMC3    H1 7198   0.444   1.175  15.343  0.1876  0.9205  0.8606
  480TMC3    H2 7199   0.320   1.305  14.959 -0.9129  0.4777 -0.4035
  480TMC3    C7 7200   0.351   1.101  15.116 -0.4703 -0.4528  0.3512
  480TMC3    C8 7201   0.303   1.571  15.016 -0.3347 -0.1493 -0.3043
  480TMC3    O1 7202   0.309   1.025  15.204 -0.2206 -0.2302  0.1836
  480TMC3    O2 7203   0.340   1.689  15.041 -0.0287  0.2975 -0.0292
  481MPD2     C 7204   1.818   4.523  13.876 -0.1122  0.2174 -0.1599
  481MPD2    C1 7205   1.736   4.631  13.885 -0.2273  0.0236  1.1380
  481MPD2    C2 7206   1.772   4.723  13.979  0.5685 -0.7287 -0.1364
  481MPD2    C3 7207   1.873   4.696  14.074 -0.5292  0.1107  0.2957
  481MPD2    C4 7208   1.956   4.595  14.048  0.7241 -0.1483  0.4603
  481MPD2    C5 7209   1.929   4.508  13.953  0.5023  0.5252 -0.2738
  481MPD2     H 7210   1.712   0.077  13.991 -0.3888 -1.8102  3.2384
  481MPD2    H1 7211   2.037   4.562  14.112  0.0252 -1.2479  0.7751
  481MPD2    H2 7212   1.793   4.438  13.814  0.1252 -0.2336  0.3574
  481MPD2    H3 7213   1.988   4.417  13.953  1.5354  1.1831 -2.8812
  481MPD2     N 7214   1.902   0.053  14.176 -0.2786 -0.4654  0.3947
  481MPD2    H5 7215   1.993   0.039  14.218 -0.3493 -0.6160  0.4981
  481MPD2    N1 7216   1.619   4.643  13.808 -0.1057  0.1603 -0.0450
  481MPD2    H7 7217   1.598   4.564  13.748  1.1335  0.4212 -0.8259
  482TMC3    C1 7218   1.415   0.017  13.722  0.5974  0.1566 -0.1752
  482TMC3    C2 7219   1.356   4.638  13.674 -0.2047 -0.0677 -0.7408
  482TMC3    C3 7220   1.233   4.638  13.629 -0.0706  0.2783 -0.5471
  482TMC3    C4 7221   1.357   0.139  13.699  0.1369 -0.9092 -0.0710
  482TMC3    C5 7222   1.227   0.137  13.642  0.3773 -0.9118 -0.0316
  482TMC3    C6 7223   1.166   0.022  13.601 -0.5492  0.1790 -0.4680
  482TMC3     C 7224   1.541   0.026  13.797 -0.3283  0.2395  0.4207
  482TMC3     O 7225   1.545   0.130  13.867  0.1766 -0.0261 -0.1435
  482TMC3     H 7226   1.401   4.547  13.713 -2.2367 -0.8106 -0.1523
  482TMC3    H1 7227   1.388   0.232  13.746  0.8189  0.4089 -3.0768
  482TMC3    H2 7228   1.070   0.025  13.551 -1.1810  0.1388  0.7213
  482TMC3    C7 7229   1.173   0.264  13.605 -0.5156  0.3056  0.0180
  482TMC3    C8 7230   1.195   4.518  13.562  0.5870 -0.3085 -0.0996
  482TMC3    O1 7231   1.056   0.276  13.577  0.0284  0.0308 -0.5717
  482TMC3    O2 7232   1.289   4.459  13.508 -0.2164  0.7253 -0.7345
  483TMC3    C1 7233   4.432   0.183   1.354 -0.6748 -0.2720 -0.1738
  483TMC3    C2 7234   4.541   0.239   1.301  0.5123 -0.4571 -0.2618
  483TMC3    C3 7235   4.666   0.177   1.312  0.1879 -0.1478  0.4547
  483TMC3    C4 7236   4.449   0.075   1.438  0.7163  0.0011  0.2224
  483TMC3    C5 7237   4.565   0.014   1.452 -0.4440 -0.0279 -0.2021
  483TMC3    C6 7238   4.677   0.067   1.393  0.1918  0.0404 -0.3425
  483TMC3     C 7239   4.308   0.185   1.277  0.0296  0.2515 -0.2248
  483TMC3     O 7240   4.280   0.290   1.221 -0.9642  0.0904  0.3545
  483TMC3     H 7241   4.533   0.318   1.226 -0.0420 -0.1367  0.1335
  483TMC3    H1 7242   4.365   0.017   1.473 -0.6768  0.0202 -3.0443
  483TMC3    H2 7243   0.046   0.041   1.407  0.2431 -1.1168 -2.8844
  483TMC3    C7 7244   4.558   4.616   1.398 -0.0968  0.3151  0.4686
  483TMC3    C8 7245   4.711   0.153   1.174 -0.8215  0.8945  0.1901
  483TMC3    O1 7246   4.474   4.607   1.311 -0.3050  0.0276  0.1818
  483TMC3    O2 7247   4.672   0.232   1.086 -0.1332  1.5400 -0.5583
  484MPD2     C 7248   2.435   2.482  12.982 -0.5254 -0.5572 -0.7159
  484MPD2    C1 7249   2.401   2.396  12.880 -0.2151 -0.0104  0.1866
  484MPD2    C2 7250   2.502   2.365  12.794 -0.0042 -0.2929 -0.4298
  484MPD2    C3 7251   2.631   2.422  12.791 -0.1924 -0.2486 -0.1139
  484MPD2    C4 7252   2.653   2.509  12.887  0.2576 -0.4550  0.2713
  484MPD2    C5 7253   2.557   2.537  12.981  0.6255 -0.3956 -0.3737
  484MPD2     H 7254   2.486   2.294  12.713 -1.8360  1.5021 -1.6494
  484MPD2    H1 7255   2.741   2.572  12.892  0.1218 -0.2937  0.6101
  484MPD2    H2 7256   2.362   2.528  13.047 -0.7467  1.5355 -2.4518
  484MPD2    H3 7257   2.577   2.607  13.061 -1.1176  1.0268 -1.1963
  484MPD2     N 7258   2.733   2.397  12.697  0.2204  0.4177  0.1004
  484MPD2    H5 7259   2.812   2.459  12.696  0.5053  0.0411 -0.6949
  484MPD2    N1 7260   2.274   2.338  12.871  0.1482 -0.3424 -0.4391
  484MPD2    H7 7261   2.211   2.371  12.944  2.9494  1.1204  1.3334
  485TMC3    C1 7262   2.857   2.285  12.547  0.3416 -0.3782  0.0191
  485TMC3    C2 7263   2.935   2.171  12.536 -0.2847  1.2431  0.3034
  485TMC3    C3 7264   3.049   2.171  12.461 -0.3055  0.2323  0.4309
  485TMC3    C4 7265   2.905   2.402  12.488 -0.6960  0.3315  0.1401
  485TMC3    C5 7266   3.012   2.399  12.403 -0.6874  0.6579 -0.1001
  485TMC3    C6 7267   3.094   2.288  12.400 -0.2624 -0.1185 -0.4403
  485TMC3     C 7268   2.740   2.282  12.632  0.0123 -0.2448 -0.6888
  485TMC3     O 7269   2.683   2.175  12.650  0.3162 -0.1736 -0.0907
  485TMC3     H 7270   2.900   2.082  12.585  3.2817 -1.0273 -1.2120
  485TMC3    H1 7271   2.839   2.487  12.478 -0.6265  0.2967 -0.6713
  485TMC3    H2 7272   3.178   2.289  12.332  0.6714 -0.3313  0.7088
  485TMC3    C7 7273   2.971   2.422  12.263 -0.1290 -0.5603 -0.2498
  485TMC3    C8 7274   3.084   2.051  12.382  0.2326  0.9645 -0.6171
  485TMC3    O1 7275   2.858   2.390  12.234 -0.1155  0.1447  0.3328
  485TMC3    O2 7276   3.120   2.064  12.264  0.2724  0.4975 -0.3516
  486MPD2     C 7277   4.017   1.313  13.105  0.0528 -0.8604  0.5137
  486MPD2    C1 7278   4.123   1.314  13.018 -0.6299 -0.7105  0.1289
  486MPD2    C2 7279   4.113   1.391  12.900 -0.1614  0.0116 -0.4860
  486MPD2    C3 7280   4.000   1.476  12.884 -0.1650 -0.7078 -0.6973
  486MPD2    C4 7281   3.898   1.471  12.974  0.0205  0.3106  0.1815
  486MPD2    C5 7282   3.904   1.389  13.081  0.4853 -0.7574 -1.0649
  486MPD2     H 7283   4.193   1.387  12.827  0.0303  2.3767 -0.4179
  486MPD2    H1 7284   3.810   1.534  12.968  1.4797  2.3027 -0.3027
  486MPD2    H2 7285   4.027   1.252  13.194 -2.1742 -1.5720  0.2567
  486MPD2    H3 7286   3.822   1.394  13.152  1.6578  0.8171  0.1995
  486MPD2     N 7287   3.989   1.557  12.769  0.4338  0.2054  0.4950
  486MPD2    H5 7288   4.065   1.545  12.703 -0.2227 -0.2098 -0.1879
  486MPD2    N1 7289   4.233   1.237  13.055  0.4109 -0.0906  0.4731
  486MPD2    H7 7290   4.243   1.207  13.151  1.3473  2.2015  1.0849
  487TMC3    C1 7291   4.441   1.134  13.037  0.1733  0.1233  0.7547
  487TMC3    C2 7292   4.502   1.020  12.983 -0.2364  0.1719  0.5405
  487TMC3    C3 7293   4.620   0.973  13.035  0.1234 -0.4362 -0.6026
  487TMC3    C4 7294   4.489   1.191  13.147  0.4918  0.2498  0.2769
  487TMC3    C5 7295   4.597   1.135  13.208  0.5735  0.2594 -0.3900
  487TMC3    C6 7296   4.672   1.037  13.143 -0.6146  0.4100 -0.1821
  487TMC3     C 7297   4.325   1.187  12.971 -0.1598 -0.1922 -1.0395
  487TMC3     O 7298   4.312   1.177  12.851 -0.1408 -0.5567  0.3883
  487TMC3     H 7299   4.460   0.958  12.904 -0.1144  0.8611 -0.0707
  487TMC3    H1 7300   4.438   1.271  13.199 -1.4722 -2.2957  2.2666
  487TMC3    H2 7301   4.725   0.977  13.216 -2.9588 -2.0567 -0.4810
  487TMC3    C7 7302   4.577   1.093  13.343  0.5778  0.2082 -0.3084
  487TMC3    C8 7303   4.614   0.827  13.059  0.1543 -0.0158  0.8304
  487TMC3    O1 7304   4.662   1.074  13.425  0.2526 -0.1430  0.5896
  487TMC3    O2 7305   4.705   0.753  13.030  0.5061  0.2017 -0.1801
  488MPD2     C 7306   0.060   2.947  16.261 -0.2110 -0.2391  0.2901
  488MPD2    C1 7307   0.092   3.064  16.332 -0.5294 -0.3831  0.2490
  488MPD2    C2 7308   0.081   3.065  16.470  0.7363  1.2176 -0.3959
  488MPD2    C3 7309   0.052   2.951  16.542 -0.3657 -0.4070  0.8035
  488MPD2    C4 7310   4.730   2.844  16.471  0.3982 -0.2082 -0.3615
  488MPD2    C5 7311   4.735   2.849  16.333 -0.3650 -0.4700  0.3623
  488MPD2     H 7312   0.097   3.155  16.528 -0.5530  0.6866  0.7918
  488MPD2    H1 7313   4.703   2.755  16.527 -0.4790 -1.6290 -3.0287
  488MPD2    H2 7314   0.064   2.956  16.154 -2.9641 -2.0233  0.0400
  488MPD2    H3 7315   4.698   2.758  16.288  0.5358 -0.0542 -1.1950
  488MPD2     N 7316   0.044   2.965  16.679  0.1625  0.2879  0.6133
  488MPD2    H5 7317   0.087   3.047  16.720  2.1361 -0.1423 -0.5814
  488MPD2    N1 7318   0.135   3.182  16.275  0.0146  0.4569  0.3670
  488MPD2    H7 7319   0.130   3.262  16.337  0.3674  1.7816 -1.3218
  489TMC3    C1 7320   0.014   2.926  16.907  0.0768 -0.2087  0.2270
  489TMC3    C2 7321   0.037   3.061  16.930 -0.0944 -0.1783  0.2552
  489TMC3    C3 7322   4.712   3.115  17.047 -0.7819 -0.5294  0.2269
  489TMC3    C4 7323   4.691   2.846  17.003 -0.2954  0.1119 -0.1712
  489TMC3    C5 7324   4.653   2.898  17.129  0.5014 -0.2925 -0.1291
  489TMC3    C6 7325   4.656   3.035  17.146  0.2335 -0.0668 -0.3790
  489TMC3     C 7326   0.011   2.871  16.769  0.2383  0.1401  0.2461
  489TMC3     O 7327   4.691   2.763  16.744  0.2199  0.6678  0.3603
  489TMC3     H 7328   0.073   3.123  16.849  0.6792 -0.6333  0.2481
  489TMC3    H1 7329   4.691   2.738  16.994  0.7733  0.2682 -1.9795
  489TMC3    H2 7330   4.615   3.073  17.239  0.2425  0.6738 -0.6783
  489TMC3    C7 7331   4.583   2.813  17.224  0.3636 -0.2589 -0.1525
  489TMC3    C8 7332   4.734   3.257  17.072  0.3452 -0.2181 -0.4268
  489TMC3    O1 7333   4.568   2.867  17.330 -0.2917  0.2304  0.1200
  489TMC3    O2 7334   0.089   3.301  17.005  0.0759  0.4505 -0.4576
  490MPD2     C 7335   1.095   2.332  17.112 -0.0391  0.0104  1.3359
  490MPD2    C1 7336   0.992   2.414  17.143 -0.5575  0.5943  0.2647
  490MPD2    C2 7337   1.013   2.548  17.137 -0.2063 -0.1597  0.2032
  490MPD2    C3 7338   1.131   2.604  17.112 -0.4780 -0.3305  0.0932
  490MPD2    C4 7339   1.230   2.520  17.069  0.8462 -0.0462 -0.1359
  490MPD2    C5 7340   1.214   2.384  17.066 -0.4590  0.3492  0.4152
  490MPD2     H 7341   0.936   2.615  17.176  0.2068 -0.0912  0.8958
  490MPD2    H1 7342   1.329   2.549  17.038  1.5309 -1.2850  0.8816
  490MPD2    H2 7343   1.078   2.225  17.113  0.7842 -0.1251  1.0241
  490MPD2    H3 7344   1.297   2.324  17.031 -1.2503 -0.4908 -0.0123
  490MPD2     N 7345   1.161   2.742  17.138  1.0435 -0.0306  0.1544
  490MPD2    H5 7346   1.258   2.766  17.125  0.3501  2.8995  0.3968
  490MPD2    N1 7347   0.860   2.362  17.162  0.4600  1.0972 -0.1836
  490MPD2    H7 7348   0.781   2.424  17.150 -0.7177 -0.2662  0.4771
  491TMC3    C1 7349   0.708   2.215  17.257 -0.4085  0.2046  0.3748
  491TMC3    C2 7350   0.681   2.158  17.374 -0.9270 -0.2750  0.4944
  491TMC3    C3 7351   0.546   2.137  17.399  0.5586  0.4441  0.1194
  491TMC3    C4 7352   0.615   2.246  17.163 -0.4315  0.0717  0.9935
  491TMC3    C5 7353   0.479   2.231  17.201  0.4155  0.1888  0.0555
  491TMC3    C6 7354   0.453   2.173  17.317 -0.5002 -0.1400 -0.4231
  491TMC3     C 7355   0.844   2.241  17.215  0.5379  0.0492 -0.2825
  491TMC3     O 7356   0.924   2.163  17.258  0.3064  0.2292  0.0659
  491TMC3     H 7357   0.771   2.126  17.425 -1.0365  0.6802  1.2937
  491TMC3    H1 7358   0.644   2.274  17.062  0.7469 -0.2553  1.2455
  491TMC3    H2 7359   0.353   2.145  17.350  0.2730 -2.3588  0.0271
  491TMC3    C7 7360   0.372   2.246  17.110 -0.5558 -0.1138 -0.0847
  491TMC3    C8 7361   0.495   2.104  17.529  0.1049  0.3418 -0.2164
  491TMC3    O1 7362   0.283   2.161  17.126 -0.6431 -0.1956 -0.1894
  491TMC3    O2 7363   0.394   2.165  17.563  0.2445  0.6491  0.0243
  492MPD2     C 7364   0.639   1.460  11.022  0.6899 -0.2338 -0.6741
  492MPD2    C1 7365   0.674   1.573  11.087 -0.1158  0.3091  0.3434
  492MPD2    C2 7366   0.673   1.576  11.226  0.2962 -0.6704  1.0635
  492MPD2    C3 7367   0.656   1.454  11.295  0.1133 -0.0194 -0.2560
  492MPD2    C4 7368   0.629   1.338  11.223 -0.0556  0.0961 -0.0775
  492MPD2    C5 7369   0.617   1.341  11.089  0.5272  0.4237  0.2309
  492MPD2     H 7370   0.715   1.655  11.287  0.1775  0.4529 -0.3247
  492MPD2    H1 7371   0.611   1.239  11.264  0.3944  0.3557  0.7529
  492MPD2    H2 7372   0.619   1.460  10.915  3.5375  0.6652 -1.2266
  492MPD2    H3 7373   0.602   1.253  11.027  0.7655  2.0923 -2.2159
  492MPD2     N 7374   0.663   1.451  11.433  0.3337  0.2643  0.3007
  492MPD2    H5 7375   0.670   1.359  11.475 -0.5628  0.2328  0.3880
  492MPD2    N1 7376   0.713   1.686  11.011 -0.3501  0.4315  0.1909
  492MPD2    H7 7377   0.721   1.677  10.910 -1.3555  1.8574 -0.0211
  493TMC3    C1 7378   0.736   1.921  10.964 -0.4120 -0.9314  0.3477
  493TMC3    C2 7379   0.794   2.041  10.989  0.6010 -0.3364  0.6610
  493TMC3    C3 7380   0.825   2.129  10.884 -0.1635 -0.2411  0.2899
  493TMC3    C4 7381   0.697   1.899  10.833  0.3271  0.6985 -0.0124
  493TMC3    C5 7382   0.721   1.995  10.736 -0.5116 -1.5593  0.7154
  493TMC3    C6 7383   0.795   2.109  10.757 -0.3763  0.2466  0.2005
  493TMC3     C 7384   0.741   1.812  11.058 -0.4441  0.9374 -0.7501
  493TMC3     O 7385   0.774   1.854  11.170  0.0565 -0.4611 -0.2789
  493TMC3     H 7386   0.824   2.060  11.092 -2.9079 -2.0037  1.9652
  493TMC3    H1 7387   0.636   1.812  10.811  2.2425 -0.4923 -0.6285
  493TMC3    H2 7388   0.811   2.178  10.675  2.9842  0.7978  1.3036
  493TMC3    C7 7389   0.637   1.979  10.614 -0.0405  0.2833  0.6410
  493TMC3    C8 7390   0.916   2.237  10.924  0.2762  0.4183  0.3060
  493TMC3    O1 7391   0.568   1.880  10.609  0.4072 -0.3702  0.4810
  493TMC3    O2 7392   0.969   2.229  11.034 -0.1014 -0.1463  0.7648
  494TMC3    C1 7393   1.782   0.063   0.444  0.3470  0.3913 -0.3617
  494TMC3    C2 7394   1.724   4.674   0.479 -0.2049  0.0706 -0.5993
  494TMC3    C3 7395   1.665   4.604   0.386  0.5249 -0.1908  0.1507
  494TMC3    C4 7396   1.770   0.122   0.322  0.1373 -0.6452  0.3907
  494TMC3    C5 7397   1.701   0.045   0.228 -0.4088  0.2083  0.3968
  494TMC3    C6 7398   1.656   4.649   0.254  0.4772  0.1930 -0.8177
  494TMC3     C 7399   1.801   0.143   0.566  0.3939 -0.1602 -0.4368
  494TMC3     O 7400   1.706   0.148   0.638 -0.0337  0.1645 -0.1918
  494TMC3     H 7401   1.736   4.640   0.582  0.1662  0.5878 -0.4734
  494TMC3    H1 7402   1.797   0.224   0.300 -2.1669 -0.3240 -0.8217
  494TMC3    H2 7403   1.596   4.599   0.179  1.1143  0.1505 -1.2909
  494TMC3    C7 7404   1.711   0.075   0.093 -0.5405 -0.4742  0.2813
  494TMC3    C8 7405   1.585   4.495   0.443 -0.2599  0.8225 -0.1954
  494TMC3    O1 7406   1.709   4.723   0.010 -0.3218  0.2139  0.6680
  494TMC3    O2 7407   1.630   4.444   0.545  0.8303 -0.2235 -0.3557
  495TMC3    C1 7408   0.105   1.063  14.170  0.5988 -0.0370 -0.2189
  495TMC3    C2 7409   0.047   1.128  14.067 -0.1222  0.6761  0.2406
  495TMC3    C3 7410   0.014   1.265  14.089 -0.3811  0.5185 -0.2197
  495TMC3    C4 7411   0.137   1.120  14.289  0.3948  0.1825  0.2291
  495TMC3    C5 7412   0.115   1.257  14.301 -0.4245  0.9378  0.3011
  495TMC3    C6 7413   0.061   1.325  14.198  0.1705  0.7358 -0.0623
  495TMC3     C 7414   0.160   0.926  14.150 -0.0687  0.3149  0.1257
  495TMC3     O 7415   0.174   0.889  14.036 -0.0724  0.1478 -0.1917
  495TMC3     H 7416   0.017   1.068  13.982  3.0721 -1.7246  0.8013
  495TMC3    H1 7417   0.169   1.063  14.375  0.5494 -0.5956 -0.3460
  495TMC3    H2 7418   0.037   1.430  14.212  0.0467  0.6491  0.3779
  495TMC3    C7 7419   0.167   1.328  14.427  0.1423 -0.5171 -0.0454
  495TMC3    C8 7420   4.612   1.299  14.066 -0.0144 -0.0779  0.0614
  495TMC3    O1 7421   0.225   1.252  14.503 -0.3135 -0.0457 -0.8547
  495TMC3    O2 7422   4.554   1.349  14.158 -0.0712  0.5180 -0.4122
  496MPD2     C 7423   1.944   1.836  15.613  0.7096 -0.4657  0.4721
  496MPD2    C1 7424   1.971   1.784  15.486 -0.0513  0.0794  1.1328
  496MPD2    C2 7425   1.873   1.749  15.397  0.3801  0.8522  0.2096
  496MPD2    C3 7426   1.746   1.753  15.444  0.1354 -0.5050 -0.0757
  496MPD2    C4 7427   1.718   1.808  15.569  0.0065  0.1974  0.1552
  496MPD2    C5 7428   1.816   1.845  15.655 -0.3116 -0.1411 -0.0804
  496MPD2     H 7429   1.906   1.714  15.300 -1.5920  1.0647 -0.5406
  496MPD2    H1 7430   1.614   1.804  15.602 -0.9846  2.0611 -2.7670
  496MPD2    H2 7431   2.021   1.864  15.684 -0.3924  0.8814  1.1356
  496MPD2    H3 7432   1.793   1.877  15.756  1.0011 -0.5513  0.3470
  496MPD2     N 7433   1.628   1.714  15.370  0.4028 -0.0871  0.1416
  496MPD2    H5 7434   1.536   1.736  15.405  0.5309  0.0521  0.3882
  496MPD2    N1 7435   2.111   1.778  15.461 -0.5522  0.1806  0.0892
  496MPD2    H7 7436   2.166   1.798  15.544  0.1912 -1.0074 -0.1159
  497TMC3    C1 7437   1.508   1.580  15.222  0.7735 -0.2112 -0.4434
  497TMC3    C2 7438   1.512   1.499  15.117 -0.7009 -0.1571  0.3741
  497TMC3    C3 7439   1.461   1.368  15.125  0.7038 -0.0728  0.0100
  497TMC3    C4 7440   1.435   1.543  15.331  0.2050 -0.0172  0.6200
  497TMC3    C5 7441   1.382   1.415  15.334  0.2591 -0.3306 -0.2516
  497TMC3    C6 7442   1.391   1.327  15.232 -0.2445  0.1881 -0.1944
  497TMC3     C 7443   1.636   1.647  15.251 -0.1669  0.0616  0.5140
  497TMC3     O 7444   1.737   1.597  15.199 -0.0849 -0.5963 -0.0263
  497TMC3     H 7445   1.565   1.537  15.030 -0.5727 -1.0623  0.0560
  497TMC3    H1 7446   1.421   1.605  15.419  2.9650  2.3082 -0.5829
  497TMC3    H2 7447   1.360   1.224  15.248 -0.6931  0.5984  1.5759
  497TMC3    C7 7448   1.400   1.358  15.463 -0.2966 -0.6294  0.1580
  497TMC3    C8 7449   1.479   1.263  15.022  0.4307  0.0846  0.0755
  497TMC3    O1 7450   1.328   1.267  15.500 -0.0384 -0.1355 -0.2311
  497TMC3    O2 7451   1.408   1.163  15.038 -0.3619 -0.6011 -0.3204
  498MPD2     C 7452   2.439   1.890   9.897 -0.0213  0.1540 -0.2803
  498MPD2    C1 7453   2.565   1.895   9.954  0.2337  0.3329 -0.3432
  498MPD2    C2 7454   2.631   1.775   9.977 -0.7134  0.2190 -0.0425
  498MPD2    C3 7455   2.558   1.659   9.959 -0.1109 -0.2359  0.5075
  498MPD2    C4 7456   2.431   1.658   9.901  0.7552 -0.0576 -0.1066
  498MPD2    C5 7457   2.375   1.775   9.864 -0.3613 -0.7291 -0.3296
  498MPD2     H 7458   2.734   1.769  10.010 -0.4264  0.4046 -0.8970
  498MPD2    H1 7459   2.379   1.565   9.883 -2.3317  1.8479 -0.8951
  498MPD2    H2 7460   2.391   1.984   9.874  0.3733  0.3153 -0.4575
  498MPD2    H3 7461   2.276   1.781   9.821  0.4872  3.1092 -1.7365
  498MPD2     N 7462   2.618   1.535  10.000  0.7256  0.6605  0.0184
  498MPD2    H5 7463   2.698   1.540  10.062 -0.8556 -0.0719  2.1305
  498MPD2    N1 7464   2.634   2.021   9.973 -0.3303  0.2887 -0.5020
  498MPD2    H7 7465   2.729   2.013  10.008 -0.1784  0.8201 -0.8010
  499TMC3    C1 7466   2.678   2.260   9.988 -0.7873 -0.3552  0.5230
  499TMC3    C2 7467   2.806   2.229  10.027 -0.0647  0.7521  0.4584
  499TMC3    C3 7468   2.893   2.333  10.037 -0.4909  0.3106  0.3595
  499TMC3    C4 7469   2.623   2.384   9.988  1.0801  0.0621  0.0796
  499TMC3    C5 7470   2.714   2.487  10.013  0.2052  0.0260  0.0458
  499TMC3    C6 7471   2.848   2.462  10.014 -0.2301 -0.2910  0.0408
  499TMC3     C 7472   2.579   2.147   9.960  0.0144 -0.4958  0.7634
  499TMC3     O 7473   2.463   2.174   9.933  0.2630  0.0885  0.0942
  499TMC3     H 7474   2.845   2.129  10.012 -0.1717  0.4326  2.3397
  499TMC3    H1 7475   2.520   2.408   9.968  0.6376 -0.8239  1.2805
  499TMC3    H2 7476   2.916   2.547  10.019  1.4881 -1.6317 -0.6964
  499TMC3    C7 7477   2.672   2.618   9.970 -0.3088 -0.9194 -0.5083
  499TMC3    C8 7478   3.029   2.303  10.089 -0.0782  0.3338 -0.3116
  499TMC3    O1 7479   2.759   2.692   9.918 -0.2744  0.2666  0.2341
  499TMC3    O2 7480   3.042   2.194  10.138  0.3230 -0.3530 -0.1835
  500MPD2     C 7481   4.246   3.121  10.517  0.3195 -0.4903  0.1027
  500MPD2    C1 7482   4.245   3.109  10.386 -0.3413  0.7520  0.4286
  500MPD2    C2 7483   4.124   3.118  10.317  0.4108 -0.0482 -0.6663
  500MPD2    C3 7484   4.004   3.136  10.384  0.1847 -0.1850  0.7759
  500MPD2    C4 7485   4.005   3.130  10.524 -0.6799 -0.8118  0.1918
  500MPD2    C5 7486   4.127   3.122  10.587 -1.0002 -0.5735 -0.3259
  500MPD2     H 7487   4.126   3.115  10.209  2.2739  0.3901 -0.6485
  500MPD2    H1 7488   3.911   3.112  10.576 -1.1973 -0.7701 -0.7382
  500MPD2    H2 7489   4.332   3.112  10.582 -0.9672 -1.8528  1.6338
  500MPD2    H3 7490   4.136   3.113  10.694  1.4017 -0.2013 -0.4747
  500MPD2     N 7491   3.874   3.123  10.329  0.1766  0.4175 -0.5584
  500MPD2    H5 7492   3.801   3.115  10.400 -0.2084 -2.5029 -1.2947
  500MPD2    N1 7493   4.367   3.093  10.314  0.1562 -0.1026 -0.3616
  500MPD2    H7 7494   4.356   3.100  10.214 -1.6180 -0.3573 -0.1790
  501TMC3    C1 7495   4.595   3.074  10.263  0.3215  0.2786 -0.5935
  501TMC3    C2 7496   4.605   3.191  10.193  0.1434  0.2800 -0.5998
  501TMC3    C3 7497   4.728   3.242  10.165 -0.6009  0.4438  0.2861
  501TMC3    C4 7498   4.706   3.010  10.297 -0.4621 -0.1292  0.4993
  501TMC3    C5 7499   0.091   3.065  10.272 -0.3626  0.7334  0.7766
  501TMC3    C6 7500   0.107   3.183  10.208 -0.5180  0.4450  0.2174
  501TMC3     C 7501   4.491   3.071  10.367 -0.0917 -0.2776  0.1630
  501TMC3     O 7502   4.520   3.017  10.471 -0.2320  0.2719 -0.1516
  501TMC3     H 7503   4.521   3.256  10.171 -2.2247 -1.6095  2.7949
  501TMC3    H1 7504   4.705   2.917  10.352 -0.3613  0.0352  0.7794
  501TMC3    H2 7505   0.206   3.225  10.192 -0.5032 -0.2455 -1.4455
  501TMC3    C7 7506   0.190   3.047  10.365 -0.6362  0.1555 -0.6255
  501TMC3    C8 7507   0.001   3.383  10.155 -0.2448 -0.1729 -0.0025
  501TMC3    O1 7508   0.218   2.929  10.375  0.7693 -0.6111 -0.2170
  501TMC3    O2 7509   4.659   3.455  10.216  0.4104 -0.1444  0.6274
  502TMC3    C1 7510   4.388   1.767  14.626 -0.1754  0.1937  0.5886
  502TMC3    C2 7511   4.373   1.875  14.542 -0.7390 -0.0399 -0.0777
  502TMC3    C3 7512   4.262   1.949  14.560  0.9197 -0.0940 -0.8547
  502TMC3    C4 7513   4.288   1.735  14.708  0.0153  0.3831 -0.3158
  502TMC3    C5 7514   4.179   1.811  14.713 -0.5617 -0.8742 -0.0763
  502TMC3    C6 7515   4.155   1.918  14.635 -0.0941 -0.2213 -0.1320
  502TMC3     C 7516   4.507   1.776  14.703  0.1714 -0.5328  0.1821
  502TMC3     O 7517   4.598   1.834  14.645  0.3205 -0.2744 -0.0435
  502TMC3     H 7518   4.441   1.897  14.460  0.0432  0.8726  0.8062
  502TMC3    H1 7519   4.301   1.648  14.770 -0.6869  0.2403 -0.3707
  502TMC3    H2 7520   4.077   1.992  14.653 -2.5880 -2.6999 -0.7222
  502TMC3    C7 7521   4.123   1.812  14.849 -0.2170 -0.3925  0.4616
  502TMC3    C8 7522   4.311   2.084  14.589 -0.3778  0.1414  0.4912
  502TMC3    O1 7523   4.202   1.777  14.935 -0.2133 -0.0914 -0.2964
  502TMC3    O2 7524   4.252   2.179  14.539  0.2801  0.8350 -0.1955
  503MPD2     C 7525   2.020   3.478  16.906  0.0624  0.2329  0.0864
  503MPD2    C1 7526   1.981   3.478  17.039  0.0942  0.4014  0.8323
  503MPD2    C2 7527   2.043   3.395  17.125  0.2184 -0.1542 -0.4959
  503MPD2    C3 7528   2.110   3.281  17.072  0.3485 -0.5960  0.7920
  503MPD2    C4 7529   2.123   3.268  16.935 -0.6428 -0.2141  0.0923
  503MPD2    C5 7530   2.080   3.367  16.851  0.0749  0.0138 -0.2762
  503MPD2     H 7531   2.016   3.403  17.229 -2.8538  0.0251 -1.3156
  503MPD2    H1 7532   2.174   3.184  16.890  0.4176  0.1009  0.6985
  503MPD2    H2 7533   1.996   3.555  16.833  0.4476  1.0966  0.8733
  503MPD2    H3 7534   2.106   3.363  16.746  0.9391  2.1906 -0.1488
  503MPD2     N 7535   2.154   3.180  17.159 -0.3039  0.4412 -0.0408
  503MPD2    H5 7536   2.167   3.210  17.255  0.1354 -0.2609  0.1229
  503MPD2    N1 7537   1.912   3.589  17.099 -0.0035 -0.4207  0.5616
  503MPD2    H7 7538   1.915   3.585  17.200 -2.7144 -1.9861  0.5740
  504TMC3    C1 7539   2.264   2.994  17.250  0.1039 -0.1958 -0.3757
  504TMC3    C2 7540   2.222   3.021  17.379 -0.0558  0.5045 -0.3382
  504TMC3    C3 7541   2.301   2.982  17.482 -0.8185  0.4844  0.6450
  504TMC3    C4 7542   2.362   2.903  17.225 -0.0809 -0.0435  0.4980
  504TMC3    C5 7543   2.443   2.868  17.329  0.1977 -0.2949  0.1475
  504TMC3    C6 7544   2.414   2.906  17.459 -0.2068  0.3187  0.2695
  504TMC3     C 7545   2.210   3.061  17.133  0.8356 -0.1871 -0.2018
  504TMC3     O 7546   2.214   3.000  17.029 -0.3658 -0.4687 -0.5208
  504TMC3     H 7547   2.129   3.071  17.403 -2.0996 -2.4679 -2.0763
  504TMC3    H1 7548   2.407   2.887  17.127 -2.9808 -0.8816 -0.6853
  504TMC3    H2 7549   2.471   2.887  17.549  0.8752  2.3727  0.0163
  504TMC3    C7 7550   2.572   2.828  17.286 -0.3119  0.5064  0.3728
  504TMC3    C8 7551   2.246   3.001  17.612  0.4606  0.2395  0.1396
  504TMC3    O1 7552   2.580   2.759  17.184  0.1478 -0.5640  0.1048
  504TMC3    O2 7553   2.321   3.015  17.705 -0.4100  0.1810 -0.2484
  505MPD2     C 7554   2.464   1.507  11.027 -0.1508  0.0747 -0.3513
  505MPD2    C1 7555   2.509   1.385  11.070 -0.2773 -0.1316  0.3256
  505MPD2    C2 7556   2.645   1.376  11.101 -0.6073  0.4725  0.0972
  505MPD2    C3 7557   2.732   1.487  11.081 -0.3646  0.0595  0.2249
  505MPD2    C4 7558   2.682   1.602  11.030 -0.0228  0.3067 -0.0389
  505MPD2    C5 7559   2.549   1.613  11.005  0.2925  0.0669  0.0157
  505MPD2     H 7560   2.694   1.282  11.122  0.4790  1.2477  1.0694
  505MPD2    H1 7561   2.741   1.685  10.992 -1.0236  0.6684 -0.7959
  505MPD2    H2 7562   2.358   1.525  11.012 -0.1949  1.9893  2.1398
  505MPD2    H3 7563   2.512   1.706  10.965  0.8669 -0.7292 -2.4026
  505MPD2     N 7564   2.870   1.469  11.117  0.7439  0.8738  0.7482
  505MPD2    H5 7565   2.899   1.377  11.149  0.9061  0.6088 -0.1895
  505MPD2    N1 7566   2.428   1.271  11.073 -0.6796 -0.1494  0.0671
  505MPD2    H7 7567   2.333   1.272  11.037 -0.7886 -2.1152  0.2834
  506TMC3    C1 7568   2.352   1.056  11.135 -0.1890 -0.6844  0.0205
  506TMC3    C2 7569   2.308   1.029  11.008  0.5130  0.4146 -0.3014
  506TMC3    C3 7570   2.291   0.896  10.974 -0.4141 -0.0028  0.4796
  506TMC3    C4 7571   2.378   0.949  11.220 -0.3207  0.1936 -0.1359
  506TMC3    C5 7572   2.367   0.817  11.177 -0.7812  0.5562  0.3618
  506TMC3    C6 7573   2.319   0.789  11.055 -0.3249  1.0850 -0.0927
  506TMC3     C 7574   2.450   1.160  11.147 -0.5432  0.3163  0.0924
  506TMC3     O 7575   2.549   1.128  11.207 -0.0731  0.4402  0.3126
  506TMC3     H 7576   2.289   1.112  10.940  1.1111  0.3168 -0.5900
  506TMC3    H1 7577   2.422   0.966  11.318  1.0822  0.1565 -0.7617
  506TMC3    H2 7578   2.317   0.688  11.014  0.9691  0.1060  2.2300
  506TMC3    C7 7579   2.493   0.752  11.193 -0.3949  0.3231 -0.6130
  506TMC3    C8 7580   2.230   0.859  10.849 -0.0107 -0.3481  0.2308
  506TMC3    O1 7581   2.502   0.637  11.157 -0.2858  0.2358 -0.3516
  506TMC3    O2 7582   2.167   0.758  10.837 -0.4981 -0.0835 -0.1468
  507TMC3    C1 7583   2.708   2.357  15.368  0.1942 -0.3574 -0.2726
  507TMC3    C2 7584   2.595   2.347  15.293  0.4169 -0.4559  0.4782
  507TMC3    C3 7585   2.593   2.368  15.157 -0.1003 -0.2419  0.1870
  507TMC3    C4 7586   2.816   2.428  15.322  0.3943 -0.3503 -0.0061
  507TMC3    C5 7587   2.813   2.462  15.187  0.9658 -0.8483 -0.3058
  507TMC3    C6 7588   2.708   2.420  15.103  0.5665  0.8878 -0.0752
  507TMC3     C 7589   2.721   2.304  15.499  0.5781 -0.6059  0.0460
  507TMC3     O 7590   2.793   2.364  15.580 -0.3043 -0.1490  0.3521
  507TMC3     H 7591   2.501   2.315  15.338 -0.5353 -1.3182 -2.1356
  507TMC3    H1 7592   2.895   2.458  15.390 -0.8336  1.3207  0.6581
  507TMC3    H2 7593   2.721   2.440  14.997  2.2005  0.4018  0.0272
  507TMC3    C7 7594   2.857   2.597  15.154 -0.2715 -0.1583 -0.4015
  507TMC3    C8 7595   2.482   2.459  15.125  0.0075  0.2978  0.6634
  507TMC3    O1 7596   2.814   2.639  15.047  0.6372 -0.1185  0.2783
  507TMC3    O2 7597   2.376   2.439  15.185 -0.0417  0.1127  0.1406
  508MPD2     C 7598   4.124   4.680  15.926  0.3832 -0.0969 -0.2208
  508MPD2    C1 7599   4.111   0.076  15.965 -0.1799 -1.2068 -0.0361
  508MPD2    C2 7600   4.059   0.168  15.880  0.0911  0.5410 -0.2052
  508MPD2    C3 7601   4.028   0.137  15.747 -0.9942 -0.1399 -0.5424
  508MPD2    C4 7602   4.060   0.004  15.709 -0.4013  0.9505  0.8773
  508MPD2    C5 7603   4.113   4.643  15.794 -0.0649 -0.4027  0.1419
  508MPD2     H 7604   4.049   0.273  15.904 -1.2303  0.6927 -1.3857
  508MPD2    H1 7605   4.043   4.715  15.605  1.8045 -0.2084  0.7977
  508MPD2    H2 7606   4.172   4.603  15.985  0.7077 -0.9842 -1.6378
  508MPD2    H3 7607   4.136   4.547  15.750 -0.9784 -1.3697  1.7484
  508MPD2     N 7608   3.977   0.242  15.664  0.3133  0.3271 -0.1164
  508MPD2    H5 7609   3.966   0.337  15.698 -1.3646 -0.2072  0.8321
  508MPD2    N1 7610   4.166   0.115  16.091  0.4825  0.0927 -0.3387
  508MPD2    H7 7611   4.232   0.048  16.131  0.7491  0.0405 -0.8584
  509TMC3    C1 7612   3.836   0.551  15.520  0.0097 -0.4289 -0.0868
  509TMC3    C2 7613   3.918   0.609  15.427  0.5931  0.0170 -0.6204
  509TMC3    C3 7614   3.997   0.525  15.352  0.4403  0.6533  0.5278
  509TMC3    C4 7615   3.831   0.418  15.545  0.5132  0.2663 -0.3711
  509TMC3    C5 7616   3.905   0.341  15.466  0.5507 -0.2224  0.4265
  509TMC3    C6 7617   3.992   0.394  15.373  0.2566 -0.0286 -0.3140
  509TMC3     C 7618   3.726   0.630  15.574  0.1661  0.4239  0.4888
  509TMC3     O 7619   3.690   0.613  15.690 -0.2001 -0.3424 -0.7454
  509TMC3     H 7620   3.910   0.717  15.422  0.1406 -0.0308 -0.9106
  509TMC3    H1 7621   3.767   0.377  15.622  2.2203 -1.0616  0.3622
  509TMC3    H2 7622   4.053   0.319  15.324 -0.8107 -1.2342  0.2293
  509TMC3    C7 7623   3.951   0.223  15.532 -0.3483  0.3039  0.3986
  509TMC3    C8 7624   4.132   0.568  15.319 -0.3162  0.5458 -0.1465
  509TMC3    O1 7625   3.978   0.127  15.460 -0.1437 -0.0743 -0.2391
  509TMC3    O2 7626   4.214   0.478  15.315 -0.0630 -0.1368  0.3819
  510MPD2     C 7627   1.567   1.796  14.369  0.1873  0.1204  0.5051
  510MPD2    C1 7628   1.586   1.751  14.493  0.5241  0.0051  0.8579
  510MPD2    C2 7629   1.722   1.753  14.534  1.1107  0.3747  0.0946
  510MPD2    C3 7630   1.828   1.824  14.473  0.7016 -0.5954  0.7198
  510MPD2    C4 7631   1.798   1.869  14.349  0.3722 -0.6067  0.0876
  510MPD2    C5 7632   1.672   1.857  14.297 -0.2592  0.3400  0.3669
  510MPD2     H 7633   1.734   1.698  14.626 -1.4755 -1.6215 -0.7648
  510MPD2    H1 7634   1.869   1.923  14.288  1.9774 -0.8382  1.7276
  510MPD2    H2 7635   1.469   1.808  14.325 -0.0540  0.7633  1.2132
  510MPD2    H3 7636   1.656   1.885  14.194 -2.3974 -1.4664  0.1930
  510MPD2     N 7637   1.949   1.835  14.538 -0.1431 -0.1910  0.6890
  510MPD2    H5 7638   1.954   1.796  14.631  2.1021  0.5788  0.8972
  510MPD2    N1 7639   1.469   1.701  14.571 -0.1179  0.6685 -0.2975
  510MPD2    H7 7640   1.380   1.698  14.524 -0.5649  2.4299  0.4294
  511TMC3    C1 7641   1.358   1.615  14.749  0.4678 -0.5878 -0.5015
  511TMC3    C2 7642   1.305   1.648  14.869  0.8005  1.2281  0.2762
  511TMC3    C3 7643   1.219   1.558  14.919 -0.3105 -1.1394 -0.6809
  511TMC3    C4 7644   1.328   1.507  14.670 -0.0494 -0.0303  0.4328
  511TMC3    C5 7645   1.245   1.425  14.728 -0.1638  0.1405 -0.3777
  511TMC3    C6 7646   1.180   1.448  14.849 -0.5868 -0.4628 -0.2610
  511TMC3     C 7647   1.480   1.678  14.707 -0.0070  0.1004  0.0353
  511TMC3     O 7648   1.564   1.707  14.792  0.6166 -0.2475  0.2407
  511TMC3     H 7649   1.350   1.736  14.914  0.6878  0.5780  1.6539
  511TMC3    H1 7650   1.382   1.487  14.578 -0.7662 -1.4133  0.3213
  511TMC3    H2 7651   1.106   1.376  14.883 -0.3783  0.0298  1.2146
  511TMC3    C7 7652   1.240   1.292  14.664  0.7105  0.7155 -0.4308
  511TMC3    C8 7653   1.164   1.598  15.050 -0.0943 -0.3862 -0.3756
  511TMC3    O1 7654   1.285   1.290  14.550 -0.3590  0.0139  0.3317
  511TMC3    O2 7655   1.176   1.718  15.080  0.4310  0.4858 -0.2376
  512TMC3    C1 7656   0.655   0.737  13.400  0.3159  0.3129 -0.1459
  512TMC3    C2 7657   0.699   0.819  13.494  0.0135 -0.0715 -0.0359
  512TMC3    C3 7658   0.751   0.769  13.611 -0.2092  0.5813  0.2665
  512TMC3    C4 7659   0.647   0.604  13.420  0.0773 -0.4082  1.2651
  512TMC3    C5 7660   0.688   0.559  13.539 -0.1751 -0.1120 -0.6640
  512TMC3    C6 7661   0.749   0.638  13.633  0.3326  0.2338 -0.4478
  512TMC3     C 7662   0.576   0.796  13.289 -0.4572 -0.0595 -0.3815
  512TMC3     O 7663   0.548   0.915  13.299 -0.4013  0.7272 -0.0910
  512TMC3     H 7664   0.702   0.925  13.469  1.8996 -0.0404  0.3656
  512TMC3    H1 7665   0.594   0.545  13.347  1.5889  0.0017 -0.1802
  512TMC3    H2 7666   0.791   0.597  13.724  0.6279 -0.1830 -0.7679
  512TMC3    C7 7667   0.682   0.417  13.564 -0.5253  0.2675 -0.0749
  512TMC3    C8 7668   0.788   0.848  13.719 -0.2477  0.2891  0.4467
  512TMC3    O1 7669   0.734   0.377  13.667 -0.3266  0.3441  0.2971
  512TMC3    O2 7670   0.860   0.802  13.805  0.4426 -0.0011 -0.5690
  513MPD2     C 7671   2.303   1.202  13.555  0.3703 -0.3611 -0.2930
  513MPD2    C1 7672   2.378   1.120  13.478 -0.2285  0.3704 -0.2291
  513MPD2    C2 7673   2.474   1.052  13.542  0.6390 -0.1540  0.9097
  513MPD2    C3 7674   2.500   1.058  13.676  0.0213 -0.1662 -0.8259
  513MPD2    C4 7675   2.413   1.135  13.753 -0.0698 -0.3245  0.3113
  513MPD2    C5 7676   2.310   1.197  13.691  0.3927  0.0849  0.1987
  513MPD2     H 7677   2.548   0.991  13.491  1.2038  2.1759 -1.0424
  513MPD2    H1 7678   2.424   1.144  13.861  0.4527  1.0468  0.1393
  513MPD2    H2 7679   2.224   1.261  13.510 -0.5505 -0.7362  0.8147
  513MPD2    H3 7680   2.239   1.254  13.750  0.0690 -0.3594  0.2408
  513MPD2     N 7681   2.609   0.990  13.727 -0.4636  0.2597 -0.4317
  513MPD2    H5 7682   2.668   0.947  13.656  0.6948 -0.8192  1.1886
  513MPD2    N1 7683   2.357   1.103  13.338 -0.4110  0.6012 -0.2234
  513MPD2    H7 7684   2.297   1.171  13.291 -1.6676 -1.4902 -1.6494
  514TMC3    C1 7685   2.370   1.004  13.121  0.1019  0.7377 -0.0879
  514TMC3    C2 7686   2.398   1.124  13.064 -0.3089  0.8030  0.8835
  514TMC3    C3 7687   2.456   1.115  12.935 -0.3118  0.0340 -0.2352
  514TMC3    C4 7688   2.383   0.878  13.063 -0.0217  0.3634 -0.1492
  514TMC3    C5 7689   2.456   0.877  12.952  0.5425  0.5159 -0.2720
  514TMC3    C6 7690   2.489   0.994  12.884  0.0470  0.1426  0.3780
  514TMC3     C 7691   2.397   0.997  13.266  0.9003  0.4544  0.0464
  514TMC3     O 7692   2.447   0.890  13.301 -0.6548  0.1759 -0.0908
  514TMC3     H 7693   2.368   1.218  13.110 -0.3391  0.8634  0.7391
  514TMC3    H1 7694   2.360   0.786  13.116 -0.3333  0.5502  0.0401
  514TMC3    H2 7695   2.551   0.981  12.796 -0.4048  0.3863  0.0268
  514TMC3    C7 7696   2.564   0.782  12.958 -0.1326  0.0478  0.0196
  514TMC3    C8 7697   2.437   1.224  12.843  0.5140 -0.0144  0.2090
  514TMC3    O1 7698   2.616   0.740  12.855  0.1774  0.0801  0.0813
  514TMC3    O2 7699   2.387   1.325  12.893 -0.3393 -0.3321  0.6385
  515MPD2     C 7700   0.147   3.343  14.855 -0.4499 -0.4779  0.2937
  515MPD2    C1 7701   0.228   3.225  14.859  0.1605 -0.0553  0.1900
  515MPD2    C2 7702   0.336   3.219  14.949 -0.3152 -0.7615 -0.2904
  515MPD2    C3 7703   0.363   3.319  15.042 -1.1367 -0.3811 -0.2900
  515MPD2    C4 7704   0.290   3.429  15.030 -0.3782 -0.4398 -0.2781
  515MPD2    C5 7705   0.182   3.443  14.942  0.2516  0.0309  0.0085
  515MPD2     H 7706   0.388   3.124  14.957  1.4188  0.3800  1.9790
  515MPD2    H1 7707   0.301   3.515  15.095  0.0060  1.7793 -3.2772
  515MPD2    H2 7708   0.065   3.355  14.785 -1.3651 -0.8761  1.3110
  515MPD2    H3 7709   0.128   3.537  14.944 -0.4448 -0.4134  2.3676
  515MPD2     N 7710   0.456   3.308  15.144 -0.1699  0.1168  0.2398
  515MPD2    H5 7711   0.460   3.373  15.222  1.8358  2.0496 -1.4821
  515MPD2    N1 7712   0.201   3.118  14.774 -0.3121 -0.4808  0.0183
  515MPD2    H7 7713   0.270   3.045  14.787  0.7109  0.4583 -0.1025
  516TMC3    C1 7714   0.113   3.000  14.585 -0.5276 -0.0701 -1.0372
  516TMC3    C2 7715   0.036   3.016  14.476  0.1684 -1.0272  0.4328
  516TMC3    C3 7716   0.012   2.910  14.395 -0.0316  0.2823  0.0217
  516TMC3    C4 7717   0.176   2.887  14.616 -0.3748  0.3458 -0.4965
  516TMC3    C5 7718   0.151   2.784  14.530  0.8032  0.5333  0.4483
  516TMC3    C6 7719   0.072   2.790  14.418  0.0998 -0.1409  0.4963
  516TMC3     C 7720   0.115   3.118  14.669  0.6630 -0.1902 -0.0386
  516TMC3     O 7721   0.036   3.204  14.636 -0.1665 -0.1694 -0.4166
  516TMC3     H 7722   4.713   3.105  14.461 -0.0734 -1.5004 -1.5440
  516TMC3    H1 7723   0.247   2.879  14.697  2.0258  0.3990 -2.6011
  516TMC3    H2 7724   0.042   2.704  14.359 -1.4351 -0.0917  1.2110
  516TMC3    C7 7725   0.188   2.657  14.581 -0.6348  0.2944 -0.5369
  516TMC3    C8 7726   4.642   2.906  14.300 -0.1478  0.6908  0.9045
  516TMC3    O1 7727   0.234   2.654  14.693  0.3647  0.6070 -0.0673
  516TMC3    O2 7728   4.587   2.795  14.284 -0.5825  0.3697  0.4617
  517MPD2     C 7729   0.205   0.071  17.348 -0.3818 -0.4356  0.4505
  517MPD2    C1 7730   0.243   4.712  17.440 -0.4197 -0.2962  0.2788
  517MPD2    C2 7731   0.195   4.723  17.565 -0.1454 -0.3193  0.1695
  517MPD2    C3 7732   0.113   0.092  17.607 -0.2379 -0.0092  0.1297
  517MPD2    C4 7733   0.092   0.194  17.516 -0.2208  0.0928  0.5347
  517MPD2    C5 7734   0.128   0.176  17.380 -0.0046  0.4887  0.0867
  517MPD2     H 7735   0.232   4.661  17.646 -0.6961 -1.2135 -0.2746
  517MPD2    H1 7736   0.032   0.280  17.545  0.4733  1.0229 -0.7819
  517MPD2    H2 7737   0.237   0.061  17.245  0.8444  0.3816  0.7606
  517MPD2    H3 7738   0.104   0.247  17.301 -0.5521  0.4943  0.2615
  517MPD2     N 7739   0.068   0.115  17.735  0.1855 -0.6967 -0.1631
  517MPD2    H5 7740   0.033   0.203   0.028  0.2389 -0.9097  0.4225
  517MPD2    N1 7741   0.325   4.600  17.419 -0.2957 -0.1349  0.6894
  517MPD2    H7 7742   0.325   4.526  17.487 -0.1254 -0.1028  0.7254
  518TMC3    C1 7743   0.476   4.463  17.309 -0.5844  0.0970  0.7198
  518TMC3    C2 7744   0.408   4.347  17.317  0.5165  0.1434  0.2570
  518TMC3    C3 7745   0.484   4.237  17.318  0.0142  0.0440 -0.4149
  518TMC3    C4 7746   0.616   4.470  17.299 -0.4017 -0.3046 -0.0092
  518TMC3    C5 7747   0.689   4.356  17.295  0.6939  0.6825 -0.8667
  518TMC3    C6 7748   0.619   4.237  17.309 -0.1498  0.3981 -0.5661
  518TMC3     C 7749   0.401   4.591  17.304 -0.3336 -0.1627  0.9890
  518TMC3     O 7750   0.428   4.671  17.213  0.1843 -0.1468  0.7778
  518TMC3     H 7751   0.300   4.337  17.318  0.4619  0.4808 -1.5012
  518TMC3    H1 7752   0.656   4.567  17.271 -2.1117  0.7107  1.0738
  518TMC3    H2 7753   0.669   4.142  17.323  0.7559  0.9277 -0.1992
  518TMC3    C7 7754   0.825   4.368  17.337 -0.0432  0.0508 -0.3491
  518TMC3    C8 7755   0.417   4.112  17.311 -0.3213  0.2452 -0.8137
  518TMC3    O1 7756   0.860   4.473  17.383  0.0137  0.3162 -0.1851
  518TMC3    O2 7757   0.473   4.019  17.256  0.5469  0.0603  0.3718
  519MPD2     C 7758   1.651   2.448  14.529 -0.5609  0.4226  0.5178
  519MPD2    C1 7759   1.618   2.501  14.406 -0.2643 -1.3655  0.1165
  519MPD2    C2 7760   1.696   2.465  14.303 -0.1966 -0.1496 -0.4464
  519MPD2    C3 7761   1.818   2.394  14.315  0.5659  0.3814 -0.5051
  519MPD2    C4 7762   1.847   2.343  14.435  0.4435 -0.2840 -0.0849
  519MPD2    C5 7763   1.768   2.382  14.543 -0.0937  0.1474 -0.1160
  519MPD2     H 7764   1.653   2.475  14.204 -2.1616  3.9750  0.8365
  519MPD2    H1 7765   1.944   2.298  14.455  0.3925  0.3740  1.6971
  519MPD2    H2 7766   1.580   2.450  14.610  1.1067 -1.2233  2.0203
  519MPD2    H3 7767   1.802   2.360  14.644  0.7908  0.2808 -0.3811
  519MPD2     N 7768   1.903   2.368  14.209  0.4008 -0.1446 -0.5998
  519MPD2    H5 7769   1.978   2.302  14.229  0.1886 -0.5250 -1.0524
  519MPD2    N1 7770   1.500   2.586  14.406 -0.3046  0.4219  0.3647
  519MPD2    H7 7771   1.452   2.609  14.493  1.5175  2.6290  0.7810
  520TMC3    C1 7772   1.957   2.345  13.983  0.0346  0.5381 -0.1926
  520TMC3    C2 7773   1.917   2.380  13.854  0.6619 -0.6034  0.3546
  520TMC3    C3 7774   1.973   2.298  13.759 -0.3746 -0.7358 -0.2570
  520TMC3    C4 7775   2.041   2.240  14.011 -0.1604 -0.1098  0.1548
  520TMC3    C5 7776   2.091   2.167  13.906 -0.0349  0.0617  0.4942
  520TMC3    C6 7777   2.068   2.202  13.777 -0.0615 -0.1907 -0.6830
  520TMC3     C 7778   1.887   2.420  14.085  0.1166  0.7226  0.0809
  520TMC3     O 7779   1.829   2.523  14.051 -0.2495  0.2668  0.4055
  520TMC3     H 7780   1.870   2.476  13.835  1.0569 -0.5649 -0.4058
  520TMC3    H1 7781   2.079   2.214  14.109  0.6196 -0.0365 -0.1316
  520TMC3    H2 7782   2.098   2.138  13.695  0.1845  1.0226 -1.5375
  520TMC3    C7 7783   2.200   2.080  13.930 -0.2640 -0.2987 -0.0023
  520TMC3    C8 7784   1.921   2.328  13.622  0.5510 -0.5436  0.9010
  520TMC3    O1 7785   2.219   2.056  14.051  0.1041  0.9547 -0.3216
  520TMC3    O2 7786   1.992   2.305  13.527 -0.1628 -0.3209  0.5748
  521MPD2     C 7787   2.995   1.049  17.422  0.2737 -0.0195 -0.1708
  521MPD2    C1 7788   2.977   0.985  17.301 -1.1509 -0.0563  0.2250
  521MPD2    C2 7789   3.083   0.959  17.219 -0.4817  0.3460 -0.1126
  521MPD2    C3 7790   3.208   0.995  17.265 -0.0337  0.0052  0.2686
  521MPD2    C4 7791   3.227   1.059  17.379  0.8807  1.3410 -0.1008
  521MPD2    C5 7792   3.118   1.084  17.457  0.3291 -0.5635  1.0813
  521MPD2     H 7793   3.077   0.904  17.126 -0.1404 -0.2864  0.2299
  521MPD2    H1 7794   3.322   1.097  17.413 -0.0692  3.4764  0.1457
  521MPD2    H2 7795   2.909   1.088  17.475  0.0013 -1.2098  0.2648
  521MPD2    H3 7796   3.126   1.152  17.542 -0.6502  0.3664  0.4251
  521MPD2     N 7797   3.312   0.965  17.169  0.1043 -0.3196 -0.2314
  521MPD2    H5 7798   3.278   0.920  17.084  2.3153  1.7661 -2.2075
  521MPD2    N1 7799   2.846   0.969  17.260 -0.0334 -0.1034  0.1984
  521MPD2    H7 7800   2.780   1.000  17.330 -0.0956 -2.6366  1.2344
  522TMC3    C1 7801   3.525   0.984  17.068  0.1081  0.9983  0.1334
  522TMC3    C2 7802   3.662   0.958  17.079  0.3762  0.2014 -0.3210
  522TMC3    C3 7803   3.728   0.949  16.958 -0.1799 -0.0131 -0.3813
  522TMC3    C4 7804   3.464   1.010  16.947  0.1965 -0.8673  0.0882
  522TMC3    C5 7805   3.535   0.983  16.832  0.2810 -0.3445  0.5846
  522TMC3    C6 7806   3.672   0.943  16.833 -0.1496  0.0270 -0.5962
  522TMC3     C 7807   3.443   1.003  17.186  0.0001  0.4616  0.7034
  522TMC3     O 7808   3.500   1.038  17.291  0.4037  0.4537 -0.5628
  522TMC3     H 7809   3.717   0.960  17.173 -2.0828 -1.6426  1.1553
  522TMC3    H1 7810   3.366   1.056  16.948  1.5921  2.0809  0.1062
  522TMC3    H2 7811   3.735   0.943  16.745 -0.4409  2.0590 -0.8056
  522TMC3    C7 7812   3.474   0.993  16.698 -0.1203 -0.7520 -0.0426
  522TMC3    C8 7813   3.863   0.896  16.971  0.6766  0.1942 -0.0489
  522TMC3    O1 7814   3.551   0.968  16.608 -0.6216 -0.8169  0.9666
  522TMC3    O2 7815   3.920   0.907  17.081 -0.5492  0.3472  0.6289
  523MPD2     C 7816   0.129   4.294   9.520 -0.2628  0.5169  0.3885
  523MPD2    C1 7817   0.178   4.386   9.605 -0.1284 -0.0544 -0.4681
  523MPD2    C2 7818   0.162   4.520   9.579 -0.5144 -0.0134 -0.6709
  523MPD2    C3 7819   0.086   4.569   9.476 -0.2858 -1.1500  0.1924
  523MPD2    C4 7820   0.026   4.472   9.388 -0.5231  0.2055  0.2065
  523MPD2    C5 7821   0.053   4.337   9.412  0.1030 -0.5723 -0.8854
  523MPD2     H 7822   0.197   4.588   9.657 -2.2508  2.1273 -1.7749
  523MPD2    H1 7823   4.702   4.505   9.305 -1.4751 -1.3854  0.2583
  523MPD2    H2 7824   0.143   4.187   9.533  0.7013  0.3802 -1.8646
  523MPD2    H3 7825   4.734   4.271   9.346 -1.8505  0.0214  0.1420
  523MPD2     N 7826   0.071   4.705   9.449  0.2487 -0.1846 -0.4104
  523MPD2    H5 7827   0.031   4.725   9.358 -1.4783  0.6508  0.5247
  523MPD2    N1 7828   0.246   4.337   9.721  0.1264 -0.0135 -0.6087
  523MPD2    H7 7829   0.256   4.236   9.717  1.1188  0.1529 -2.3336
  524TMC3    C1 7830   0.022   0.193   9.489 -0.7597  0.2226  0.3907
  524TMC3    C2 7831   4.689   0.193   9.365 -0.1861  0.1472 -0.6904
  524TMC3    C3 7832   4.600   0.291   9.344  0.2122  0.0744  0.3601
  524TMC3    C4 7833   4.715   0.283   9.590 -0.2600 -0.5262 -0.4868
  524TMC3    C5 7834   4.610   0.367   9.563  0.1432 -0.4134 -0.0653
  524TMC3    C6 7835   4.556   0.383   9.439  1.1010  0.1640 -0.7052
  524TMC3     C 7836   0.100   0.073   9.531 -0.7085  0.0390 -1.1273
  524TMC3     O 7837   0.131   0.080   9.650  0.5688 -0.4045 -0.0779
  524TMC3     H 7838   4.733   0.142   9.280 -0.0668  0.0071 -0.5456
  524TMC3    H1 7839   0.021   0.268   9.688 -0.1684 -0.4610 -0.5162
  524TMC3    H2 7840   4.465   0.438   9.422  0.5897 -0.9570 -1.6238
  524TMC3    C7 7841   4.561   0.439   9.680  0.5076 -0.7011 -0.8317
  524TMC3    C8 7842   4.516   0.279   9.229 -0.4226 -0.0413  0.0932
  524TMC3    O1 7843   4.591   0.386   9.785  0.0526  0.2871  0.4616
  524TMC3    O2 7844   4.437   0.374   9.207 -0.1389  0.5595  0.5269
  525MPD2     C 7845   3.196   1.873  14.371 -0.5209  0.6395 -0.4726
  525MPD2    C1 7846   3.280   1.929  14.465 -0.1561 -0.5472  0.1062
  525MPD2    C2 7847   3.332   2.047  14.429 -0.0112 -0.4182  0.4655
  525MPD2    C3 7848   3.308   2.108  14.306 -0.5864 -0.5580  0.4660
  525MPD2    C4 7849   3.222   2.055  14.215 -0.0523 -0.4508  0.6844
  525MPD2    C5 7850   3.171   1.928  14.246  0.4346  0.4272 -0.2005
  525MPD2     H 7851   3.397   2.094  14.503  0.6946 -0.7096  0.0329
  525MPD2    H1 7852   3.205   2.102  14.119  0.5172  1.3320  1.4720
  525MPD2    H2 7853   3.157   1.773  14.385 -1.5629  1.2010  0.6390
  525MPD2    H3 7854   3.106   1.876  14.177 -0.1530  2.6586 -1.3230
  525MPD2     N 7855   3.362   2.240  14.278  0.2496  0.0094  0.3513
  525MPD2    H5 7856   3.305   2.289  14.209  0.1387 -1.5626 -0.6754
  525MPD2    N1 7857   3.307   1.877  14.599  0.1307 -0.0736 -0.0006
  525MPD2    H7 7858   3.381   1.921  14.652 -0.2240 -0.2193  0.6247
  526TMC3    C1 7859   3.320   1.721  14.766 -0.1502  0.3105 -0.6438
  526TMC3    C2 7860   3.254   1.713  14.885  0.3736  0.0672 -0.1409
  526TMC3    C3 7861   3.334   1.703  14.997 -0.0887 -0.3386  0.7287
  526TMC3    C4 7862   3.456   1.725  14.752  0.4699 -0.4913  0.2672
  526TMC3    C5 7863   3.533   1.714  14.865  0.2875 -0.0172  0.6766
  526TMC3    C6 7864   3.471   1.699  14.986 -0.4668 -0.3750  0.3101
  526TMC3     C 7865   3.245   1.767  14.652 -0.0713  0.2944 -0.7780
  526TMC3     O 7866   3.141   1.706  14.618  0.1586 -0.1369  0.4071
  526TMC3     H 7867   3.147   1.701  14.893  0.2003  1.3989 -0.4928
  526TMC3    H1 7868   3.508   1.742  14.658  1.5427 -2.1587  0.5411
  526TMC3    H2 7869   3.534   1.716  15.073  0.2029 -1.1919 -0.0193
  526TMC3    C7 7870   3.633   1.616  14.829 -0.1905 -0.0217 -0.4582
  526TMC3    C8 7871   3.289   1.768  15.123 -0.4726 -0.5964  0.4272
  526TMC3    O1 7872   3.604   1.549  14.733  0.3745 -0.2166 -1.2152
  526TMC3    O2 7873   3.366   1.743  15.215  0.3473 -0.1941 -0.0833
  527MPD2     C 7874   1.619   0.882   1.450 -0.2239  0.0897  0.0521
  527MPD2    C1 7875   1.583   0.840   1.325 -1.0824 -0.1905  1.1536
  527MPD2    C2 7876   1.687   0.795   1.246  0.4044  0.2139  0.7855
  527MPD2    C3 7877   1.822   0.793   1.282  0.4375 -0.1933 -0.2900
  527MPD2    C4 7878   1.852   0.836   1.410  0.4250  0.1305 -0.1909
  527MPD2    C5 7879   1.753   0.890   1.483  0.5000  0.3954 -1.0218
  527MPD2     H 7880   1.667   0.752   1.149 -0.7914 -3.1633  2.5067
  527MPD2    H1 7881   1.954   0.858   1.439  1.0912  0.0568 -2.4533
  527MPD2    H2 7882   1.540   0.919   1.514  0.0638  0.1785  0.3592
  527MPD2    H3 7883   1.779   0.935   1.579  2.4828 -1.1223 -0.8509
  527MPD2     N 7884   1.921   0.746   1.190  0.3403 -0.1035 -0.3991
  527MPD2    H5 7885   1.889   0.704   1.103 -0.5675 -3.2002  1.4194
  527MPD2    N1 7886   1.453   0.846   1.267  0.6647 -0.3258  0.3087
  527MPD2    H7 7887   1.436   0.840   1.168  2.1578  0.3870  0.0004
  528TMC3    C1 7888   1.231   0.914   1.230 -0.1309  0.6842 -0.0266
  528TMC3    C2 7889   1.253   0.991   1.116  0.6602 -0.0340 -0.1751
  528TMC3    C3 7890   1.147   1.018   1.043  0.4544 -0.2340  0.1521
  528TMC3    C4 7891   1.112   0.844   1.247  0.5347 -0.3904  0.3759
  528TMC3    C5 7892   1.015   0.859   1.159 -0.0842  0.4706 -0.1243
  528TMC3    C6 7893   1.028   0.956   1.058  0.4036  0.2267 -0.5158
  528TMC3     C 7894   1.337   0.894   1.323  0.1929 -0.3057  0.3762
  528TMC3     O 7895   1.305   0.888   1.443  0.3754  0.0664 -0.0819
  528TMC3     H 7896   1.343   1.048   1.097  0.9416 -0.8270 -1.2309
  528TMC3    H1 7897   1.109   0.772   1.328 -0.8643  0.0811  0.7310
  528TMC3    H2 7898   0.951   0.968   0.982  2.2205  0.8386 -2.2534
  528TMC3    C7 7899   0.894   0.777   1.178  0.9846  0.2637 -0.8355
  528TMC3    C8 7900   1.163   1.118   0.941 -0.9766  0.3991  0.1644
  528TMC3    O1 7901   0.908   0.678   1.250 -0.4586  0.1007 -0.5680
  528TMC3    O2 7902   1.257   1.200   0.951 -0.0295  0.3040  0.3729
  529MPD2     C 7903   3.556   4.093   0.816  0.0739 -0.5151  0.5055
  529MPD2    C1 7904   3.653   4.025   0.747  0.3854 -0.6109  0.3806
  529MPD2    C2 7905   3.689   4.057   0.614  0.1389  0.3894 -0.4024
  529MPD2    C3 7906   3.628   4.163   0.549 -0.0105 -0.1774  0.3562
  529MPD2    C4 7907   3.540   4.239   0.627  0.3344  0.2501 -0.0690
  529MPD2    C5 7908   3.503   4.198   0.756 -0.0355 -0.7547 -0.5460
  529MPD2     H 7909   3.762   3.990   0.569  1.7185  1.5394  0.4483
  529MPD2    H1 7910   3.495   4.327   0.583 -0.3736 -0.6801 -1.1869
  529MPD2    H2 7911   3.522   4.058   0.913 -0.9105 -0.0489  0.3193
  529MPD2    H3 7912   3.429   4.255   0.811  0.0473  0.4260 -1.6516
  529MPD2     N 7913   3.653   4.208   0.415 -0.0994 -0.2307 -0.0954
  529MPD2    H5 7914   3.596   4.288   0.389  1.4255  0.7002 -0.5739
  529MPD2    N1 7915   3.724   3.919   0.806 -0.5065  0.3956  0.7694
  529MPD2    H7 7916   3.787   3.878   0.737 -2.9211 -0.4907 -0.8864
  530TMC3    C1 7917   3.830   3.776   0.968  0.1374  0.2925 -0.0023
  530TMC3    C2 7918   3.883   3.772   1.091 -0.3093  0.6604 -0.3163
  530TMC3    C3 7919   3.952   3.665   1.129  0.4648  0.0327 -0.6212
  530TMC3    C4 7920   3.838   3.670   0.884 -0.2230 -0.0775  0.1585
  530TMC3    C5 7921   3.879   3.555   0.938  0.6699  0.3266 -0.0366
  530TMC3    C6 7922   3.939   3.547   1.061 -0.0443 -0.2302 -0.5598
  530TMC3     C 7923   3.735   3.885   0.940 -0.0666 -0.3758  0.2549
  530TMC3     O 7924   3.673   3.931   1.031  0.2446  0.4744 -0.1566
  530TMC3     H 7925   3.893   3.865   1.146 -1.0690  0.5072  0.0871
  530TMC3    H1 7926   3.772   3.663   0.799  1.1755  0.7688 -0.9827
  530TMC3    H2 7927   3.991   3.458   1.094 -1.2293 -0.4802  0.6007
  530TMC3    C7 7928   3.845   3.439   0.868 -0.2205 -0.1720 -0.4347
  530TMC3    C8 7929   4.060   3.689   1.226 -0.2097 -0.1283  0.3863
  530TMC3    O1 7930   3.857   3.447   0.747  0.2359  0.0353 -0.0861
  530TMC3    O2 7931   4.090   3.806   1.251 -0.5505 -0.2057  0.6893
  531MPD2     C 7932   2.918   0.550  13.277  0.5362 -0.3611  0.5628
  531MPD2    C1 7933   2.843   0.639  13.353 -0.4247  0.0754  0.0135
  531MPD2    C2 7934   2.741   0.704  13.283 -0.2321  0.3819  0.3114
  531MPD2    C3 7935   2.712   0.686  13.149 -0.4928 -0.6329 -0.2575
  531MPD2    C4 7936   2.790   0.595  13.077  0.3726 -0.8554  0.3875
  531MPD2    C5 7937   2.890   0.529  13.145  0.6464 -0.0773  0.2368
  531MPD2     H 7938   2.659   0.757  13.329  0.7742  0.7707  1.6572
  531MPD2    H1 7939   2.771   0.579  12.972 -2.0964  0.1629  0.6709
  531MPD2    H2 7940   2.998   0.493  13.322  1.7161  2.3852  1.9686
  531MPD2    H3 7941   2.970   0.474  13.098 -0.7862 -1.2274 -0.8717
  531MPD2     N 7942   2.606   0.767  13.089 -1.1284 -0.5455 -0.5348
  531MPD2    H5 7943   2.544   0.817  13.151  0.5832  1.3839 -0.4136
  531MPD2    N1 7944   2.875   0.648  13.494 -0.0573 -0.2442 -0.1307
  531MPD2    H7 7945   2.933   0.576  13.535  0.2012 -0.4834 -0.9089
  532TMC3    C1 7946   2.859   0.756  13.704 -0.5711  0.2208 -0.0666
  532TMC3    C2 7947   2.817   0.884  13.749  0.5434 -1.0957  0.0418
  532TMC3    C3 7948   2.751   0.882  13.871 -0.7670 -0.2200  0.2310
  532TMC3    C4 7949   2.838   0.639  13.775  0.0678 -0.3411  0.1158
  532TMC3    C5 7950   2.795   0.650  13.908  0.4391 -0.3203 -0.2016
  532TMC3    C6 7951   2.749   0.770  13.945  0.0177  0.5453 -0.2629
  532TMC3     C 7952   2.826   0.757  13.560 -0.1323 -0.7400  1.0614
  532TMC3     O 7953   2.748   0.848  13.530  0.2250 -0.8539  0.0913
  532TMC3     H 7954   2.843   0.974  13.694 -1.7396 -0.3020  0.2708
  532TMC3    H1 7955   2.854   0.541  13.733 -0.0460 -0.3078 -0.0059
  532TMC3    H2 7956   2.733   0.774  14.052  0.2715 -1.3487 -0.1564
  532TMC3    C7 7957   2.867   0.569  14.003  0.2142 -0.0885 -0.5893
  532TMC3    C8 7958   2.626   0.944  13.858  0.1365 -0.0817 -0.2215
  532TMC3    O1 7959   2.845   0.583  14.123 -0.4752  0.4208  0.1110
  532TMC3    O2 7960   2.555   0.973  13.954 -0.9473  0.1916  0.1751
  533TMC3    C1 7961   3.493   2.436  14.307 -0.2941  0.3848  0.2455
  533TMC3    C2 7962   3.628   2.461  14.320  0.1188  0.1826 -0.3983
  533TMC3    C3 7963   3.659   2.572  14.392 -0.2869  0.8487  0.1360
  533TMC3    C4 7964   3.395   2.512  14.358  0.5221  0.9669  0.0028
  533TMC3    C5 7965   3.436   2.617  14.436 -0.0902  0.5330 -0.7207
  533TMC3    C6 7966   3.568   2.652  14.454  0.6854  0.0538  0.0550
  533TMC3     C 7967   3.470   2.296  14.332  0.0925 -0.3457  0.3467
  533TMC3     O 7968   3.556   2.243  14.400 -0.2527  0.1477  0.1754
  533TMC3     H 7969   3.705   2.409  14.264  0.1130  0.4140 -0.6214
  533TMC3    H1 7970   3.289   2.491  14.350  0.6034  0.8617 -0.7308
  533TMC3    H2 7971   3.599   2.720  14.533 -0.2658  1.0741 -0.4583
  533TMC3    C7 7972   3.352   2.641  14.548 -0.5642 -0.0353 -0.4959
  533TMC3    C8 7973   3.791   2.629  14.388  0.7201 -0.5065 -0.0792
  533TMC3    O1 7974   3.267   2.556  14.565 -0.0306  0.2940  0.1382
  533TMC3    O2 7975   3.887   2.559  14.375  0.3187 -0.0399  0.7485
  534MPD2     C 7976   1.883   3.611   0.975  0.4720  0.0811  0.5795
  534MPD2    C1 7977   1.826   3.701   1.061 -0.5165  0.3493  0.0287
  534MPD2    C2 7978   1.691   3.710   1.062 -0.0669  0.7425 -0.3292
  534MPD2    C3 7979   1.611   3.636   0.976  0.2132 -0.2103 -0.5845
  534MPD2    C4 7980   1.674   3.542   0.888  0.5897 -0.9214  0.3980
  534MPD2    C5 7981   1.812   3.536   0.889 -0.9073 -0.5804  0.6321
  534MPD2     H 7982   1.645   3.783   1.127  0.4854 -0.1468  1.0551
  534MPD2    H1 7983   1.626   3.471   0.821 -1.6996 -1.8234  2.9858
  534MPD2    H2 7984   1.990   3.600   0.974  0.4648  0.2037 -0.8169
  534MPD2    H3 7985   1.849   3.452   0.831 -2.3157 -0.1934 -0.8261
  534MPD2     N 7986   1.469   3.653   0.956  0.1493 -0.5937  0.3138
  534MPD2    H5 7987   1.429   3.615   0.872 -1.0966  0.4425  0.4276
  534MPD2    N1 7988   1.894   3.795   1.134  0.1604 -0.8648 -0.3712
  534MPD2    H7 7989   1.834   3.853   1.193  0.3385  0.7825 -1.8027
  535TMC3    C1 7990   1.260   3.769   0.996  0.1412 -0.0519 -0.2010
  535TMC3    C2 7991   1.170   3.800   1.098  0.2203  0.0995  0.4782
  535TMC3    C3 7992   1.042   3.829   1.069 -0.3100 -0.9892  0.9251
  535TMC3    C4 7993   1.234   3.783   0.863  0.3505  0.0086  0.6244
  535TMC3    C5 7994   1.102   3.813   0.843 -0.1030  0.2745 -0.3756
  535TMC3    C6 7995   1.002   3.826   0.942  0.1525  0.1204 -0.1349
  535TMC3     C 7996   1.397   3.737   1.044  0.1877  0.2575  0.3935
  535TMC3     O 7997   1.431   3.772   1.154  0.2721 -0.5945 -0.3317
  535TMC3     H 7998   1.201   3.794   1.201 -0.2982  0.8103  0.6746
  535TMC3    H1 7999   1.306   3.775   0.783  0.9734  1.4882  1.0497
  535TMC3    H2 8000   0.896   3.829   0.921  0.2627 -0.7663 -0.7903
  535TMC3    C7 8001   1.067   3.857   0.709 -0.0989  0.3585  0.1899
  535TMC3    C8 8002   0.942   3.826   1.168 -0.0727 -0.2144 -0.2943
  535TMC3    O1 8003   1.145   3.846   0.613  0.6235  0.4470 -0.9450
  535TMC3    O2 8004   0.842   3.762   1.146  0.8050  0.0899  0.1246
  536MPD2     C 8005   0.071   2.133  16.108 -0.5303 -0.5776  0.0510
  536MPD2    C1 8006   4.677   2.103  16.132 -0.7361  0.4572  0.2630
  536MPD2    C2 8007   4.596   2.078  16.017  0.3745  0.0141  0.8271
  536MPD2    C3 8008   4.635   2.097  15.884 -0.2610  0.6437  0.4927
  536MPD2    C4 8009   0.033   2.130  15.875  0.0317 -0.4275 -0.5371
  536MPD2    C5 8010   0.114   2.142  15.983  0.5212 -0.1380 -0.3351
  536MPD2     H 8011   4.489   2.063  16.032  0.3342 -0.6037 -0.0733
  536MPD2    H1 8012   0.074   2.132  15.774  0.5901  2.3596 -0.2543
  536MPD2    H2 8013   0.143   2.150  16.186  0.8289 -2.0554 -0.8909
  536MPD2    H3 8014   0.221   2.153  15.974  0.6948 -1.3080  0.2381
  536MPD2     N 8015   4.554   2.093  15.764 -0.5529 -0.0618  0.0946
  536MPD2    H5 8016   4.594   2.113  15.673  0.7267 -0.0644  0.6473
  536MPD2    N1 8017   4.635   2.117  16.266  0.8694  0.0024  0.2937
  536MPD2    H7 8018   4.713   2.143  16.326  0.9114 -0.1841  0.3202
  537TMC3    C1 8019   4.489   2.115  16.457  0.6415 -0.9056 -0.4031
  537TMC3    C2 8020   4.595   2.157  16.534 -0.0256 -0.8462  0.4663
  537TMC3    C3 8021   4.578   2.145  16.669 -0.9379 -0.1816 -0.1995
  537TMC3    C4 8022   4.366   2.076  16.512 -0.7868  0.1880  0.3456
  537TMC3    C5 8023   4.356   2.076  16.644 -0.2101  0.0667 -0.0285
  537TMC3    C6 8024   4.464   2.095  16.723 -0.4557  0.3546  1.1194
  537TMC3     C 8025   4.506   2.103  16.314 -0.6646 -0.5229  0.3604
  537TMC3     O 8026   4.411   2.045  16.262 -0.4337  0.2265 -0.1780
  537TMC3     H 8027   4.692   2.191  16.498  0.4872 -1.0622  1.6702
  537TMC3    H1 8028   4.277   2.058  16.453 -1.8307 -2.5704  2.8292
  537TMC3    H2 8029   4.445   2.099  16.830 -0.5439 -2.9891  1.2008
  537TMC3    C7 8030   4.238   2.002  16.694 -0.2234  0.5255 -0.4735
  537TMC3    C8 8031   4.695   2.177  16.756  0.2134  0.3295  0.1271
  537TMC3    O1 8032   4.134   1.999  16.628 -0.0900 -0.0166  0.3110
  537TMC3    O2 8033   4.732   2.091  16.835 -0.1972 -0.1094 -0.3392
  538TMC3    C1 8034   1.288   4.417  11.036  0.1671  0.8323  0.9253
  538TMC3    C2 8035   1.411   4.483  11.052  0.2949  1.7660  0.4702
  538TMC3    C3 8036   1.454   4.573  10.955 -0.0504 -0.6053 -0.0843
  538TMC3    C4 8037   1.214   4.439  10.927  0.0276 -0.6738  0.3109
  538TMC3    C5 8038   1.251   4.534  10.836  0.3517 -0.0799 -0.7617
  538TMC3    C6 8039   1.369   4.601  10.847  0.7094 -0.2516  0.4999
  538TMC3     C 8040   1.208   4.358  11.146 -0.1263  0.0287  1.0498
  538TMC3     O 8041   1.121   4.278  11.112  0.1190 -0.9494 -0.6451
  538TMC3     H 8042   1.475   4.463  11.137 -1.6953 -1.9886  1.1098
  538TMC3    H1 8043   1.110   4.410  10.926 -0.0667 -0.3447  1.1831
  538TMC3    H2 8044   1.384   4.678  10.771 -0.0201 -0.3991  0.2049
  538TMC3    C7 8045   1.135   4.598  10.781  0.0386 -0.6138 -0.6374
  538TMC3    C8 8046   1.580   4.640  10.980  0.1853 -0.0063  0.4406
  538TMC3    O1 8047   1.060   4.635  10.869  0.2267 -0.4342  0.1480
  538TMC3    O2 8048   1.610   4.655  11.099 -0.7237 -0.0083  0.1471
  539MPD2     C 8049   0.523   3.688  11.831 -0.8474  0.1617 -0.7791
  539MPD2    C1 8050   0.553   3.690  11.695  0.5326  0.1926 -0.0374
  539MPD2    C2 8051   0.587   3.814  11.642 -0.0806  0.1199  0.4659
  539MPD2    C3 8052   0.605   3.927  11.717  0.2150 -0.9971  0.1364
  539MPD2    C4 8053   0.567   3.919  11.852  0.3017  0.4099  0.1735
  539MPD2    C5 8054   0.536   3.802  11.908  0.1560 -0.0303 -0.2598
  539MPD2     H 8055   0.610   3.817  11.536 -0.0239 -2.1466  0.4204
  539MPD2    H1 8056   0.572   4.005  11.917  2.1688  1.1401 -0.9424
  539MPD2    H2 8057   0.511   3.595  11.885  3.5465 -1.4841 -2.5678
  539MPD2    H3 8058   0.522   3.796  12.015  1.1705 -1.6375 -0.2102
  539MPD2     N 8059   0.637   4.055  11.663  0.1176  0.0659 -1.2324
  539MPD2    H5 8060   0.630   4.129  11.732  0.5993 -0.8295 -0.2024
  539MPD2    N1 8061   0.555   3.578  11.611 -0.2598  0.3941 -0.6214
  539MPD2    H7 8062   0.588   3.600  11.517  0.3414 -2.3054 -1.0368
  540TMC3    C1 8063   0.715   4.224  11.520 -0.5620  0.0941 -0.2479
  540TMC3    C2 8064   0.703   4.271  11.394 -0.1417  0.1856  0.2184
  540TMC3    C3 8065   0.712   4.404  11.374 -0.8067  0.6881  0.3106
  540TMC3    C4 8066   0.748   4.306  11.621 -0.6990 -0.3762  1.2771
  540TMC3    C5 8067   0.760   4.440  11.594 -0.2671 -0.3298  0.7888
  540TMC3    C6 8068   0.738   4.487  11.470 -0.1176 -0.4135  0.5122
  540TMC3     C 8069   0.677   4.083  11.533 -0.2441 -0.5668  0.0192
  540TMC3     O 8070   0.691   4.010  11.435 -0.5080  0.5201 -0.3516
  540TMC3     H 8071   0.695   4.203  11.310 -0.5044  0.6652 -0.1336
  540TMC3    H1 8072   0.774   4.263  11.717  1.2688  2.2791  1.9400
  540TMC3    H2 8073   0.738   4.590  11.435 -0.9326 -0.2147  1.1231
  540TMC3    C7 8074   0.765   4.531  11.712  0.2043 -0.1557  0.0406
  540TMC3    C8 8075   0.726   4.451  11.238 -1.1482  0.4995  0.1633
  540TMC3    O1 8076   0.727   4.488  11.817 -0.5830 -0.1329  0.4879
  540TMC3    O2 8077   0.804   4.542  11.210 -0.0758 -0.2712 -0.0472
  541MPD2     C 8078   3.533   0.905  13.475 -1.1568  0.9090 -0.6902
  541MPD2    C1 8079   3.610   0.816  13.398 -0.2011  0.5873  0.1130
  541MPD2    C2 8080   3.651   0.851  13.272  0.1404  0.3624 -0.0227
  541MPD2    C3 8081   3.598   0.967  13.219  0.4329 -0.2515 -0.3356
  541MPD2    C4 8082   3.501   1.035  13.286  0.2897  0.2096 -0.4761
  541MPD2    C5 8083   3.475   1.018  13.422  0.0192  0.0803 -0.8838
  541MPD2     H 8084   3.715   0.783  13.218 -0.2539  2.0922 -2.6921
  541MPD2    H1 8085   3.465   1.126  13.239  1.4093  1.1522  0.5028
  541MPD2    H2 8086   3.495   0.879  13.574  0.9377  1.4793  0.2540
  541MPD2    H3 8087   3.424   1.093  13.480 -0.2505 -0.7183 -0.0823
  541MPD2     N 8088   3.643   1.027  13.097 -0.6973 -0.3011 -0.4049
  541MPD2    H5 8089   3.606   1.115  13.064 -2.4924 -0.4296  1.2973
  541MPD2    N1 8090   3.669   0.714  13.477 -0.0747  0.0953  0.5355
  541MPD2    H7 8091   3.656   0.719  13.577 -1.1589  0.4396  0.3772
  542TMC3    C1 8092   3.757   1.050  12.892 -0.7042 -0.5510 -0.1263
  542TMC3    C2 8093   3.874   1.030  12.842  0.4717 -0.2580 -0.1371
  542TMC3    C3 8094   3.908   1.121  12.750 -0.5551 -0.6235  0.7325
  542TMC3    C4 8095   3.670   1.151  12.864 -0.8563 -0.2129  0.3940
  542TMC3    C5 8096   3.700   1.231  12.759  0.2862  0.3495 -0.5467
  542TMC3    C6 8097   3.830   1.224  12.707  0.1807 -0.2059  0.2144
  542TMC3     C 8098   3.738   0.964  13.017  0.0687 -0.0299 -0.2831
  542TMC3     O 8099   3.798   0.861  13.041  0.1593  0.2120  0.4447
  542TMC3     H 8100   3.935   0.948  12.879  0.2244  0.1753  1.2261
  542TMC3    H1 8101   3.575   1.147  12.917 -2.0896 -1.8947 -1.9546
  542TMC3    H2 8102   3.870   1.302  12.643  0.3762  0.5868  1.2956
  542TMC3    C7 8103   3.611   1.342  12.723 -0.1604 -0.8405 -0.3883
  542TMC3    C8 8104   4.011   1.083  12.652 -0.2499 -0.2663  0.1923
  542TMC3    O1 8105   3.529   1.366  12.813  0.5560 -0.5009 -0.0151
  542TMC3    O2 8106   4.000   1.153  12.553 -0.0544 -0.3499  0.1754
  543TMC3    C1 8107   3.873   3.147  17.150 -0.0269 -0.4425 -0.0782
  543TMC3    C2 8108   3.806   3.052  17.220 -0.2610  0.7262  0.3068
  543TMC3    C3 8109   3.707   3.090  17.305 -0.0892  0.6248  0.2690
  543TMC3    C4 8110   3.852   3.277  17.171 -0.0381 -0.1066  0.0236
  543TMC3    C5 8111   3.759   3.318  17.263 -0.3844  0.0875  0.3192
  543TMC3    C6 8112   3.682   3.222  17.324 -0.0504  0.3120 -0.5503
  543TMC3     C 8113   3.875   3.107  17.008 -0.7220  0.2600 -0.6194
  543TMC3     O 8114   3.930   3.004  16.988  0.1348 -0.1507  0.3840
  543TMC3     H 8115   3.824   2.947  17.200 -1.8842  0.2272  1.4287
  543TMC3    H1 8116   3.915   3.348  17.118 -0.3059 -0.7382 -1.1369
  543TMC3    H2 8117   3.600   3.262  17.382 -0.4356  0.0086 -0.8927
  543TMC3    C7 8118   3.752   3.448  17.319  0.7301 -0.1389 -0.5163
  543TMC3    C8 8119   3.611   2.987  17.336 -0.3594  1.1625 -0.2850
  543TMC3    O1 8120   3.704   3.453  17.430  0.4459  0.4511 -0.2880
  543TMC3    O2 8121   3.606   2.882  17.270  0.1709  0.3716  0.4612
  544MPD2     C 8122   3.226   2.806  17.631 -0.0233 -0.1876 -0.0930
  544MPD2    C1 8123   3.287   2.752  17.516  0.4210  0.1895  0.4193
  544MPD2    C2 8124   3.378   2.830  17.448  0.5774 -0.5203  0.0333
  544MPD2    C3 8125   3.421   2.948  17.495  0.5562 -0.1277  0.2368
  544MPD2    C4 8126   3.367   3.001  17.605 -0.2004  0.2073 -0.0968
  544MPD2    C5 8127   3.269   2.932  17.676  0.0590 -0.1188 -0.9163
  544MPD2     H 8128   3.407   2.802  17.347  0.5504 -3.7464  0.9043
  544MPD2    H1 8129   3.413   3.088  17.650  0.7255 -0.3856  0.1104
  544MPD2    H2 8130   3.151   2.755  17.690  0.4489 -1.2160 -0.3857
  544MPD2    H3 8131   3.226   2.963   0.028  0.3422  1.2159 -1.2260
  544MPD2     N 8132   3.523   3.028  17.435  0.2069  0.2653 -0.3156
  544MPD2    H5 8133   3.557   3.114  17.477 -1.8251 -0.7473  3.4447
  544MPD2    N1 8134   3.239   2.627  17.464 -0.0594 -0.0179  0.1148
  544MPD2    H7 8135   3.148   2.591  17.490 -1.1212  2.8034  0.3632
  545TMC3    C1 8136   3.249   2.453  17.298 -0.4521 -0.6598  0.2775
  545TMC3    C2 8137   3.331   2.409  17.192  0.1660  0.4453 -0.4545
  545TMC3    C3 8138   3.308   2.287  17.133 -0.4998 -0.0140  0.2133
  545TMC3    C4 8139   3.155   2.377  17.363 -0.2428 -0.3435 -0.0501
  545TMC3    C5 8140   3.144   2.249  17.309 -0.5373 -0.8106  0.2744
  545TMC3    C6 8141   3.217   2.200  17.197 -0.3769 -0.4310 -0.0255
  545TMC3     C 8142   3.306   2.562  17.364 -0.6023  0.1620  0.5105
  545TMC3     O 8143   3.428   2.561  17.351  0.1344  0.2776  0.2666
  545TMC3     H 8144   3.392   2.478  17.136 -0.6687  1.9314  0.4561
  545TMC3    H1 8145   3.103   2.405  17.454  0.0823  1.2921 -0.3668
  545TMC3    H2 8146   3.195   2.104  17.154 -1.6469 -0.5469  0.8656
  545TMC3    C7 8147   3.069   2.150  17.382 -0.0194 -0.2910 -1.1819
  545TMC3    C8 8148   3.427   2.221  17.079 -0.2814  0.2764  0.7893
  545TMC3    O1 8149   2.979   2.190  17.452  0.3212 -0.0424  0.2918
  545TMC3    O2 8150   3.418   2.112  17.032 -0.5400 -0.1793 -0.4498
  546MPD2     C 8151   0.318   2.588  17.539  0.2630 -1.0495  0.1178
  546MPD2    C1 8152   0.234   2.616  17.435 -0.0070 -0.8535  0.1281
  546MPD2    C2 8153   0.223   2.750  17.391 -0.0618  0.1242 -0.0814
  546MPD2    C3 8154   0.306   2.846  17.455  0.4103  0.5997  0.5754
  546MPD2    C4 8155   0.383   2.820  17.563  0.2071  0.1270 -0.0154
  546MPD2    C5 8156   0.384   2.690  17.603  0.3456 -0.2621 -0.9647
  546MPD2     H 8157   0.150   2.771  17.314 -0.2375 -0.6149 -0.1142
  546MPD2    H1 8158   0.443   2.884  17.627  0.8430  0.4681 -0.9544
  546MPD2    H2 8159   0.331   2.490  17.583 -0.2952 -1.6930 -1.1426
  546MPD2    H3 8160   0.445   2.658  17.686 -1.2307 -0.9492 -0.0577
  546MPD2     N 8161   0.301   2.979  17.410 -0.2220 -0.0455 -0.1996
  546MPD2    H5 8162   0.330   3.049  17.477 -1.3874  1.9947 -1.8608
  546MPD2    N1 8163   0.167   2.508  17.381 -0.6078 -0.7736 -0.0951
  546MPD2    H7 8164   0.163   2.421  17.433  0.5136  0.0272  1.3117
  547TMC3    C1 8165   4.715   2.432  17.246 -0.1882  0.1187 -0.3063
  547TMC3    C2 8166   4.662   2.421  17.123 -0.8504  0.3714 -0.4089
  547TMC3    C3 8167   4.534   2.364  17.120 -0.2293 -0.1145 -0.1203
  547TMC3    C4 8168   4.653   2.382  17.361 -0.6974  0.9261 -0.1764
  547TMC3    C5 8169   4.542   2.297  17.349 -0.4725  0.3528 -0.3459
  547TMC3    C6 8170   4.482   2.295  17.223 -0.4492 -0.8744  0.5812
  547TMC3     C 8171   0.098   2.516  17.263  0.3677 -0.3012 -0.2184
  547TMC3     O 8172   0.116   2.593  17.168 -0.1606 -0.2821  0.1512
  547TMC3     H 8173   4.717   2.456  17.037  0.8948  1.4426  1.1275
  547TMC3    H1 8174   4.694   2.396  17.460 -0.8596 -1.0709  0.1698
  547TMC3    H2 8175   4.378   2.263  17.229 -0.5548 -1.2379 -3.2463
  547TMC3    C7 8176   4.507   2.191  17.438 -0.1244 -0.2513  0.3870
  547TMC3    C8 8177   4.455   2.387  17.000 -0.5117  0.0217 -0.4270
  547TMC3    O1 8178   4.517   2.217  17.560 -0.0282  0.3186 -0.3805
  547TMC3    O2 8179   4.472   2.489  16.933  0.7473  0.4325 -0.6086
  548MPD2     C 8180   4.348   2.832  11.943 -0.5507 -0.1955 -0.3157
  548MPD2    C1 8181   4.294   2.739  12.028  0.4776  0.1365 -0.7128
  548MPD2    C2 8182   4.368   2.620  12.040 -0.7204  0.5785 -0.4429
  548MPD2    C3 8183   4.479   2.605  11.971 -0.4463  0.2768  0.8785
  548MPD2    C4 8184   4.529   2.702  11.888  0.4039 -0.1442  0.6116
  548MPD2    C5 8185   4.468   2.822  11.882  0.1845 -0.3686 -0.6309
  548MPD2     H 8186   4.334   2.534  12.097 -2.1611  1.6836  0.3754
  548MPD2    H1 8187   4.609   2.685  11.817  0.0745 -0.1830  0.2527
  548MPD2    H2 8188   4.295   2.925  11.921 -1.3864 -0.9174 -1.3656
  548MPD2    H3 8189   4.503   2.906  11.823 -1.8571  1.3860  0.6428
  548MPD2     N 8190   4.535   2.477  11.986 -0.2663 -0.3185  0.4651
  548MPD2    H5 8191   4.488   2.417  12.054 -0.5367 -1.3228 -0.6100
  548MPD2    N1 8192   4.164   2.768  12.075 -0.2780 -0.1617 -0.6092
  548MPD2    H7 8193   4.133   2.864  12.062 -1.2471 -0.2875  0.8209
  549TMC3    C1 8194   3.950   2.714  12.171  0.3678 -0.9338 -0.3309
  549TMC3    C2 8195   3.934   2.836  12.223 -0.2782 -0.0293  0.0889
  549TMC3    C3 8196   3.812   2.872  12.274  0.4261  0.3426 -0.2012
  549TMC3    C4 8197   3.846   2.625  12.175  0.4788  0.1778  0.5664
  549TMC3    C5 8198   3.730   2.661  12.231 -0.5162  0.3652 -0.1678
  549TMC3    C6 8199   3.712   2.783  12.275 -0.2263  0.1114 -0.7269
  549TMC3     C 8200   4.079   2.675  12.119 -0.0514  0.4713 -0.1708
  549TMC3     O 8201   4.080   2.552  12.112  0.0197  1.1493  0.2458
  549TMC3     H 8202   4.017   2.906  12.223  0.1124 -0.4897 -2.0380
  549TMC3    H1 8203   3.856   2.529  12.125 -0.1529  0.1892  0.4090
  549TMC3    H2 8204   3.616   2.826  12.302 -0.9781 -1.2958 -1.1462
  549TMC3    C7 8205   3.619   2.559  12.238  0.0834  0.1938  0.8275
  549TMC3    C8 8206   3.771   3.013  12.296  0.2222 -0.5043  0.1564
  549TMC3    O1 8207   3.506   2.608  12.239  0.4002 -0.2536 -0.0062
  549TMC3    O2 8208   3.661   3.055  12.261 -0.2206 -0.8119 -0.4096
  550TMC3    C1 8209   3.170   0.602  12.754  0.3817  0.0123 -0.0831
  550TMC3    C2 8210   3.116   0.657  12.868 -0.1760 -0.1514 -0.1423
  550TMC3    C3 8211   3.043   0.770  12.851 -0.3852 -0.2440 -0.4698
  550TMC3    C4 8212   3.158   0.647  12.625 -0.9249 -0.7900 -0.8835
  550TMC3    C5 8213   3.084   0.764  12.619  0.4537 -0.1474 -0.1490
  550TMC3    C6 8214   3.031   0.832  12.723  1.0530 -0.5244  0.0918
  550TMC3     C 8215   3.235   0.475  12.774 -0.6000  0.3088 -0.3250
  550TMC3     O 8216   3.202   0.406  12.873  0.8116  1.3224 -0.5613
  550TMC3     H 8217   3.117   0.610  12.966  0.8909 -0.3494 -0.2556
  550TMC3    H1 8218   3.194   0.589  12.541  1.2890 -1.2047  0.3692
  550TMC3    H2 8219   2.981   0.927  12.708 -0.3886 -1.1909  0.6817
  550TMC3    C7 8220   3.048   0.822  12.490 -1.3423 -0.4803  1.0522
  550TMC3    C8 8221   3.003   0.847  12.967  0.7267  0.2453  0.2935
  550TMC3    O1 8222   2.957   0.908  12.499 -0.3204  0.1201  0.3139
  550TMC3    O2 8223   3.051   0.819  13.078  0.1335 -0.3820 -0.3113
  551TMC3    C1 8224   1.048   3.320  13.187 -0.4567  0.4428 -0.6311
  551TMC3    C2 8225   1.141   3.360  13.098  0.8046 -0.3789  0.1037
  551TMC3    C3 8226   1.228   3.457  13.138  0.0943 -0.7617  0.9499
  551TMC3    C4 8227   1.006   3.395  13.290  0.9480 -0.2231  0.0489
  551TMC3    C5 8228   1.087   3.500  13.327 -0.4227 -0.2224 -1.1382
  551TMC3    C6 8229   1.205   3.524  13.258  0.4916 -0.1143 -0.0161
  551TMC3     C 8230   0.956   3.218  13.136 -0.0148  0.3752 -0.3829
  551TMC3     O 8231   0.833   3.241  13.141  0.3941  0.0998  0.1960
  551TMC3     H 8232   1.157   3.311  13.002 -0.1720 -2.0871  0.8103
  551TMC3    H1 8233   0.928   3.352  13.352  1.8515 -1.2484  0.4721
  551TMC3    H2 8234   1.269   3.605  13.292 -0.6558  0.2738  1.2156
  551TMC3    C7 8235   1.054   3.602  13.429  0.1358  0.1928 -0.3020
  551TMC3    C8 8236   1.286   3.536  13.032 -0.4913 -0.1545  0.0747
  551TMC3    O1 8237   1.141   3.682  13.462  0.1999  0.2255 -0.1604
  551TMC3    O2 8238   1.252   3.507  12.915  0.2080  0.0585 -0.1271
  552MPD2     C 8239   2.481   0.811  14.194  0.3281  0.5968  0.1250
  552MPD2    C1 8240   2.524   0.686  14.246  0.5042  0.0676 -0.3623
  552MPD2    C2 8241   2.588   0.685  14.373 -0.3745 -0.2893 -0.2678
  552MPD2    C3 8242   2.615   0.799  14.439 -0.5365  0.4316  0.2147
  552MPD2    C4 8243   2.568   0.922  14.390  0.0731 -0.1255  0.2457
  552MPD2    C5 8244   2.504   0.932  14.266 -0.0968 -0.5227  0.4508
  552MPD2     H 8245   2.625   0.590  14.408  2.2055  0.4425 -0.9992
  552MPD2    H1 8246   2.596   1.016  14.436 -0.5041 -0.1837  0.7109
  552MPD2    H2 8247   2.454   0.823  14.090 -0.0360 -0.6603  0.0805
  552MPD2    H3 8248   2.487   1.023  14.210  0.3474 -1.2586 -0.8618
  552MPD2     N 8249   2.704   0.799  14.549 -0.1596  0.2258 -0.2745
  552MPD2    H5 8250   2.726   0.894  14.575 -0.9823  0.4235 -0.3258
  552MPD2    N1 8251   2.509   0.569  14.175 -0.3289 -0.5327 -0.0432
  552MPD2    H7 8252   2.532   0.485  14.228 -0.6824  0.9382  2.4035
  553TMC3    C1 8253   2.495   0.426  13.991  0.7089  0.4684 -0.6634
  553TMC3    C2 8254   2.575   0.405  13.885  0.0592  0.1238  0.9287
  553TMC3    C3 8255   2.636   0.281  13.877  0.2972  0.7534 -0.3549
  553TMC3    C4 8256   2.487   0.337  14.086  1.2430  0.5515  0.4073
  553TMC3    C5 8257   2.564   0.230  14.087  0.3747 -0.6265  1.2285
  553TMC3    C6 8258   2.642   0.200  13.982 -0.4712  0.1729  0.2621
  553TMC3     C 8259   2.467   0.556  14.043 -0.0257  0.2504 -0.3519
  553TMC3     O 8260   2.449   0.639  13.954 -0.3396 -0.2132  0.1003
  553TMC3     H 8261   2.584   0.481  13.808  1.6904 -0.1010  0.8983
  553TMC3    H1 8262   2.411   0.340  14.162  1.7641 -0.4424  0.9683
  553TMC3    H2 8263   2.694   0.105  13.973 -0.1472  0.4286 -0.5201
  553TMC3    C7 8264   2.619   0.209  14.215  0.4659  0.5611  0.4299
  553TMC3    C8 8265   2.724   0.245  13.766  0.2660 -0.3341  0.0846
  553TMC3    O1 8266   2.586   0.285  14.302 -0.0594  0.0475 -0.7576
  553TMC3    O2 8267   2.814   0.319  13.737 -0.1686  0.1012 -0.2232
  554TMC3    C1 8268   4.525   4.322  11.738 -0.3698  0.2063  0.1465
  554TMC3    C2 8269   4.427   4.345  11.648 -0.4781  0.3624 -0.0507
  554TMC3    C3 8270   4.471   4.372  11.516 -0.3044  0.2168 -0.3561
  554TMC3    C4 8271   4.657   4.319  11.707 -0.7023  0.2317  0.3643
  554TMC3    C5 8272   4.690   4.344  11.578  0.5905  0.4876 -0.2126
  554TMC3    C6 8273   4.600   4.365  11.478 -0.1936 -0.1271  0.1182
  554TMC3     C 8274   4.484   4.261  11.863  0.1795 -0.2757  0.4753
  554TMC3     O 8275   4.371   4.281  11.907 -0.0545  0.2714 -0.5753
  554TMC3     H 8276   4.321   4.342  11.671 -0.7931 -1.6016 -1.7145
  554TMC3    H1 8277   0.003   4.293  11.773 -1.2012 -0.1365  0.8428
  554TMC3    H2 8278   4.640   4.394  11.382  0.7088  1.2877  0.9062
  554TMC3    C7 8279   0.085   4.375  11.533 -0.0190  0.3880  0.2873
  554TMC3    C8 8280   4.377   4.369  11.398 -0.1323  0.0352  0.1770
  554TMC3    O1 8281   0.112   4.332  11.418 -0.1123  0.7772  0.6563
  554TMC3    O2 8282   4.434   4.358  11.293 -0.1381  0.4988  0.3526
  555TMC3    C1 8283   3.746   4.276  14.800  0.0719 -0.0188  0.1314
  555TMC3    C2 8284   3.857   4.356  14.833  0.6393  0.7199 -0.6635
  555TMC3    C3 8285   3.965   4.297  14.893  0.0308 -0.2055  0.8379
  555TMC3    C4 8286   3.739   4.144  14.828  0.0836 -0.1457 -0.1101
  555TMC3    C5 8287   3.848   4.088  14.881 -0.3675 -0.2507 -0.5060
  555TMC3    C6 8288   3.962   4.160  14.912  0.0243  0.7467 -0.0394
  555TMC3     C 8289   3.618   4.350  14.784  0.5284  0.5104  0.8833
  555TMC3     O 8290   3.613   4.455  14.850 -0.1093 -0.0294  0.1242
  555TMC3     H 8291   3.859   4.458  14.795 -1.1297  1.3219  0.8494
  555TMC3    H1 8292   3.656   4.085  14.792  0.0083  0.8668 -1.6184
  555TMC3    H2 8293   4.040   4.118  14.974 -0.8663 -0.2706  0.3770
  555TMC3    C7 8294   3.844   3.948  14.904 -0.3358  1.4002  0.4987
  555TMC3    C8 8295   4.078   4.382  14.923  0.5919  1.0511  0.5922
  555TMC3    O1 8296   3.731   3.903  14.908  0.0219  0.2793  0.2730
  555TMC3    O2 8297   4.076   4.495  14.873  0.1330 -0.0288  0.0593
  556MPD2     C 8298   1.752   1.095  10.860  0.4060  0.2709  0.0148
  556MPD2    C1 8299   1.824   0.986  10.903 -0.1335  0.2679 -0.0121
  556MPD2    C2 8300   1.844   0.878  10.813 -0.4934 -0.0120  0.2811
  556MPD2    C3 8301   1.814   0.892  10.679 -0.7118  0.6389 -0.3935
  556MPD2    C4 8302   1.762   1.012  10.637 -0.1619  0.8847  0.0969
  556MPD2    C5 8303   1.722   1.108  10.725  0.1126  0.4846 -0.1348
  556MPD2     H 8304   1.869   0.782  10.856  1.4485  0.1802 -0.4382
  556MPD2    H1 8305   1.747   1.030  10.531 -1.6518  0.7078  0.2841
  556MPD2    H2 8306   1.724   1.175  10.928 -2.2199  0.9707 -1.9054
  556MPD2    H3 8307   1.675   1.195  10.679 -1.2164 -0.2453 -0.1551
  556MPD2     N 8308   1.847   0.787  10.583  0.1803  0.0634 -0.1330
  556MPD2    H5 8309   1.880   0.701  10.626  2.2585 -0.3145 -2.4601
  556MPD2    N1 8310   1.867   0.972  11.039 -0.9050  0.1476 -0.0705
  556MPD2    H7 8311   1.901   0.881  11.071 -0.4055  0.6045  0.7099
  557TMC3    C1 8312   1.842   0.650  10.395  1.5037 -0.1912 -0.3742
  557TMC3    C2 8313   1.904   0.647  10.270 -0.1856 -0.3931  0.3059
  557TMC3    C3 8314   1.944   0.522  10.224  0.1245  0.9458  0.5203
  557TMC3    C4 8315   1.819   0.547  10.475 -0.0208 -0.3140  0.3096
  557TMC3    C5 8316   1.846   0.428  10.412  0.3165  0.0711  0.1506
  557TMC3    C6 8317   1.907   0.411  10.293  0.7905  0.1111 -0.5416
  557TMC3     C 8318   1.811   0.778  10.449  0.0389  0.0040 -0.1248
  557TMC3     O 8319   1.755   0.859  10.374 -0.3919 -0.2298 -0.1157
  557TMC3     H 8320   1.922   0.739  10.215 -1.2592 -0.6623 -0.5002
  557TMC3    H1 8321   1.770   0.557  10.572  0.6460 -0.8412  0.7010
  557TMC3    H2 8322   1.931   0.309  10.266  2.5847  0.1859  0.7688
  557TMC3    C7 8323   1.830   0.306  10.499  0.6985  0.3478  0.4235
  557TMC3    C8 8324   2.062   0.528  10.142  0.1028  0.2638 -0.6978
  557TMC3    O1 8325   1.796   0.202  10.444  0.6112  0.5904 -0.2914
  557TMC3    O2 8326   2.128   0.631  10.146  0.4083 -0.3838  0.1413
  558TMC3    C1 8327   3.710   3.067  10.172 -0.3336 -0.0358  0.0904
  558TMC3    C2 8328   3.632   3.006  10.270  0.3494 -0.3602 -0.3147
  558TMC3    C3 8329   3.500   2.981  10.231 -0.3767  0.3529  0.1634
  558TMC3    C4 8330   3.662   3.111  10.053  0.2899  0.2436  0.4589
  558TMC3    C5 8331   3.531   3.096  10.029  0.1530 -0.7007  0.0425
  558TMC3    C6 8332   3.449   3.034  10.119 -0.2442 -0.3598  0.5183
  558TMC3     C 8333   3.846   3.109  10.192  0.7675  0.0501 -0.1625
  558TMC3     O 8334   3.924   3.114  10.097 -0.1185  0.7866 -0.2184
  558TMC3     H 8335   3.667   2.946  10.352  0.0006  2.5028  1.9255
  558TMC3    H1 8336   3.733   3.159   9.987  1.4644 -1.5324  0.4097
  558TMC3    H2 8337   3.350   3.012  10.081 -1.1359  1.2844  1.8699
  558TMC3    C7 8338   3.492   3.104   9.891 -0.2264  0.5688  0.2567
  558TMC3    C8 8339   3.416   2.906  10.317  0.2169  0.3299 -0.0194
  558TMC3    O1 8340   3.588   3.119   9.816 -0.2302 -0.3753 -0.2574
  558TMC3    O2 8341   3.324   2.841  10.265  0.4083  0.0845  0.6161
  559MPD2     C 8342   3.995   3.945  10.477 -0.1108 -0.0097 -0.5584
  559MPD2    C1 8343   3.906   3.872  10.556 -0.9157  0.1054  0.3559
  559MPD2    C2 8344   3.955   3.792  10.664 -0.3546 -0.3123 -0.4721
  559MPD2    C3 8345   4.088   3.795  10.697 -0.4691 -0.4947 -0.2328
  559MPD2    C4 8346   4.175   3.870  10.611  0.4375 -0.0562  0.5968
  559MPD2    C5 8347   4.127   3.939  10.502 -0.1175  0.1176 -0.2032
  559MPD2     H 8348   3.888   3.728  10.721  0.7090  0.3074  1.4749
  559MPD2    H1 8349   4.284   3.871  10.616  0.5137 -0.1329 -0.8953
  559MPD2    H2 8350   3.953   4.007  10.399  2.0874  0.6427 -1.2160
  559MPD2    H3 8351   4.215   3.971  10.447 -1.3928  0.5899 -1.9371
  559MPD2     N 8352   4.127   3.721  10.807 -0.0062 -0.7653 -0.2134
  559MPD2    H5 8353   4.066   3.662  10.862 -0.9799 -0.5937 -1.1157
  559MPD2    N1 8354   3.764   3.888  10.533 -0.0773  0.4602 -0.2951
  559MPD2    H7 8355   3.731   3.970  10.484 -2.6315 -0.4248 -0.1025
  560TMC3    C1 8356   4.278   3.632  10.961 -0.1100 -0.4977  0.4571
  560TMC3    C2 8357   4.192   3.532  10.988 -0.8592  0.0884  0.2829
  560TMC3    C3 8358   4.225   3.449  11.096  0.3130 -0.1116  0.4471
  560TMC3    C4 8359   4.384   3.652  11.047  0.0166 -0.0544 -1.0710
  560TMC3    C5 8360   4.410   3.568  11.155  0.2873  0.4935  0.3964
  560TMC3    C6 8361   4.333   3.460  11.179  0.2742  0.5601  0.6893
  560TMC3     C 8362   4.257   3.724  10.852 -0.1327  0.2027  0.1158
  560TMC3     O 8363   4.353   3.794  10.824 -0.2354 -0.0920 -0.2709
  560TMC3     H 8364   4.109   3.517  10.920 -2.1418 -1.8200  2.2743
  560TMC3    H1 8365   4.444   3.740  11.032  2.9751 -1.8094  0.5188
  560TMC3    H2 8366   4.331   3.406  11.273  0.0217 -0.7008 -0.0281
  560TMC3    C7 8367   4.509   3.595  11.252  0.0086 -0.2229  0.0305
  560TMC3    C8 8368   4.122   3.353  11.126  0.0523 -0.0888  0.2257
  560TMC3    O1 8369   4.490   3.546  11.365  0.0185  0.5506  0.3730
  560TMC3    O2 8370   4.010   3.393  11.100  0.5529  0.0197 -0.1162
  561TMC3    C1 8371   2.464   2.966  11.204 -0.1099 -0.3167  0.0032
  561TMC3    C2 8372   2.405   2.877  11.290  0.3012  0.0134  0.8899
  561TMC3    C3 8373   2.353   2.916  11.404  0.3119  0.1869 -0.6884
  561TMC3    C4 8374   2.468   3.095  11.234 -0.3740 -0.1197  0.4360
  561TMC3    C5 8375   2.414   3.131  11.354 -0.5033  0.0082 -0.3868
  561TMC3    C6 8376   2.356   3.042  11.444  0.0837 -0.3302 -0.2268
  561TMC3     C 8377   2.513   2.904  11.083  0.0521 -0.8183  0.3775
  561TMC3     O 8378   2.541   2.785  11.093  0.1870  0.1673  0.3151
  561TMC3     H 8379   2.402   2.771  11.269 -0.7709  0.2595 -0.1883
  561TMC3    H1 8380   2.526   3.155  11.165  0.7633 -2.1224 -0.3592
  561TMC3    H2 8381   2.328   3.077  11.543 -0.5157  0.9829 -0.8532
  561TMC3    C7 8382   2.349   3.261  11.372 -0.4212  0.1412 -0.7115
  561TMC3    C8 8383   2.301   2.821  11.500 -0.8271  0.4534  0.0400
  561TMC3    O1 8384   2.280   3.273  11.472 -0.2569  0.6986 -0.0800
  561TMC3    O2 8385   2.355   2.709  11.501  0.5018  0.0405  0.1994
  562TMC3    C1 8386   3.935   0.022  16.500  0.5051  0.3708 -0.1973
  562TMC3    C2 8387   3.832   0.110  16.519 -0.0949 -0.1066  0.4035
  562TMC3    C3 8388   3.750   0.132  16.414  0.7034 -0.8030 -0.0995
  562TMC3    C4 8389   3.964   4.690  16.386  0.5798 -0.3461  0.5715
  562TMC3    C5 8390   3.878   4.713  16.284  0.3066  0.1419 -0.0593
  562TMC3    C6 8391   3.773   0.064  16.293 -0.5535 -0.3336  0.6027
  562TMC3     C 8392   4.030   4.726  16.606 -0.0932 -0.0746 -0.0274
  562TMC3     O 8393   4.131   4.655  16.572 -0.5441 -0.5749 -0.5093
  562TMC3     H 8394   3.819   0.168  16.610  0.2839 -0.3911  0.6381
  562TMC3    H1 8395   4.045   4.620  16.374  0.9512  0.1471  0.2232
  562TMC3    H2 8396   3.716   0.089  16.204  1.5390  3.4998  0.3524
  562TMC3    C7 8397   3.851   4.612  16.178  0.2737 -0.4780 -0.4201
  562TMC3    C8 8398   3.648   0.232  16.427 -1.1148  0.3975 -0.7386
  562TMC3    O1 8399   3.756   4.636  16.103 -0.6570  0.0302 -0.2721
  562TMC3    O2 8400   3.664   0.311  16.521 -0.4731 -0.6293 -0.4129
  563MPD2     C 8401   1.010   1.164  15.797  0.8609 -0.0256  0.0194
  563MPD2    C1 8402   1.062   1.221  15.907 -0.7034 -0.0714 -0.6423
  563MPD2    C2 8403   1.185   1.181  15.949 -0.1679 -0.7366 -0.4983
  563MPD2    C3 8404   1.257   1.087  15.880 -0.2895 -0.0499 -0.6193
  563MPD2    C4 8405   1.215   1.049  15.748 -0.0156 -0.0411  0.3744
  563MPD2    C5 8406   1.083   1.080  15.721 -0.5386  0.4858  0.2920
  563MPD2     H 8407   1.217   1.218  16.046 -1.5422 -1.5437  0.2615
  563MPD2    H1 8408   1.260   0.980  15.677  0.9411  1.7536 -0.7747
  563MPD2    H2 8409   0.916   1.198  15.754  0.2002 -2.4094 -0.4322
  563MPD2    H3 8410   1.023   1.040  15.640 -0.9231  0.7931  0.4223
  563MPD2     N 8411   1.374   1.039  15.939  0.5152 -0.1210  0.0034
  563MPD2    H5 8412   1.391   1.058  16.037  0.8720 -0.5899  0.0342
  563MPD2    N1 8413   0.983   1.320  15.966 -0.4209 -0.3357  0.3524
  563MPD2    H7 8414   0.894   1.342  15.922 -0.6090 -0.1220  0.8341
  564TMC3    C1 8415   0.918   1.368  16.181  0.0397  0.6925 -0.2299
  564TMC3    C2 8416   0.805   1.303  16.133 -0.0321  0.3969 -0.4910
  564TMC3    C3 8417   0.770   1.180  16.176  0.4202  0.2377  0.0895
  564TMC3    C4 8418   0.983   1.310  16.289 -0.2217  0.4755 -0.2603
  564TMC3    C5 8419   0.944   1.181  16.331 -0.5938  0.3415  0.7684
  564TMC3    C6 8420   0.832   1.125  16.281 -0.1675 -0.5011  0.4644
  564TMC3     C 8421   1.019   1.385  16.081 -0.2786 -0.0943 -0.4130
  564TMC3     O 8422   1.132   1.407  16.126 -0.2276  0.1676  0.2602
  564TMC3     H 8423   0.743   1.351  16.057  0.9795  3.2870  0.4819
  564TMC3    H1 8424   1.078   1.341  16.331 -0.2211 -0.6101  0.5413
  564TMC3    H2 8425   0.799   1.031  16.324  0.4535 -0.6345  0.6465
  564TMC3    C7 8426   1.048   1.077  16.324  0.0366 -0.7648  0.5470
  564TMC3    C8 8427   0.706   1.076  16.089  0.2005 -0.0062  0.3640
  564TMC3    O1 8428   1.153   1.105  16.377  0.1330  0.2480 -0.5215
  564TMC3    O2 8429   0.682   0.972  16.147 -0.4886 -0.1699  0.1905
  565TMC3    C1 8430   1.404   2.239  10.236  0.9100  0.5582  0.0725
  565TMC3    C2 8431   1.461   2.160  10.331  0.5361  0.9060 -0.7447
  565TMC3    C3 8432   1.398   2.041  10.357  0.7505  0.2533 -0.8839
  565TMC3    C4 8433   1.314   2.195  10.146 -0.2483  0.1101  0.4618
  565TMC3    C5 8434   1.265   2.067  10.170  1.0012 -0.5150 -0.3002
  565TMC3    C6 8435   1.305   1.988  10.276 -0.4872  0.2143  0.6852
  565TMC3     C 8436   1.481   2.362  10.211 -0.0517 -0.0995 -0.6973
  565TMC3     O 8437   1.508   2.395  10.094 -0.0544  0.1340 -0.6457
  565TMC3     H 8438   1.540   2.196  10.395  0.6617  0.1152 -0.4559
  565TMC3    H1 8439   1.280   2.246  10.057  1.6104 -0.9037 -0.8237
  565TMC3    H2 8440   1.246   1.901  10.304  0.8030  0.1165  3.0455
  565TMC3    C7 8441   1.191   1.999  10.071 -0.1707 -0.6242  0.0263
  565TMC3    C8 8442   1.428   1.977  10.486 -0.0086 -0.0510 -0.3758
  565TMC3    O1 8443   1.124   2.075  10.003  0.6460  0.4939 -0.5861
  565TMC3    O2 8444   1.497   2.052  10.556  0.0064 -0.4096 -0.3445
  566MPD2     C 8445   2.793   2.794  14.262  0.5615  0.0803  0.3261
  566MPD2    C1 8446   2.893   2.814  14.169 -0.0188 -0.1261  0.4473
  566MPD2    C2 8447   2.853   2.829  14.033 -0.0067 -0.1258 -0.5324
  566MPD2    C3 8448   2.717   2.822  13.998 -0.0215  0.0396  0.4336
  566MPD2    C4 8449   2.630   2.785  14.099  1.0429  0.3933 -0.0260
  566MPD2    C5 8450   2.663   2.777  14.231  0.5346 -0.1699  0.0937
  566MPD2     H 8451   2.922   2.864  13.957 -0.6013  2.8369  0.3076
  566MPD2    H1 8452   2.524   2.776  14.077  0.7516  1.1922  1.0380
  566MPD2    H2 8453   2.825   2.774  14.363 -1.2525  0.8336  1.0335
  566MPD2    H3 8454   2.591   2.745  14.305 -1.2886 -0.4332 -1.8144
  566MPD2     N 8455   2.683   2.868  13.867  0.2810  0.1298 -0.3184
  566MPD2    H5 8456   2.754   2.862  13.794  1.4179  2.6925  0.5906
  566MPD2    N1 8457   3.026   2.836  14.209 -0.1464 -0.6658  0.1259
  566MPD2    H7 8458   3.042   2.872  14.303  0.1172 -0.0851 -0.1452
  567TMC3    C1 8459   3.226   2.970  14.167 -0.9407 -0.6936 -0.2189
  567TMC3    C2 8460   3.264   3.061  14.074 -0.0321 -0.1678 -0.2486
  567TMC3    C3 8461   3.364   3.150  14.097 -0.1126  0.7879 -0.2304
  567TMC3    C4 8462   3.285   2.956  14.289 -0.0555  0.4946 -0.3441
  567TMC3    C5 8463   3.398   3.039  14.302 -0.2095 -0.5814  0.0004
  567TMC3    C6 8464   3.442   3.127  14.208 -0.5136 -0.5576 -0.3567
  567TMC3     C 8465   3.129   2.872  14.117 -0.2825 -0.0866 -0.0026
  567TMC3     O 8466   3.138   2.851  13.999 -0.4279 -0.7191  0.1217
  567TMC3     H 8467   3.207   3.081  13.984  0.3823  0.7781 -0.2976
  567TMC3    H1 8468   3.258   2.874  14.355 -1.6354  0.8742 -0.5157
  567TMC3    H2 8469   3.526   3.190  14.232 -0.2451 -0.8230 -0.6058
  567TMC3    C7 8470   3.470   3.041  14.426  0.0907  0.5201  0.5280
  567TMC3    C8 8471   3.392   3.259  13.991 -0.1253  0.3962 -0.6156
  567TMC3    O1 8472   3.521   2.941  14.472 -0.3308 -0.1982  0.1545
  567TMC3    O2 8473   3.294   3.289  13.927  0.3470 -0.0834 -0.3115
  568MPD2     C 8474   0.606   4.526  16.283  0.5466  0.5958 -0.0300
  568MPD2    C1 8475   0.715   4.599  16.337 -0.0955 -0.4503 -0.6166
  568MPD2    C2 8476   0.771   4.700  16.262 -0.2195  0.0928  0.4498
  568MPD2    C3 8477   0.724   4.713  16.127 -0.6698  0.0349 -0.0471
  568MPD2    C4 8478   0.629   4.633  16.075  0.9008 -0.1200 -0.2325
  568MPD2    C5 8479   0.573   4.538  16.154 -0.0084  0.3541  0.0794
  568MPD2     H 8480   0.850   0.030  16.297 -0.0439 -0.6981  1.5345
  568MPD2    H1 8481   0.598   4.647  15.972  1.8035 -1.8590 -0.7306
  568MPD2    H2 8482   0.554   4.448  16.338 -2.3679  2.1452 -0.5914
  568MPD2    H3 8483   0.482   4.492  16.117 -0.0055  0.8729 -0.5603
  568MPD2     N 8484   0.785   0.088  16.056 -0.0527 -0.5616  0.5366
  568MPD2    H5 8485   0.850   0.140  16.115 -1.1564  0.1035  1.1666
  568MPD2    N1 8486   0.756   4.565  16.467  0.3069 -0.0964 -0.5287
  568MPD2    H7 8487   0.711   4.486  16.513  0.0445 -0.0582 -0.7229
  569TMC3    C1 8488   0.783   0.282  15.926 -0.5263  0.1721 -0.3224
  569TMC3    C2 8489   0.848   0.336  16.038  0.1443  0.0214  0.4325
  569TMC3    C3 8490   0.907   0.455  16.017 -0.3283 -0.2317 -0.0178
  569TMC3    C4 8491   0.776   0.338  15.800  0.5428 -0.1671 -0.2837
  569TMC3    C5 8492   0.833   0.468  15.788 -0.2366  0.2655  0.2912
  569TMC3    C6 8493   0.899   0.525  15.897  0.7265 -0.0624 -0.4643
  569TMC3     C 8494   0.745   0.144  15.934  0.5116 -0.9458  0.0399
  569TMC3     O 8495   0.679   0.093  15.845 -0.0724  0.1971  0.3294
  569TMC3     H 8496   0.836   0.302  16.141 -0.8370  0.0138  0.3212
  569TMC3    H1 8497   0.733   0.294  15.711  1.6962 -1.2572 -0.3129
  569TMC3    H2 8498   0.949   0.620  15.886  1.1677 -0.1015  1.3419
  569TMC3    C7 8499   0.752   0.557  15.709 -0.1751 -0.1096  0.2609
  569TMC3    C8 8500   0.872   0.544  16.113 -0.1231  0.2042  0.1885
  569TMC3    O1 8501   0.708   0.518  15.599 -0.0366 -0.1708  0.2492
  569TMC3    O2 8502   0.795   0.623  16.066  0.7427 -0.2157  1.3970
  570TMC3    C1 8503   0.237   3.317  16.103 -0.4739  0.8419 -0.2408
  570TMC3    C2 8504   0.341   3.328  16.017 -0.1632 -0.0589 -0.4554
  570TMC3    C3 8505   0.396   3.455  16.010  0.4519 -0.2248 -0.1619
  570TMC3    C4 8506   0.177   3.426  16.161 -0.4247 -0.5313  0.4336
  570TMC3    C5 8507   0.220   3.545  16.126  0.6494  0.0721 -0.5128
  570TMC3    C6 8508   0.329   3.565  16.047 -0.2187  0.2028 -0.2383
  570TMC3     C 8509   0.186   3.188  16.146 -0.0890  0.2242 -0.1141
  570TMC3     O 8510   0.228   3.095  16.079  0.2284 -0.2113  0.5058
  570TMC3     H 8511   0.374   3.246  15.954  2.5724  0.8799 -0.2665
  570TMC3    H1 8512   0.091   3.419  16.226 -0.6526  0.5120  0.2462
  570TMC3    H2 8513   0.372   3.665  16.048  0.0294  0.0942  0.1439
  570TMC3    C7 8514   0.198   3.661  16.212 -0.1399  0.0682  0.0163
  570TMC3    C8 8515   0.510   3.479  15.929  0.1855 -0.8615  0.7619
  570TMC3    O1 8516   0.289   3.744  16.222  0.4031 -0.1003 -0.7221
  570TMC3    O2 8517   0.502   3.586  15.870 -0.0981 -0.1945  0.1617
  571MPD2     C 8518   2.690   1.273   0.177 -0.4132 -0.0298 -0.3869
  571MPD2    C1 8519   2.745   1.322   0.290 -0.8512  0.8583  0.2961
  571MPD2    C2 8520   2.873   1.378   0.282  0.6379 -0.7571 -0.2215
  571MPD2    C3 8521   2.936   1.387   0.159 -0.0612  0.3317 -0.0337
  571MPD2    C4 8522   2.879   1.335   0.040  0.2641 -0.4961 -0.4978
  571MPD2    C5 8523   2.754   1.281   0.058 -1.1230 -0.1627  0.2257
  571MPD2     H 8524   2.907   1.428   0.371  1.9525  1.6955 -2.1102
  571MPD2    H1 8525   2.920   1.336  17.682 -0.2642 -2.4829 -0.7369
  571MPD2    H2 8526   2.589   1.235   0.169 -0.4809 -0.1007  0.8017
  571MPD2    H3 8527   2.714   1.233  17.711  0.2602  1.3780 -1.2046
  571MPD2     N 8528   3.069   1.438   0.143 -0.1194 -0.1433 -0.4905
  571MPD2    H5 8529   3.100   1.446   0.046 -1.4467 -0.0125 -0.9181
  571MPD2    N1 8530   2.659   1.338   0.399  0.0839  0.7199 -0.2224
  571MPD2    H7 8531   2.561   1.313   0.393  0.6765 -1.6885  0.2677
  572TMC3    C1 8532   3.266   1.543   0.176  0.6076  0.6766 -0.2907
  572TMC3    C2 8533   3.382   1.543   0.240 -0.3276  0.1452  0.6237
  572TMC3    C3 8534   3.458   1.668   0.244 -0.4704  0.2953 -0.6939
  572TMC3    C4 8535   3.218   1.653   0.109 -0.1621 -0.3814  0.2438
  572TMC3    C5 8536   3.292   1.768   0.107 -0.0289 -0.6274  1.0690
  572TMC3    C6 8537   3.414   1.775   0.171 -0.2099  0.2885 -0.0026
  572TMC3     C 8538   3.157   1.471   0.240 -0.2251  0.2167 -0.5640
  572TMC3     O 8539   3.173   1.431   0.358  0.5454 -0.0387 -0.1028
  572TMC3     H 8540   3.408   1.458   0.302 -1.5703  0.5963  1.7729
  572TMC3    H1 8541   3.122   1.664   0.059  0.7048 -1.0811 -1.5990
  572TMC3    H2 8542   3.468   1.868   0.183 -0.0481  0.3176 -0.9545
  572TMC3    C7 8543   3.216   1.888   0.089 -0.4597  0.2122  0.1102
  572TMC3    C8 8544   3.491   1.721   0.375 -0.5655 -0.1301  0.2419
  572TMC3    O1 8545   3.102   1.899   0.131 -0.2384  0.2440 -0.2299
  572TMC3    O2 8546   3.547   1.832   0.381  0.1560  0.2342  0.1918
  573MPD2     C 8547   3.508   1.138   0.555 -0.2664 -0.2395 -0.0718
  573MPD2    C1 8548   3.586   1.234   0.507 -0.2397 -0.1130 -0.6635
  573MPD2    C2 8549   3.592   1.256   0.371 -0.3688  0.6385 -0.6317
  573MPD2    C3 8550   3.520   1.180   0.283 -0.2900 -0.2480  0.3006
  573MPD2    C4 8551   3.423   1.095   0.333  0.4198 -0.2235 -0.7102
  573MPD2    C5 8552   3.417   1.079   0.472  0.0714 -0.7787 -0.1258
  573MPD2     H 8553   3.657   1.333   0.329  0.3945  0.6589  0.5907
  573MPD2    H1 8554   3.364   1.037   0.264 -0.2787 -0.6448  0.2338
  573MPD2    H2 8555   3.499   1.128   0.663 -1.9825  0.4868 -0.1457
  573MPD2    H3 8556   3.349   1.003   0.508 -0.3043 -1.2743 -1.8744
  573MPD2     N 8557   3.522   1.198   0.149 -0.5990 -0.0889 -0.7964
  573MPD2    H5 8558   3.456   1.139   0.100 -1.1334 -0.0270 -0.1504
  573MPD2    N1 8559   3.668   1.297   0.599 -0.0603 -0.0946 -0.0867
  573MPD2    H7 8560   3.657   1.258   0.692 -1.4473  0.1426 -0.1534
  574TMC3    C1 8561   3.539   1.280  17.678 -0.0240 -0.1492 -0.3379
  574TMC3    C2 8562   3.405   1.325  17.671 -0.3070 -0.2408 -0.0409
  574TMC3    C3 8563   3.363   1.377  17.550 -0.2384  0.2578 -0.1347
  574TMC3    C4 8564   3.623   1.301  17.575  0.2184 -0.5775 -0.1485
  574TMC3    C5 8565   3.579   1.350  17.456 -0.6255  0.5183 -0.2199
  574TMC3    C6 8566   3.448   1.396  17.440  0.4792 -0.2250  0.5812
  574TMC3     C 8567   3.599   1.284   0.073 -0.0694 -0.4015 -0.5725
  574TMC3     O 8568   3.691   1.363   0.100  0.3383  0.0318 -0.2085
  574TMC3     H 8569   3.336   1.322   0.012 -0.8216 -1.4855 -0.5094
  574TMC3    H1 8570   3.725   1.267  17.584  0.4065 -0.0880 -0.4513
  574TMC3    H2 8571   3.410   1.438  17.349  0.1406  1.5588  1.5558
  574TMC3    C7 8572   3.668   1.347  17.343  0.2317  0.4521  0.7654
  574TMC3    C8 8573   3.249   1.457  17.554  0.0486 -0.1794 -0.1717
  574TMC3    O1 8574   3.783   1.331  17.375 -0.1909 -0.1084 -0.1894
  574TMC3    O2 8575   3.160   1.403  17.614 -0.1454 -0.2680 -0.3276
  575TMC3    C1 8576   1.747   2.035  11.275 -0.0014 -1.2250  0.4808
  575TMC3    C2 8577   1.758   1.928  11.361 -0.2786  1.1225  0.1801
  575TMC3    C3 8578   1.736   1.806  11.306  0.1827 -0.0701  0.3514
  575TMC3    C4 8579   1.733   2.020  11.139  0.6083  0.0648  0.0224
  575TMC3    C5 8580   1.703   1.893  11.097  0.1924  0.1468  0.0708
  575TMC3    C6 8581   1.697   1.789  11.184  0.0821 -0.3053 -0.4477
  575TMC3     C 8582   1.747   2.163  11.339 -0.0843  0.1054  0.1478
  575TMC3     O 8583   1.778   2.179  11.455  0.1591  0.0909  0.1979
  575TMC3     H 8584   1.794   1.945  11.462  0.9762  0.9649 -0.2375
  575TMC3    H1 8585   1.741   2.104  11.072  1.2976  0.7163  0.9307
  575TMC3    H2 8586   1.650   1.694  11.161  0.4328 -0.4255 -0.6793
  575TMC3    C7 8587   1.661   1.884  10.957 -0.9621 -1.0571 -0.3796
  575TMC3    C8 8588   1.724   1.690  11.399 -0.9384 -0.0378 -0.2844
  575TMC3    O1 8589   1.648   1.990  10.901 -0.0838  0.2534  0.0049
  575TMC3    O2 8590   1.693   1.581  11.354 -0.7653  0.2266 -0.3662
  576MPD2     C 8591   1.130   2.984  12.391  0.2833  0.1349  0.0113
  576MPD2    C1 8592   1.206   3.103  12.380 -0.5378 -0.7694 -0.5940
  576MPD2    C2 8593   1.174   3.208  12.460  0.2752 -0.0210  0.1482
  576MPD2    C3 8594   1.060   3.213  12.537  0.6409 -0.2280  0.1397
  576MPD2    C4 8595   1.002   3.093  12.562 -0.1308  0.3600 -1.0076
  576MPD2    C5 8596   1.029   2.980  12.484 -0.4597 -0.1040  0.6069
  576MPD2     H 8597   1.222   3.305  12.458  1.7488 -0.7605 -0.6850
  576MPD2    H1 8598   0.921   3.095  12.634  1.1413 -3.0803  0.5096
  576MPD2    H2 8599   1.149   2.898  12.328  2.1228 -1.4815  2.7680
  576MPD2    H3 8600   0.958   2.897  12.491  1.3858 -1.7064  0.2215
  576MPD2     N 8601   1.039   3.335  12.608 -1.0560 -0.3222  0.1287
  576MPD2    H5 8602   1.104   3.411  12.590 -2.8254  1.5802  1.7090
  576MPD2    N1 8603   1.312   3.108  12.290  0.1403 -0.1169 -0.2433
  576MPD2    H7 8604   1.343   3.203  12.274 -2.0066  0.7088  0.5783
  577TMC3    C1 8605   1.457   3.025  12.123  1.1236  0.0500 -0.6469
  577TMC3    C2 8606   1.553   2.933  12.088  0.9171  0.1166  0.4762
  577TMC3    C3 8607   1.631   2.961  11.980 -0.0825  0.1129  0.0283
  577TMC3    C4 8608   1.444   3.146  12.056  0.9549  0.0625 -0.3947
  577TMC3    C5 8609   1.527   3.171  11.954  0.7595  0.2488  0.0453
  577TMC3    C6 8610   1.619   3.075  11.908 -0.0945  0.6438  0.2087
  577TMC3     C 8611   1.376   2.998  12.234  0.7010 -0.3014  0.2330
  577TMC3     O 8612   1.379   2.881  12.271 -0.5235 -0.2123  0.2917
  577TMC3     H 8613   1.564   2.836  12.134  1.6549 -0.0975 -0.1561
  577TMC3    H1 8614   1.375   3.226  12.077 -0.4800 -0.8252 -1.6703
  577TMC3    H2 8615   1.686   3.094  11.825  0.3402  1.3881  0.7304
  577TMC3    C7 8616   1.475   3.258  11.837  0.7335 -0.0677 -0.1470
  577TMC3    C8 8617   1.715   2.854  11.935  0.4315 -1.1234  0.6866
  577TMC3    O1 8618   1.558   3.324  11.777 -0.0749  0.2970  0.2116
  577TMC3    O2 8619   1.682   2.740  11.968 -0.1343 -0.1250 -0.7772
  578MPD2     C 8620   4.231   4.182   1.586 -0.2969 -0.6882  0.2038
  578MPD2    C1 8621   4.269   4.109   1.468  0.3551 -0.1372  0.0317
  578MPD2    C2 8622   4.391   4.047   1.458  0.1404  0.4036  0.0065
  578MPD2    C3 8623   4.483   4.042   1.561  0.0813  0.3996  0.5637
  578MPD2    C4 8624   4.440   4.107   1.678 -0.0870 -0.3111  0.4288
  578MPD2    C5 8625   4.320   4.172   1.693  0.3893 -0.4398 -0.1101
  578MPD2     H 8626   4.424   4.004   1.364 -0.3929 -1.4004  0.6424
  578MPD2    H1 8627   4.503   4.104   1.766  0.4995 -2.0259 -0.0415
  578MPD2    H2 8628   4.136   4.226   1.612  0.3590  0.9442 -0.1537
  578MPD2    H3 8629   4.293   4.218   1.788  2.0005 -1.4328  0.8239
  578MPD2     N 8630   4.599   3.969   1.534 -0.4546  0.3403  0.2642
  578MPD2    H5 8631   4.602   3.932   1.440 -0.8165  1.4489 -0.1864
  578MPD2    N1 8632   4.199   4.110   1.349  0.2949 -0.0326  0.7505
  578MPD2    H7 8633   4.236   4.067   1.265  0.1794  3.0460 -0.8697
  579TMC3    C1 8634   0.077   3.874   1.563  0.4416  0.0667  0.3528
  579TMC3    C2 8635   0.193   3.878   1.618  0.1848  0.8534 -0.2968
  579TMC3    C3 8636   0.303   3.833   1.547 -0.3007 -0.0549 -0.5136
  579TMC3    C4 8637   0.059   3.797   1.447 -0.4346 -0.3346  0.5214
  579TMC3    C5 8638   0.166   3.739   1.383  0.0550 -0.2533  0.3317
  579TMC3    C6 8639   0.295   3.759   1.429 -0.6362 -0.9858 -0.0343
  579TMC3     C 8640   4.705   3.948   1.626  0.3330  0.0481 -0.0804
  579TMC3     O 8641   4.720   3.986   1.740  0.2669 -0.2362  0.4066
  579TMC3     H 8642   0.205   3.934   1.710 -0.9125  0.1336  0.2871
  579TMC3    H1 8643   4.695   3.790   1.406 -0.0225  1.1640 -0.7572
  579TMC3    H2 8644   0.379   3.723   1.370 -0.2516 -0.5259  0.2316
  579TMC3    C7 8645   0.153   3.630   1.289  0.3229 -0.1896  0.3364
  579TMC3    C8 8646   0.430   3.890   1.593 -0.0373 -0.9944  0.0892
  579TMC3    O1 8647   0.249   3.550   1.285 -0.1040 -0.0664  0.3337
  579TMC3    O2 8648   0.428   3.972   1.682 -0.1867  0.1365 -0.5642
  580TMC3    C1 8649   3.677   1.931  11.486  0.2088 -0.0988  0.8110
  580TMC3    C2 8650   3.756   1.888  11.378  0.0969 -0.0961 -0.5579
  580TMC3    C3 8651   3.782   1.756  11.364 -0.0670 -0.2556  0.1305
  580TMC3    C4 8652   3.628   1.844  11.584  0.7440  0.0830  0.4173
  580TMC3    C5 8653   3.663   1.715  11.568 -0.7983  0.3724 -0.7688
  580TMC3    C6 8654   3.735   1.672  11.459  0.2890 -0.7158 -0.1209
  580TMC3     C 8655   3.712   2.058  11.532 -0.0564  0.9087  0.1620
  580TMC3     O 8656   3.819   2.106  11.491 -0.5143 -0.5238 -0.4429
  580TMC3     H 8657   3.795   1.966  11.315  1.0473  2.3112  3.0229
  580TMC3    H1 8658   3.564   1.870  11.668 -0.2891  0.5074 -0.4913
  580TMC3    H2 8659   3.767   1.569  11.450 -1.7061 -1.4514  1.3571
  580TMC3    C7 8660   3.649   1.634  11.683 -0.1619 -0.2862  0.1924
  580TMC3    C8 8661   3.874   1.709  11.263 -0.6037  0.9856  0.0087
  580TMC3    O1 8662   3.563   1.672  11.767 -0.3882  0.1416 -0.1368
  580TMC3    O2 8663   3.850   1.596  11.225 -0.0432 -0.3806  0.6077
  581MPD2     C 8664   1.736   2.088  14.805  0.7545  1.5426 -0.2854
  581MPD2    C1 8665   1.697   2.163  14.913 -0.2675  0.3606 -0.7128
  581MPD2    C2 8666   1.570   2.222  14.909  0.5048 -0.2747 -0.5331
  581MPD2    C3 8667   1.489   2.225  14.794  0.2129 -0.0710 -0.0543
  581MPD2    C4 8668   1.543   2.166  14.681  0.1383 -0.4591  0.1238
  581MPD2    C5 8669   1.657   2.092  14.696 -0.1071 -0.2880  0.1146
  581MPD2     H 8670   1.538   2.272  15.000  0.6482  1.4212 -1.4152
  581MPD2    H1 8671   1.489   2.171  14.587  1.5996 -0.4196 -0.7132
  581MPD2    H2 8672   1.825   2.026  14.801 -0.4189 -0.2116  0.5789
  581MPD2    H3 8673   1.687   2.027  14.614  2.0755 -1.1703  1.6314
  581MPD2     N 8674   1.356   2.281  14.797  0.9855 -0.7150 -0.3686
  581MPD2    H5 8675   1.319   2.324  14.881 -0.0666  0.1539 -1.2848
  581MPD2    N1 8676   1.769   2.170  15.029  0.8038  0.6083 -0.5141
  581MPD2    H7 8677   1.732   2.218  15.110 -0.4160 -1.5314  0.2009
  582TMC3    C1 8678   1.881   2.088  15.208  0.6938  0.5810 -1.1400
  582TMC3    C2 8679   2.003   2.117  15.268 -0.0146  0.6276  0.0659
  582TMC3    C3 8680   2.006   2.139  15.406  0.4789  0.6242 -0.8436
  582TMC3    C4 8681   1.766   2.088  15.277  0.6023  0.7962 -0.2513
  582TMC3    C5 8682   1.774   2.101  15.411 -0.8977  0.4556  0.0575
  582TMC3    C6 8683   1.889   2.142  15.474  0.6608  0.1276 -0.0019
  582TMC3     C 8684   1.877   2.092  15.063 -0.8581 -0.4314 -0.5107
  582TMC3     O 8685   1.943   2.011  14.999 -0.6232  0.2041 -0.0703
  582TMC3     H 8686   2.096   2.114  15.212 -0.4152 -0.1182 -0.5730
  582TMC3    H1 8687   1.672   2.066  15.230  0.2565  0.7561  0.4632
  582TMC3    H2 8688   1.889   2.155  15.582 -1.4646  0.3348 -0.0156
  582TMC3    C7 8689   1.649   2.150  15.459 -0.3204 -0.6889 -0.2003
  582TMC3    C8 8690   2.127   2.143  15.480 -0.3391 -0.3153  0.2186
  582TMC3    O1 8691   1.548   2.090  15.421  0.2053 -0.2462  0.1163
  582TMC3    O2 8692   2.224   2.095  15.422  0.3173  0.0325  0.4609
  583MPD2     C 8693   1.842   4.074  16.647  0.6219 -0.2206 -0.0728
  583MPD2    C1 8694   1.856   4.181  16.560 -0.0463 -0.1272 -0.3407
  583MPD2    C2 8695   1.839   4.314  16.608  0.6276 -1.0512 -0.0556
  583MPD2    C3 8696   1.806   4.338  16.746  0.5349  1.0908 -0.2838
  583MPD2    C4 8697   1.789   4.223  16.829  0.0560  0.3337 -0.8731
  583MPD2    C5 8698   1.820   4.095  16.774 -0.3886  0.0433  0.8190
  583MPD2     H 8699   1.842   4.394  16.535  0.6074 -0.9032  0.1043
  583MPD2    H1 8700   1.773   4.228  16.936  1.8747  0.2873 -0.6013
  583MPD2    H2 8701   1.853   3.968  16.623  0.2484  0.1911 -2.0380
  583MPD2    H3 8702   1.806   4.014  16.844 -0.4207 -0.3244  0.3866
  583MPD2     N 8703   1.806   4.473  16.801  0.5731 -0.0894  0.2229
  583MPD2    H5 8704   1.845   4.551  16.748  1.3853 -0.6471  0.0124
  583MPD2    N1 8705   1.877   4.173  16.424  0.0773  0.1012  0.5943
  583MPD2    H7 8706   1.893   4.260  16.375 -1.8968  0.8436  1.2734
  584TMC3    C1 8707   1.800   4.638  16.969 -0.0515  0.3614  0.3621
  584TMC3    C2 8708   1.851   4.733  16.878  0.1010  0.1384  0.2931
  584TMC3    C3 8709   1.899   0.116  16.930 -0.5232  0.7500  0.1999
  584TMC3    C4 8710   1.792   4.673  17.103 -0.2046 -0.0407 -0.3297
  584TMC3    C5 8711   1.853   0.047  17.146 -0.3389 -0.1363 -0.0202
  584TMC3    C6 8712   1.901   0.146  17.064 -0.0618 -0.9320  0.8591
  584TMC3     C 8713   1.792   4.500  16.939  0.0762  0.0416  0.8790
  584TMC3     O 8714   1.776   4.421  17.034  0.0571 -0.7506 -0.1062
  584TMC3     H 8715   1.858   4.706  16.773  3.0462 -2.0691  1.0810
  584TMC3    H1 8716   1.739   4.605  17.168  0.6677 -0.3229  0.0893
  584TMC3    H2 8717   1.947   0.236  17.104  0.8324 -1.8739  1.9317
  584TMC3    C7 8718   1.825   0.079  17.288  0.5187 -0.0927  0.4883
  584TMC3    C8 8719   1.951   0.215  16.843 -0.3829  0.3981 -0.3321
  584TMC3    O1 8720   1.796   4.718  17.358  0.6379  0.1907 -0.3012
  584TMC3    O2 8721   1.939   0.178  16.724 -0.8724  0.4880 -0.2924
  585MPD2     C 8722   0.865   3.457   0.061 -0.3473  0.6786 -0.8456
  585MPD2    C1 8723   0.961   3.506  17.710  0.5289 -0.0555  0.6808
  585MPD2    C2 8724   1.021   3.417  17.620  0.5468 -0.1825  0.2163
  585MPD2    C3 8725   0.980   3.285  17.620  0.3178  0.6271 -0.0964
  585MPD2    C4 8726   0.882   3.238  17.704  0.0799 -0.0564 -0.1457
  585MPD2    C5 8727   0.828   3.329   0.048  0.0671  1.0273  0.2315
  585MPD2     H 8728   1.085   3.452  17.540 -0.5141 -2.2124 -1.5248
  585MPD2    H1 8729   0.848   3.135  17.708 -1.2021  0.3545 -0.4164
  585MPD2    H2 8730   0.816   3.528   0.127 -1.5309 -1.7674  0.8923
  585MPD2    H3 8731   0.755   3.279   0.111  1.9071 -0.9600  0.7862
  585MPD2     N 8732   1.044   3.183  17.543 -0.0353 -0.3354 -0.0756
  585MPD2    H5 8733   1.002   3.091  17.536 -1.6169  0.4053 -0.3738
  585MPD2    N1 8734   0.988   3.645  17.721 -0.5501  0.4476  0.4127
  585MPD2    H7 8735   0.952   3.698   0.057  0.1727  0.1643  0.9342
  586TMC3    C1 8736   1.196   3.114  17.377 -0.3522 -0.2642 -0.2395
  586TMC3    C2 8737   1.322   3.128  17.329  0.1172 -0.8083 -0.0543
  586TMC3    C3 8738   1.354   3.055  17.213  0.0859 -0.4550 -0.7023
  586TMC3    C4 8739   1.106   3.023  17.328 -0.0274 -0.7891 -1.1666
  586TMC3    C5 8740   1.140   2.953  17.214 -0.0805  0.6092  0.4125
  586TMC3    C6 8741   1.263   2.971  17.151  0.3788  0.2372 -0.2372
  586TMC3     C 8742   1.171   3.194  17.494 -0.4302  0.4343  1.1938
  586TMC3     O 8743   1.250   3.287  17.518 -0.1901 -0.0009 -0.1764
  586TMC3     H 8744   1.393   3.199  17.369 -1.4996  1.1071 -0.5930
  586TMC3    H1 8745   1.001   3.032  17.354  0.3410  1.9721 -0.6388
  586TMC3    H2 8746   1.291   2.933  17.054  0.9153  2.0021 -0.7677
  586TMC3    C7 8747   1.071   2.833  17.183 -0.2450 -0.4275  0.2259
  586TMC3    C8 8748   1.460   3.114  17.135 -0.6676 -0.0786  0.6685
  586TMC3    O1 8749   0.959   2.820  17.235  0.7039  0.4005 -0.0306
  586TMC3    O2 8750   1.489   3.229  17.163  0.4873  0.0819 -0.4304
  587TMC3    C1 8751   3.075   1.718  16.451  0.1936 -0.1528 -0.4818
  587TMC3    C2 8752   3.180   1.776  16.506  0.3237 -0.1481 -0.2055
  587TMC3    C3 8753   3.306   1.759  16.447  0.7581  0.5394  0.5580
  587TMC3    C4 8754   3.085   1.646  16.335 -0.3972 -0.6523  0.5356
  587TMC3    C5 8755   3.210   1.640  16.279 -0.2850 -0.2315  0.2307
  587TMC3    C6 8756   3.322   1.704  16.330 -0.2010 -0.2437 -0.6940
  587TMC3     C 8757   2.945   1.721  16.515  0.4407  0.3343 -0.6135
  587TMC3     O 8758   2.947   1.759  16.630 -0.5296 -0.2580 -0.1495
  587TMC3     H 8759   3.162   1.827  16.600 -1.1238 -1.6965  0.3493
  587TMC3    H1 8760   3.018   1.568  16.301 -1.4000  1.4015 -2.1480
  587TMC3    H2 8761   3.415   1.707  16.275  1.0873 -2.1133  1.3639
  587TMC3    C7 8762   3.221   1.565  16.152 -0.0292 -0.6300  1.1087
  587TMC3    C8 8763   3.414   1.840  16.490  0.1806  0.3527  0.3471
  587TMC3    O1 8764   3.111   1.554  16.100  0.0021 -0.2360  0.2415
  587TMC3    O2 8765   3.526   1.795  16.472  0.4587  0.1103  0.4484
  588TMC3    C1 8766   1.243   4.062   9.891  0.1192 -0.4444  0.1657
  588TMC3    C2 8767   1.238   3.944   9.823  0.1114 -0.0050  0.3161
  588TMC3    C3 8768   1.291   3.836   9.890  0.3878  0.8578 -0.0746
  588TMC3    C4 8769   1.318   4.074  10.008 -0.0287 -0.1788 -0.3291
  588TMC3    C5 8770   1.390   3.966  10.054 -0.0548  0.3250 -0.3250
  588TMC3    C6 8771   1.379   3.845   9.995 -0.4114 -0.0257 -0.3335
  588TMC3     C 8772   1.171   4.182   9.842  0.2572  0.4510 -0.3611
  588TMC3     O 8773   1.093   4.172   9.748 -0.1031 -0.1618  0.3609
  588TMC3     H 8774   1.177   3.927   9.735 -0.2170 -1.7852  0.8836
  588TMC3    H1 8775   1.319   4.169  10.060  1.3820  0.7070 -1.9461
  588TMC3    H2 8776   1.425   3.754  10.030 -1.8720 -0.6594 -0.0424
  588TMC3    C7 8777   1.470   3.984  10.175 -0.5112 -0.7856 -0.3940
  588TMC3    C8 8778   1.238   3.708   9.849 -0.6605 -0.2131 -0.2553
  588TMC3    O1 8779   1.479   3.895  10.256 -0.3049  0.1264  0.1245
  588TMC3    O2 8780   1.190   3.698   9.738 -0.3047  0.6658 -0.1453
  589TMC3    C1 8781   4.672   1.624   0.995  0.6080 -0.5217  0.5712
  589TMC3    C2 8782   0.003   1.568   1.102 -0.4087  0.2887  0.6023
  589TMC3    C3 8783   0.041   1.437   1.078 -0.3742  0.0163 -0.0216
  589TMC3    C4 8784   4.658   1.568   0.869 -0.1837 -0.4609  0.1762
  589TMC3    C5 8785   4.716   1.446   0.855 -0.2873  0.0120  0.0894
  589TMC3    C6 8786   0.037   1.375   0.957 -0.1824 -0.5790  0.4695
  589TMC3     C 8787   4.621   1.761   1.010 -0.1405 -0.7559 -0.6026
  589TMC3     O 8788   4.524   1.795   0.941 -0.1125 -0.1396 -0.2536
  589TMC3     H 8789   4.730   1.611   1.201  0.7372 -2.0616  1.7231
  589TMC3    H1 8790   4.588   1.616   0.801  1.1374  0.8035 -0.2907
  589TMC3    H2 8791   0.073   1.274   0.941  0.6999 -0.3408  0.9826
  589TMC3    C7 8792   4.683   1.387   0.724 -0.0356  0.2602  0.5449
  589TMC3    C8 8793   0.166   1.417   1.157 -0.5784  0.9669  0.4433
  589TMC3    O1 8794   4.667   1.267   0.718  0.0696 -0.3163  0.3541
  589TMC3    O2 8795   0.230   1.511   1.209  0.2783 -0.1402  0.4228
  590MPD2     C 8796   0.042   0.174  16.522 -0.2703  0.2036 -0.1740
  590MPD2    C1 8797   4.710   0.243  16.425 -0.1713 -0.0164  0.5725
  590MPD2    C2 8798   0.038   0.336  16.354 -0.4109  0.1502 -0.4644
  590MPD2    C3 8799   0.167   0.377  16.387  0.7156  0.8885 -1.2848
  590MPD2    C4 8800   0.236   0.308  16.486 -0.4181  0.4966 -0.9724
  590MPD2    C5 8801   0.170   0.214  16.552  0.0913 -0.2338  0.2321
  590MPD2     H 8802   4.720   0.383  16.273 -1.0230 -0.0027 -0.1452
  590MPD2    H1 8803   0.337   0.326  16.520 -1.2154  0.4868  1.4163
  590MPD2    H2 8804   4.728   0.109  16.594 -1.2276  2.4424  1.2154
  590MPD2    H3 8805   0.219   0.168  16.637 -0.5506 -1.9384 -0.3236
  590MPD2     N 8806   0.223   0.485  16.309  0.1613 -0.2281  0.0464
  590MPD2    H5 8807   0.161   0.521  16.237  0.0566  0.1027  0.3030
  590MPD2    N1 8808   4.572   0.221  16.403  1.1988  0.6565 -0.3704
  590MPD2    H7 8809   4.533   0.268  16.322  1.5503  2.5271  0.5701
  591TMC3    C1 8810   0.382   0.622  16.224  0.0776 -0.2443  0.8172
  591TMC3    C2 8811   0.437   0.539  16.136 -0.0516 -0.2111 -0.3881
  591TMC3    C3 8812   0.454   0.580  16.008 -0.2761  0.2092 -0.0003
  591TMC3    C4 8813   0.332   0.744  16.182 -0.2171  0.3309 -0.9288
  591TMC3    C5 8814   0.350   0.787  16.052  0.1582  0.5744 -1.4060
  591TMC3    C6 8815   0.420   0.708  15.965  0.5915  0.2274  0.3947
  591TMC3     C 8816   0.335   0.552  16.338 -0.1370  0.2956  0.3073
  591TMC3     O 8817   0.416   0.517  16.423 -0.3785  0.2734 -0.5273
  591TMC3     H 8818   0.461   0.438  16.167 -0.8366 -0.0573  0.7121
  591TMC3    H1 8819   0.275   0.800  16.255  2.7050  0.0732  1.5427
  591TMC3    H2 8820   0.450   0.744  15.868  2.0438 -2.0574 -0.0288
  591TMC3    C7 8821   0.341   0.930  16.041  0.6144 -0.1537  0.7462
  591TMC3    C8 8822   0.461   0.467  15.913 -0.9039 -0.3119 -0.3832
  591TMC3    O1 8823   0.320   0.990  16.146  0.2516 -0.7623 -0.4703
  591TMC3    O2 8824   0.481   0.356  15.965 -0.1362  0.9077  0.4353
  592MPD2     C 8825   0.304   1.452  11.360 -0.0430 -0.4048 -0.2146
  592MPD2    C1 8826   0.271   1.538  11.469  0.0791  0.2980  0.1969
  592MPD2    C2 8827   0.227   1.480  11.586  0.5521  0.6203  0.3582
  592MPD2    C3 8828   0.220   1.341  11.600 -0.1210  0.2456 -0.5746
  592MPD2    C4 8829   0.239   1.262  11.490 -1.1261 -0.2469  0.2087
  592MPD2    C5 8830   0.284   1.315  11.370  0.1598  0.2222  0.3553
  592MPD2     H 8831   0.185   1.544  11.663  0.9919  0.2773  0.8846
  592MPD2    H1 8832   0.225   1.155  11.484 -3.0583  0.0032  0.4012
  592MPD2    H2 8833   0.334   1.486  11.262  1.2011  0.7858  0.5675
  592MPD2    H3 8834   0.305   1.243  11.292  0.3068  1.0455 -0.3670
  592MPD2     N 8835   0.173   1.280  11.722  0.4912 -0.0313 -0.2940
  592MPD2    H5 8836   0.162   1.348  11.797  1.3114  0.4741 -0.6244
  592MPD2    N1 8837   0.304   1.675  11.456  0.0749 -0.6339 -0.1041
  592MPD2    H7 8838   0.344   1.696  11.365  1.6704  2.1383  1.2289
  593TMC3    C1 8839   0.356   1.889  11.528  0.3391  0.5042 -0.4763
  593TMC3    C2 8840   0.345   1.981  11.631 -0.6617  0.1315 -0.7674
  593TMC3    C3 8841   0.408   2.099  11.623 -0.3514 -0.2741 -0.2588
  593TMC3    C4 8842   0.444   1.909  11.423  0.0122 -0.0502 -0.2701
  593TMC3    C5 8843   0.517   2.023  11.422 -0.5634  0.5689  0.0759
  593TMC3    C6 8844   0.498   2.119  11.518  0.0871 -0.3473  0.5033
  593TMC3     C 8845   0.306   1.760  11.560 -0.4018  0.9067 -0.7979
  593TMC3     O 8846   0.264   1.746  11.671  0.2180 -0.0090  0.3084
  593TMC3     H 8847   0.281   1.968  11.717  0.1615  1.7413  0.0920
  593TMC3    H1 8848   0.460   1.831  11.348 -2.6902 -1.9851  1.1742
  593TMC3    H2 8849   0.547   2.215  11.507  0.7832 -0.7365  0.2418
  593TMC3    C7 8850   0.561   2.083  11.294 -0.0103  0.2093 -1.2350
  593TMC3    C8 8851   0.351   2.215  11.687  0.1226  0.0000 -0.5204
  593TMC3    O1 8852   0.645   2.173  11.302 -0.6581 -0.7585 -0.1735
  593TMC3    O2 8853   0.238   2.250  11.649 -0.0467 -0.2376 -0.5150
  594MPD2     C 8854   3.276   0.680  14.331  0.5199  0.2173  0.3842
  594MPD2    C1 8855   3.292   0.776  14.431 -0.2203  0.0268  0.0497
  594MPD2    C2 8856   3.404   0.854  14.428  0.1052 -0.8914  0.2166
  594MPD2    C3 8857   3.497   0.845  14.334 -0.0252 -0.0448  0.1568
  594MPD2    C4 8858   3.482   0.743  14.236 -0.4196  0.0993  0.2897
  594MPD2    C5 8859   3.371   0.664  14.239  0.9696  0.0067  0.2738
  594MPD2     H 8860   3.416   0.928  14.507 -0.4678 -1.3427  0.7209
  594MPD2    H1 8861   3.560   0.717  14.165 -1.4478  2.2913 -1.6480
  594MPD2    H2 8862   3.180   0.635  14.308  0.3340  0.9434 -0.2580
  594MPD2    H3 8863   3.364   0.583  14.168 -0.7618  1.5092 -1.2688
  594MPD2     N 8864   3.626   0.922  14.349  0.2931 -0.3148  0.4492
  594MPD2    H5 8865   3.626   0.993  14.422 -1.5080 -0.3336  0.4724
  594MPD2    N1 8866   3.184   0.787  14.521 -0.1344  0.3882 -0.7234
  594MPD2    H7 8867   3.121   0.708  14.520 -1.0038  1.0801 -0.4236
  595TMC3    C1 8868   4.017   1.152  14.282  0.5688  0.4923 -0.2404
  595TMC3    C2 8869   3.932   1.062  14.222  0.5734 -0.0793  0.5338
  595TMC3    C3 8870   3.837   1.009  14.308 -0.1161 -0.4108 -0.3519
  595TMC3    C4 8871   4.008   1.195  14.409 -0.5598  0.7311  0.8891
  595TMC3    C5 8872   3.918   1.131  14.489  0.2530 -0.5001 -0.2640
  595TMC3    C6 8873   3.831   1.037  14.442 -0.3616 -0.0280  0.0604
  595TMC3     C 8874   4.121   1.212  14.198  0.4476 -0.3328  0.1114
  595TMC3     O 8875   4.214   1.265  14.257 -0.0304 -0.6526  0.1207
  595TMC3     H 8876   3.942   1.021  14.122 -0.0804  0.3427  0.2940
  595TMC3    H1 8877   4.082   1.267  14.442  0.2066 -0.4406  1.7403
  595TMC3    H2 8878   3.778   0.978  14.516 -1.3446 -0.2839 -0.8496
  595TMC3    C7 8879   3.874   1.197  14.604  0.4724  0.2819 -0.6448
  595TMC3    C8 8880   3.730   0.927  14.261 -0.5681  0.1791  0.9288
  595TMC3    O1 8881   3.753   1.212  14.623  0.3824 -0.3218 -0.4796
  595TMC3    O2 8882   3.745   0.865  14.158 -0.1138  0.0005  0.5531
  596MPD2     C 8883   2.685   3.921  16.718 -0.0697 -0.6511  0.4638
  596MPD2    C1 8884   2.611   3.989  16.622  0.0477 -0.3882 -0.6171
  596MPD2    C2 8885   2.623   3.949  16.487 -0.1156  0.1143  0.3207
  596MPD2    C3 8886   2.713   3.846  16.451 -0.2365  0.3584 -0.4372
  596MPD2    C4 8887   2.772   3.776  16.544 -0.8546  0.7228  0.1627
  596MPD2    C5 8888   2.760   3.816  16.676 -0.0508 -0.9549 -0.6035
  596MPD2     H 8889   2.566   3.996  16.408 -0.2222  0.9094  0.8714
  596MPD2    H1 8890   2.838   3.696  16.512  0.3135  1.4990  0.5944
  596MPD2    H2 8891   2.685   3.932  16.826 -2.5154  0.4645  0.3413
  596MPD2    H3 8892   2.813   3.764  16.755  2.3068  3.3972  0.6661
  596MPD2     N 8893   2.729   3.802  16.316 -0.0503  0.1535 -0.1288
  596MPD2    H5 8894   2.808   3.743  16.296  0.6874  1.1493 -0.1646
  596MPD2    N1 8895   2.554   4.113  16.661  0.2258 -0.7067 -0.5980
  596MPD2    H7 8896   2.544   4.180  16.586 -1.8234  0.4444  0.7078
  597TMC3    C1 8897   2.516   4.307  16.779  0.1419 -0.7324  0.0204
  597TMC3    C2 8898   2.598   4.372  16.688 -0.7330  0.0233 -0.6437
  597TMC3    C3 8899   2.611   4.508  16.699  0.5707 -0.4524  0.3053
  597TMC3    C4 8900   2.444   4.374  16.878 -0.2725 -0.4701 -0.3642
  597TMC3    C5 8901   2.450   4.513  16.877  0.5945 -0.5141 -0.2196
  597TMC3    C6 8902   2.530   4.579  16.786  0.2030  0.4800 -0.1950
  597TMC3     C 8903   2.528   4.161  16.788 -0.3335 -0.0177 -0.5247
  597TMC3     O 8904   2.510   4.101  16.892  0.4567  0.1311  0.3682
  597TMC3     H 8905   2.657   4.315  16.617 -0.4544 -0.2200 -0.2156
  597TMC3    H1 8906   2.377   4.323  16.946  0.6047  0.6251  1.2983
  597TMC3    H2 8907   2.569   4.680  16.789 -0.5084  0.7003  1.3583
  597TMC3    C7 8908   2.383   4.581  16.987 -0.2928  0.1667  0.4155
  597TMC3    C8 8909   2.699   4.576  16.609  0.3957  0.3707  0.6117
  597TMC3    O1 8910   2.323   4.507  17.064 -0.6313 -0.1785 -0.2682
  597TMC3    O2 8911   2.648   4.671  16.549  0.5440  0.0814  0.4206
  598TMC3    C1 8912   0.931   0.568  15.250 -0.0347 -0.1809 -0.2891
  598TMC3    C2 8913   0.839   0.467  15.250 -0.2903 -0.2709  0.3345
  598TMC3    C3 8914   0.787   0.443  15.123 -0.4271  0.1392 -0.6153
  598TMC3    C4 8915   0.968   0.640  15.135 -0.2559  0.3810 -0.6686
  598TMC3    C5 8916   0.917   0.604  15.017 -0.4366  0.1570  0.0101
  598TMC3    C6 8917   0.828   0.506  15.004 -0.1025  0.4270 -0.3584
  598TMC3     C 8918   1.016   0.587  15.367 -0.0122  0.2440 -0.5887
  598TMC3     O 8919   1.070   0.695  15.370  0.0110 -0.2110  0.5875
  598TMC3     H 8920   0.819   0.405  15.337 -0.7483 -0.3646  0.1634
  598TMC3    H1 8921   1.063   0.691  15.142  0.5018 -1.2342  0.7729
  598TMC3    H2 8922   0.790   0.472  14.909 -2.0406  0.3485  0.4451
  598TMC3    C7 8923   1.000   0.644  14.901 -0.7463 -0.0880  0.3540
  598TMC3    C8 8924   0.682   0.341  15.124  0.1064 -0.1582  0.1780
  598TMC3    O1 8925   1.021   0.558  14.811  0.1174  0.2249  0.2174
  598TMC3    O2 8926   0.625   0.303  15.222 -0.3118 -0.0386  0.3605
  599MPD2     C 8927   1.461   3.049  16.106  0.2202 -0.1369  0.1976
  599MPD2    C1 8928   1.369   2.949  16.071 -0.1358  0.7287  0.1372
  599MPD2    C2 8929   1.231   2.970  16.104 -0.2364  0.0071  0.2014
  599MPD2    C3 8930   1.190   3.080  16.160  0.2439 -0.0090 -0.0889
  599MPD2    C4 8931   1.277   3.171  16.196 -0.1163  0.2752  1.2157
  599MPD2    C5 8932   1.409   3.157  16.168  0.5918 -0.3980  0.1273
  599MPD2     H 8933   1.156   2.893  16.090 -0.9056  1.2422 -2.9840
  599MPD2    H1 8934   1.251   3.262  16.249 -0.8962  1.0539 -0.4955
  599MPD2    H2 8935   1.567   3.042  16.089 -0.0423  0.1117 -1.5760
  599MPD2    H3 8936   1.486   3.228  16.195  2.5658 -1.9878 -1.3144
  599MPD2     N 8937   1.062   3.104  16.219 -0.2101 -0.0355  0.4390
  599MPD2    H5 8938   1.055   3.180  16.286  0.0161  1.6086 -1.4081
  599MPD2    N1 8939   1.415   2.830  16.020 -0.3648 -0.1231 -0.0312
  599MPD2    H7 8940   1.514   2.835  15.998 -0.4824 -0.6700 -0.7044
  600TMC3    C1 8941   0.860   3.029  16.307 -0.7296 -0.6930 -0.3822
  600TMC3    C2 8942   0.795   2.916  16.343 -0.7145  0.5399 -0.4096
  600TMC3    C3 8943   0.718   2.932  16.455  0.4451  0.1657 -0.0276
  600TMC3    C4 8944   0.851   3.150  16.379 -0.4782 -0.2463 -0.2457
  600TMC3    C5 8945   0.774   3.158  16.487  0.5238 -0.1465 -0.0869
  600TMC3    C6 8946   0.703   3.052  16.530  0.2397 -0.3232  0.3900
  600TMC3     C 8947   0.953   3.019  16.197 -0.2454 -0.4499 -0.2960
  600TMC3     O 8948   0.931   2.924  16.123  0.0582  0.1463  0.3627
  600TMC3     H 8949   0.808   2.813  16.311 -1.8873  0.4400 -0.5958
  600TMC3    H1 8950   0.910   3.238  16.358  0.2755  0.3322  4.2378
  600TMC3    H2 8951   0.649   3.052  16.624  1.5619 -1.5913  1.1494
  600TMC3    C7 8952   0.760   3.284  16.560 -0.2715 -0.0103 -0.4248
  600TMC3    C8 8953   0.655   2.817  16.513 -0.0052  0.8391 -0.1198
  600TMC3    O1 8954   0.665   3.288  16.635 -0.1226 -0.3701 -0.3101
  600TMC3    O2 8955   0.649   2.804  16.635 -0.3098 -0.5442  0.5092
  601MPD2     C 8956   3.219   2.385  17.707  0.2244 -0.0439 -0.0251
  601MPD2    C1 8957   3.118   2.305  17.740  0.3271 -0.6444 -0.1917
  601MPD2    C2 8958   3.139   2.167   0.024 -0.3091  0.2550 -1.1122
  601MPD2    C3 8959   3.259   2.109  17.739 -0.4349  0.2919  0.6358
  601MPD2    C4 8960   3.357   2.195  17.699 -0.0242  0.0359  0.4405
  601MPD2    C5 8961   3.336   2.324  17.682  0.0150  0.1060 -0.2843
  601MPD2     H 8962   3.053   2.107   0.052 -0.1955 -0.2794 -1.9321
  601MPD2    H1 8963   3.450   2.154  17.662  1.0595  2.2404  0.6695
  601MPD2    H2 8964   3.212   2.490  17.682 -2.0145 -0.4278 -1.0451
  601MPD2    H3 8965   3.421   2.379  17.644  1.5200 -1.4604  0.8361
  601MPD2     N 8966   3.294   1.981   0.024  0.4812  0.1633 -0.3628
  601MPD2    H5 8967   3.385   1.949  17.734  1.2286  1.4496  0.4921
  601MPD2    N1 8968   2.985   2.338   0.017  0.1931 -0.2851 -0.3852
  601MPD2    H7 8969   2.919   2.265   0.044  1.2743 -0.8563  0.7392
  602TMC3    C1 8970   2.793   2.459   0.046  0.4643  0.5753  0.2042
  602TMC3    C2 8971   2.704   2.536  17.715  0.2546 -0.7822  0.5808
  602TMC3    C3 8972   2.568   2.545   0.021  0.0184 -0.3007  0.5410
  602TMC3    C4 8973   2.753   2.377   0.144  0.4087  0.1548  0.2383
  602TMC3    C5 8974   2.628   2.379   0.181  0.8245  0.8849 -0.3933
  602TMC3    C6 8975   2.530   2.466   0.129  0.1579  0.4023  0.4568
  602TMC3     C 8976   2.926   2.463   0.001  0.1299  0.5510  0.2385
  602TMC3     O 8977   2.960   2.566  17.679  0.1358  0.2133 -0.1636
  602TMC3     H 8978   2.734   2.587  17.624 -1.5734  0.6603  0.7967
  602TMC3    H1 8979   2.818   2.307   0.196 -1.1161 -0.1424  1.7460
  602TMC3    H2 8980   2.434   2.484   0.176 -0.2588 -0.1499 -0.1790
  602TMC3    C7 8981   2.586   2.261   0.258  0.0979  0.1860  0.5386
  602TMC3    C8 8982   2.468   2.601  17.670  0.0334  0.3022  0.5158
  602TMC3    O1 8983   2.674   2.198   0.317  0.8021 -0.1951  0.0946
  602TMC3    O2 8984   2.510   2.644  17.562  0.2271 -0.2441  0.2489
  603TMC3    C1 8985   1.382   1.468  11.091  0.0060  0.2195 -0.1187
  603TMC3    C2 8986   1.385   1.473  11.230 -0.0822  0.0344  0.1664
  603TMC3    C3 8987   1.349   1.590  11.291 -0.2491 -0.6711 -0.2352
  603TMC3    C4 8988   1.345   1.575  11.015  0.4500 -0.8722 -0.0149
  603TMC3    C5 8989   1.314   1.691  11.085  0.4653  0.2061  0.0396
  603TMC3    C6 8990   1.326   1.702  11.219  0.2277  0.4314 -0.1083
  603TMC3     C 8991   1.375   1.342  11.019  0.2049 -0.1404 -0.1681
  603TMC3     O 8992   1.318   1.334  10.910  0.0705 -0.3138  0.2322
  603TMC3     H 8993   1.414   1.389  11.292  0.2115  1.3077  1.7679
  603TMC3    H1 8994   1.345   1.578  10.907 -2.7226  1.3332  0.0188
  603TMC3    H2 8995   1.280   1.788  11.267  1.8815  1.4683 -0.3704
  603TMC3    C7 8996   1.277   1.808  11.016 -0.2947  0.3445 -0.2256
  603TMC3    C8 8997   1.360   1.588  11.433 -0.0459 -0.6338  0.3895
  603TMC3    O1 8998   1.319   1.913  11.058  0.4016 -0.0330 -0.3515
  603TMC3    O2 8999   1.362   1.484  11.492  0.1480 -0.4478 -0.3144
  604MPD2     C 9000   2.141   0.530  16.332  0.3898  0.5135  0.0462
  604MPD2    C1 9001   2.036   0.458  16.281  0.1749 -0.0291 -0.1667
  604MPD2    C2 9002   2.048   0.403  16.151  0.2304  0.8326 -0.7182
  604MPD2    C3 9003   2.165   0.414  16.075  0.7374 -0.1264  0.3074
  604MPD2    C4 9004   2.270   0.479  16.136 -0.4841  0.0537  0.5513
  604MPD2    C5 9005   2.263   0.529  16.267  0.1248  0.1518  0.2162
  604MPD2     H 9006   1.964   0.344  16.115  0.6814 -0.6122  0.5940
  604MPD2    H1 9007   2.360   0.490  16.077  1.4262 -1.7598  3.1618
  604MPD2    H2 9008   2.138   0.577  16.430 -1.1312  1.4497 -0.4499
  604MPD2    H3 9009   2.349   0.573  16.316 -0.4893  0.5538  0.9425
  604MPD2     N 9010   2.170   0.359  15.946  0.0350  0.1066 -0.7584
  604MPD2    H5 9011   2.084   0.317  15.910  0.9421  0.1904 -3.0473
  604MPD2    N1 9012   1.918   0.469  16.361  0.6179  0.5744 -0.1734
  604MPD2    H7 9013   1.930   0.529  16.442  0.4155  1.4388 -0.7872
  605TMC3    C1 9014   1.700   0.456  16.427  0.3724  0.7283  0.1094
  605TMC3    C2 9015   1.747   0.485  16.556 -0.0491  0.1183  0.8428
  605TMC3    C3 9016   1.699   0.592  16.627 -0.7665  0.6318  0.1141
  605TMC3    C4 9017   1.612   0.537  16.367 -0.7322  0.0791  0.1858
  605TMC3    C5 9018   1.560   0.643  16.442 -0.6049  0.3073  0.8712
  605TMC3    C6 9019   1.604   0.672  16.571 -0.2421  0.5596  0.0915
  605TMC3     C 9020   1.806   0.391  16.345 -0.9212 -0.3685 -0.1824
  605TMC3     O 9021   1.764   0.318  16.255 -0.1819 -0.4780  0.2600
  605TMC3     H 9022   1.813   0.408  16.595 -0.1580 -0.0845  0.6315
  605TMC3    H1 9023   1.594   0.520  16.262 -0.6163 -2.0834  0.5203
  605TMC3    H2 9024   1.557   0.746  16.635 -0.6524 -0.2998  0.7958
  605TMC3    C7 9025   1.447   0.720  16.392  0.4340  0.5453 -0.1496
  605TMC3    C8 9026   1.824   0.656  16.663 -0.2845 -0.0943 -0.5089
  605TMC3    O1 9027   1.384   0.784  16.474  0.3822  0.6378  0.1516
  605TMC3    O2 9028   1.921   0.630  16.596 -0.3797  0.8531 -0.1911
  606TMC3    C1 9029   2.839   0.026  17.237 -0.7804  0.4436  0.0421
  606TMC3    C2 9030   2.894   0.063  17.353 -0.2682  0.0645 -0.0495
  606TMC3    C3 9031   2.980   4.712  17.415 -0.2234 -0.6161 -0.1594
  606TMC3    C4 9032   2.858   4.638  17.180 -0.2702 -0.1509 -0.0347
  606TMC3    C5 9033   2.947   4.554  17.251  0.7520 -0.8991 -0.6980
  606TMC3    C6 9034   3.011   4.587  17.366  0.1527 -0.1104 -0.8385
  606TMC3     C 9035   2.774   0.127  17.161 -0.3301  0.2228 -0.4244
  606TMC3     O 9036   2.707   0.205  17.223  0.0121  0.4725 -0.2274
  606TMC3     H 9037   2.874   0.162  17.392  1.0050  1.0171 -1.8202
  606TMC3    H1 9038   2.824   4.605  17.083  1.6704  0.4890 -0.9273
  606TMC3    H2 9039   3.070   4.517  17.424 -1.6727 -0.2083  0.9313
  606TMC3    C7 9040   3.008   4.442  17.175 -0.3039 -0.2139  0.8945
  606TMC3    C8 9041   3.038   0.020  17.541  0.3431 -0.5159 -0.1683
  606TMC3    O1 9042   3.011   4.449  17.058  0.0005  0.3418 -0.0199
  606TMC3    O2 9043   2.958   0.079  17.610  0.2957 -0.3796  0.1194
  607MPD2     C 9044   0.418   0.975  12.026  0.1365  0.3924  0.2467
  607MPD2    C1 9045   0.383   1.109  12.049 -0.4699 -0.2903  0.2015
  607MPD2    C2 9046   0.332   1.147  12.177 -0.6438 -0.7583  0.3635
  607MPD2    C3 9047   0.306   1.056  12.272 -0.1354 -1.2462 -0.1440
  607MPD2    C4 9048   0.334   0.920  12.246  0.0944 -0.3582  0.2050
  607MPD2    C5 9049   0.386   0.881  12.125 -0.0178 -0.4314 -0.0335
  607MPD2     H 9050   0.329   1.252  12.201 -0.1204 -0.7740  0.5033
  607MPD2    H1 9051   0.313   0.843  12.319  1.9274 -1.4461 -0.3952
  607MPD2    H2 9052   0.454   0.935  11.932  2.8514  0.4220  1.2836
  607MPD2    H3 9053   0.410   0.777  12.107 -3.5575 -1.0738 -1.0461
  607MPD2     N 9054   0.263   1.106  12.393 -0.2140  0.4505 -0.7199
  607MPD2    H5 9055   0.253   1.207  12.396 -1.4765  0.3571 -1.8387
  607MPD2    N1 9056   0.409   1.206  11.949 -0.7449 -0.1430  0.1216
  607MPD2    H7 9057   0.372   1.300  11.965  0.0796 -0.1052  1.8414
  608TMC3    C1 9058   0.540   1.338  11.815  0.0855 -0.6894 -0.2037
  608TMC3    C2 9059   0.523   1.428  11.914  0.6529  0.2652  0.7601
  608TMC3    C3 9060   0.536   1.558  11.869 -0.6852 -0.1860  0.2705
  608TMC3    C4 9061   0.577   1.368  11.687 -0.8056 -0.6548  0.3025
  608TMC3    C5 9062   0.600   1.502  11.658 -0.4544 -0.3212  0.1294
  608TMC3    C6 9063   0.573   1.604  11.747 -0.3009 -0.3062  0.0746
  608TMC3     C 9064   0.506   1.205  11.849 -0.4586 -0.9226  0.6533
  608TMC3     O 9065   0.536   1.112  11.780 -0.0318 -0.3464  0.2731
  608TMC3     H 9066   0.540   1.404  12.018  1.6430 -0.2923  0.4689
  608TMC3    H1 9067   0.583   1.292  11.610 -2.3235 -1.6502  1.1559
  608TMC3    H2 9068   0.604   1.705  11.725  1.0975 -0.3926  1.6851
  608TMC3    C7 9069   0.634   1.554  11.520 -0.0370  0.1434  0.0614
  608TMC3    C8 9070   0.520   1.660  11.969 -0.1246 -0.5178 -1.0275
  608TMC3    O1 9071   0.629   1.674  11.497  0.6688 -0.1529 -0.2983
  608TMC3    O2 9072   0.567   1.775  11.963  0.2080  0.2879  0.4731
  609TMC3    C1 9073   3.812   0.392   9.232 -0.0878  0.2562 -0.2005
  609TMC3    C2 9074   3.781   0.380   9.094 -0.0482  0.3972 -0.1112
  609TMC3    C3 9075   3.873   0.309   9.013 -0.1755 -0.0434  0.3834
  609TMC3    C4 9076   3.926   0.332   9.287  0.1944 -0.1110 -0.1640
  609TMC3    C5 9077   4.010   0.262   9.204 -0.2571  0.2996 -0.6135
  609TMC3    C6 9078   3.987   0.244   9.072  0.3853  0.7711 -0.0007
  609TMC3     C 9079   3.721   0.466   9.319  0.4508  0.0623  0.1150
  609TMC3     O 9080   3.729   0.429   9.437  0.5386 -0.0846  0.3575
  609TMC3     H 9081   3.695   0.431   9.050 -0.7633  0.3129  1.1781
  609TMC3    H1 9082   3.945   0.330   9.394 -1.6737 -1.2038  0.1365
  609TMC3    H2 9083   4.057   0.198   9.004  0.8388  2.7233 -0.8657
  609TMC3    C7 9084   4.104   0.172   9.275  0.3395  0.3238  0.3529
  609TMC3    C8 9085   3.870   0.315   8.868 -0.5678  0.0864  0.4523
  609TMC3    O1 9086   4.135   0.204   9.390 -0.3104 -0.2887 -0.1120
  609TMC3    O2 9087   3.899   0.213   8.810  0.2140  0.1340 -1.0409
  610TMC3    C1 9088   0.883   1.760  13.124  0.4018 -1.3957  0.5961
  610TMC3    C2 9089   0.889   1.855  13.030 -0.4128 -0.0871  0.0058
  610TMC3    C3 9090   1.010   1.876  12.966 -0.1076  0.0115  0.7259
  610TMC3    C4 9091   0.992   1.679  13.153  0.4878  0.4696 -0.3969
  610TMC3    C5 9092   1.105   1.697  13.081  0.5029 -0.3366  1.1568
  610TMC3    C6 9093   1.107   1.784  12.982 -0.2847 -0.2097 -0.0573
  610TMC3     C 9094   0.761   1.763  13.203  0.6479  0.5619  0.7102
  610TMC3     O 9095   0.669   1.842  13.174 -0.1338  0.4840 -0.0716
  610TMC3     H 9096   0.808   1.926  13.013  0.1911  0.5752 -0.0998
  610TMC3    H1 9097   0.992   1.608  13.235 -0.5580  0.0849 -0.7383
  610TMC3    H2 9098   1.181   1.781  12.903  0.0525 -0.6687  0.2800
  610TMC3    C7 9099   1.217   1.610  13.115 -0.0387 -0.1328 -0.4262
  610TMC3    C8 9100   1.008   1.972  12.857  0.0557  0.4273  0.1552
  610TMC3    O1 9101   1.193   1.498  13.163 -0.3676  0.3165 -0.3056
  610TMC3    O2 9102   0.898   2.017  12.829 -0.0689 -0.1498  0.0264
  611MPD2     C 9103   0.240   1.513  10.741 -0.9365  0.3204  0.1834
  611MPD2    C1 9104   0.207   1.499  10.606 -0.2253  0.5022 -0.0499
  611MPD2    C2 9105   0.301   1.518  10.510 -0.2635 -0.1507 -0.1272
  611MPD2    C3 9106   0.431   1.551  10.551  0.4557  0.3276  0.2727
  611MPD2    C4 9107   0.465   1.559  10.686 -0.3100  0.1867  0.2676
  611MPD2    C5 9108   0.364   1.545  10.776  0.2311  0.0104 -0.2115
  611MPD2     H 9109   0.266   1.534  10.409  3.7730 -0.9161 -1.6570
  611MPD2    H1 9110   0.565   1.593  10.714 -0.7694  0.3591  1.7097
  611MPD2    H2 9111   0.165   1.511  10.819 -0.2163  0.0048  0.8576
  611MPD2    H3 9112   0.382   1.566  10.881  0.6280  0.6543 -0.4056
  611MPD2     N 9113   0.535   1.597  10.467 -0.1775  0.1023 -0.3031
  611MPD2    H5 9114   0.609   1.638  10.523 -1.0914  1.4810 -0.1166
  611MPD2    N1 9115   0.075   1.477  10.569  0.4853 -0.5012  0.2027
  611MPD2    H7 9116   0.006   1.490  10.642  0.7735  1.2801  0.1473
  612TMC3    C1 9117   0.643   1.673  10.276 -0.1413  0.0157 -0.4129
  612TMC3    C2 9118   0.734   1.734  10.353 -0.2053  0.5325 -0.1420
  612TMC3    C3 9119   0.820   1.819  10.289 -0.5452 -0.3762  0.3856
  612TMC3    C4 9120   0.636   1.692  10.143  0.3189  0.0301 -0.2143
  612TMC3    C5 9121   0.720   1.782  10.083 -0.1999  0.4340  0.1701
  612TMC3    C6 9122   0.822   1.842  10.152  0.3265 -0.6312  0.6788
  612TMC3     C 9123   0.533   1.597  10.327 -0.8537  0.7960  0.1649
  612TMC3     O 9124   0.447   1.549  10.248 -0.2912  0.1475 -0.2160
  612TMC3     H 9125   0.725   1.748  10.460 -0.3704  0.8307 -0.1943
  612TMC3    H1 9126   0.554   1.661  10.081  1.3282  1.6392 -2.3464
  612TMC3    H2 9127   0.891   1.920  10.121 -1.1285  1.1771  2.0107
  612TMC3    C7 9128   0.663   1.864   9.974  0.0744  0.6245 -0.1046
  612TMC3    C8 9129   0.915   1.894  10.373  0.4414  0.0378 -0.1153
  612TMC3    O1 9130   0.549   1.836   9.948 -0.0827 -0.3317  0.2447
  612TMC3    O2 9131   0.973   1.985  10.321 -0.4204 -0.5804  0.0639
  613MPD2     C 9132   0.001   4.226  16.130  0.2934  0.9685 -0.5183
  613MPD2    C1 9133   4.700   4.138  16.026  0.0941  0.4938  0.5926
  613MPD2    C2 9134   4.604   4.040  16.052 -0.7681 -0.1327  0.2124
  613MPD2    C3 9135   4.543   4.030  16.177 -0.2771 -0.0327  0.1346
  613MPD2    C4 9136   4.570   4.118  16.272 -0.1386 -0.1979 -0.6098
  613MPD2    C5 9137   4.673   4.206  16.251 -0.0858 -0.0737 -0.1243
  613MPD2     H 9138   4.580   3.963  15.980  0.2547 -1.2798  1.1046
  613MPD2    H1 9139   4.525   4.110  16.370 -0.1350 -1.4473 -0.7158
  613MPD2    H2 9140   0.083   4.297  16.125  0.7754  0.4624  0.1535
  613MPD2    H3 9141   4.714   4.265  16.332  2.3484 -1.6468 -0.2308
  613MPD2     N 9142   4.444   3.938  16.187  0.6166 -0.7067  0.1112
  613MPD2    H5 9143   4.432   3.884  16.102  0.7170 -0.0023 -0.3517
  613MPD2    N1 9144   0.017   4.147  15.893 -0.8195 -0.1005  0.0127
  613MPD2    H7 9145   4.717   4.082  15.825  0.7633  0.5295 -1.4219
  614TMC3    C1 9146   0.076   4.242  15.691 -0.3916 -0.2641  0.8375
  614TMC3    C2 9147   0.059   4.110  15.665 -0.2596  0.4684 -0.4969
  614TMC3    C3 9148   4.706   4.071  15.566 -0.6125 -0.2263  0.4841
  614TMC3    C4 9149   0.002   4.338  15.624 -0.2100  0.7013 -0.6697
  614TMC3    C5 9150   4.651   4.290  15.524  0.4869  0.2550 -0.1583
  614TMC3    C6 9151   4.644   4.159  15.488  0.3647 -0.1433  0.4741
  614TMC3     C 9152   0.074   4.258  15.833 -1.0649 -0.9165 -0.2707
  614TMC3     O 9153   0.109   4.363  15.885  0.2019 -0.4404 -0.1065
  614TMC3     H 9154   0.115   4.031  15.714  0.9732  1.2310 -0.6930
  614TMC3    H1 9155   0.004   4.442  15.655 -1.6622  0.3679  0.5632
  614TMC3    H2 9156   4.593   4.132  15.397 -1.1453 -0.3872  1.4038
  614TMC3    C7 9157   4.607   4.393  15.428 -0.2334 -0.3083 -0.5223
  614TMC3    C8 9158   4.630   3.961  15.609 -0.5012  0.6088 -0.0994
  614TMC3    O1 9159   4.681   4.488  15.411  0.1346  0.2962 -0.4733
  614TMC3    O2 9160   4.658   3.919  15.721  0.0347 -0.1633  0.4008
  615MPD2     C 9161   3.456   0.734  16.062 -0.1710  0.3739  0.5880
  615MPD2    C1 9162   3.370   0.837  16.033  0.1571 -0.2187  0.1717
  615MPD2    C2 9163   3.302   0.833  15.910  0.2491 -0.5665 -0.2274
  615MPD2    C3 9164   3.318   0.730  15.820 -0.1676  0.3346 -0.1408
  615MPD2    C4 9165   3.399   0.624  15.858 -0.6338  0.6827 -0.2143
  615MPD2    C5 9166   3.476   0.632  15.971  0.3409  0.5950  0.2442
  615MPD2     H 9167   3.242   0.920  15.883  0.1036 -0.5483  0.1513
  615MPD2    H1 9168   3.430   0.534  15.806  1.4717  0.9823  0.5223
  615MPD2    H2 9169   3.515   0.731  16.153  1.6770 -1.9541 -0.6829
  615MPD2    H3 9170   3.548   0.552  15.985 -0.9809 -1.0231 -2.2087
  615MPD2     N 9171   3.238   0.730  15.704 -0.0676 -0.2202 -0.1826
  615MPD2    H5 9172   3.173   0.808  15.695 -0.9861 -0.8869  0.6547
  615MPD2    N1 9173   3.371   0.955  16.113 -0.6765 -0.1981  0.8151
  615MPD2    H7 9174   3.302   1.024  16.084  0.1438  0.7464  1.1187
  616TMC3    C1 9175   3.451   1.125  16.261  0.2974  0.4873 -0.5711
  616TMC3    C2 9176   3.567   1.190  16.298  0.9673 -0.5521  0.1133
  616TMC3    C3 9177   3.553   1.301  16.387 -0.1588 -0.0616 -0.4778
  616TMC3    C4 9178   3.326   1.161  16.304  1.1676 -0.1889  0.3502
  616TMC3    C5 9179   3.320   1.265  16.391 -0.4722  0.8604 -0.1919
  616TMC3    C6 9180   3.430   1.340  16.426 -0.0367  0.6529  0.2599
  616TMC3     C 9181   3.470   0.994  16.199  0.2071  0.0447  0.0098
  616TMC3     O 9182   3.575   0.946  16.238  0.2286 -0.1484 -0.0444
  616TMC3     H 9183   3.661   1.167  16.249  0.2002  0.0688 -1.6477
  616TMC3    H1 9184   3.237   1.118  16.260  0.3748  1.2259  0.5415
  616TMC3    H2 9185   3.412   1.419  16.498 -0.2656  0.3432  0.5425
  616TMC3    C7 9186   3.192   1.311  16.455  0.0079  0.4311  0.1669
  616TMC3    C8 9187   3.635   1.417  16.357 -0.9608  0.3272 -0.9438
  616TMC3    O1 9188   3.203   1.389  16.550 -0.0250  0.2158 -0.5030
  616TMC3    O2 9189   3.579   1.522  16.321  0.2343  0.4614  0.0695
  617MPD2     C 9190   1.494   3.164  13.625 -1.0712 -0.7242  0.5412
  617MPD2    C1 9191   1.524   3.159  13.759 -0.3568 -0.1010  0.9990
  617MPD2    C2 9192   1.424   3.205  13.847  0.1393  0.4673  0.6330
  617MPD2    C3 9193   1.299   3.236  13.796  0.7505  0.2676 -1.1880
  617MPD2    C4 9194   1.281   3.242  13.661 -0.8032 -0.4307 -1.2509
  617MPD2    C5 9195   1.377   3.212  13.571  0.8931 -0.4224 -0.7580
  617MPD2     H 9196   1.447   3.192  13.953 -0.3940 -0.4507  0.6334
  617MPD2    H1 9197   1.187   3.271  13.616 -0.0113  2.4959 -1.0096
  617MPD2    H2 9198   1.563   3.116  13.556  1.5660  0.8274  2.1029
  617MPD2    H3 9199   1.361   3.226  13.465  0.8616  0.2143 -0.6655
  617MPD2     N 9200   1.181   3.249  13.870 -0.3323  0.3914 -0.3372
  617MPD2    H5 9201   1.099   3.278  13.817 -0.8936 -1.1569 -0.3164
  617MPD2    N1 9202   1.647   3.114  13.798  0.1485 -0.3823 -0.2750
  617MPD2    H7 9203   1.709   3.093  13.720  0.9315 -1.3021  0.5892
  618TMC3    C1 9204   1.836   3.062  13.903  0.2406  0.1052 -0.2207
  618TMC3    C2 9205   1.874   2.928  13.879 -0.0850 -0.7949 -0.7230
  618TMC3    C3 9206   2.000   2.920  13.827  0.2610 -0.6190 -0.1497
  618TMC3    C4 9207   1.913   3.172  13.880  0.6470  0.2737 -0.0832
  618TMC3    C5 9208   2.045   3.144  13.835  0.5880  0.3502  0.1644
  618TMC3    C6 9209   2.088   3.022  13.815 -0.2528  0.2262  0.0109
  618TMC3     C 9210   1.693   3.088  13.927  0.3457  0.3763  0.1946
  618TMC3     O 9211   1.661   3.132  14.037 -0.7314 -0.4535  0.7320
  618TMC3     H 9212   1.801   2.848  13.880 -1.2024  0.2411  0.9101
  618TMC3    H1 9213   1.879   3.274  13.898  1.8828  0.2946  2.1875
  618TMC3    H2 9214   2.193   3.002  13.799 -0.2652 -0.4299  0.7333
  618TMC3    C7 9215   2.148   3.248  13.836 -0.0132 -1.3807  0.3783
  618TMC3    C8 9216   2.030   2.805  13.736  0.4135  0.2435 -1.2624
  618TMC3    O1 9217   2.166   3.288  13.954 -0.3886  0.4158 -0.1717
  618TMC3    O2 9218   1.967   2.698  13.757  0.6155  0.0022  0.0670
  619MPD2     C 9219   3.079   4.145  13.910 -0.3790 -0.6022  0.2358
  619MPD2    C1 9220   3.039   4.273  13.870  0.3620  1.0537  0.1570
  619MPD2    C2 9221   2.901   4.303  13.869 -0.0951 -0.1909  0.0345
  619MPD2    C3 9222   2.808   4.208  13.896  0.7296 -0.6149  0.3720
  619MPD2    C4 9223   2.849   4.082  13.922  0.0880  0.5187 -0.4208
  619MPD2    C5 9224   2.983   4.053  13.938 -0.1236  0.5895 -0.1730
  619MPD2     H 9225   2.876   4.407  13.855  3.2072  0.4776 -0.9227
  619MPD2    H1 9226   2.787   3.994  13.938  0.9056 -0.0798 -0.5460
  619MPD2    H2 9227   3.183   4.114  13.921 -0.0646  0.8323  1.3663
  619MPD2    H3 9228   3.002   3.953  13.975  1.1657  0.6465 -0.6960
  619MPD2     N 9229   2.667   4.227  13.875 -0.5906  0.0758  0.2448
  619MPD2    H5 9230   2.604   4.152  13.904 -0.0437 -0.2808  0.5076
  619MPD2    N1 9231   3.132   4.383  13.828  0.5052 -0.3802  0.1347
  619MPD2    H7 9232   3.089   4.474  13.823 -2.3836 -1.8737 -2.1781
  620TMC3    C1 9233   3.318   4.520  13.787  0.3574  0.5355  0.0068
  620TMC3    C2 9234   3.258   4.572  13.676  0.3488 -0.3932 -0.6145
  620TMC3    C3 9235   3.303   4.693  13.632 -0.5280 -0.3670 -0.0389
  620TMC3    C4 9236   3.423   4.580  13.849  0.1840 -0.4305 -0.6863
  620TMC3    C5 9237   3.446   4.713  13.817  0.9320  0.4327  0.3247
  620TMC3    C6 9238   3.401   0.030  13.697 -0.1677 -0.3912  0.1932
  620TMC3     C 9239   3.271   4.388  13.835  0.2108  0.2339 -0.1607
  620TMC3     O 9240   3.356   4.319  13.890  0.1718  0.4764  0.3447
  620TMC3     H 9241   3.168   4.524  13.639  0.7843 -1.8352  0.1909
  620TMC3    H1 9242   3.451   4.538  13.945 -2.8316 -0.6970  0.0794
  620TMC3    H2 9243   3.428   0.131  13.671  1.6092 -1.1510 -0.9408
  620TMC3    C7 9244   3.410   0.067  13.921 -0.3221  0.3347  0.3868
  620TMC3    C8 9245   3.204   0.046  13.576 -0.3081 -0.0406 -0.3047
  620TMC3    O1 9246   3.433   0.034  14.036 -0.0929 -0.1463 -0.3570
  620TMC3    O2 9247   3.195   0.153  13.637  0.4374  0.2786  0.1629
  621MPD2     C 9248   3.298   4.144  10.256  0.2598 -0.3809 -0.0542
  621MPD2    C1 9249   3.223   4.214  10.164 -0.4604 -0.5297 -0.2927
  621MPD2    C2 9250   3.277   4.322  10.096  0.3002 -0.2016  0.4701
  621MPD2    C3 9251   3.407   4.362  10.116 -0.1207  0.0450  1.1573
  621MPD2    C4 9252   3.477   4.299  10.209 -0.1064 -0.5441  0.0679
  621MPD2    C5 9253   3.421   4.193  10.281 -0.8333  0.6482  0.4961
  621MPD2     H 9254   3.204   4.374  10.035  2.4996  3.0360  0.5989
  621MPD2    H1 9255   3.576   4.331  10.239  1.2843 -4.3693 -0.3953
  621MPD2    H2 9256   3.264   4.058  10.312  0.8839 -1.6450 -1.6166
  621MPD2    H3 9257   3.477   4.134  10.353  0.3465  0.2260 -0.7559
  621MPD2     N 9258   3.452   4.481  10.046  0.3454  0.6267 -0.3882
  621MPD2    H5 9259   3.381   4.528   9.992  0.0504  0.4170 -0.1801
  621MPD2    N1 9260   3.093   4.164  10.136 -0.9142  0.1494 -0.2563
  621MPD2    H7 9261   3.054   4.196  10.048 -0.3362  1.8555  0.1032
  622TMC3    C1 9262   2.913   4.021  10.125  0.2086 -0.0994 -0.5884
  622TMC3    C2 9263   2.805   3.988  10.195  0.5169  0.2292  0.2026
  622TMC3    C3 9264   2.710   3.919  10.123 -0.4425  0.4869  0.4227
  622TMC3    C4 9265   2.932   3.989   9.995  0.0328  0.0925 -0.8889
  622TMC3    C5 9266   2.843   3.914   9.922  0.3368 -0.1103  0.4226
  622TMC3    C6 9267   2.731   3.877   9.990  0.9169 -0.1338 -0.0610
  622TMC3     C 9268   3.025   4.073  10.203  0.0005  0.4096 -0.2649
  622TMC3     O 9269   3.023   4.047  10.324 -0.2427  0.1319  0.5315
  622TMC3     H 9270   2.787   4.015  10.298  2.8758  2.6237 -0.0262
  622TMC3    H1 9271   3.031   4.012   9.957  0.0367  1.4015 -0.0831
  622TMC3    H2 9272   2.646   3.846   9.931  0.3029 -0.5104  1.0160
  622TMC3    C7 9273   2.813   3.946   9.790  0.4458  0.2217 -0.3056
  622TMC3    C8 9274   2.571   3.943  10.166  0.7307  0.4169  0.4289
  622TMC3    O1 9275   2.735   3.870   9.739  0.2104 -0.3416 -0.0825
  622TMC3    O2 9276   2.487   3.863  10.136  0.4638 -0.2790 -0.0348
  623MPD2     C 9277   2.174   0.730  15.889 -0.3808 -0.1902 -0.8373
  623MPD2    C1 9278   2.103   0.787  15.992 -0.8472 -0.3506  0.1194
  623MPD2    C2 9279   2.162   0.845  16.097 -0.2863 -0.0544 -0.3910
  623MPD2    C3 9280   2.299   0.861  16.103 -1.0659 -0.0085 -0.1457
  623MPD2    C4 9281   2.379   0.807  16.007  0.7635 -0.1980  0.0383
  623MPD2    C5 9282   2.312   0.751  15.896  0.3468 -0.5961 -0.4634
  623MPD2     H 9283   2.092   0.872  16.175  0.0665  0.4847 -0.2617
  623MPD2    H1 9284   2.484   0.795  16.031  0.3861  0.1500  1.8350
  623MPD2    H2 9285   2.129   0.672  15.809 -1.7220 -0.5649  0.1874
  623MPD2    H3 9286   2.375   0.712  15.817  0.3669 -0.8971 -0.2994
  623MPD2     N 9287   2.342   0.904  16.226 -0.4062  0.5036  0.0393
  623MPD2    H5 9288   2.272   0.919  16.297  1.3770 -0.0935  1.9116
  623MPD2    N1 9289   1.963   0.778  16.008  0.1835  0.0863  0.2730
  623MPD2    H7 9290   1.931   0.829  16.090 -0.1676  2.1691 -1.1943
  624TMC3    C1 9291   2.661   0.996  16.561  0.5943 -0.6678  0.0850
  624TMC3    C2 9292   2.567   1.021  16.654 -0.0828  0.0392  0.0425
  624TMC3    C3 9293   2.439   1.015  16.614 -0.3560  0.0690 -0.2278
  624TMC3    C4 9294   2.625   0.983  16.430  0.1011 -0.4857 -0.9056
  624TMC3    C5 9295   2.493   0.966  16.399  0.1384 -0.7601  0.0996
  624TMC3    C6 9296   2.393   0.988  16.488  0.1217  0.1071 -0.2041
  624TMC3     C 9297   2.794   1.014  16.598  0.6300 -0.4888  0.4715
  624TMC3     O 9298   2.819   1.032  16.717  0.4466  0.0893  0.8322
  624TMC3     H 9299   2.595   1.033  16.758  0.4347 -2.8784  0.2396
  624TMC3    H1 9300   2.699   0.953  16.357  1.2559 -0.7075  0.3549
  624TMC3    H2 9301   2.290   0.982  16.455  0.1283  0.3760 -0.2746
  624TMC3    C7 9302   2.475   0.932  16.257  0.4036 -0.5384 -0.2069
  624TMC3    C8 9303   2.345   1.037  16.725 -0.1002  0.3206 -0.1729
  624TMC3    O1 9304   2.571   0.951  16.181  0.0547  0.7008 -0.0131
  624TMC3    O2 9305   2.377   1.096  16.830 -0.0307 -0.5457  0.1988
  625MPD2     C 9306   2.506   2.778   0.827  0.1630  0.1684  0.2317
  625MPD2    C1 9307   2.550   2.887   0.760 -0.1616  0.4290 -0.2510
  625MPD2    C2 9308   2.683   2.900   0.723  0.4549  0.3601 -0.1820
  625MPD2    C3 9309   2.772   2.804   0.758 -0.7397  0.5528 -0.5871
  625MPD2    C4 9310   2.727   2.691   0.822  0.5580  0.2870 -0.6775
  625MPD2    C5 9311   2.594   2.677   0.854  0.1462 -0.6999  0.8759
  625MPD2     H 9312   2.718   2.995   0.684 -1.3189  1.0596 -0.0979
  625MPD2    H1 9313   2.793   2.607   0.843 -0.5471 -0.1736  0.8854
  625MPD2    H2 9314   2.401   2.773   0.856  0.3837 -2.1434  0.6032
  625MPD2    H3 9315   2.561   2.581   0.891  1.7536 -2.8098 -3.1503
  625MPD2     N 9316   2.914   2.834   0.732 -0.0163  0.1339 -0.3716
  625MPD2    H5 9317   2.937   2.929   0.704 -0.0487  0.2968  0.1507
  625MPD2    N1 9318   2.462   2.991   0.734  0.4990 -0.2021  0.2755
  625MPD2    H7 9319   2.487   3.066   0.670 -1.5295 -0.6999 -1.1167
  626TMC3    C1 9320   2.268   3.107   0.727 -0.4315  0.0031  0.2081
  626TMC3    C2 9321   2.262   3.082   0.593  0.8735  0.7071  0.0679
  626TMC3    C3 9322   2.141   3.102   0.530  0.5811  0.8538 -0.0113
  626TMC3    C4 9323   2.156   3.141   0.795  1.1192 -1.0586 -0.3940
  626TMC3    C5 9324   2.037   3.164   0.726 -0.0492  0.4614  0.1490
  626TMC3    C6 9325   2.024   3.138   0.589  0.4819  0.2483  0.1664
  626TMC3     C 9326   2.347   3.006   0.803 -0.3105 -0.4449  0.2549
  626TMC3     O 9327   2.294   2.959   0.901  0.1776 -0.3934 -0.1290
  626TMC3     H 9328   2.346   3.035   0.545 -1.7388 -0.7725 -2.9906
  626TMC3    H1 9329   2.153   3.138   0.903  0.0425  0.9914 -0.3667
  626TMC3    H2 9330   1.953   3.193   0.528 -1.0904  2.0161  3.6137
  626TMC3    C7 9331   1.932   3.215   0.802  0.4069 -0.0423  0.1540
  626TMC3    C8 9332   2.139   3.044   0.396 -0.8231 -0.9532  0.0225
  626TMC3    O1 9333   1.958   3.257   0.916 -0.3079  0.3861  0.1715
  626TMC3    O2 9334   2.243   3.021   0.334 -0.4280 -0.2185 -0.3277
  627MPD2     C 9335   0.627   2.199  14.408 -0.3434 -0.3728 -0.1292
  627MPD2    C1 9336   0.690   2.123  14.499 -0.5341  0.0883 -0.1095
  627MPD2    C2 9337   0.690   1.988  14.492 -0.0947 -0.4547  0.0634
  627MPD2    C3 9338   0.603   1.924  14.405 -0.0022 -0.2943  0.0806
  627MPD2    C4 9339   0.527   2.004  14.326 -0.5798  0.5777 -0.2649
  627MPD2    C5 9340   0.551   2.137  14.319 -0.1338  0.1918 -0.2375
  627MPD2     H 9341   0.756   1.924  14.550  3.1980  2.0070 -0.9474
  627MPD2    H1 9342   0.464   1.959  14.250  0.7163 -0.3062 -0.8214
  627MPD2    H2 9343   0.638   2.306  14.395  0.0020 -0.6021 -1.7111
  627MPD2    H3 9344   0.509   2.193  14.236 -1.3638  1.9332  1.5584
  627MPD2     N 9345   0.602   1.785  14.406  0.2662  1.1268 -0.0189
  627MPD2    H5 9346   0.668   1.749  14.474 -0.4755  1.9992  1.1673
  627MPD2    N1 9347   0.779   2.181  14.590  0.4512 -0.4174 -0.4762
  627MPD2    H7 9348   0.845   2.125  14.642 -0.4993 -0.4075  0.7405
  628TMC3    C1 9349   0.915   2.366  14.657 -0.6541 -0.2991 -1.1560
  628TMC3    C2 9350   1.020   2.276  14.669  0.3082 -0.1693 -0.2043
  628TMC3    C3 9351   1.137   2.324  14.726 -1.0039  0.1296  0.0871
  628TMC3    C4 9352   0.920   2.491  14.718 -1.0037  0.2373 -0.0174
  628TMC3    C5 9353   1.034   2.518  14.785  0.7646 -0.2208  0.0493
  628TMC3    C6 9354   1.144   2.444  14.803 -0.0528 -0.8996  0.0461
  628TMC3     C 9355   0.786   2.319  14.617  0.1464  0.9710 -0.3707
  628TMC3     O 9356   0.701   2.407  14.607 -0.2258  0.8311  0.2544
  628TMC3     H 9357   1.039   2.189  14.607  0.1997 -0.3227 -0.0194
  628TMC3    H1 9358   0.827   2.547  14.724  0.4881  2.6830  0.1048
  628TMC3    H2 9359   1.233   2.499  14.830 -0.2053 -0.7346  0.2118
  628TMC3    C7 9360   1.049   2.658  14.814 -0.6665 -0.1382  0.4565
  628TMC3    C8 9361   1.266   2.259  14.692  0.7041  0.1525 -0.4695
  628TMC3    O1 9362   1.129   2.690  14.901 -0.4102  0.1529  0.3824
  628TMC3    O2 9363   1.275   2.188  14.594 -0.2087  0.2288  0.2276
  629MPD2     C 9364   4.072   1.579  16.166 -0.5553  0.3481  0.8448
  629MPD2    C1 9365   4.098   1.468  16.238 -0.4387  0.2599 -0.2457
  629MPD2    C2 9366   3.993   1.408  16.308 -0.0165 -0.2559  0.0532
  629MPD2    C3 9367   3.864   1.460  16.288 -0.3373 -0.3283 -0.2893
  629MPD2    C4 9368   3.842   1.573  16.216 -0.1624  0.2135 -0.4229
  629MPD2    C5 9369   3.948   1.640  16.157  0.2275 -0.9274 -0.1568
  629MPD2     H 9370   4.006   1.317  16.364  4.5518  0.1391 -0.3738
  629MPD2    H1 9371   3.742   1.612  16.195 -0.7084  0.1619  2.1469
  629MPD2    H2 9372   4.153   1.627  16.113  0.0709 -2.3705 -0.6593
  629MPD2    H3 9373   3.932   1.715  16.081  3.4056  2.6336  2.6682
  629MPD2     N 9374   3.765   1.381  16.345 -0.2595 -0.5121  0.4762
  629MPD2    H5 9375   3.793   1.291  16.382  2.0440  0.8304  2.0606
  629MPD2    N1 9376   4.233   1.429  16.237 -0.7259 -0.2538  0.3545
  629MPD2    H7 9377   4.292   1.498  16.191 -2.1671 -0.4975 -1.8649
  630TMC3    C1 9378   4.424   1.330  16.335 -0.0367  0.0850 -0.1621
  630TMC3    C2 9379   4.501   1.390  16.239 -0.4177 -0.5953  0.5176
  630TMC3    C3 9380   4.635   1.416  16.274  0.2401  0.5721 -0.2083
  630TMC3    C4 9381   4.475   1.281  16.452 -0.0587 -1.1010  0.3329
  630TMC3    C5 9382   4.614   1.296  16.475 -0.0474  0.3493  0.1905
  630TMC3    C6 9383   4.693   1.377  16.390 -0.7053 -0.5792 -0.6968
  630TMC3     C 9384   4.280   1.328  16.317  0.2322 -0.1579  0.0763
  630TMC3     O 9385   4.228   1.236  16.381 -0.5447 -0.2083 -0.8112
  630TMC3     H 9386   4.463   1.411  16.140  2.6995 -0.5638 -0.6539
  630TMC3    H1 9387   4.413   1.218  16.514 -1.8480  2.0512  1.7503
  630TMC3    H2 9388   0.064   1.360  16.388 -0.5568  0.5317 -1.6732
  630TMC3    C7 9389   4.676   1.240  16.587 -0.8334 -0.5467  0.4648
  630TMC3    C8 9390   4.724   1.445  16.163  0.5660 -0.0540 -0.4389
  630TMC3    O1 9391   0.020   1.304  16.655  0.5515 -0.5251 -0.2754
  630TMC3    O2 9392   4.687   1.414  16.050  0.3694 -0.0921  0.3573
  631MPD2     C 9393   2.483   1.163  15.579  0.4205 -0.4707  0.8925
  631MPD2    C1 9394   2.570   1.218  15.492 -0.5870 -0.4964  0.0363
  631MPD2    C2 9395   2.675   1.143  15.447  1.0482 -0.1693  0.0862
  631MPD2    C3 9396   2.678   1.012  15.475  0.3540 -0.1785  0.0866
  631MPD2    C4 9397   2.584   0.951  15.553 -0.3731  0.4756  0.0428
  631MPD2    C5 9398   2.482   1.028  15.602 -0.0771  0.5561 -0.7073
  631MPD2     H 9399   2.754   1.186  15.388  0.4090  0.8463 -0.0379
  631MPD2    H1 9400   2.585   0.844  15.575  1.7183  0.5159  0.1666
  631MPD2    H2 9401   2.399   1.216  15.622  0.3187  0.4598 -0.4577
  631MPD2    H3 9402   2.417   0.972  15.668  2.0218  0.1006  0.9865
  631MPD2     N 9403   2.796   0.940  15.436 -0.1536  0.2104  0.0984
  631MPD2    H5 9404   2.855   0.991  15.372 -0.7628  0.1243 -0.5265
  631MPD2    N1 9405   2.562   1.355  15.451  0.2102  0.5617  0.5660
  631MPD2    H7 9406   2.633   1.391  15.388 -0.5059 -1.5402 -1.4376
  632TMC3    C1 9407   2.442   1.562  15.407 -0.2509  0.0348 -0.6791
  632TMC3    C2 9408   2.331   1.638  15.440  0.1318  0.6204  0.0439
  632TMC3    C3 9409   2.303   1.731  15.341  0.0736 -0.0465 -0.2549
  632TMC3    C4 9410   2.520   1.593  15.304 -0.3618 -0.3511  0.3108
  632TMC3    C5 9411   2.496   1.701  15.222 -0.3458 -0.1850 -0.2656
  632TMC3    C6 9412   2.378   1.768  15.235 -0.4763 -0.0860  0.2139
  632TMC3     C 9413   2.458   1.439  15.485  0.1709  0.3471  0.0525
  632TMC3     O 9414   2.369   1.426  15.571  0.1681 -0.0183  0.1677
  632TMC3     H 9415   2.267   1.610  15.522  0.1082  2.0371  0.4988
  632TMC3    H1 9416   2.606   1.529  15.285  0.1804  0.8814 -1.4214
  632TMC3    H2 9417   2.341   1.835  15.158  0.8044  1.4922  0.9621
  632TMC3    C7 9418   2.552   1.706  15.086  0.3076 -0.7175 -0.6634
  632TMC3    C8 9419   2.163   1.757  15.336 -1.0191 -0.6120 -1.0473
  632TMC3    O1 9420   2.491   1.751  14.994 -0.0769  0.0212 -0.0155
  632TMC3    O2 9421   2.113   1.777  15.229  0.3147 -0.5439  0.2506
  633MPD2     C 9422   2.220   3.860  17.269  0.2524 -0.1602 -0.0562
  633MPD2    C1 9423   2.288   3.796  17.171 -0.3059  0.5160  0.3442
  633MPD2    C2 9424   2.405   3.729  17.204 -0.4572 -0.6488 -0.2421
  633MPD2    C3 9425   2.447   3.744  17.333  0.3409 -0.0918  0.5133
  633MPD2    C4 9426   2.389   3.821  17.427 -0.8404  0.5809  0.2851
  633MPD2    C5 9427   2.276   3.884  17.392  0.6006 -0.1312 -0.2253
  633MPD2     H 9428   2.470   3.676  17.135 -1.3748  0.4801 -1.9566
  633MPD2    H1 9429   2.426   3.822  17.529  0.0473  1.8515 -0.0457
  633MPD2    H2 9430   2.130   3.915  17.246  1.0392  0.8533 -0.7307
  633MPD2    H3 9431   2.213   3.931  17.466 -1.0911 -1.1844 -1.0166
  633MPD2     N 9432   2.576   3.683  17.378 -0.3046  0.0131  0.5306
  633MPD2    H5 9433   2.617   3.711  17.467 -1.1505  2.6666  0.0730
  633MPD2    N1 9434   2.240   3.789  17.037 -0.7651 -0.3456 -0.0121
  633MPD2    H7 9435   2.293   3.730  16.973 -2.8964 -0.7137 -1.4246
  634TMC3    C1 9436   2.158   3.873  16.832  0.3323 -0.1328  0.8465
  634TMC3    C2 9437   2.242   3.785  16.772  0.5225  0.2175 -0.5348
  634TMC3    C3 9438   2.281   3.807  16.643  0.7578 -0.4003 -0.3585
  634TMC3    C4 9439   2.123   3.991  16.772  0.0685 -0.5443  0.4997
  634TMC3    C5 9440   2.174   4.019  16.646  0.8941 -0.5543 -0.8094
  634TMC3    C6 9441   2.241   3.922  16.573  0.0748 -0.3185 -0.3410
  634TMC3     C 9442   2.156   3.879  16.978 -0.3527 -0.6024 -0.0098
  634TMC3     O 9443   2.080   3.959  17.034 -0.2747  0.0800 -0.2215
  634TMC3     H 9444   2.274   3.696  16.825 -0.0236  0.2114 -0.2135
  634TMC3    H1 9445   2.059   4.065  16.820  1.3294  0.0883  1.2144
  634TMC3    H2 9446   2.279   3.945  16.474 -0.1359  3.3024  0.4154
  634TMC3    C7 9447   2.203   4.156  16.609  0.5556 -0.7495  0.2950
  634TMC3    C8 9448   2.365   3.711  16.580 -0.0460 -0.9108 -0.6850
  634TMC3    O1 9449   2.276   4.172  16.508  0.2010  0.0847  0.2223
  634TMC3    O2 9450   2.433   3.638  16.655  0.7953  0.0009  0.2034
  635TMC3    C1 9451   2.606   1.380   0.628  0.2467 -1.0817  0.9451
  635TMC3    C2 9452   2.624   1.289   0.732  0.1441 -0.2584  0.0962
  635TMC3    C3 9453   2.519   1.266   0.810  0.0624  0.6205 -0.1265
  635TMC3    C4 9454   2.488   1.438   0.591  0.0881  0.2775 -0.9958
  635TMC3    C5 9455   2.381   1.399   0.665 -0.1154 -0.2040  0.2485
  635TMC3    C6 9456   2.395   1.320   0.777  0.4875  0.5009  0.2459
  635TMC3     C 9457   2.706   1.375   0.525 -0.2787 -0.0293 -0.2693
  635TMC3     O 9458   2.824   1.387   0.559  0.0817  0.9688 -0.0255
  635TMC3     H 9459   2.725   1.252   0.745  0.5852  1.5048  1.6032
  635TMC3    H1 9460   2.490   1.511   0.511 -0.4820 -0.3396 -1.5716
  635TMC3    H2 9461   2.312   1.310   0.846 -0.1033  1.4827 -0.3164
  635TMC3    C7 9462   2.247   1.447   0.646 -0.1437  0.1074 -0.3596
  635TMC3    C8 9463   2.526   1.164   0.916  1.0891 -0.6990 -0.6801
  635TMC3    O1 9464   2.174   1.448   0.747 -0.3414  0.1804  0.5006
  635TMC3    O2 9465   2.429   1.159   0.989 -0.2441  0.1004 -0.3350
  636MPD2     C 9466   3.829   4.391  15.976 -0.3197  0.3025  0.0989
  636MPD2    C1 9467   3.895   4.388  16.097  0.0118  0.2143 -0.0893
  636MPD2    C2 9468   3.957   4.265  16.126  0.1265  0.8304  0.2141
  636MPD2    C3 9469   3.943   4.158  16.044  0.1767 -0.1349 -0.3980
  636MPD2    C4 9470   3.866   4.166  15.931  0.4081  0.2239 -0.0126
  636MPD2    C5 9471   3.803   4.280  15.902  0.4130 -0.1760  0.8040
  636MPD2     H 9472   4.018   4.256  16.215 -1.5784 -1.8258  1.1032
  636MPD2    H1 9473   3.850   4.083  15.864  0.8915  0.2489 -0.1598
  636MPD2    H2 9474   3.770   4.474  15.939 -1.5481 -0.4565  0.3219
  636MPD2    H3 9475   3.753   4.290  15.806 -0.3979  1.7538  1.4327
  636MPD2     N 9476   4.000   4.037  16.093  0.1382  0.0919  0.5204
  636MPD2    H5 9477   4.053   4.044  16.179  1.8137  3.5230 -0.7774
  636MPD2    N1 9478   3.915   4.491  16.188  0.0625  0.2187 -0.1618
  636MPD2    H7 9479   3.969   4.475  16.272  2.0521  1.6087 -1.1606
  637TMC3    C1 9480   4.067   3.805  16.122  0.5257  0.1564  0.9767
  637TMC3    C2 9481   4.133   3.857  16.229  0.7684  0.4708  0.0909
  637TMC3    C3 9482   4.260   3.818  16.260 -0.3830 -0.0960  0.2138
  637TMC3    C4 9483   4.117   3.699  16.042  0.3659 -0.5597  0.2132
  637TMC3    C5 9484   4.252   3.675  16.065  0.3804  0.0188  0.6212
  637TMC3    C6 9485   4.315   3.721  16.173  1.3376  0.5417  0.5364
  637TMC3     C 9486   3.997   3.907  16.039  0.5376  0.0027 -0.1948
  637TMC3     O 9487   3.922   3.873  15.949  0.4425  0.5402 -0.4218
  637TMC3     H 9488   4.075   3.924  16.291  0.1998  0.4874 -0.4531
  637TMC3    H1 9489   4.065   3.669  15.952  0.5575 -0.1348 -0.0460
  637TMC3    H2 9490   4.413   3.684  16.199  0.2231 -2.8204 -0.0611
  637TMC3    C7 9491   4.343   3.675  15.947  0.2543 -0.2372  0.1503
  637TMC3    C8 9492   4.349   3.933  16.286 -0.9163 -0.2418 -0.2804
  637TMC3    O1 9493   4.452   3.731  15.966 -0.5596  0.2407 -0.2774
  637TMC3    O2 9494   4.310   4.027  16.352  0.1438 -0.3545  0.3272
  638MPD2     C 9495   3.410   2.873  14.829 -0.3346  0.0683  0.4831
  638MPD2    C1 9496   3.362   2.762  14.762 -0.1169  0.0466 -0.2648
  638MPD2    C2 9497   3.311   2.649  14.834  0.1988 -0.0991 -0.6063
  638MPD2    C3 9498   3.299   2.651  14.972 -0.6438  0.7851  0.3467
  638MPD2    C4 9499   3.331   2.773  15.040  0.5993  0.3595  0.1329
  638MPD2    C5 9500   3.393   2.878  14.968 -0.0021  0.2323  0.4396
  638MPD2     H 9501   3.275   2.556  14.790 -1.5761  0.0174  0.5514
  638MPD2    H1 9502   3.313   2.777  15.146 -1.8858  2.2123 -0.3706
  638MPD2    H2 9503   3.459   2.953  14.776  0.1692 -1.7211 -1.7524
  638MPD2    H3 9504   3.416   2.963  15.031 -0.5905 -0.6876  1.9140
  638MPD2     N 9505   3.259   2.530  15.033 -0.2641  0.1302  0.2509
  638MPD2    H5 9506   3.210   2.462  14.975  0.1500  0.3109 -0.3136
  638MPD2    N1 9507   3.392   2.750  14.629  0.5131 -0.1011 -0.5448
  638MPD2    H7 9508   3.449   2.819  14.581  1.4483 -0.9053 -0.5653
  639TMC3    C1 9509   3.273   2.357  15.182 -0.7708  0.7798  0.1227
  639TMC3    C2 9510   3.191   2.289  15.103 -0.0543 -0.4291 -0.4531
  639TMC3    C3 9511   3.242   2.181  15.028 -0.4254 -0.3821 -0.3679
  639TMC3    C4 9512   3.389   2.294  15.220 -0.0068 -0.4554 -0.3526
  639TMC3    C5 9513   3.432   2.174  15.162  0.9696 -0.0226  0.2642
  639TMC3    C6 9514   3.358   2.115  15.063  0.5454 -0.1986  0.5531
  639TMC3     C 9515   3.275   2.501  15.169  0.2487 -0.9427  0.0927
  639TMC3     O 9516   3.319   2.567  15.259  0.5011 -0.0926  0.1015
  639TMC3     H 9517   3.094   2.334  15.083  1.3792  1.8223 -2.2641
  639TMC3    H1 9518   3.452   2.352  15.285  0.7741 -0.0769 -1.4577
  639TMC3    H2 9519   3.398   2.032  15.007 -3.6262 -1.7610 -0.1065
  639TMC3    C7 9520   3.555   2.122  15.206  0.0637  0.2454  0.1272
  639TMC3    C8 9521   3.156   2.107  14.937 -0.1951  0.1481 -0.0829
  639TMC3    O1 9522   3.604   2.155  15.315 -0.5539 -0.3453  0.1589
  639TMC3    O2 9523   3.215   2.043  14.855  0.0793 -0.0984 -0.6145
  640MPD2     C 9524   3.685   0.929  10.252  0.3049  0.4026 -0.7923
  640MPD2    C1 9525   3.737   0.971  10.132 -0.1113 -0.3057  0.1633
  640MPD2    C2 9526   3.794   1.102  10.128  0.1190  0.2902 -0.6889
  640MPD2    C3 9527   3.792   1.184  10.243 -0.1908 -0.4306  0.0080
  640MPD2    C4 9528   3.725   1.148  10.352  0.9129 -0.2512 -0.3740
  640MPD2    C5 9529   3.674   1.020  10.354  0.1841 -0.6242  0.9451
  640MPD2     H 9530   3.815   1.144  10.030  0.3098 -0.3057 -0.9055
  640MPD2    H1 9531   3.717   1.218  10.434 -2.3759 -1.7334  0.5429
  640MPD2    H2 9532   3.641   0.830  10.260  1.6594 -0.0685  0.7421
  640MPD2    H3 9533   3.621   0.988  10.443 -1.5509 -1.5175 -0.4172
  640MPD2     N 9534   3.830   1.317  10.243 -0.0689  0.9303 -0.0323
  640MPD2    H5 9535   3.801   1.375  10.321  0.0883 -1.3635  1.7595
  640MPD2    N1 9536   3.745   0.873  10.032  0.0928 -0.0970 -0.5882
  640MPD2    H7 9537   3.726   0.775  10.052  0.6076 -0.3803 -1.5138
  641TMC3    C1 9538   3.809   0.804   9.815  0.8161  0.6023 -0.5307
  641TMC3    C2 9539   3.873   0.690   9.862 -0.0199 -0.2839 -0.8342
  641TMC3    C3 9540   3.935   0.606   9.777  0.0652  0.2570 -0.9288
  641TMC3    C4 9541   3.805   0.832   9.684 -0.3280  0.2110 -0.2253
  641TMC3    C5 9542   3.863   0.746   9.597 -0.3725 -0.0632  0.2955
  641TMC3    C6 9543   3.921   0.630   9.644  0.3662 -0.1682 -0.4261
  641TMC3     C 9544   3.760   0.909   9.901 -0.6319 -0.1203 -0.3674
  641TMC3     O 9545   3.736   1.016   9.853 -0.1766 -0.5574  0.0580
  641TMC3     H 9546   3.884   0.674   9.968  0.0030 -1.6930 -1.0440
  641TMC3    H1 9547   3.749   0.918   9.651  2.0852  1.5557 -0.7456
  641TMC3    H2 9548   3.960   0.560   9.572  1.6551  0.3222 -0.2177
  641TMC3    C7 9549   3.901   0.778   9.462 -0.0629 -0.0734 -0.3035
  641TMC3    C8 9550   4.020   0.499   9.822  0.1670  0.0634 -0.4125
  641TMC3    O1 9551   3.997   0.717   9.415 -0.4187  0.2390  0.5019
  641TMC3    O2 9552   4.086   0.444   9.735 -0.1845 -0.0438  0.0556
  642TMC3    C1 9553   4.663   2.297  11.944  0.6453  0.3703 -0.2259
  642TMC3    C2 9554   0.061   2.263  11.964 -0.0511 -0.0696 -0.3448
  642TMC3    C3 9555   0.086   2.140  12.026  0.5911 -0.1355 -0.0087
  642TMC3    C4 9556   4.561   2.212  11.977  0.0790 -0.2340  0.4501
  642TMC3    C5 9557   4.595   2.089  12.031 -0.0648  0.4517 -0.6459
  642TMC3    C6 9558   4.720   2.050  12.053  0.1997 -0.3173 -0.4687
  642TMC3     C 9559   4.641   2.437  11.913 -0.0551  0.5877 -0.0069
  642TMC3     O 9560   4.719   2.502  11.842  0.2882  0.0484  0.7367
  642TMC3     H 9561   0.136   2.329  11.923 -0.0597  0.4082  0.4012
  642TMC3    H1 9562   4.456   2.239  11.973  0.4807  1.4087  0.9316
  642TMC3    H2 9563   0.018   1.955  12.093 -0.5321  0.5135  2.1074
  642TMC3    C7 9564   4.484   1.993  12.039  0.0428  0.1363 -0.1022
  642TMC3    C8 9565   0.221   2.100  12.052  0.0196  0.0064 -0.2314
  642TMC3    O1 9566   4.369   2.029  12.020 -0.1475 -0.7076  0.1640
  642TMC3    O2 9567   0.253   1.980  12.035  0.4737 -0.1444  0.0662
  643TMC3    C1 9568   4.028   2.206   0.360  0.6199 -1.2095 -0.8792
  643TMC3    C2 9569   3.896   2.225   0.327 -0.4476  0.2719  0.0134
  643TMC3    C3 9570   3.858   2.179   0.207  0.2928 -0.4142  0.0106
  643TMC3    C4 9571   4.112   2.119   0.301 -0.4154 -0.8155  0.8541
  643TMC3    C5 9572   4.063   2.051   0.186 -0.4203 -0.3041 -0.8091
  643TMC3    C6 9573   3.935   2.093   0.139 -0.0448 -0.1689  0.2744
  643TMC3     C 9574   4.070   2.308   0.461  0.0067 -0.3748 -1.0849
  643TMC3     O 9575   4.007   2.415   0.465  0.0171 -0.4052 -0.9394
  643TMC3     H 9576   3.838   2.308   0.365  1.1786  0.5427  1.8887
  643TMC3    H1 9577   4.215   2.106   0.334 -0.4217 -2.0687  0.3598
  643TMC3    H2 9578   3.894   2.050   0.049  2.8003 -1.0941 -0.5430
  643TMC3    C7 9579   4.169   2.035   0.089 -0.1683  0.0313  0.1822
  643TMC3    C8 9580   3.784   2.258   0.112  0.3479  0.2881  0.0236
  643TMC3    O1 9581   4.257   2.118   0.107  0.6753  0.7324  0.4689
  643TMC3    O2 9582   3.703   2.206   0.034  0.1978 -0.1959 -0.4099
  644MPD2     C 9583   3.545   1.311   9.995 -0.8581 -0.6100 -0.4021
  644MPD2    C1 9584   3.621   1.382   9.900  0.8769 -0.4194  0.3824
  644MPD2    C2 9585   3.605   1.520   9.890 -0.0998 -0.1545  0.3890
  644MPD2    C3 9586   3.516   1.592   9.972  0.2064 -1.1565  0.2334
  644MPD2    C4 9587   3.437   1.512  10.059 -0.3873  0.5598 -0.1334
  644MPD2    C5 9588   3.451   1.377  10.067 -0.1336  0.2304  0.0988
  644MPD2     H 9589   3.680   1.578   9.838 -1.4652  1.5068  0.2657
  644MPD2    H1 9590   3.364   1.549  10.129 -2.1827  1.2639 -2.3857
  644MPD2    H2 9591   3.554   1.205  10.014 -0.6546 -0.8059 -1.5847
  644MPD2    H3 9592   3.401   1.319  10.143  3.4747 -2.2138  0.6081
  644MPD2     N 9593   3.486   1.727   9.969  0.3116  0.5355  0.2546
  644MPD2    H5 9594   3.533   1.785   9.901  3.0217  1.6464  3.0612
  644MPD2    N1 9595   3.716   1.315   9.822  0.1804  0.7147  0.0098
  644MPD2    H7 9596   3.736   1.217   9.839  0.5282  0.9653  1.0813
  645TMC3    C1 9597   3.373   1.920   9.975 -0.5864 -0.8537 -0.0684
  645TMC3    C2 9598   3.486   1.995   9.960 -0.5902  0.0699  0.1955
  645TMC3    C3 9599   3.480   2.109   9.889 -0.4383 -0.1301  0.1323
  645TMC3    C4 9600   3.249   1.965   9.926 -0.8545  0.7133 -0.2444
  645TMC3    C5 9601   3.252   2.085   9.860  0.2934  0.2911 -0.9187
  645TMC3    C6 9602   3.366   2.157   9.839 -1.0399  0.3220 -0.1420
  645TMC3     C 9603   3.386   1.791  10.036 -0.1686  0.4679  0.1878
  645TMC3     O 9604   3.272   1.750  10.065  0.2976 -0.4880  0.2310
  645TMC3     H 9605   3.582   1.957   9.995 -1.5402 -0.2589  2.4431
  645TMC3    H1 9606   3.159   1.910   9.950 -1.1312  0.1761 -2.5022
  645TMC3    H2 9607   3.371   2.240   9.770 -0.1663  0.6804  0.3498
  645TMC3    C7 9608   3.130   2.132   9.800  0.3771  0.3879 -0.2671
  645TMC3    C8 9609   3.601   2.192   9.892 -0.1941 -0.0024 -0.6162
  645TMC3    O1 9610   3.137   2.252   9.780  0.2126  1.2183  0.4938
  645TMC3    O2 9611   3.712   2.144   9.913  0.9787 -0.9303 -0.2525
  646MPD2     C 9612   3.454   1.223  14.490  0.2611 -0.4805  0.3882
  646MPD2    C1 9613   3.400   1.302  14.594  0.2956 -0.7196  0.6010
  646MPD2    C2 9614   3.303   1.388  14.561  0.5582  0.5965 -0.5554
  646MPD2    C3 9615   3.249   1.396  14.433 -0.1043  0.1968  0.8733
  646MPD2    C4 9616   3.297   1.311  14.329  0.1229 -0.7134 -0.0010
  646MPD2    C5 9617   3.398   1.220  14.363  0.1483  0.4951 -0.5797
  646MPD2     H 9618   3.268   1.460  14.634  1.5600 -0.4442  0.9700
  646MPD2    H1 9619   3.256   1.294  14.230  0.4150 -1.7915  0.0658
  646MPD2    H2 9620   3.532   1.150  14.508  0.2126 -0.2074  1.7176
  646MPD2    H3 9621   3.439   1.148  14.294  0.5551  0.9240 -0.7900
  646MPD2     N 9622   3.142   1.482  14.417 -0.8931  0.1589 -0.4764
  646MPD2    H5 9623   3.116   1.538  14.497  1.3465  1.5645 -0.7449
  646MPD2    N1 9624   3.452   1.287  14.728 -0.1050  0.0029 -0.3126
  646MPD2    H7 9625   3.534   1.232  14.752  0.1973  0.8130  0.5267
  647TMC3    C1 9626   3.495   1.327  14.950 -0.6126  0.0708  0.2100
  647TMC3    C2 9627   3.461   1.354  15.077 -0.0414  0.6284  0.5256
  647TMC3    C3 9628   3.545   1.310  15.170  0.5776 -0.5684 -0.6753
  647TMC3    C4 9629   3.620   1.271  14.927 -0.5526  0.0507 -0.0921
  647TMC3    C5 9630   3.712   1.245  15.023 -0.1608  0.6257  0.2140
  647TMC3    C6 9631   3.675   1.262  15.150 -0.3412  0.5655 -0.1633
  647TMC3     C 9632   3.400   1.342  14.843 -0.3007 -0.5522 -0.0768
  647TMC3     O 9633   3.292   1.388  14.863 -0.1598 -0.1572 -0.3968
  647TMC3     H 9634   3.359   1.382  15.101  0.4296  1.8639  1.1152
  647TMC3    H1 9635   3.655   1.259  14.825  2.6506  3.0168  0.6751
  647TMC3    H2 9636   3.730   1.240  15.241  2.8543  0.4463 -2.1178
  647TMC3    C7 9637   3.804   1.141  15.006  0.0547  0.0263 -0.0875
  647TMC3    C8 9638   3.483   1.257  15.287  0.2359 -0.4592 -0.2666
  647TMC3    O1 9639   3.899   1.126  15.085  0.0449 -0.0243 -0.3228
  647TMC3    O2 9640   3.429   1.332  15.365 -0.2500 -0.3212 -0.1678
  648TMC3    C1 9641   2.709   3.798  16.078  0.4042 -0.8073 -0.0921
  648TMC3    C2 9642   2.814   3.708  16.063  0.4944  0.1665 -0.2308
  648TMC3    C3 9643   2.872   3.702  15.940  0.1469 -0.4860  0.9408
  648TMC3    C4 9644   2.654   3.855  15.971 -0.8823  0.2426  0.7427
  648TMC3    C5 9645   2.702   3.833  15.848  0.4825  0.0581  0.8754
  648TMC3    C6 9646   2.816   3.758  15.831 -0.2547  0.3976 -0.5277
  648TMC3     C 9647   2.646   3.827  16.207  0.8360  0.3725  0.1929
  648TMC3     O 9648   2.539   3.884  16.208  0.0369 -0.4218 -0.0217
  648TMC3     H 9649   2.852   3.655  16.149  0.6621  1.7165  0.6531
  648TMC3    H1 9650   2.580   3.931  15.997 -0.8406  0.4668  0.2130
  648TMC3    H2 9651   2.862   3.760  15.732 -0.5188  0.5107 -0.6484
  648TMC3    C7 9652   2.695   3.948  15.758  0.0358 -0.7536  0.0944
  648TMC3    C8 9653   2.997   3.620  15.932 -0.2490 -0.2021 -0.1857
  648TMC3    O1 9654   2.780   3.956  15.672  0.8597  0.6833 -0.8639
  648TMC3    O2 9655   3.045   3.603  16.044 -0.1506  0.2311  0.1250
  649TMC3    C1 9656   1.667   0.367  12.621  0.0379  0.4452  0.7001
  649TMC3    C2 9657   1.797   0.378  12.589  0.9700  0.4324  0.5635
  649TMC3    C3 9658   1.888   0.304  12.664  0.6098 -0.2938 -0.2664
  649TMC3    C4 9659   1.622   0.284  12.726  0.4022  0.5157 -0.6125
  649TMC3    C5 9660   1.722   0.209  12.791 -0.3155 -0.5083 -0.2710
  649TMC3    C6 9661   1.857   0.208  12.759 -0.2551  0.6131 -0.0692
  649TMC3     C 9662   1.570   0.436  12.542 -0.6241  0.3490  0.1162
  649TMC3     O 9663   1.465   0.462  12.599  0.4747  0.8548 -0.4760
  649TMC3     H 9664   1.828   0.471  12.542  0.1644 -0.2288 -1.2582
  649TMC3    H1 9665   1.517   0.278  12.753  0.4943  2.9594  0.2501
  649TMC3    H2 9666   1.934   0.150  12.807  0.2582  1.0145 -0.4008
  649TMC3    C7 9667   1.670   0.094  12.862 -0.5541 -0.2326  0.0427
  649TMC3    C8 9668   2.022   0.361  12.671  0.0255  0.3574 -0.0555
  649TMC3    O1 9669   1.556   0.054  12.834 -0.0981  0.7918 -0.2866
  649TMC3    O2 9670   2.099   0.332  12.764  0.2896 -0.5334 -0.2403
  650TMC3    C1 9671   3.887   1.696  12.602  0.7594  0.9875 -0.4140
  650TMC3    C2 9672   3.814   1.809  12.581  0.3256 -0.1075 -0.0628
  650TMC3    C3 9673   3.776   1.839  12.457 -0.0649 -0.8949 -0.1337
  650TMC3    C4 9674   3.919   1.605  12.507  0.3602 -0.0345 -0.3040
  650TMC3    C5 9675   3.884   1.641  12.382 -0.2751 -0.3803  0.4897
  650TMC3    C6 9676   3.817   1.757  12.352  0.4347 -0.4247  0.3159
  650TMC3     C 9677   3.882   1.647  12.741 -0.4574 -0.3322  0.2596
  650TMC3     O 9678   3.792   1.689  12.814 -0.1039  0.4682 -0.2489
  650TMC3     H 9679   3.779   1.866  12.666 -1.7961  1.2106 -1.7976
  650TMC3    H1 9680   3.964   1.509  12.531 -0.9338 -0.7492 -0.7172
  650TMC3    H2 9681   3.801   1.786  12.248  1.2634 -1.8611 -0.2211
  650TMC3    C7 9682   3.926   1.558  12.269 -0.2630  0.3275 -0.0835
  650TMC3    C8 9683   3.697   1.956  12.435  0.1294  0.7318  0.8993
  650TMC3    O1 9684   4.010   1.478  12.297 -0.7931 -0.1277  0.3178
  650TMC3    O2 9685   3.698   2.039  12.520  0.7479  0.2919  0.7464
  651MPD2     C 9686   2.718   3.586  10.382 -0.2562  0.3911  0.6213
  651MPD2    C1 9687   2.723   3.721  10.428  0.4851  1.0858 -0.2707
  651MPD2    C2 9688   2.842   3.782  10.443  0.0485 -0.6614  0.0659
  651MPD2    C3 9689   2.958   3.709  10.432 -0.2202  0.0868  0.4955
  651MPD2    C4 9690   2.964   3.570  10.393  0.3794  0.1126 -0.5677
  651MPD2    C5 9691   2.838   3.523  10.351 -0.2623 -0.4969 -0.4686
  651MPD2     H 9692   2.849   3.887  10.469 -0.1317 -0.4943 -0.5486
  651MPD2    H1 9693   3.054   3.515  10.366  0.7585 -0.5892  2.0525
  651MPD2    H2 9694   2.626   3.532  10.362 -0.5312  0.6983  1.0608
  651MPD2    H3 9695   2.828   3.420  10.318 -0.3495 -0.7653  0.3902
  651MPD2     N 9696   3.073   3.781  10.467 -0.2850  0.4524  0.4975
  651MPD2    H5 9697   3.073   3.882  10.476  0.4309  0.3788  1.3001
  651MPD2    N1 9698   2.605   3.794  10.470  0.1453 -0.0718 -0.6526
  651MPD2    H7 9699   2.628   3.885  10.508 -2.8619  0.1413  0.6172
  652TMC3    C1 9700   3.530   3.855  10.544  0.4282  0.5395 -0.2634
  652TMC3    C2 9701   3.428   3.765  10.524 -0.6344 -0.3005 -0.2617
  652TMC3    C3 9702   3.297   3.813  10.539  0.1901  1.2577 -0.2680
  652TMC3    C4 9703   3.513   3.991  10.573 -0.2513  0.1247  0.7857
  652TMC3    C5 9704   3.382   4.028  10.587 -0.2181  0.1297  0.1744
  652TMC3    C6 9705   3.273   3.941  10.579  0.0906  0.3609 -0.8764
  652TMC3     C 9706   3.668   3.795  10.563 -0.3399  0.6225  0.4231
  652TMC3     O 9707   3.680   3.678  10.589 -0.1050 -0.0380 -0.0391
  652TMC3     H 9708   3.461   3.664  10.505  2.4376  0.4384  1.2147
  652TMC3    H1 9709   3.597   4.055  10.598  0.5108 -1.0763  1.3124
  652TMC3    H2 9710   3.175   3.985  10.590  0.0971  0.5380 -1.5248
  652TMC3    C7 9711   3.344   4.171  10.617 -0.3862 -0.0919  1.3024
  652TMC3    C8 9712   3.190   3.722  10.506  0.2666  0.4527  0.2872
  652TMC3    O1 9713   3.225   4.203  10.602 -0.2760 -0.7598  0.0901
  652TMC3    O2 9714   3.213   3.599  10.506  0.1149 -0.0182  0.0864
  653MPD2     C 9715   2.108   4.250   0.029  0.4822  0.8996 -0.3658
  653MPD2    C1 9716   2.051   4.325  17.673 -0.0356  0.2405 -0.5049
  653MPD2    C2 9717   2.009   4.266  17.551  0.1979  0.2170  0.3269
  653MPD2    C3 9718   2.008   4.134  17.546  0.3766  0.2968  0.0620
  653MPD2    C4 9719   2.065   4.057  17.642  0.1386 -0.3743  0.2976
  653MPD2    C5 9720   2.122   4.114   0.008  0.0660  0.2373  0.0911
  653MPD2     H 9721   1.977   4.329  17.469 -1.2093 -0.7715  0.1273
  653MPD2    H1 9722   2.081   3.950  17.631  0.6293 -0.7243  4.3643
  653MPD2    H2 9723   2.163   4.293   0.113 -0.1018  0.5165  0.2143
  653MPD2    H3 9724   2.173   4.048   0.078  0.5801 -1.2416 -1.6777
  653MPD2     N 9725   1.940   4.070  17.441 -0.5622  0.2667  0.1483
  653MPD2    H5 9726   1.905   4.135  17.371  1.1290  0.2249 -0.7329
  653MPD2    N1 9727   2.053   4.462  17.685 -0.3325  0.5428 -0.1824
  653MPD2    H7 9728   2.045   4.517  17.600 -0.0454  0.6366 -0.1480
  654TMC3    C1 9729   1.837   3.922  17.308  0.1102 -0.4034 -0.8657
  654TMC3    C2 9730   1.741   4.014  17.275  0.0368  0.5243  0.0015
  654TMC3    C3 9731   1.678   4.002  17.156 -0.5256  0.2843  0.4043
  654TMC3    C4 9732   1.859   3.809  17.237  0.6531 -0.1792  0.0823
  654TMC3    C5 9733   1.795   3.796  17.122  0.1215  0.3336 -0.4648
  654TMC3    C6 9734   1.701   3.889  17.079  0.1088 -0.4094 -0.2199
  654TMC3     C 9735   1.911   3.940  17.428  1.1712  0.1753 -0.4069
  654TMC3     O 9736   1.920   3.839  17.497 -0.6391 -0.1787  0.4615
  654TMC3     H 9737   1.721   4.097  17.342  1.3682  1.5132 -0.8243
  654TMC3    H1 9738   1.945   3.747  17.260  1.8611  1.6739  0.5588
  654TMC3    H2 9739   1.650   3.875  16.984  1.9479 -3.4383 -0.7261
  654TMC3    C7 9740   1.854   3.698  17.032 -0.4098 -0.2399 -0.1461
  654TMC3    C8 9741   1.578   4.097  17.115  0.0858  0.0740  0.2891
  654TMC3    O1 9742   1.859   3.719  16.911 -0.4385 -0.7359 -0.0871
  654TMC3    O2 9743   1.499   4.057  17.029  0.1558  0.1527 -0.1026
  655MPD2     C 9744   3.404   3.811  15.548  0.0255 -0.3099 -0.6207
  655MPD2    C1 9745   3.345   3.922  15.485  0.3164  0.0196  0.1097
  655MPD2    C2 9746   3.353   3.927  15.353 -0.6426  0.3226 -0.9068
  655MPD2    C3 9747   3.434   3.839  15.275  0.2875  0.3760  0.4359
  655MPD2    C4 9748   3.497   3.735  15.339 -0.5942 -0.1408 -0.1967
  655MPD2    C5 9749   3.474   3.717  15.471 -0.1593 -0.0495  0.0443
  655MPD2     H 9750   3.314   4.013  15.300 -2.9458 -1.1584 -1.5872
  655MPD2    H1 9751   3.565   3.666  15.291 -0.1075 -0.1681  0.5299
  655MPD2    H2 9752   3.386   3.794  15.653  0.8926 -3.2454 -0.9621
  655MPD2    H3 9753   3.517   3.634  15.526 -0.1430  1.3286  2.0983
  655MPD2     N 9754   3.448   3.847  15.136 -0.0574 -0.0001  0.0037
  655MPD2    H5 9755   3.486   3.766  15.089  3.5922  1.5515  0.2614
  655MPD2    N1 9756   3.277   4.024  15.547 -0.5363  0.2543  0.2014
  655MPD2    H7 9757   3.245   4.106  15.497  0.0551 -0.3840 -1.2175
  656TMC3    C1 9758   3.143   4.127  15.717 -0.2050  0.0173  0.1731
  656TMC3    C2 9759   3.068   4.100  15.824  0.6582 -0.7157  0.6492
  656TMC3    C3 9760   2.967   4.194  15.852  0.6462 -0.5099 -0.1399
  656TMC3    C4 9761   3.112   4.227  15.627 -0.0805  0.3784 -0.0602
  656TMC3    C5 9762   3.010   4.311  15.653 -0.3225 -0.1199  0.0062
  656TMC3    C6 9763   2.940   4.305  15.771 -0.1816  0.3281 -0.5767
  656TMC3     C 9764   3.240   4.025  15.680  0.6599 -0.2577 -0.0625
  656TMC3     O 9765   3.276   3.956  15.776 -0.3095 -0.0781  0.0475
  656TMC3     H 9766   3.087   4.018  15.892  2.0332  1.2147  2.5462
  656TMC3    H1 9767   3.166   4.239  15.534  0.0878  0.6241  0.0704
  656TMC3    H2 9768   2.849   4.360  15.790  0.6689  1.6140 -0.2428
  656TMC3    C7 9769   2.988   4.419  15.561 -0.1874 -0.1244  0.2922
  656TMC3    C8 9770   2.867   4.171  15.958  0.1628  0.5405 -0.2388
  656TMC3    O1 9771   3.073   4.438  15.479  0.0053 -0.4291 -0.3595
  656TMC3    O2 9772   2.860   4.058  16.004 -0.1177  0.2262 -0.2992
  657TMC3    C1 9773   2.008   3.422  15.302  0.4177 -0.2580  0.9975
  657TMC3    C2 9774   2.110   3.412  15.397  0.9172 -0.1624 -0.5992
  657TMC3    C3 9775   2.207   3.513  15.394  0.3889 -0.2648  0.3646
  657TMC3    C4 9776   2.007   3.512  15.199  0.2548  0.0776 -0.4574
  657TMC3    C5 9777   2.110   3.598  15.196 -0.0986  0.2374 -0.2255
  657TMC3    C6 9778   2.194   3.617  15.302  0.1741  0.5634 -0.1203
  657TMC3     C 9779   1.937   3.302  15.283  0.1015 -0.4224  0.9949
  657TMC3     O 9780   1.829   3.308  15.233  0.0188  0.1122  0.6304
  657TMC3     H 9781   2.102   3.344  15.482 -1.5201  0.2059 -0.5279
  657TMC3    H1 9782   1.935   3.503  15.119  0.7811 -0.1841 -0.9012
  657TMC3    H2 9783   2.271   3.692  15.288  0.9224  0.0432  1.2847
  657TMC3    C7 9784   2.130   3.688  15.091 -0.4827  0.4746 -0.1297
  657TMC3    C8 9785   2.300   3.534  15.502  0.1902 -0.7105  0.9619
  657TMC3    O1 9786   2.192   3.791  15.107  0.1342 -0.0371  0.0246
  657TMC3    O2 9787   2.320   3.649  15.525 -0.3563  0.1906  0.0767
  658MPD2     C 9788   3.685   3.322  14.800 -0.5660 -0.0248 -0.1166
  658MPD2    C1 9789   3.594   3.397  14.740  0.4118 -0.7000  0.2254
  658MPD2    C2 9790   3.528   3.342  14.625 -0.1728  0.0122 -0.1111
  658MPD2    C3 9791   3.538   3.211  14.587 -0.0867  0.1069  1.1766
  658MPD2    C4 9792   3.628   3.131  14.663 -0.0741  0.1832  0.1320
  658MPD2    C5 9793   3.701   3.192  14.763 -0.3190  0.5624 -0.0862
  658MPD2     H 9794   3.452   3.399  14.572  1.2376 -0.4267 -2.6145
  658MPD2    H1 9795   3.651   3.028  14.642  1.1253  0.3377  0.6912
  658MPD2    H2 9796   3.766   3.356  14.862 -1.3975 -0.3658  1.1637
  658MPD2    H3 9797   3.773   3.130  14.815  0.1535  2.6641  1.7697
  658MPD2     N 9798   3.471   3.171  14.472 -0.4548 -0.3668 -0.4152
  658MPD2    H5 9799   3.412   3.240  14.427 -0.4250  1.2327  1.9841
  658MPD2    N1 9800   3.559   3.526  14.781  0.7950 -0.0493 -0.4666
  658MPD2    H7 9801   3.586   3.549  14.875 -1.2494  0.2175  0.0524
  659TMC3    C1 9802   3.428   3.731  14.758  0.2856 -0.0994  0.0804
  659TMC3    C2 9803   3.467   3.786  14.872  0.0751 -0.4870 -0.6059
  659TMC3    C3 9804   3.401   3.903  14.910 -0.5933  0.0128 -0.4564
  659TMC3    C4 9805   3.320   3.768  14.688 -0.0288  0.1734  0.0337
  659TMC3    C5 9806   3.247   3.878  14.731 -1.0714  0.0070  0.4475
  659TMC3    C6 9807   3.291   3.950  14.837  0.5406 -0.6729 -0.0834
  659TMC3     C 9808   3.500   3.621  14.697  0.0250 -0.2637 -0.1861
  659TMC3     O 9809   3.496   3.616  14.573  0.5023  1.0962  0.0631
  659TMC3     H 9810   3.562   3.754  14.913  1.4480  1.5288 -2.1806
  659TMC3    H1 9811   3.283   3.709  14.605  2.5969 -1.2945 -0.1108
  659TMC3    H2 9812   3.221   4.025  14.871  0.7001 -1.0609  1.0965
  659TMC3    C7 9813   3.105   3.864  14.717  0.2003  0.8819 -0.5884
  659TMC3    C8 9814   3.397   3.941  15.054 -0.0298 -0.2016  0.1729
  659TMC3    O1 9815   3.042   3.920  14.808  0.0602  0.1491 -0.0379
  659TMC3    O2 9816   3.332   4.043  15.081  0.4161 -0.1611 -0.0616
  660MPD2     C 9817   1.316   2.639  12.523 -0.2102  0.1016  0.6874
  660MPD2    C1 9818   1.193   2.622  12.457 -0.2730  0.9117  0.2587
  660MPD2    C2 9819   1.082   2.582  12.533  0.2904 -0.9748  0.6029
  660MPD2    C3 9820   1.104   2.550  12.665 -0.1679  0.1973  0.3200
  660MPD2    C4 9821   1.229   2.571  12.726 -0.0882  0.1058  0.3670
  660MPD2    C5 9822   1.331   2.617  12.654  0.5060  0.0316  0.2315
  660MPD2     H 9823   0.980   2.587  12.496  0.9639 -0.9842 -1.2866
  660MPD2    H1 9824   1.248   2.550  12.830 -1.9483 -0.2283  0.6293
  660MPD2    H2 9825   1.402   2.672  12.465 -1.8773 -1.0540 -2.3916
  660MPD2    H3 9826   1.432   2.627  12.691 -0.4866 -0.4128  3.1016
  660MPD2     N 9827   1.001   2.488  12.741  0.0425 -0.7888  0.3495
  660MPD2    H5 9828   1.028   2.474  12.838  1.6799  0.7501  0.1245
  660MPD2    N1 9829   1.185   2.643  12.317 -0.7199  0.2598 -0.3345
  660MPD2    H7 9830   1.271   2.680  12.278  0.5068 -1.6588  0.5369
  661TMC3    C1 9831   1.037   2.690  12.126 -0.6640 -1.0323 -0.5230
  661TMC3    C2 9832   1.125   2.771  12.051 -0.3298  0.3717  0.9078
  661TMC3    C3 9833   1.071   2.849  11.949 -0.1399  0.1458  0.0525
  661TMC3    C4 9834   0.905   2.685  12.091 -0.3223  0.0719 -0.1723
  661TMC3    C5 9835   0.859   2.782  12.012 -0.3224 -0.3625 -0.3168
  661TMC3    C6 9836   0.938   2.855  11.927  0.4311 -0.3880 -0.3728
  661TMC3     C 9837   1.074   2.609  12.247  0.1480  0.3778 -0.3347
  661TMC3     O 9838   0.993   2.526  12.282  0.2312 -0.2338  0.1639
  661TMC3     H 9839   1.232   2.758  12.057 -0.2658  0.5685  0.1787
  661TMC3    H1 9840   0.835   2.629  12.152  0.7364 -1.2549 -0.1907
  661TMC3    H2 9841   0.886   2.928  11.866  0.2531 -0.4392 -0.2848
  661TMC3    C7 9842   0.729   2.762  11.964  0.0370  0.2992 -0.4897
  661TMC3    C8 9843   1.158   2.907  11.845  0.0685 -0.7277 -0.0257
  661TMC3    O1 9844   0.666   2.860  11.915 -0.3538  0.5896 -0.5278
  661TMC3    O2 9845   1.269   2.942  11.875 -0.2752  0.5196 -0.0246
  662MPD2     C 9846   1.567   2.639  16.976 -0.6050  0.4969  0.0517
  662MPD2    C1 9847   1.546   2.684  17.100 -0.4439  0.2806  0.0182
  662MPD2    C2 9848   1.521   2.815  17.116 -0.5180  0.6910 -0.4169
  662MPD2    C3 9849   1.522   2.906  17.016  0.2699  0.7259  0.6807
  662MPD2    C4 9850   1.551   2.862  16.894  0.8684 -0.1821  0.0737
  662MPD2    C5 9851   1.580   2.732  16.873  0.0689  0.9109  0.0104
  662MPD2     H 9852   1.501   2.851  17.217  0.6283  0.1154  0.0054
  662MPD2    H1 9853   1.569   2.935  16.815 -1.2909  0.8363  0.5225
  662MPD2    H2 9854   1.598   2.538  16.951  2.2455  1.2157  0.6787
  662MPD2    H3 9855   1.615   2.699  16.775  0.4310 -1.3044  0.8958
  662MPD2     N 9856   1.501   3.046  17.027  1.2755 -0.3826 -0.3067
  662MPD2    H5 9857   1.547   3.098  16.953  1.4465 -0.6406 -0.3799
  662MPD2    N1 9858   1.551   2.602  17.213  0.3740  0.1989  0.4860
  662MPD2    H7 9859   1.517   2.638  17.302  1.0681  2.3368 -0.1160
  663TMC3    C1 9860   1.492   2.378  17.315 -0.1549 -0.4314 -0.2071
  663TMC3    C2 9861   1.421   2.448  17.410  0.0713  0.2189 -1.7033
  663TMC3    C3 9862   1.337   2.382  17.495 -0.2836  0.0651 -0.3297
  663TMC3    C4 9863   1.478   2.243  17.299 -0.0291  0.2829  0.0108
  663TMC3    C5 9864   1.386   2.181  17.381  0.2140  0.5245 -0.0464
  663TMC3    C6 9865   1.314   2.247  17.475  0.1103  0.0322  0.3794
  663TMC3     C 9866   1.564   2.459  17.211  0.0597  0.3398  0.0368
  663TMC3     O 9867   1.599   2.391  17.117 -0.5694  0.0831  0.2040
  663TMC3     H 9868   1.445   2.553  17.425  2.2355 -0.3409 -1.3051
  663TMC3    H1 9869   1.523   2.188  17.218 -0.4795  1.3852 -0.9766
  663TMC3    H2 9870   1.262   2.190  17.551 -1.2416  0.6479 -0.0805
  663TMC3    C7 9871   1.416   2.037  17.386  0.6184  0.8467  0.2772
  663TMC3    C8 9872   1.212   2.443  17.501  1.7257  0.0874 -0.1749
  663TMC3    O1 9873   1.519   2.007  17.332 -0.7196  0.3245 -0.5604
  663TMC3    O2 9874   1.198   2.550  17.439  0.1375 -1.2792 -0.4256
  664MPD2     C 9875   3.914   1.013  17.392 -0.0084 -0.3496 -0.0877
  664MPD2    C1 9876   4.017   1.082  17.455 -0.0846 -0.6067  0.0996
  664MPD2    C2 9877   4.016   1.091  17.588  0.0921  0.9124 -0.2378
  664MPD2    C3 9878   3.909   1.039  17.658  0.9068  0.0944  0.2053
  664MPD2    C4 9879   3.806   0.985  17.591 -0.1997  0.2999  0.0820
  664MPD2    C5 9880   3.815   0.964  17.458  0.6593 -0.3083  0.0912
  664MPD2     H 9881   4.092   1.143  17.646 -0.0236 -0.8212  1.4683
  664MPD2    H1 9882   3.712   0.951  17.634 -0.1145  0.4461  0.3839
  664MPD2    H2 9883   3.912   1.004  17.284  0.8395 -1.1817 -0.0353
  664MPD2    H3 9884   3.733   0.920  17.403 -0.6746 -0.5474  2.2667
  664MPD2     N 9885   3.911   1.055   0.054 -0.1600 -0.1345 -0.3504
  664MPD2    H5 9886   3.990   1.107   0.090 -0.3565  0.4473 -0.7557
  664MPD2    N1 9887   4.116   1.137  17.381  0.6922 -0.3379  0.7185
  664MPD2    H7 9888   4.126   1.112  17.283 -1.0125 -1.5313  0.8651
  665TMC3    C1 9889   3.848   1.057   0.273 -0.8118 -0.4738 -0.3952
  665TMC3    C2 9890   3.813   0.986   0.383  0.0870  0.4738 -0.2831
  665TMC3    C3 9891   3.884   1.019   0.498 -0.0305 -0.7385 -0.4098
  665TMC3    C4 9892   3.945   1.158   0.284 -1.6554 -0.3759 -0.6362
  665TMC3    C5 9893   4.009   1.180   0.403 -0.2975 -0.7653  0.0222
  665TMC3    C6 9894   3.987   1.100   0.508  0.0084  0.6561  0.0881
  665TMC3     C 9895   3.817   1.008   0.136 -0.1195  0.3764  0.0258
  665TMC3     O 9896   3.730   0.920   0.132  0.6800 -0.2628  0.2611
  665TMC3     H 9897   3.728   0.921   0.369  1.6797 -1.3283 -1.6576
  665TMC3    H1 9898   3.935   1.247   0.223 -0.3402 -1.1677 -2.0120
  665TMC3    H2 9899   4.035   1.126   0.602  1.6819 -3.4701  0.3644
  665TMC3    C7 9900   4.091   1.305   0.403  0.3774 -1.0168 -0.1722
  665TMC3    C8 9901   3.826   0.963   0.623 -0.5868 -0.3042  0.7820
  665TMC3    O1 9902   4.108   1.361   0.296  0.3466 -0.3604 -0.7505
  665TMC3    O2 9903   3.848   1.029   0.724 -0.3058 -0.1889  0.1202
  666TMC3    C1 9904   3.617   4.636   9.963 -0.4188  0.0254 -0.4418
  666TMC3    C2 9905   3.752   4.647   9.927 -0.0008 -0.1149  0.0876
  666TMC3    C3 9906   3.812   0.032   9.915  0.6583 -0.0794  0.3781
  666TMC3    C4 9907   3.546   0.013   9.979 -0.2346 -0.8889  0.3561
  666TMC3    C5 9908   3.601   0.129   9.947  0.5882  0.3975  0.7109
  666TMC3    C6 9909   3.734   0.139   9.911  0.1296 -0.3149 -0.4777
  666TMC3     C 9910   3.584   4.523  10.047 -1.3691  0.1312  1.0110
  666TMC3     O 9911   3.679   4.450  10.078  0.1879 -0.4013 -0.4071
  666TMC3     H 9912   3.814   4.559   9.933 -0.6442 -0.6337 -0.8988
  666TMC3    H1 9913   3.442   0.023  10.009  0.0733 -0.7107  1.3650
  666TMC3    H2 9914   3.780   0.237   9.924  0.2694 -0.6740  1.7355
  666TMC3    C7 9915   3.533   0.246   9.975  0.0774  0.5598 -0.2393
  666TMC3    C8 9916   3.891   0.042  10.038  0.5012 -0.0858 -0.1122
  666TMC3    O1 9917   3.441   0.250  10.052 -0.0224  0.3595  0.2552
  666TMC3    O2 9918   3.829   0.095  10.127  0.0630 -0.0298  0.0894
  667MPD2     C 9919   0.375   0.158  14.446 -0.0339  0.5179  0.0283
  667MPD2    C1 9920   0.292   0.186  14.549  0.2262  0.2991  0.6436
  667MPD2    C2 9921   0.183   0.108  14.575  0.2029  0.7126  0.3282
  667MPD2    C3 9922   0.165   4.733  14.499 -0.2964 -0.3144 -0.2021
  667MPD2    C4 9923   0.258   4.697  14.404 -0.5788  0.2994  0.2342
  667MPD2    C5 9924   0.355   0.048  14.371 -0.3508 -0.8136  0.1343
  667MPD2     H 9925   0.114   0.139  14.653 -1.4910 -0.7524 -0.5910
  667MPD2    H1 9926   0.239   4.610  14.344  1.0761 -1.8983  2.8910
  667MPD2    H2 9927   0.473   0.202  14.436 -0.1033  0.3006 -1.6421
  667MPD2    H3 9928   0.430   0.022  14.298 -0.7810 -1.9760  0.1110
  667MPD2     N 9929   0.063   4.635  14.532  0.1566 -1.0376  0.1048
  667MPD2    H5 9930   0.056   4.553  14.472 -2.5196  0.9583 -2.3194
  667MPD2    N1 9931   0.314   0.295  14.637  0.1020  0.1007  0.3044
  667MPD2    H7 9932   0.260   0.284  14.721 -1.3605  3.9515 -0.1161
  668TMC3    C1 9933   0.438   0.454  14.760  0.0229  0.0929 -0.1286
  668TMC3    C2 9934   0.511   0.571  14.755  0.7652 -1.2053 -0.6986
  668TMC3    C3 9935   0.540   0.633  14.878 -0.1154 -0.1247 -0.7034
  668TMC3    C4 9936   0.364   0.416  14.870  0.1671 -0.0725 -0.1306
  668TMC3    C5 9937   0.384   0.494  14.985  0.4939 -0.4045 -0.0861
  668TMC3    C6 9938   0.475   0.594  14.992 -0.3736 -0.1840  0.7688
  668TMC3     C 9939   0.414   0.390  14.629 -0.3657  0.2638  0.5292
  668TMC3     O 9940   0.482   0.420  14.533  0.4222 -0.0013  0.3891
  668TMC3     H 9941   0.550   0.606  14.660  0.8133 -0.0339 -0.2450
  668TMC3    H1 9942   0.318   0.318  14.876  1.2696 -0.6232 -0.6076
  668TMC3    H2 9943   0.498   0.632  15.091 -0.1129 -0.5828  0.8599
  668TMC3    C7 9944   0.281   0.473  15.093 -0.2209 -0.1015  0.0829
  668TMC3    C8 9945   0.615   0.756  14.891  0.6325  0.1912 -0.4451
  668TMC3    O1 9946   0.229   0.365  15.104  0.0012  0.2786 -0.4517
  668TMC3    O2 9947   0.622   0.798  15.005 -0.4822  0.2408 -0.5275
  669TMC3    C1 9948   2.987   0.717  14.894 -0.4965  1.0722 -0.5329
  669TMC3    C2 9949   2.873   0.684  14.825 -0.2222 -0.5630  0.5164
  669TMC3    C3 9950   2.860   0.735  14.698  0.1171 -0.2639 -0.6025
  669TMC3    C4 9951   3.087   0.787  14.833  0.2371  0.4360 -0.2980
  669TMC3    C5 9952   3.071   0.834  14.707  0.0121 -0.2781  0.1579
  669TMC3    C6 9953   2.959   0.802  14.632 -0.9819 -0.0499 -0.0462
  669TMC3     C 9954   3.021   0.630  15.004 -0.3540 -0.2592  0.3316
  669TMC3     O 9955   2.933   0.568  15.070 -0.1293 -0.4607 -0.4534
  669TMC3     H 9956   2.795   0.623  14.870 -1.9638  0.8722 -0.5503
  669TMC3    H1 9957   3.172   0.804  14.898  0.1894 -2.3052  0.4414
  669TMC3    H2 9958   2.952   0.823  14.526  0.8303  2.3893  0.3396
  669TMC3    C7 9959   3.190   0.860  14.637 -0.1715  0.2127 -0.1208
  669TMC3    C8 9960   2.743   0.696  14.631 -0.7571  0.6031  0.5932
  669TMC3    O1 9961   3.293   0.908  14.694 -0.2754  0.2467 -0.4547
  669TMC3    O2 9962   2.698   0.583  14.633  0.2682  0.1379  0.1929
  670MPD2     C 9963   1.210   2.885  13.534 -0.1859  0.1183 -0.1919
  670MPD2    C1 9964   1.326   2.835  13.590  0.0715 -0.4110  0.4044
  670MPD2    C2 9965   1.327   2.820  13.728 -0.0134  0.2195 -0.6228
  670MPD2    C3 9966   1.221   2.859  13.802 -0.1234 -0.1301 -0.0972
  670MPD2    C4 9967   1.106   2.904  13.742 -0.1919  0.2904 -0.6104
  670MPD2    C5 9968   1.101   2.920  13.607 -0.1586 -0.6255 -0.0652
  670MPD2     H 9969   1.421   2.795  13.775  0.0381 -1.3053 -1.5287
  670MPD2    H1 9970   1.024   2.948  13.797  0.1588  3.0565 -2.2956
  670MPD2    H2 9971   1.195   2.890  13.427  0.3777 -1.0046 -0.3304
  670MPD2    H3 9972   1.011   2.957  13.558  0.3467  1.7471  0.7907
  670MPD2     N 9973   1.236   2.850  13.943  0.1758  0.1127  0.0713
  670MPD2    H5 9974   1.328   2.829  13.982 -1.5328 -0.7649  3.6329
  670MPD2    N1 9975   1.443   2.806  13.506 -0.4402  0.0105  0.0892
  670MPD2    H7 9976   1.530   2.779  13.551 -0.2487 -1.9165 -1.4601
  671TMC3    C1 9977   1.175   2.845  14.179  0.2920 -0.1110 -0.5803
  671TMC3    C2 9978   1.301   2.796  14.196 -0.8717  0.4638 -0.0604
  671TMC3    C3 9979   1.322   2.717  14.302 -0.6571 -0.2162  0.0117
  671TMC3    C4 9980   1.080   2.800  14.274 -0.5681  0.1716  0.5268
  671TMC3    C5 9981   1.104   2.697  14.359 -0.8122  0.5892 -0.0552
  671TMC3    C6 9982   1.227   2.658  14.381  0.6182 -0.3183  0.1669
  671TMC3     C 9983   1.130   2.859  14.038 -0.1928 -0.5921 -0.7027
  671TMC3     O 9984   1.009   2.848  14.019 -0.1685 -0.3027  0.4393
  671TMC3     H 9985   1.392   2.847  14.165 -0.0583 -0.2892  1.1051
  671TMC3    H1 9986   0.974   2.809  14.255 -0.3151  1.6362 -0.2103
  671TMC3    H2 9987   1.249   2.574  14.447  1.7177  0.0067  0.2084
  671TMC3    C7 9988   0.996   2.609  14.355 -0.7706 -0.2729 -0.0825
  671TMC3    C8 9989   1.452   2.646  14.284 -0.4767  0.3523  0.2769
  671TMC3    O1 9990   0.899   2.641  14.425 -0.0474 -0.2931  0.7554
  671TMC3    O2 9991   1.503   2.657  14.174  0.4382 -0.6748  0.0798
  672MPD2     C 9992   1.810   4.263   1.007  0.0071 -0.0066  0.0799
  672MPD2    C1 9993   1.907   4.176   0.958  0.1653  0.0949  0.1367
  672MPD2    C2 9994   2.042   4.204   0.971 -0.3053  0.4992  0.8635
  672MPD2    C3 9995   2.076   4.318   1.038 -0.0759 -0.1061 -0.4192
  672MPD2    C4 9996   1.977   4.401   1.098 -0.2632 -0.0133 -0.0373
  672MPD2    C5 9997   1.846   4.366   1.085 -0.0791 -0.3138 -0.9583
  672MPD2     H 9998   2.120   4.139   0.933  0.2432  2.1750 -0.8556
  672MPD2    H1 9999   1.996   4.482   1.168 -0.5418  0.1604 -0.1655
  672MPD2    H210000   1.704   4.243   1.007 -0.0046  0.1509 -4.1042
  672MPD2    H310001   1.767   4.422   1.134  1.3903 -0.7804  1.8993
  672MPD2     N10002   2.208   4.370   1.062  0.0646 -0.0525  0.2300
  672MPD2    H510003   2.212   4.461   1.105  1.4851 -0.2727  0.5623
  672MPD2    N110004   1.869   4.054   0.897 -0.4037 -0.4883 -0.5957
  672MPD2    H710005   1.951   4.004   0.863  0.3323  0.5560 -0.3482
  673TMC3    C110006   1.736   3.902   0.775  0.7093 -0.1679 -0.2379
  673TMC3    C210007   1.842   3.837   0.714 -0.4056  0.3431  0.6923
  673TMC3    C310008   1.804   3.747   0.616  0.4932  0.4407  0.4294
  673TMC3    C410009   1.605   3.879   0.736 -0.0380 -0.7835  0.5224
  673TMC3    C510010   1.573   3.808   0.627  0.0185  0.2529  0.7791
  673TMC3    C610011   1.676   3.738   0.565 -0.4649 -0.3037  0.0746
  673TMC3     C10012   1.747   4.004   0.879  0.1409  0.5192  0.2186
  673TMC3     O10013   1.643   4.045   0.927  0.2028  0.0460 -0.5203
  673TMC3     H10014   1.942   3.842   0.757 -0.8300 -0.2948  1.7583
  673TMC3    H110015   1.528   3.938   0.785 -0.5457  0.3965 -1.7188
  673TMC3    H210016   1.648   3.681   0.477  0.0367 -1.7109  0.8353
  673TMC3    C710017   1.482   3.868   0.534 -0.5202  0.0120  0.2068
  673TMC3    C810018   1.895   3.656   0.559  0.0126 -0.6269 -0.3392
  673TMC3    O110019   1.433   3.800   0.443  0.5649  0.0187 -0.8104
  673TMC3    O210020   1.838   3.575   0.488  0.7449 -0.0711  1.2707
  674MPD2     C10021   1.808   4.114   0.157 -0.0322 -0.1930 -0.0642
  674MPD2    C110022   1.764   3.987   0.162 -0.0896 -0.2521  0.1676
  674MPD2    C210023   1.633   3.972   0.128  0.1093  0.5811  0.3648
  674MPD2    C310024   1.553   4.076   0.086 -1.1077 -0.2290  0.0087
  674MPD2    C410025   1.605   4.207   0.085 -0.4530  0.3128 -0.6716
  674MPD2    C510026   1.735   4.225   0.120 -0.3746  0.5937  0.9667
  674MPD2     H10027   1.590   3.872   0.127  0.2111  0.5517 -0.6517
  674MPD2    H110028   1.548   4.288   0.040 -0.9282  1.2357  1.6055
  674MPD2    H210029   1.913   4.128   0.180  0.2335 -0.7082 -0.9594
  674MPD2    H310030   1.778   4.324   0.121  0.1516  0.3485  2.0290
  674MPD2     N10031   1.430   4.042   0.034  0.1449  0.2277 -0.2191
  674MPD2    H510032   1.410   3.943   0.041  1.4849  0.0037  0.6125
  674MPD2    N110033   1.851   3.877   0.196 -0.4532  0.1019  0.3262
  674MPD2    H710034   1.941   3.903   0.235 -1.8097  1.0614  2.8191
  675TMC3    C110035   1.913   3.651   0.180 -0.5670 -0.1845 -0.1340
  675TMC3    C210036   1.873   3.522   0.174  0.7311 -0.5705  0.3300
  675TMC3    C310037   1.955   3.428   0.117  0.2050 -0.2155  0.0569
  675TMC3    C410038   2.033   3.693   0.127  0.1178  0.9843  0.3974
  675TMC3    C510039   2.114   3.597   0.071  0.2502 -0.0028  0.2618
  675TMC3    C610040   2.077   3.468   0.060 -0.3466 -0.6982  0.1938
  675TMC3     C10041   1.813   3.748   0.171  0.0754 -0.1238  0.2249
  675TMC3     O10042   1.714   3.700   0.122  0.5024  0.7406 -0.3343
  675TMC3     H10043   1.774   3.498   0.211 -0.1345  2.3252 -0.0985
  675TMC3    H110044   2.067   3.794   0.144 -2.2720  2.1167 -1.5235
  675TMC3    H210045   2.147   3.393   0.024 -0.2029 -1.8634  2.9110
  675TMC3    C710046   2.248   3.642   0.056 -0.1149  0.8077 -0.2401
  675TMC3    C810047   1.881   3.329   0.044 -0.5605  0.0391 -1.2267
  675TMC3    O110048   2.271   3.762   0.068  0.1488 -0.2172 -0.3101
  675TMC3    O210049   1.920   3.304  17.678 -0.3214  0.4989 -0.8017
  676MPD2     C10050   0.003   1.168  10.858 -0.1742  0.4972  0.0786
  676MPD2    C110051   0.033   1.089  10.972 -0.4271 -0.4852  0.5046
  676MPD2    C210052   0.071   0.960  10.946 -0.3802  0.1562 -0.2398
  676MPD2    C310053   0.085   0.910  10.815  0.4284  0.6347 -0.8341
  676MPD2    C410054   0.059   0.993  10.709  0.0333  0.5782 -0.5965
  676MPD2    C510055   0.022   1.120  10.732 -0.5514 -0.5443  0.1719
  676MPD2     H10056   0.068   0.899  11.035  0.9360 -1.6313 -1.4200
  676MPD2    H110057   0.061   0.957  10.607 -0.2874 -0.5784 -0.1957
  676MPD2    H210058   4.711   1.272  10.870 -1.2483  0.1020  0.9620
  676MPD2    H310059   4.734   1.190  10.653 -0.1664  0.6547  1.1366
  676MPD2     N10060   0.120   0.778  10.784 -0.1089 -0.6094  0.7861
  676MPD2    H510061   0.095   0.744  10.691 -1.9501  2.9872 -0.0206
  676MPD2    N110062   0.000   1.127  11.103 -0.1488 -0.2386  0.2029
  676MPD2    H710063   0.005   1.054  11.173 -0.0103  0.7265  1.1911
  677TMC3    C110064   4.685   1.259  11.298  0.6043  0.6830  0.1938
  677TMC3    C210065   4.650   1.141  11.364 -0.3105 -0.6260  0.3059
  677TMC3    C310066   4.599   1.164  11.491  0.0274 -0.0230  0.4352
  677TMC3    C410067   4.661   1.385  11.342  0.2819 -0.0598 -0.2214
  677TMC3    C510068   4.608   1.394  11.473 -0.0826 -0.7996 -1.0050
  677TMC3    C610069   4.585   1.287  11.548 -0.0250 -0.6720 -0.0443
  677TMC3     C10070   4.714   1.248  11.154  0.6718  0.3823  0.7614
  677TMC3     O10071   4.719   1.353  11.097 -0.0456  0.0148  0.0830
  677TMC3     H10072   4.658   1.048  11.309 -1.9189  0.5732 -1.9440
  677TMC3    H110073   4.679   1.475  11.286 -0.8540 -0.2165 -0.8404
  677TMC3    H210074   4.545   1.293  11.649  1.4234 -1.6904  0.5863
  677TMC3    C710075   4.587   1.525  11.543  0.1633  0.5542 -0.4441
  677TMC3    C810076   4.560   1.050  11.574 -0.7004 -0.6113 -0.4601
  677TMC3    O110077   4.547   1.521  11.659 -0.1678  1.0574 -0.2860
  677TMC3    O210078   4.510   1.073  11.684 -0.4254 -0.2970 -0.3888
  678MPD2     C10079   0.532   1.071   1.300 -0.3067  0.5257  0.0594
  678MPD2    C110080   0.535   1.206   1.278  0.0697 -0.4744 -0.2863
  678MPD2    C210081   0.422   1.288   1.253 -0.8810 -0.4571  0.2340
  678MPD2    C310082   0.298   1.223   1.232  0.7385  0.2890  0.1570
  678MPD2    C410083   0.298   1.088   1.249 -0.0825  0.0680  0.1873
  678MPD2    C510084   0.407   1.015   1.277  0.2093  0.3361  0.6457
  678MPD2     H10085   0.431   1.394   1.229  0.2918 -0.6805 -0.3457
  678MPD2    H110086   0.210   1.027   1.234 -1.4310  2.0008  0.2942
  678MPD2    H210087   0.616   1.002   1.297 -0.7873 -0.0148 -0.9242
  678MPD2    H310088   0.387   0.908   1.285 -0.8627  0.6718  2.4011
  678MPD2     N10089   0.179   1.283   1.177 -0.3069  0.0864  0.3753
  678MPD2    H510090   0.105   1.218   1.154 -1.5801  1.3225  0.9916
  678MPD2    N110091   0.655   1.277   1.252  0.2484 -0.5676 -0.1123
  678MPD2    H710092   0.655   1.376   1.230 -1.4056 -0.6012 -0.3021
  679TMC3    C110093   1.110   1.342   1.166 -0.2896  0.7479  0.2094
  679TMC3    C210094   1.006   1.278   1.230 -0.3770  0.3706  0.3395
  679TMC3    C310095   0.880   1.307   1.182  0.0468 -0.7654 -0.5256
  679TMC3    C410096   1.082   1.419   1.055 -0.3191  0.0955 -0.0516
  679TMC3    C510097   0.952   1.426   0.999  0.1011  0.5973 -0.2368
  679TMC3    C610098   0.851   1.369   1.065  0.2517  1.0747  0.4717
  679TMC3     C10099   1.244   1.344   1.215  0.1545 -0.0721  0.8137
  679TMC3     O10100   1.338   1.404   1.161 -0.4530  0.0881 -0.0916
  679TMC3     H10101   1.009   1.216   1.319  1.2315  0.2824  0.2222
  679TMC3    H110102   1.160   1.483   1.017 -0.7800  0.4939 -0.3319
  679TMC3    H210103   0.754   1.350   1.019  0.4319 -1.3586  1.0724
  679TMC3    C710104   0.930   1.508   0.886 -0.6925  0.3677 -0.0743
  679TMC3    C810105   0.774   1.218   1.227  0.6761  0.2933 -0.6876
  679TMC3    O110106   0.825   1.573   0.872  0.0303 -0.0303  0.0106
  679TMC3    O210107   0.801   1.101   1.212  0.0383 -0.1346  0.0804
  680MPD2     C10108   0.873   4.359  13.203 -0.4192 -0.1993 -0.1303
  680MPD2    C110109   1.009   4.371  13.208 -0.4322 -0.1761 -0.2865
  680MPD2    C210110   1.076   4.412  13.316 -0.0717 -0.4769  0.4733
  680MPD2    C310111   1.004   4.455  13.428 -0.0645  0.1765  0.4504
  680MPD2    C410112   0.861   4.443  13.430 -0.1054  0.4688 -0.2262
  680MPD2    C510113   0.802   4.404  13.310  0.5236 -0.2579 -0.4556
  680MPD2     H10114   1.183   4.399  13.333  0.0361  0.9328  0.8686
  680MPD2    H110115   0.808   4.479  13.518  1.1255  0.1123  0.6512
  680MPD2    H210116   0.814   4.328  13.118  0.2358 -0.4015 -0.5117
  680MPD2    H310117   0.694   4.408  13.307  0.4976  0.1537  1.3252
  680MPD2     N10118   1.063   4.517  13.536  0.3153 -0.4669 -0.3087
  680MPD2    H510119   0.999   4.569  13.595  2.2629  0.3586  1.0695
  680MPD2    N110120   1.088   4.344  13.097 -0.2534  0.2244  0.0253
  680MPD2    H710121   1.172   4.401  13.099  1.6721 -2.6633  0.6171
  681TMC3    C110122   1.166   4.205  12.931 -0.3448 -0.0338  0.2133
  681TMC3    C210123   1.155   4.070  12.952 -0.2295  0.3173 -0.8460
  681TMC3    C310124   1.216   4.010  13.055  0.2483 -0.0650  0.2014
  681TMC3    C410125   1.277   4.266  12.972 -0.0306  0.0136  1.1056
  681TMC3    C510126   1.349   4.207  13.071  0.5701  0.5664  0.0603
  681TMC3    C610127   1.308   4.080  13.123  0.1167 -0.2196  0.0415
  681TMC3     C10128   1.052   4.264  12.996 -0.1814 -0.4425 -0.1988
  681TMC3     O10129   0.944   4.209  12.975  0.1900 -0.5168 -0.0186
  681TMC3     H10130   1.067   4.024  12.907 -0.2712  0.6280 -1.0855
  681TMC3    H110131   1.290   4.371  12.950 -0.0170  0.3527  2.7093
  681TMC3    H210132   1.373   4.036  13.198  1.2184 -1.2100 -1.4699
  681TMC3    C710133   1.472   4.266  13.135 -0.2497  0.3427  0.0103
  681TMC3    C810134   1.127   3.934  13.138 -0.4953 -0.7793  0.3136
  681TMC3    O110135   1.489   4.252  13.258 -0.3439  0.1790  0.4394
  681TMC3    O210136   1.030   3.874  13.091  0.6842  0.1413  0.4434
  682MPD2     C10137   3.568   1.199  10.679  0.4202 -0.8824 -0.3115
  682MPD2    C110138   3.453   1.129  10.699  0.2097  0.0528  0.5715
  682MPD2    C210139   3.437   1.054  10.810 -0.5517  0.2738 -0.2779
  682MPD2    C310140   3.539   1.049  10.905 -0.1233 -0.1662 -0.5322
  682MPD2    C410141   3.657   1.114  10.884  0.3373  0.4299  0.1847
  682MPD2    C510142   3.671   1.188  10.771  0.1246 -1.2442  0.3086
  682MPD2     H10143   3.343   1.002  10.826 -0.6875  0.8550  0.8441
  682MPD2    H110144   3.740   1.111  10.954  0.0537  2.2034  0.5854
  682MPD2    H210145   3.576   1.263  10.592 -0.6268  0.5741  0.6646
  682MPD2    H310146   3.767   1.232  10.744  0.3292 -1.5641  0.5120
  682MPD2     N10147   3.528   0.983  11.033  0.1188 -0.9024 -0.3806
  682MPD2    H510148   3.609   0.993  11.094  0.6001  0.0763 -1.1869
  682MPD2    N110149   3.345   1.126  10.606  0.2749  0.4820 -0.2541
  682MPD2    H710150   3.270   1.065  10.637  1.9152 -1.9637 -1.0636
  683TMC3    C110151   3.359   0.923  11.456  0.1657 -0.5902 -0.6760
  683TMC3    C210152   3.477   0.883  11.505 -0.1250 -0.1947  0.5705
  683TMC3    C310153   3.564   0.834  11.415 -1.1414 -0.5652  0.1584
  683TMC3    C410154   3.327   0.942  11.323 -0.6995 -0.3007 -0.1811
  683TMC3    C510155   3.429   0.903  11.236 -0.5867  0.4443  0.1528
  683TMC3    C610156   3.541   0.837  11.279 -0.0558 -0.7206  0.6933
  683TMC3     C10157   3.269   1.003  11.543 -0.0198  0.3570 -0.1688
  683TMC3     O10158   3.309   1.050  11.646 -0.1234  0.4281  0.3532
  683TMC3     H10159   3.480   0.877  11.613  0.7164 -1.0014  0.5050
  683TMC3    H110160   3.243   0.990  11.274  1.1871 -0.7507 -3.8614
  683TMC3    H210161   3.615   0.805  11.206  1.0252  0.2534  1.3551
  683TMC3    C710162   3.417   0.929  11.094 -0.9683 -0.3230 -0.4476
  683TMC3    C810163   3.694   0.788  11.449 -0.4295  0.3570  0.2664
  683TMC3    O110164   3.299   0.940  11.052 -0.3701  0.2039  0.3684
  683TMC3    O210165   3.781   0.790  11.363 -0.0421  0.2660 -0.1428
  684MPD2     C10166   1.748   1.046  16.569  0.2769  0.0838 -0.5690
  684MPD2    C110167   1.650   1.083  16.481  0.7190  0.3110  0.5749
  684MPD2    C210168   1.581   1.198  16.502  0.0756 -0.1728 -0.0731
  684MPD2    C310169   1.602   1.277  16.607 -0.5098 -0.3794  1.2596
  684MPD2    C410170   1.701   1.236  16.694 -0.3284  0.3593 -0.2571
  684MPD2    C510171   1.771   1.119  16.677  0.3295  0.1612  0.6929
  684MPD2     H10172   1.502   1.223  16.432 -0.0036 -1.3089 -0.4044
  684MPD2    H110173   1.738   1.286  16.783  0.6576  1.3280 -1.2158
  684MPD2    H210174   1.796   0.949  16.555 -2.8332 -1.4894 -0.3961
  684MPD2    H310175   1.849   1.077  16.740 -0.0984 -0.6711  0.6706
  684MPD2     N10176   1.533   1.399  16.639  0.6227 -0.4955  0.7631
  684MPD2    H510177   1.583   1.456  16.706 -2.0892  0.5667  1.8701
  684MPD2    N110178   1.621   1.006  16.365 -0.2355 -0.5286 -0.5106
  684MPD2    H710179   1.553   1.045  16.300 -0.2638 -1.8657 -1.2877
  685TMC3    C110180   1.688   0.875  16.176  0.0928 -0.2015  0.0412
  685TMC3    C210181   1.602   0.950  16.092 -0.2466 -0.5559 -0.5696
  685TMC3    C310182   1.583   0.913  15.960  0.3386 -0.1087  0.1686
  685TMC3    C410183   1.746   0.762  16.116  0.3714 -0.2877  0.7578
  685TMC3    C510184   1.735   0.737  15.982 -0.3295 -0.0308  0.3735
  685TMC3    C610185   1.658   0.813  15.911 -0.2602  1.0277 -0.2590
  685TMC3     C10186   1.707   0.915  16.312 -0.7095  0.2441  0.4284
  685TMC3     O10187   1.808   0.860  16.360 -0.2127  0.3786 -0.0313
  685TMC3     H10188   1.564   1.044  16.131  0.3658 -0.2317 -0.7571
  685TMC3    H110189   1.796   0.694  16.183  2.4271 -0.3702 -0.8387
  685TMC3    H210190   1.657   0.794  15.804 -0.1382 -0.7101  0.0501
  685TMC3    C710191   1.869   0.719  15.929 -0.4501  0.4621  0.1086
  685TMC3    C810192   1.470   0.956  15.876 -0.0179  0.0652  0.0884
  685TMC3    O110193   1.869   0.678  15.815 -0.0293 -0.3392 -0.1913
  685TMC3    O210194   1.468   0.915  15.764 -0.0851 -0.1303  0.2024
  686MPD2     C10195   3.005   1.338  15.397 -0.7958 -0.1784 -0.6371
  686MPD2    C110196   3.042   1.220  15.466  0.2293 -0.2909  0.0972
  686MPD2    C210197   3.104   1.112  15.395 -0.1826 -0.2358  0.1788
  686MPD2    C310198   3.114   1.113  15.249 -0.2291  0.3439  0.3109
  686MPD2    C410199   3.069   1.227  15.189  0.6780 -0.4798  0.0926
  686MPD2    C510200   3.020   1.329  15.260  0.7342  0.3545 -0.0202
  686MPD2     H10201   3.139   1.031  15.458 -0.0399  2.3393  3.3991
  686MPD2    H110202   3.067   1.237  15.081  0.3005 -1.0812  0.0500
  686MPD2    H210203   2.960   1.428  15.438  3.8825  0.8581  2.2110
  686MPD2    H310204   2.987   1.415  15.203 -0.8934 -0.3834 -0.2060
  686MPD2     N10205   3.185   1.014  15.175 -0.4818 -0.2167  0.5149
  686MPD2    H510206   3.214   1.046  15.082 -1.6767  0.0937  0.2423
  686MPD2    N110207   2.995   1.209  15.601  0.0082 -0.0417  0.0302
  686MPD2    H710208   2.939   1.286  15.637 -0.0099  0.5333 -1.2291
  687TMC3    C110209   3.158   0.804  15.301 -0.0576 -0.2886  0.9120
  687TMC3    C210210   3.029   0.826  15.332 -0.3432  0.4303  0.7221
  687TMC3    C310211   2.970   0.774  15.441 -0.0523 -0.1304  0.4251
  687TMC3    C410212   3.236   0.734  15.393 -0.6190 -0.3251  0.2065
  687TMC3    C510213   3.175   0.670  15.502 -0.1032 -0.6082  0.6267
  687TMC3    C610214   3.042   0.697  15.529  0.2837  0.0653 -0.1088
  687TMC3     C10215   3.237   0.898  15.219 -0.2010 -0.4500  0.3516
  687TMC3     O10216   3.329   0.837  15.160 -0.0797 -0.4208  0.2646
  687TMC3     H10217   2.974   0.888  15.262  0.3219  0.6825  0.4255
  687TMC3    H110218   3.340   0.714  15.369  0.5487  1.6755  3.5914
  687TMC3    H210219   2.997   0.660  15.620  0.4587  0.8635  0.3054
  687TMC3    C710220   3.265   0.639  15.605 -0.1809  0.5989  0.7026
  687TMC3    C810221   2.842   0.819  15.488 -0.0777 -0.2929 -0.2377
  687TMC3    O110222   3.350   0.551  15.587  0.1636  0.7934 -0.1771
  687TMC3    O210223   2.797   0.751  15.580 -0.1283 -0.2828 -0.2321
  688MPD2     C10224   2.234   0.275  17.247  0.2971  0.4839  0.1811
  688MPD2    C110225   2.245   0.146  17.282  0.0932  0.3770  0.9568
  688MPD2    C210226   2.279   0.046  17.192 -0.2085 -0.7148 -0.7085
  688MPD2    C310227   2.322   0.079  17.062 -0.2866  0.1128  0.1401
  688MPD2    C410228   2.318   0.212  17.030  0.2736  0.3628 -0.1515
  688MPD2    C510229   2.273   0.308  17.119  0.4086  0.2536  0.2519
  688MPD2     H10230   2.273   4.676  17.216 -3.4046 -0.4172 -0.1929
  688MPD2    H110231   2.353   0.236  16.930  1.4238 -1.9390 -0.2928
  688MPD2    H210232   2.195   0.361  17.300 -3.2325 -1.0554  0.1199
  688MPD2    H310233   2.282   0.415  17.099 -3.9948  0.5431 -0.0298
  688MPD2     N10234   2.369   4.721  16.970  0.4776 -0.7472 -0.0049
  688MPD2    H510235   2.415   0.026  16.889 -2.8291 -0.1817 -1.6170
  688MPD2    N110236   2.198   0.103  17.414  0.0198 -0.6829 -0.2563
  688MPD2    H710237   2.178   0.005  17.427  1.1462 -0.7660  0.8244
  689TMC3    C110238   2.148   0.116  17.643  0.6458  0.3383  0.0426
  689TMC3    C210239   2.124   0.206   0.007 -0.1272  0.3422 -0.8504
  689TMC3    C310240   2.088   0.152   0.129  0.3862  0.2406  0.1703
  689TMC3    C410241   2.146   4.716  17.661  0.3435  0.4245  0.6100
  689TMC3    C510242   2.105   4.676   0.040  0.3057 -0.4127 -0.1780
  689TMC3    C610243   2.074   0.016   0.148  0.5858 -0.0365 -0.0693
  689TMC3     C10244   2.179   0.191  17.516  0.2428 -0.3679  0.2968
  689TMC3     O10245   2.204   0.312  17.515  0.1962 -0.1470 -0.5821
  689TMC3     H10246   2.161   0.307   0.006 -0.2868  0.4029 -0.6758
  689TMC3    H110247   2.193   4.654  17.586 -0.5007 -0.0173  0.4456
  689TMC3    H210248   2.045   4.715   0.246 -0.6251  0.8241 -0.1000
  689TMC3    C710249   2.077   4.534   0.058 -0.2422  0.3958  0.7384
  689TMC3    C810250   2.075   0.240   0.239  0.3225  1.0971  0.0948
  689TMC3    O110251   2.073   4.502   0.177  0.5411 -0.1132 -0.1661
  689TMC3    O210252   2.084   0.191   0.350  0.4853 -0.4526 -0.8134
  690MPD2     C10253   0.059   1.766  15.550  0.4330  0.1005  0.1738
  690MPD2    C110254   0.046   1.727  15.421  0.2689  0.3696  0.0412
  690MPD2    C210255   0.147   1.763  15.334  0.0822 -0.1894  0.0317
  690MPD2    C310256   0.258   1.838  15.366  0.0826 -0.0428  0.2600
  690MPD2    C410257   0.269   1.884  15.495 -0.4416 -0.1013 -0.0682
  690MPD2    C510258   0.176   1.835  15.586 -0.4887  0.4697  0.1878
  690MPD2     H10259   0.153   1.727  15.232  1.2249  0.4747 -0.1383
  690MPD2    H110260   0.356   1.939  15.528 -1.0987  0.4828  0.6876
  690MPD2    H210261   4.726   1.737  15.629  1.0192  0.5131  0.8458
  690MPD2    H310262   0.188   1.872  15.688 -0.3576  0.6490  0.1073
  690MPD2     N10263   0.356   1.854  15.266  0.4096  0.5218  0.1869
  690MPD2    H510264   0.340   1.812  15.175  1.0007 -0.8471  0.7008
  690MPD2    N110265   4.670   1.655  15.383 -0.1486  0.0881  0.0270
  690MPD2    H710266   4.679   1.618  15.289 -0.4767  4.3922 -1.7034
  691TMC3    C110267   4.454   1.569  15.374 -0.2585  0.2122  0.5849
  691TMC3    C210268   4.321   1.592  15.398 -0.1374 -0.5157  0.3208
  691TMC3    C310269   4.234   1.481  15.399 -0.2640  0.7787  0.5729
  691TMC3    C410270   4.502   1.444  15.352  0.3756 -0.0028 -0.7318
  691TMC3    C510271   4.414   1.337  15.332  0.4957 -0.2988  0.0745
  691TMC3    C610272   4.283   1.359  15.367 -0.5772  1.0298 -0.1464
  691TMC3     C10273   4.546   1.658  15.439 -0.2889 -0.2167 -0.2866
  691TMC3     O10274   4.506   1.733  15.531  0.1437  0.4329  0.6520
  691TMC3     H10275   4.290   1.687  15.440  2.7181  1.0085 -1.0080
  691TMC3    H110276   4.606   1.427  15.331  1.3447  1.6355  2.7049
  691TMC3    H210277   4.212   1.277  15.359  0.0671  0.4447  0.0968
  691TMC3    C710278   4.471   1.206  15.324 -0.3094 -0.2955  0.2288
  691TMC3    C810279   4.086   1.501  15.393  0.4487 -0.4480 -0.6558
  691TMC3    O110280   4.593   1.190  15.321  0.2213 -0.0022  0.0426
  691TMC3    O210281   4.026   1.405  15.346  0.4960 -0.7574 -0.5544
  692TMC3    C110282   1.426   2.604  15.958 -0.6257  0.5699  0.1386
  692TMC3    C210283   1.524   2.621  15.866  0.0977 -0.0174  0.3803
  692TMC3    C310284   1.597   2.513  15.820 -0.3750 -0.4211  0.2814
  692TMC3    C410285   1.380   2.481  15.996  0.1774 -0.4976  0.2003
  692TMC3    C510286   1.433   2.375  15.922  0.0333 -0.4078  0.5668
  692TMC3    C610287   1.538   2.387  15.835  0.3362  0.5762 -0.0418
  692TMC3     C10288   1.345   2.710  16.011  0.4018  0.4070 -0.2143
  692TMC3     O10289   1.230   2.686  16.052 -0.3420  0.1623 -0.2233
  692TMC3     H10290   1.562   2.720  15.845  1.9178 -1.2632 -2.2265
  692TMC3    H110291   1.304   2.462  16.071 -0.6982 -0.9270 -0.7913
  692TMC3    H210292   1.591   2.300  15.799  0.0812 -0.6783  2.6198
  692TMC3    C710293   1.369   2.249  15.921  0.0885  0.5699 -0.3226
  692TMC3    C810294   1.727   2.510  15.887  0.5418 -0.0149 -0.4571
  692TMC3    O110295   1.382   2.183  15.821  0.2576  0.7670  0.0129
  692TMC3    O210296   1.776   2.616  15.918 -0.4395 -0.1371 -0.1956
  693MPD2     C10297   0.792   4.701  10.427  0.8413  0.0598  0.4463
  693MPD2    C110298   0.794   4.718  10.558  0.0334 -0.3984 -0.4422
  693MPD2    C210299   0.899   4.683  10.633  0.3352 -0.0383  0.2626
  693MPD2    C310300   1.015   4.629  10.570  0.0777  0.6327 -0.2914
  693MPD2    C410301   1.007   4.610  10.435 -0.4767 -0.9738 -0.3868
  693MPD2    C510302   0.901   4.657  10.364  0.2815  0.7076  0.2171
  693MPD2     H10303   0.901   4.704  10.740 -3.0069 -1.9285  0.6826
  693MPD2    H110304   1.095   4.565  10.390  0.1475 -0.9387  0.7911
  693MPD2    H210305   0.712   4.730  10.360  0.5628  1.3394  1.3295
  693MPD2    H310306   0.905   4.647  10.256  1.6742 -0.8871  0.4129
  693MPD2     N10307   1.122   4.583  10.645 -0.4335 -0.2964 -0.6173
  693MPD2    H510308   1.196   4.526  10.605  0.0481 -1.0354  1.2955
  693MPD2    N110309   0.674   0.014  10.614  0.0901 -0.4210  0.2589
  693MPD2    H710310   0.594   4.724  10.558  0.2845  0.6467 -0.5189
  694TMC3    C110311   0.534   0.039  10.808  0.4700  0.1549  0.2250
  694TMC3    C210312   0.437   4.699  10.741  0.2111 -0.0468 -0.1043
  694TMC3    C310313   0.353   4.628  10.821 -0.1889  0.7751 -0.0075
  694TMC3    C410314   0.541   0.042  10.945  0.2828  0.7767  0.4421
  694TMC3    C510315   0.455   4.704  11.019  0.5535 -0.4468  0.4495
  694TMC3    C610316   0.357   4.627  10.957  0.3559  0.2055 -0.5133
  694TMC3     C10317   0.665   0.075  10.739  0.4885  0.2985  0.3392
  694TMC3     O10318   0.750   0.121  10.816  0.1630 -0.1506  0.0792
  694TMC3     H10319   0.436   4.692  10.633 -0.9152  0.8402 -0.1512
  694TMC3    H110320   0.627   0.088  10.992 -0.1443  2.2230 -0.1750
  694TMC3    H210321   0.287   4.563  11.009  0.3382  1.1420  0.6319
  694TMC3    C710322   0.474   4.708  11.165 -0.0095 -0.0982  0.4111
  694TMC3    C810323   0.256   4.531  10.769  0.5789 -0.0280 -0.5978
  694TMC3    O110324   0.542   0.065  11.198  0.0330  0.0267 -0.2839
  694TMC3    O210325   0.167   4.497  10.843 -0.2592 -0.0908  0.5495
  695MPD2     C10326   1.748   2.435  13.408  0.1069  0.6233  0.6049
  695MPD2    C110327   1.697   2.381  13.526  0.3490 -0.0011  0.1744
  695MPD2    C210328   1.562   2.370  13.544 -0.0071  0.0200  0.0795
  695MPD2    C310329   1.473   2.401  13.447 -0.1081  0.2555 -0.6780
  695MPD2    C410330   1.524   2.468  13.336  0.0049  0.1632 -0.4879
  695MPD2    C510331   1.660   2.479  13.314  0.0183 -0.5952 -0.2402
  695MPD2     H10332   1.515   2.326  13.632 -1.8301 -0.4552 -1.1410
  695MPD2    H110333   1.468   2.511  13.254 -0.4352 -0.4526 -0.5098
  695MPD2    H210334   1.855   2.444  13.393 -0.0743  0.5718 -0.7164
  695MPD2    H310335   1.692   2.531  13.225  0.4463  2.3223  1.6125
  695MPD2     N10336   1.332   2.374  13.467  0.4529  0.2804  0.2064
  695MPD2    H510337   1.300   2.350  13.560  0.5789 -0.7803 -0.0279
  695MPD2    N110338   1.789   2.346  13.628  0.7863 -0.2864 -0.0179
  695MPD2    H710339   1.750   2.328  13.720  0.5523  1.4677  0.2361
  696TMC3    C110340   1.099   2.381  13.448  0.0415  0.2653 -0.4557
  696TMC3    C210341   1.076   2.339  13.575  0.6424  0.1491  0.1466
  696TMC3    C310342   0.961   2.363  13.644 -0.7667 -0.1106  1.0823
  696TMC3    C410343   0.996   2.441  13.387 -0.3665  0.4340 -0.0769
  696TMC3    C510344   0.883   2.468  13.460 -0.0868  0.5958 -0.1496
  696TMC3    C610345   0.861   2.439  13.594  0.0182 -0.0872 -0.5245
  696TMC3     C10346   1.227   2.390  13.381  0.0242 -0.2261 -0.0952
  696TMC3     O10347   1.228   2.426  13.265 -0.8255  0.1691  0.3352
  696TMC3     H10348   1.157   2.287  13.626  0.4123  0.1492  0.5133
  696TMC3    H110349   1.013   2.473  13.285  0.5436  1.7193  0.4852
  696TMC3    H210350   0.773   2.463  13.651 -1.8243  1.4026 -3.9934
  696TMC3    C710351   0.811   2.590  13.414  0.9072 -0.2793  0.9014
  696TMC3    C810352   0.964   2.335  13.784 -0.0595  0.4169 -0.2147
  696TMC3    O110353   0.801   2.608  13.293 -0.8847  0.4340  0.3984
  696TMC3    O210354   1.072   2.305  13.824 -0.2442  0.5432  0.0009
  697MPD2     C10355   0.971   4.498  15.673  1.2426 -0.5063 -0.0516
  697MPD2    C110356   1.020   4.443  15.558 -0.4126 -0.2089  0.0189
  697MPD2    C210357   1.037   4.521  15.446  0.4309  0.0947  0.5975
  697MPD2    C310358   1.015   4.661  15.446  0.7776 -0.2277  0.1818
  697MPD2    C410359   0.977   4.712  15.563 -0.0847 -0.3122 -0.6547
  697MPD2    C510360   0.948   4.633  15.675 -0.2831 -0.0556 -0.0243
  697MPD2     H10361   1.065   4.467  15.357  0.7188  0.4916  0.4482
  697MPD2    H110362   0.957   0.082  15.576  0.4308 -0.4525  1.2192
  697MPD2    H210363   0.947   4.447  15.765  1.8503  0.7402  0.7929
  697MPD2    H310364   0.906   4.684  15.760 -0.4076 -0.1403 -0.0338
  697MPD2     N10365   1.053   4.729  15.330  0.4885  0.0201 -0.0170
  697MPD2    H510366   1.106   4.684  15.256 -0.3502 -0.2751 -0.4352
  697MPD2    N110367   1.050   4.302  15.545  0.7922 -0.1435 -0.0867
  697MPD2    H710368   1.087   4.267  15.457 -0.5438 -1.1673 -0.2614
  698TMC3    C110369   1.071   0.173  15.174 -0.1505  0.3905  0.0716
  698TMC3    C210370   1.142   0.291  15.162 -0.7701 -0.1358 -0.2457
  698TMC3    C310371   1.195   0.324  15.038 -0.4384 -0.2085 -0.2489
  698TMC3    C410372   1.059   0.081  15.071  0.1459  0.2356  0.4496
  698TMC3    C510373   1.104   0.129  14.951  0.1954 -0.4738 -0.1018
  698TMC3    C610374   1.179   0.241  14.935 -0.4762  0.0184  0.1411
  698TMC3     C10375   1.040   0.126  15.311 -0.2817 -0.3080 -0.8842
  698TMC3     O10376   0.983   0.210  15.380  0.1297  0.0344 -0.6318
  698TMC3     H10377   1.150   0.358  15.247 -2.4240  0.2034 -0.3671
  698TMC3    H110378   0.980   0.008  15.085 -1.0481  1.9181  2.2485
  698TMC3    H210379   1.202   0.279  14.836  1.1439  0.4853  0.6899
  698TMC3    C710380   1.073   0.056  14.828  0.3810  0.9482 -0.3640
  698TMC3    C810381   1.261   0.450  15.016 -0.5821  0.1540 -0.2510
  698TMC3    O110382   0.956   0.014  14.822  0.0013 -0.3744 -0.5302
  698TMC3    O210383   1.258   0.527  15.114  0.0308  0.4583  0.1082
  699TMC3    C110384   0.804   2.370  12.803 -0.1744  0.2182 -0.1161
  699TMC3    C210385   0.852   2.349  12.927 -0.2659 -0.3813  0.0774
  699TMC3    C310386   0.762   2.303  13.016 -0.6028 -0.2101 -0.5794
  699TMC3    C410387   0.679   2.326  12.760  0.7157  0.1733  0.1708
  699TMC3    C510388   0.599   2.271  12.860  0.1657 -0.3167  0.2658
  699TMC3    C610389   0.640   2.264  12.991  0.0511  0.4049 -0.2404
  699TMC3     C10390   0.878   2.435  12.698 -0.0976 -0.8513  0.1941
  699TMC3     O10391   0.835   2.436  12.581  0.0950  0.8120 -0.2378
  699TMC3     H10392   0.950   2.383  12.958 -0.1419  0.3441 -1.1028
  699TMC3    H110393   0.639   2.337  12.660 -0.9592 -0.6381  0.7607
  699TMC3    H210394   0.572   2.218  13.062  0.9120  0.5882  0.7023
  699TMC3    C710395   0.492   2.186  12.822 -0.0163  0.4586 -0.5925
  699TMC3    C810396   0.793   2.261  13.145 -0.3957 -0.0129 -0.0195
  699TMC3    O110397   0.453   2.113  12.912 -0.4325  0.3577 -0.0367
  699TMC3    O210398   0.712   2.243  13.232  0.4177  0.4672  0.8901
  700TMC3    C110399   4.600   0.280  16.886  0.4442 -0.1239  0.2740
  700TMC3    C210400   4.706   0.197  16.873 -0.1718 -0.0469 -0.3276
  700TMC3    C310401   4.730   0.103  16.973 -0.2412  0.6140  1.1718
  700TMC3    C410402   4.516   0.266  16.990 -0.4331 -0.3964 -0.5907
  700TMC3    C510403   4.543   0.175  17.091 -0.0117 -0.3633  0.5402
  700TMC3    C610404   4.651   0.095  17.083 -0.3378  0.0398  0.3614
  700TMC3     C10405   4.576   0.382  16.787  0.4220  0.8627 -0.5172
  700TMC3     O10406   4.459   0.424  16.782  0.0653  0.4670 -0.1154
  700TMC3     H10407   0.038   0.211  16.790 -1.1275 -2.3514 -1.4976
  700TMC3    H110408   4.423   0.322  16.995  1.0971  1.9894  1.4951
  700TMC3    H210409   4.676   0.032  17.168  0.9735  1.0041  0.6808
  700TMC3    C710410   4.502   0.228  17.216 -0.6220 -0.2343 -0.0255
  700TMC3    C810411   0.101   0.017  16.939  0.1633  0.6433 -0.8884
  700TMC3    O110412   4.483   0.349  17.231 -0.1535  0.0460  0.1938
  700TMC3    O210413   0.198   0.067  16.879  0.0417  0.0245  0.0525
  701TMC3    C110414   0.037   3.498  15.666  0.4292  0.2248  1.0068
  701TMC3    C210415   4.719   3.490  15.540  0.3235  0.0097 -0.5845
  701TMC3    C310416   0.029   3.577  15.448  0.4049 -0.2680 -0.3123
  701TMC3    C410417   0.124   3.593  15.710 -0.0853  0.2046 -0.4401
  701TMC3    C510418   0.165   3.677  15.611 -0.5485  0.4321  0.1307
  701TMC3    C610419   0.122   3.671  15.481 -0.3218 -0.4373  0.0420
  701TMC3     C10420   4.716   3.409  15.770  0.5203 -0.0487  0.9943
  701TMC3     O10421   4.713   3.474  15.879 -0.0828  0.0356  0.4186
  701TMC3     H10422   4.643   3.419  15.511  0.6135 -0.2763 -0.6433
  701TMC3    H110423   0.182   3.569  15.798 -0.7648  1.5721  0.3840
  701TMC3    H210424   0.177   3.722  15.404 -0.6642  1.1188  0.8248
  701TMC3    C710425   0.243   3.792  15.652  0.4471 -0.0158  0.6291
  701TMC3    C810426   4.709   3.588  15.311  0.4138 -0.0528  0.8166
  701TMC3    O110427   0.300   3.846  15.558 -0.6283  0.3789 -0.4549
  701TMC3    O210428   4.719   3.693  15.246  0.0713  0.5255 -0.0292
  702MPD2     C10429   4.392   0.586  10.352 -0.3896 -0.3132 -0.6906
  702MPD2    C110430   4.504   0.634  10.412 -0.4661 -0.7429  0.3712
  702MPD2    C210431   4.505   0.770  10.439  0.1608 -0.1849 -0.7636
  702MPD2    C310432   4.401   0.851  10.404  0.2355  1.0597 -0.1250
  702MPD2    C410433   4.287   0.800  10.345 -0.5378 -0.1829  0.0362
  702MPD2    C510434   4.285   0.664  10.320  0.0613  0.3771  0.3913
  702MPD2     H10435   4.591   0.817  10.486 -0.3099 -0.1383  0.0409
  702MPD2    H110436   4.199   0.854  10.311  0.7460  0.8523 -1.5825
  702MPD2    H210437   4.388   0.480  10.329 -0.8840 -0.8767  1.9681
  702MPD2    H310438   4.201   0.624  10.264 -1.7178  0.9319  2.6557
  702MPD2     N10439   4.399   0.992  10.410 -0.0492 -0.9344 -0.0782
  702MPD2    H510440   4.310   1.039  10.395  0.2102  0.4760  2.6744
  702MPD2    N110441   4.599   0.541  10.456 -0.4753 -0.9567  0.3389
  702MPD2    H710442   4.579   0.442  10.446  0.8290 -1.1410 -0.4128
  703TMC3    C110443   4.489   1.205  10.416 -0.0532 -0.3200 -0.1335
  703TMC3    C210444   4.412   1.255  10.522 -0.5293 -0.1017 -1.2615
  703TMC3    C310445   4.448   1.376  10.572  0.2071  0.0889 -0.5769
  703TMC3    C410446   4.600   1.280  10.371 -0.2962  0.2025 -0.6967
  703TMC3    C510447   4.633   1.397  10.433 -0.3059  0.5054  0.0004
  703TMC3    C610448   4.559   1.445  10.534  0.8065 -0.3755 -0.1502
  703TMC3     C10449   4.514   1.069  10.407  0.4954  0.0715  0.5818
  703TMC3     O10450   4.629   1.039  10.388 -0.0526  0.4377 -0.5449
  703TMC3     H10451   4.324   1.198  10.549 -0.8994  0.5113 -1.1659
  703TMC3    H110452   4.661   1.240  10.291 -1.3460 -0.3949 -1.2000
  703TMC3    H210453   4.580   1.546  10.567 -0.5034 -0.1630  0.0157
  703TMC3    C710454   0.041   1.426  10.442 -0.6055  0.3944  0.1864
  703TMC3    C810455   4.420   1.403  10.709 -0.0488  0.1181 -0.7418
  703TMC3    O110456   0.118   1.375  10.363 -0.0758  0.5871 -0.4450
  703TMC3    O210457   4.511   1.442  10.774  0.1137  0.3106  0.2313
  704TMC3    C110458   2.573   4.475  12.634 -0.1111 -0.0997 -0.1199
  704TMC3    C210459   2.589   4.515  12.504 -0.3094 -0.0580 -0.3726
  704TMC3    C310460   2.663   4.444  12.420  0.2026 -0.2954 -0.1805
  704TMC3    C410461   2.645   4.371  12.679 -0.2813  0.2647  0.0491
  704TMC3    C510462   2.699   4.288  12.592  0.4636 -0.3919 -0.4779
  704TMC3    C610463   2.711   4.322  12.460  1.3775 -0.5115  0.2316
  704TMC3     C10464   2.430   4.450  12.662  0.0352  0.9688  0.5268
  704TMC3     O10465   2.408   4.386  12.763 -0.1689 -0.1613  0.1574
  704TMC3     H10466   2.566   4.619  12.480  1.6281  0.2192 -1.0231
  704TMC3    H110467   2.619   4.332  12.777 -0.5027  0.6642  0.1498
  704TMC3    H210468   2.753   4.260  12.382 -1.3312  0.2871 -1.8616
  704TMC3    C710469   2.679   4.152  12.617  0.0932 -0.0437  0.5067
  704TMC3    C810470   2.603   4.452  12.287 -0.3710  0.0727  0.3962
  704TMC3    O110471   2.634   4.094  12.518  0.1299 -0.2408  0.4576
  704TMC3    O210472   2.486   4.485  12.283 -0.3040  0.1910  0.7741
  705MPD2     C10473   1.747   2.207  16.781 -0.4242  0.1878  1.4045
  705MPD2    C110474   1.727   2.306  16.692 -0.2706  0.0250  0.2558
  705MPD2    C210475   1.605   2.368  16.704  0.7031 -0.5601 -1.2677
  705MPD2    C310476   1.495   2.317  16.776  0.3845 -0.0670  0.2536
  705MPD2    C410477   1.512   2.203  16.848 -0.2264 -0.3961  0.5576
  705MPD2    C510478   1.644   2.157  16.859 -0.6590  0.2530 -0.1439
  705MPD2     H10479   1.595   2.461  16.649 -1.6515  0.3261  0.6456
  705MPD2    H110480   1.434   2.152  16.903 -1.4041 -0.6584 -1.3321
  705MPD2    H210481   1.833   2.142  16.767 -2.4821 -2.2197 -0.2412
  705MPD2    H310482   1.672   2.058  16.892 -1.1499 -0.0681 -0.6681
  705MPD2     N10483   1.372   2.391  16.772 -0.7206  0.0437 -0.0660
  705MPD2    H510484   1.296   2.349  16.825 -1.1670  1.1512  0.1641
  705MPD2    N110485   1.821   2.361  16.601 -0.1275 -0.1672 -0.3673
  705MPD2    H710486   1.798   2.445  16.549 -0.7302 -0.4858 -0.6259
  706TMC3    C110487   2.151   2.354  16.279 -0.3447  0.0806 -0.0317
  706TMC3    C210488   2.116   2.482  16.239 -0.4199  0.4910 -0.3131
  706TMC3    C310489   2.018   2.552  16.310  0.0023 -0.7767  0.8882
  706TMC3    C410490   2.102   2.306  16.400 -0.0633  0.1047 -0.2334
  706TMC3    C510491   2.007   2.377  16.463 -0.0610 -0.1430 -1.3270
  706TMC3    C610492   1.964   2.502  16.428 -0.6933  0.7191  1.2458
  706TMC3     C10493   2.227   2.264  16.192  0.4307  0.1593  0.2800
  706TMC3     O10494   2.289   2.172  16.240 -0.4624 -0.1159 -0.7091
  706TMC3     H10495   2.158   2.525  16.149  2.5804  1.4455  1.5377
  706TMC3    H110496   2.141   2.212  16.437  0.0499 -0.2229 -1.1943
  706TMC3    H210497   1.893   2.559  16.486  0.4991  0.1288  3.2781
  706TMC3    C710498   1.932   2.299  16.564 -0.6003  0.2219  0.0316
  706TMC3    C810499   1.979   2.687  16.266 -0.0969 -0.2203 -0.5340
  706TMC3    O110500   1.956   2.181  16.579  0.2300  0.0295  0.6348
  706TMC3    O210501   1.981   2.706  16.144  0.4020  0.2809 -0.1778
  707TMC3    C110502   3.647   2.092   1.210 -0.5011  0.3082 -0.0142
  707TMC3    C210503   3.686   2.042   1.329  0.6308 -0.0650  0.2210
  707TMC3    C310504   3.586   1.977   1.396 -0.4569 -0.4662 -0.2358
  707TMC3    C410505   3.524   2.087   1.152 -0.1682 -0.1627 -0.1464
  707TMC3    C510506   3.438   2.000   1.218  0.0282  0.3872 -0.1368
  707TMC3    C610507   3.459   1.954   1.342 -0.0631 -0.0605 -0.0857
  707TMC3     C10508   3.766   2.131   1.134 -0.5893 -0.1390  0.4350
  707TMC3     O10509   3.876   2.101   1.173 -0.3268  0.0639  0.0797
  707TMC3     H10510   3.783   2.055   1.375  0.3187 -0.0452  0.8715
  707TMC3    H110511   3.484   2.149   1.072 -1.4133  1.0177  1.3787
  707TMC3    H210512   3.392   1.892   1.400  0.4725  0.8351  1.4880
  707TMC3    C710513   3.306   1.982   1.165 -0.7960 -0.7294 -0.1154
  707TMC3    C810514   3.636   1.892   1.503 -0.0628 -0.3707  0.4189
  707TMC3    O110515   3.235   1.941   1.252  0.0403  0.2115  0.5566
  707TMC3    O210516   3.739   1.930   1.558  0.2363 -0.1772  0.5954
  708MPD2     C10517   0.007   0.243  14.063  0.1131 -0.0398  0.0267
  708MPD2    C110518   4.657   0.319  14.142 -0.2255 -0.6604 -0.4183
  708MPD2    C210519   4.577   0.255  14.240 -0.4212 -0.2904  0.4696
  708MPD2    C310520   4.593   0.125  14.273 -0.3301 -0.2615  0.9279
  708MPD2    C410521   4.688   0.051  14.203  0.0180  0.3067 -0.6590
  708MPD2    C510522   0.020   0.109  14.102  0.2263  0.4738 -0.2075
  708MPD2     H10523   4.500   0.313  14.289 -0.0994 -1.1179  1.9579
  708MPD2    H110524   4.711   4.684  14.229 -0.4224  0.8857  1.9570
  708MPD2    H210525   0.071   0.289  13.988  0.6862 -0.9071 -0.0202
  708MPD2    H310526   0.083   0.048  14.038  1.0846 -0.2694  1.3512
  708MPD2     N10527   4.521   0.063  14.376 -0.4584 -0.0907  0.1058
  708MPD2    H510528   4.507   4.700  14.359 -0.4993 -0.2204  0.8825
  708MPD2    N110529   4.651   0.456  14.103 -0.6690  0.3159 -0.1576
  708MPD2    H710530   4.720   0.490  14.037  1.2153 -1.2294  1.0469
  709TMC3    C110531   4.599   0.684  14.136  0.7935 -0.0732  0.2167
  709TMC3    C210532   4.558   0.704  14.010  0.0015  0.5343 -0.6920
  709TMC3    C310533   4.476   0.816  13.990  0.1964 -0.4478 -0.5051
  709TMC3    C410534   4.562   0.772  14.239 -0.2668 -0.6471 -0.5154
  709TMC3    C510535   4.488   0.886  14.212 -0.0483  0.0879  0.0285
  709TMC3    C610536   4.446   0.915  14.084 -0.5496  0.2655  0.0401
  709TMC3     C10537   4.582   0.552  14.184 -0.1516  0.5458 -0.3995
  709TMC3     O10538   4.513   0.533  14.285  0.8599 -0.3483  0.1539
  709TMC3     H10539   4.560   0.631  13.930  0.9900  0.1020 -0.2689
  709TMC3    H110540   4.591   0.755  14.342  0.7240 -0.8908 -0.8411
  709TMC3    H210541   4.390   1.005  14.062  1.4450  1.3483 -0.5388
  709TMC3    C710542   4.380   0.884  14.301  0.1193  0.4887  0.0648
  709TMC3    C810543   4.375   0.804  13.889 -0.5796 -0.1765 -0.0112
  709TMC3    O110544   4.410   0.899  14.415  0.5004 -0.7901  0.0772
  709TMC3    O210545   4.265   0.804  13.928  0.0440  0.0977  0.7427
  710TMC3    C110546   0.592   2.201   0.437 -0.3082 -0.5186 -0.2377
  710TMC3    C210547   0.635   2.219   0.311  1.0493  0.9718 -0.3384
  710TMC3    C310548   0.723   2.125   0.262  0.0030 -0.3388 -0.3018
  710TMC3    C410549   0.655   2.112   0.518 -0.9344 -0.4767 -0.6848
  710TMC3    C510550   0.769   2.041   0.478 -0.2714 -0.1734 -0.0456
  710TMC3    C610551   0.795   2.037   0.344  0.6369  0.2973  0.3905
  710TMC3     C10552   0.484   2.281   0.495  0.2814 -0.2051  0.0675
  710TMC3     O10553   0.387   2.211   0.529  0.5754 -0.2839 -0.3355
  710TMC3     H10554   0.591   2.296   0.249  1.1445  0.8132 -0.6012
  710TMC3    H110555   0.615   2.098   0.617  0.8185 -1.3668 -0.1180
  710TMC3    H210556   0.873   1.969   0.313 -0.6662 -0.6868 -0.7530
  710TMC3    C710557   0.823   1.938   0.561 -0.0338 -0.3428  0.0808
  710TMC3    C810558   0.790   2.150   0.139 -0.0368 -0.7437  0.1594
  710TMC3    O110559   0.771   1.914   0.668 -0.4948  0.1714  0.2266
  710TMC3    O210560   0.890   2.082   0.109  0.0879  0.1683 -0.1639
  711TMC3    C110561   0.625   3.234  15.283  0.5750  0.1231  0.0655
  711TMC3    C210562   0.650   3.140  15.382  0.2270  0.1481  0.6005
  711TMC3    C310563   0.705   3.194  15.489  0.0678  0.0858 -0.1078
  711TMC3    C410564   0.683   3.358  15.276  0.8372 -0.3444 -0.0791
  711TMC3    C510565   0.763   3.396  15.383 -0.0591 -0.7395  0.1282
  711TMC3    C610566   0.758   3.319  15.496 -0.3516  0.3105 -0.6099
  711TMC3     C10567   0.527   3.201  15.182 -0.6151 -0.0211 -0.2340
  711TMC3     O10568   0.527   3.086  15.142 -0.0044  0.0218  0.2498
  711TMC3     H10569   0.592   3.049  15.389 -0.7717  0.7068 -0.3140
  711TMC3    H110570   0.675   3.431  15.196 -1.7149 -1.1923 -0.5914
  711TMC3    H210571   0.798   3.360  15.589  0.4608  0.3147 -0.9631
  711TMC3    C710572   0.902   3.407  15.345 -0.1220  0.2696  0.2919
  711TMC3    C810573   0.784   3.099  15.555  0.0475 -0.3263  0.5342
  711TMC3    O110574   0.982   3.400  15.439 -0.3658 -0.1466  0.3869
  711TMC3    O210575   0.732   2.985  15.561  0.1516  1.0658 -0.0459
  712MPD2     C10576   2.172   3.584  13.641  0.1610 -0.7247  0.5967
  712MPD2    C110577   2.179   3.667  13.532 -0.6826 -0.2360  0.1955
  712MPD2    C210578   2.239   3.792  13.539 -0.0229  0.0167 -0.2240
  712MPD2    C310579   2.279   3.835  13.665 -0.0394 -1.1362  1.1021
  712MPD2    C410580   2.287   3.746  13.771  0.3824  0.2937  0.5181
  712MPD2    C510581   2.226   3.624  13.762 -0.5363 -0.4214 -0.3300
  712MPD2     H10582   2.249   3.861  13.456  2.3634 -1.8930 -1.5379
  712MPD2    H110583   2.322   3.767  13.871  0.2852  0.4718  0.5160
  712MPD2    H210584   2.130   3.484  13.633  1.6078 -1.4221  1.5318
  712MPD2    H310585   2.232   3.559  13.849  1.0530  1.7526  1.2098
  712MPD2     N10586   2.311   3.973  13.689  0.2432  0.1656  0.2960
  712MPD2    H510587   2.330   3.992  13.788 -0.8874 -0.2577  0.5899
  712MPD2    N110588   2.125   3.619  13.408  0.0207  0.0142  0.6195
  712MPD2    H710589   2.153   3.663  13.320 -0.4117 -0.6905  0.1261
  713TMC3    C110590   2.292   4.202  13.696  0.1278  0.3991  0.8863
  713TMC3    C210591   2.413   4.212  13.758  0.2588 -0.2170 -0.1854
  713TMC3    C310592   2.461   4.333  13.795 -0.4992 -0.0228 -0.2483
  713TMC3    C410593   2.212   4.311  13.676 -0.2363 -0.2751  0.1572
  713TMC3    C510594   2.261   4.431  13.728  0.2984  0.3017  0.3590
  713TMC3    C610595   2.384   4.446  13.792  0.2995  0.2180  0.4520
  713TMC3     C10596   2.266   4.084  13.620 -0.5131 -0.0051 -0.6882
  713TMC3     O10597   2.196   4.092  13.522  0.3080  0.5103 -0.7915
  713TMC3     H10598   2.473   4.122  13.770 -0.2370 -0.2780  1.9414
  713TMC3    H110599   2.129   4.312  13.606  1.2457 -1.0799 -1.5831
  713TMC3    H210600   2.422   4.541  13.827 -3.6321  2.6522 -1.8063
  713TMC3    C710601   2.207   4.554  13.673  0.3552 -0.1806  0.1427
  713TMC3    C810602   2.597   4.343  13.839 -0.5385 -0.0397  0.5568
  713TMC3    O110603   2.295   4.637  13.655 -0.2666  0.2414 -0.2298
  713TMC3    O210604   2.640   4.458  13.835 -0.1622  0.0658 -0.0570
  714MPD2     C10605   4.473   3.599   1.517  0.6170  0.3937 -0.2188
  714MPD2    C110606   4.467   3.501   1.416  0.4389  0.3553 -0.3484
  714MPD2    C210607   4.346   3.495   1.337 -0.0143  1.2541 -0.2111
  714MPD2    C310608   4.239   3.586   1.355  0.0045 -0.3949  0.3460
  714MPD2    C410609   4.254   3.687   1.452 -0.0701  0.1354 -0.4720
  714MPD2    C510610   4.370   3.690   1.524  0.0703 -0.4364 -0.3108
  714MPD2     H10611   4.339   3.428   1.253  1.5819  2.6198 -1.4212
  714MPD2    H110612   4.173   3.756   1.472  0.1361  0.6145 -1.2646
  714MPD2    H210613   4.561   3.605   1.580  0.5107  1.4289 -0.1697
  714MPD2    H310614   4.389   3.772   1.594 -0.3659 -0.7553  0.1869
  714MPD2     N10615   4.136   3.582   1.256 -0.1077  0.3106 -0.2231
  714MPD2    H510616   4.131   3.502   1.193  2.6455 -1.0266  1.2527
  714MPD2    N110617   4.573   3.404   1.402 -0.1570  1.1191 -0.1630
  714MPD2    H710618   4.650   3.416   1.467 -0.7341  0.6475  0.6000
  715TMC3    C110619   4.723   3.239   1.328  1.0244  0.4665 -0.5688
  715TMC3    C210620   0.016   3.132   1.252  0.1341 -0.3910  0.1542
  715TMC3    C310621   0.144   3.089   1.249  0.5244  0.7798  0.2142
  715TMC3    C410622   0.079   3.300   1.409 -0.0262 -0.4221 -0.0674
  715TMC3    C510623   0.207   3.246   1.405  0.3436  0.0937  0.4448
  715TMC3    C610624   0.241   3.138   1.330 -0.2167 -0.1873 -0.5780
  715TMC3     C10625   4.589   3.305   1.310  0.4658 -0.2811 -0.1491
  715TMC3     O10626   4.503   3.261   1.234 -0.0812  0.3621  0.4414
  715TMC3     H10627   4.674   3.089   1.190  2.1093  1.3166 -3.5431
  715TMC3    H110628   0.067   3.396   1.457 -1.0994 -0.5147 -0.1600
  715TMC3    H210629   0.343   3.101   1.341  0.1408  1.3585  1.0842
  715TMC3    C710630   0.310   3.316   1.479  0.2599 -0.6823 -0.1468
  715TMC3    C810631   0.173   2.983   1.147  0.3347  0.6140 -0.6217
  715TMC3    O110632   0.415   3.310   1.423  0.0347  0.0544  0.0222
  715TMC3    O210633   0.077   2.917   1.111 -0.1204  0.5840 -0.0690
  716MPD2     C10634   4.084   0.390  10.169  0.2936 -0.8262 -0.1711
  716MPD2    C110635   4.109   0.399  10.035 -0.0064  0.0944  0.6145
  716MPD2    C210636   4.221   0.340   9.976  0.2815 -0.0725  0.4517
  716MPD2    C310637   4.308   0.273  10.056 -0.5166 -0.8899  0.6571
  716MPD2    C410638   4.294   0.275  10.192 -0.4266  0.3280  0.2516
  716MPD2    C510639   4.179   0.323  10.244 -0.0176 -0.5131 -0.3251
  716MPD2     H10640   4.223   0.329   9.868 -0.2769  0.3159  0.3978
  716MPD2    H110641   4.367   0.232  10.260 -1.6990 -0.0724  1.3637
  716MPD2    H210642   3.995   0.440  10.205  0.8143  0.5350 -0.7666
  716MPD2    H310643   4.170   0.317  10.352  0.2046  1.0915 -0.2269
  716MPD2     N10644   4.407   0.197   9.979 -0.2022 -0.0924 -0.1183
  716MPD2    H510645   4.394   0.189   9.879  0.2238  0.4835 -0.2218
  716MPD2    N110646   4.020   0.481   9.961 -0.0848 -0.0275 -0.3577
  716MPD2    H710647   3.958   0.539  10.016  0.1564  0.3401 -0.4726
  717TMC3    C110648   4.550   0.025   9.940 -0.5085 -0.1205 -0.0740
  717TMC3    C210649   4.529   0.053   9.811  0.8855 -0.3402  0.5248
  717TMC3    C310650   4.547   4.680   9.729  0.0169 -1.1058  0.4570
  717TMC3    C410651   4.604   4.646   9.992  0.0498 -0.2285 -0.2049
  717TMC3    C510652   4.618   4.544   9.905  0.2324  0.3161 -0.9154
  717TMC3    C610653   4.603   4.559   9.768 -0.7373 -0.0508  0.3200
  717TMC3     C10654   4.493   0.110  10.039 -0.2089  0.0062  0.0701
  717TMC3     O10655   4.522   0.087  10.157  0.3534 -0.2509 -0.2058
  717TMC3     H10656   4.487   0.145   9.773  0.5173 -1.1487 -1.0638
  717TMC3    H110657   4.615   4.633  10.099  2.1126 -3.0818 -0.7776
  717TMC3    H210658   4.609   4.475   9.700 -1.8750 -1.6247  2.1804
  717TMC3    C710659   4.667   4.422   9.965 -0.1608 -0.4622  0.3819
  717TMC3    C810660   4.494   4.697   9.588 -0.1357 -0.1725  0.3315
  717TMC3    O110661   4.733   4.438  10.063  0.2482 -0.0432  0.0860
  717TMC3    O210662   4.481   0.079   9.560 -0.6698 -0.3369  0.6774
  718MPD2     C10663   4.207   4.454  13.661 -0.0613 -0.0933  0.5684
  718MPD2    C110664   4.217   4.473  13.532  0.4312  0.1997 -0.0913
  718MPD2    C210665   4.123   4.418  13.441 -0.1089  0.7642 -0.2960
  718MPD2    C310666   4.011   4.355  13.490  0.2166  0.0856 -0.0029
  718MPD2    C410667   4.005   4.337  13.630  0.3704  0.0797 -0.0833
  718MPD2    C510668   4.111   4.381  13.711  0.3417 -0.2253  0.1236
  718MPD2     H10669   4.127   4.438  13.334 -0.6625 -1.6459 -0.7554
  718MPD2    H110670   3.926   4.293  13.689  1.1536 -1.8873 -0.4811
  718MPD2    H210671   4.295   4.480  13.719 -0.5058  1.7191  0.4461
  718MPD2    H310672   4.117   4.344  13.813  0.1838  2.3285  1.0502
  718MPD2     N10673   3.907   4.316  13.401  0.4800  0.1738 -0.2368
  718MPD2    H510674   3.921   4.353  13.308 -1.0287  1.1802 -0.0611
  718MPD2    N110675   4.329   4.552  13.479 -0.0738  0.3488 -0.0196
  718MPD2    H710676   4.367   4.616  13.548  0.7207  0.1277 -0.2611
  719TMC3    C110677   4.422   4.689  13.308 -0.3811  0.8661 -0.2696
  719TMC3    C210678   4.362   0.057  13.364 -0.5683 -0.9375  0.2583
  719TMC3    C310679   4.341   0.166  13.284  0.7484  0.1169  0.9402
  719TMC3    C410680   4.499   4.693  13.195  0.2650 -0.2138  0.3044
  719TMC3    C510681   4.507   0.076  13.127 -0.6714  0.4430  0.0502
  719TMC3    C610682   4.412   0.172  13.164 -0.3702 -1.0537 -0.4792
  719TMC3     C10683   4.375   4.558  13.344 -0.6019  0.1821  0.2239
  719TMC3     O10684   4.367   4.483  13.246  0.6567  0.4482 -0.4450
  719TMC3     H10685   4.308   0.045  13.457  0.9602 -1.0850  1.1093
  719TMC3    H110686   4.547   4.605  13.152 -1.0083 -0.9032  0.2969
  719TMC3    H210687   4.398   0.254  13.094  1.5563  1.9342  2.6248
  719TMC3    C710688   4.600   0.110  13.017 -0.1088  0.1129  0.4146
  719TMC3    C810689   4.191   0.176  13.275  0.4506  0.1926 -0.9469
  719TMC3    O110690   4.631   0.017  12.950  0.2767  0.2200  0.4601
  719TMC3    O210691   4.129   0.115  13.360 -0.4663  0.2736 -0.1580
  720MPD2     C10692   1.850   1.500  14.161 -0.8128 -0.2677  0.2691
  720MPD2    C110693   1.912   1.441  14.054  0.3732  0.1682  0.3735
  720MPD2    C210694   2.041   1.391  14.074 -0.6889 -0.1990  0.6332
  720MPD2    C310695   2.094   1.396  14.205  0.4854  0.2894  0.0680
  720MPD2    C410696   2.020   1.461  14.307  0.1240  0.3425 -0.4679
  720MPD2    C510697   1.900   1.508  14.286 -0.1346 -0.1857  0.0163
  720MPD2     H10698   2.096   1.337  13.997 -0.0037  1.4240 -0.0069
  720MPD2    H110699   2.057   1.477  14.407 -1.0329  1.1628 -0.1699
  720MPD2    H210700   1.752   1.544  14.148 -0.1343  1.0866 -0.3474
  720MPD2    H310701   1.859   1.563  14.370  0.1835  0.1596 -0.0579
  720MPD2     N10702   2.228   1.348  14.221  0.3799  0.0540  0.0758
  720MPD2    H510703   2.264   1.311  14.134  1.4621 -0.5701  0.7734
  720MPD2    N110704   1.861   1.438  13.924 -0.2630 -0.4077 -0.4036
  720MPD2    H710705   1.905   1.372  13.861  1.5820  2.2791 -1.9466
  721TMC3    C110706   2.429   1.306  14.325 -0.7174  0.3505  0.2695
  721TMC3    C210707   2.506   1.318  14.434  0.2709 -0.3933 -0.2894
  721TMC3    C310708   2.645   1.346  14.418  0.4327 -0.1076  0.0737
  721TMC3    C410709   2.485   1.289  14.201  0.2127 -0.3168  0.0349
  721TMC3    C510710   2.620   1.306  14.186  0.3540 -0.7788  0.8976
  721TMC3    C610711   2.700   1.336  14.294  0.5374 -0.6709  0.6468
  721TMC3     C10712   2.291   1.333  14.342 -0.2735  0.5194 -0.6904
  721TMC3     O10713   2.241   1.341  14.451  0.1261  0.4521 -0.2475
  721TMC3     H10714   2.460   1.340  14.530  0.8054  1.7493 -0.5231
  721TMC3    H110715   2.435   1.266  14.108 -2.1333 -1.4118  1.5751
  721TMC3    H210716   2.799   1.379  14.279  0.4921 -0.2859  1.4349
  721TMC3    C710717   2.698   1.234  14.089 -0.5356 -0.7013 -0.0394
  721TMC3    C810718   2.731   1.393  14.527 -0.0031  0.2526 -0.1257
  721TMC3    O110719   2.746   1.299  13.998  0.7214 -0.2843 -0.4773
  721TMC3    O210720   2.851   1.385  14.505  0.2933 -0.2156  1.0120
  722MPD2     C10721   1.249   4.598  12.727  0.0914 -0.5166  0.0365
  722MPD2    C110722   1.224   4.613  12.858  0.1509  0.1925  0.9794
  722MPD2    C210723   1.099   4.585  12.901 -0.4241  1.4504 -0.1104
  722MPD2    C310724   1.000   4.538  12.823 -0.2285  0.3059  0.2104
  722MPD2    C410725   1.031   4.513  12.688  0.2224 -0.1108  0.5249
  722MPD2    C510726   1.152   4.555  12.644 -0.2145  0.0737  1.0374
  722MPD2     H10727   1.078   4.598  13.007  2.6527 -0.9642  0.8197
  722MPD2    H110728   0.954   4.497  12.614 -1.2880  3.1861  1.3416
  722MPD2    H210729   1.347   4.636  12.698  1.0846 -2.3166  1.0455
  722MPD2    H310730   1.169   4.550  12.537  0.1792 -0.4177  1.1200
  722MPD2     N10731   0.870   4.509  12.873  0.2804 -0.7553  0.1626
  722MPD2    H510732   0.861   4.531  12.972  1.9082 -0.1633  0.1927
  722MPD2    N110733   1.322   4.673  12.934  0.4044  0.7799 -0.4744
  722MPD2    H710734   1.406   4.712  12.892  1.2668  0.2274  0.7274
  723TMC3    C110735   0.639   4.451  12.881  0.8977 -0.0766  0.8017
  723TMC3    C210736   0.564   4.332  12.893  0.2745  0.0829 -0.4287
  723TMC3    C310737   0.464   4.340  12.990  0.1582 -0.0962 -0.3640
  723TMC3    C410738   0.615   4.565  12.944 -0.3943 -0.0094 -1.0626
  723TMC3    C510739   0.509   4.573  13.026  0.0896  0.0526 -0.0777
  723TMC3    C610740   0.443   4.458  13.057 -0.1135 -0.1363 -0.8527
  723TMC3     C10741   0.764   4.442  12.811  0.5558  0.3478  0.3266
  723TMC3     O10742   0.767   4.382  12.705 -0.1663  0.1554  0.3466
  723TMC3     H10743   0.595   4.246  12.835 -0.1438  1.5420 -2.8762
  723TMC3    H110744   0.682   4.650  12.935 -0.6675  0.3207  0.1096
  723TMC3    H210745   0.359   4.455  13.126  0.7268 -0.1455  0.1631
  723TMC3    C710746   0.518   4.683  13.118  0.1799 -0.0716 -1.0306
  723TMC3    C810747   0.359   4.237  13.001  0.0583 -0.2975 -0.2968
  723TMC3    O110748   0.546   0.062  13.085 -0.5920  0.3486  0.0194
  723TMC3    O210749   0.247   4.262  13.053 -0.2192 -0.7447  0.4696
  724TMC3    C110750   1.362   2.858  10.319 -0.0922  0.0237  0.2634
  724TMC3    C210751   1.378   2.867  10.180 -0.1360 -0.6283 -0.0209
  724TMC3    C310752   1.393   2.995  10.134 -0.0895 -0.3770 -0.7437
  724TMC3    C410753   1.360   2.965  10.401 -0.6387  0.4209  0.4924
  724TMC3    C510754   1.359   3.083  10.347  0.0040  0.3904 -0.0280
  724TMC3    C610755   1.381   3.106  10.212  0.8882  0.5030  0.4406
  724TMC3     C10756   1.300   2.737  10.371 -0.2239 -0.2938  0.7405
  724TMC3     O10757   1.306   2.723  10.493 -0.4026 -0.3304  0.0982
  724TMC3     H10758   1.418   2.781  10.128  2.5935  0.7331 -0.1780
  724TMC3    H110759   1.337   2.949  10.505  1.0209  0.0064  0.8009
  724TMC3    H210760   1.376   3.204  10.166 -0.9345  0.2593  0.1048
  724TMC3    C710761   1.370   3.206  10.425  0.5465 -0.1027 -0.5158
  724TMC3    C810762   1.471   3.007  10.014 -0.7706 -0.4191 -0.9278
  724TMC3    O110763   1.340   3.308  10.369  0.2821  0.0363  0.3518
  724TMC3    O210764   1.487   2.915   9.936  0.3274  0.0676 -0.0988
  725TMC3    C110765   2.885   1.760  12.838  0.4441  0.1552  0.3430
  725TMC3    C210766   2.765   1.802  12.790 -0.6581  0.7189 -0.6521
  725TMC3    C310767   2.652   1.732  12.820 -0.1787 -0.0215  0.4311
  725TMC3    C410768   2.889   1.635  12.891 -0.3992  1.0174 -0.4663
  725TMC3    C510769   2.773   1.570  12.907  0.1347 -0.5922  0.7079
  725TMC3    C610770   2.651   1.610  12.870  0.2958 -0.0210  0.1009
  725TMC3     C10771   2.999   1.841  12.816  0.5497  0.0093 -0.2188
  725TMC3     O10772   2.986   1.936  12.737  0.2427 -0.0970 -0.3935
  725TMC3     H10773   2.769   1.901  12.746 -1.6503  0.5624 -1.0943
  725TMC3    H110774   2.977   1.580  12.922 -0.4705  0.4588 -1.2338
  725TMC3    H210775   2.560   1.554  12.884  0.2728  0.2271  0.9298
  725TMC3    C710776   2.796   1.431  12.932 -0.6630 -0.2675 -0.3726
  725TMC3    C810777   2.518   1.777  12.803  0.8923  0.8535 -0.5507
  725TMC3    O110778   2.897   1.388  12.870 -0.4717  0.1386  0.7537
  725TMC3    O210779   2.431   1.749  12.882  0.2586 -0.0354  0.3748
  726MPD2     C10780   0.725   3.338  10.389 -0.4332 -0.4891  0.1327
  726MPD2    C110781   0.702   3.320  10.255  0.0614 -0.9506 -0.8407
  726MPD2    C210782   0.664   3.193  10.217  0.3687  0.1094  0.8602
  726MPD2    C310783   0.641   3.098  10.311 -0.7531  0.3678 -0.3395
  726MPD2    C410784   0.672   3.122  10.443 -0.3389 -0.4033 -0.8080
  726MPD2    C510785   0.706   3.246  10.485  0.3343  0.5730 -0.5054
  726MPD2     H10786   0.652   3.175  10.111  0.8591  0.1623  0.7953
  726MPD2    H110787   0.658   3.043  10.516 -3.3689  0.5238 -0.3900
  726MPD2    H210788   0.763   3.436  10.418 -0.9370  0.4586 -2.3344
  726MPD2    H310789   0.727   3.263  10.590  3.3168 -0.6974 -0.8614
  726MPD2     N10790   0.581   2.970  10.287 -0.0198 -0.2231  0.4818
  726MPD2    H510791   0.580   2.910  10.369  0.1101  0.0443  0.6802
  726MPD2    N110792   0.733   3.422  10.166 -0.0311  0.0634 -0.7254
  726MPD2    H710793   0.777   3.504  10.208  2.1773 -1.3276 -0.3383
  727TMC3    C110794   0.773   3.533   9.959  0.4833  0.5969 -0.5409
  727TMC3    C210795   0.809   3.643  10.029 -0.1354  0.7963 -0.1630
  727TMC3    C310796   0.878   3.742   9.966  0.2411  0.0947 -0.2447
  727TMC3    C410797   0.805   3.520   9.827  0.8481  0.7883 -0.1934
  727TMC3    C510798   0.861   3.625   9.763 -1.0870  1.4628  0.0884
  727TMC3    C610799   0.915   3.734   9.835 -0.0474 -0.1209  1.2233
  727TMC3     C10800   0.710   3.421  10.035  0.4899  0.2829 -0.3160
  727TMC3     O10801   0.663   3.335   9.964 -0.4625 -0.3228  0.4107
  727TMC3     H10802   0.780   3.664  10.131 -1.6012  0.1292 -0.4399
  727TMC3    H110803   0.757   3.440   9.772 -2.1898  0.8201  2.4485
  727TMC3    H210804   0.965   3.813   9.781 -3.8008  0.8760 -0.7642
  727TMC3    C710805   0.862   3.614   9.610 -0.2646 -0.1591 -0.2934
  727TMC3    C810806   0.952   3.820  10.056  0.0878 -0.2243  0.1268
  727TMC3    O110807   0.767   3.550   9.563 -0.1952  0.2190  0.1483
  727TMC3    O210808   0.999   3.758  10.152  0.0438  0.4040  0.3209
  728TMC3    C110809   0.529   1.965  15.152 -0.0605  0.0928  0.1143
  728TMC3    C210810   0.645   2.030  15.168  0.4493  1.1722  0.5089
  728TMC3    C310811   0.686   2.115  15.072 -0.2422 -0.3171  0.8213
  728TMC3    C410812   0.452   1.984  15.041  0.0995 -0.3170  0.6214
  728TMC3    C510813   0.495   2.068  14.942 -0.6157 -0.4053  0.0033
  728TMC3    C610814   0.609   2.143  14.959  0.0509  0.5430 -0.9714
  728TMC3     C10815   0.466   1.934  15.280  0.9119 -0.2269  0.2548
  728TMC3     O10816   0.504   1.997  15.377 -0.1626 -0.2109 -0.1982
  728TMC3     H10817   0.704   2.021  15.258  0.2560  0.1895  0.5490
  728TMC3    H110818   0.364   1.923  15.023  1.4504 -1.5946 -1.6281
  728TMC3    H210819   0.645   2.205  14.878 -0.7322  0.4650 -1.3844
  728TMC3    C710820   0.436   2.074  14.809  0.0650 -0.7369 -0.4533
  728TMC3    C810821   0.815   2.185  15.086  0.3298 -0.7968  0.9289
  728TMC3    O110822   0.384   1.970  14.777  0.2829 -0.5829  0.0577
  728TMC3    O210823   0.807   2.299  15.035  0.6515  0.5422  0.1203
  729MPD2     C10824   2.644   3.084  16.858 -0.6462  0.6083 -0.8230
  729MPD2    C110825   2.779   3.111  16.847 -0.9205  0.6137 -0.3802
  729MPD2    C210826   2.853   3.150  16.957  0.0195  0.0401  0.0928
  729MPD2    C310827   2.776   3.165  17.076  0.0773  0.0167 -0.2709
  729MPD2    C410828   2.647   3.131  17.085  0.0375 -0.3387 -0.6391
  729MPD2    C510829   2.576   3.086  16.974 -0.3329 -0.2770  0.3821
  729MPD2     H10830   2.959   3.171  16.948  0.5030 -1.6854  1.4727
  729MPD2    H110831   2.589   3.158  17.173 -0.4249 -1.1817 -0.6909
  729MPD2    H210832   2.588   3.044  16.774 -0.1661 -1.0780 -0.3422
  729MPD2    H310833   2.469   3.071  16.975 -0.8879  3.6377  0.3734
  729MPD2     N10834   2.824   3.231  17.191  0.7348 -0.6984 -0.3728
  729MPD2    H510835   2.760   3.233  17.271 -0.4921  0.2701 -1.3688
  729MPD2    N110836   2.833   3.130  16.713 -0.6245  0.2399  0.1890
  729MPD2    H710837   2.761   3.124  16.642  1.6280 -2.5685 -1.8802
  730TMC3    C110838   2.947   3.402  17.304 -0.0884 -0.6451 -0.6002
  730TMC3    C210839   3.032   3.506  17.274 -0.7415  0.0229 -0.5119
  730TMC3    C310840   2.998   3.635  17.293  0.5129 -0.0590  0.3099
  730TMC3    C410841   2.821   3.436  17.352 -0.4901  0.7537  0.1050
  730TMC3    C510842   2.781   3.565  17.355  0.4092  0.3596  0.5724
  730TMC3    C610843   2.867   3.666  17.323 -0.1172 -0.3184  0.0128
  730TMC3     C10844   2.943   3.294  17.205  0.6103  0.1259  0.9842
  730TMC3     O10845   3.037   3.292  17.128 -0.1170  0.0546  0.2047
  730TMC3     H10846   3.134   3.488  17.243 -0.0065  1.9707  0.7970
  730TMC3    H110847   2.746   3.360  17.374  0.4593 -0.1900  0.1207
  730TMC3    H210848   2.840   3.771  17.329  0.7345 -0.2274  2.2735
  730TMC3    C710849   2.642   3.577  17.315  0.0709 -0.3663  0.0780
  730TMC3    C810850   3.088   3.732  17.233 -0.0382  1.0291  0.2662
  730TMC3    O110851   2.591   3.488  17.251  0.5496  0.2110 -0.1429
  730TMC3    O210852   3.170   3.685  17.148  0.1896  0.0082  0.2578
  731MPD2     C10853   2.422   1.412  12.372  0.3729  0.3193 -0.8833
  731MPD2    C110854   2.467   1.283  12.361  0.4955  0.9671  0.4683
  731MPD2    C210855   2.476   1.210  12.480  0.5737 -0.0428 -0.6235
  731MPD2    C310856   2.442   1.268  12.603  0.9401  0.3996 -0.3960
  731MPD2    C410857   2.400   1.397  12.609 -0.7078 -0.4946  0.0131
  731MPD2    C510858   2.392   1.469  12.491 -0.2041  0.3706 -0.2914
  731MPD2     H10859   2.514   1.108  12.472 -1.5136 -1.0207  1.9753
  731MPD2    H110860   2.375   1.449  12.701  1.2885  0.2869  0.1192
  731MPD2    H210861   2.416   1.477  12.286  1.2242  1.6307  0.0444
  731MPD2    H310862   2.361   1.573  12.488  0.3536  0.5547  0.2552
  731MPD2     N10863   2.469   1.188  12.716 -0.2363 -0.0725 -0.5297
  731MPD2    H510864   2.507   1.096  12.693 -0.1872 -0.4270  0.9584
  731MPD2    N110865   2.503   1.223  12.239  0.5762 -0.3045 -0.5704
  731MPD2    H710866   2.542   1.129  12.243  2.2652  0.3229 -2.2348
  732TMC3    C110867   2.521   1.198  12.018  0.0361 -0.0794  0.0145
  732TMC3    C210868   2.442   1.202  11.904  0.2904 -0.6160 -0.3077
  732TMC3    C310869   2.480   1.132  11.790 -0.2018 -0.0137  0.0914
  732TMC3    C410870   2.633   1.127  12.019 -0.0192 -0.2798 -0.7152
  732TMC3    C510871   2.677   1.062  11.911  0.0212 -0.3980  0.1553
  732TMC3    C610872   2.609   1.076  11.791 -0.9446  0.5759  0.4829
  732TMC3     C10873   2.494   1.291  12.121 -0.5364  0.4675  0.2776
  732TMC3     O10874   2.452   1.400  12.092 -0.0947 -0.3527  0.0391
  732TMC3     H10875   2.363   1.275  11.893  1.2318  0.4293 -0.1722
  732TMC3    H110876   2.693   1.137  12.108 -1.8421 -2.6392  0.7634
  732TMC3    H210877   2.635   1.037  11.693 -2.9597 -0.2931  0.2924
  732TMC3    C710878   2.793   0.980  11.908 -0.4169 -0.0572 -0.1505
  732TMC3    C810879   2.377   1.059  11.712 -0.3755  0.1595  0.3223
  732TMC3    O110880   2.834   0.947  11.795  0.0912  0.0754 -0.4788
  732TMC3    O210881   2.423   1.007  11.610  0.3959 -0.6223  0.5000
  733TMC3    C110882   3.542   4.244  13.159  0.4728 -0.2011  0.0783
  733TMC3    C210883   3.616   4.206  13.265 -0.3518 -0.0903 -0.4813
  733TMC3    C310884   3.688   4.301  13.330  0.3084 -0.7988  0.8393
  733TMC3    C410885   3.561   4.364  13.103  0.2459  0.4009 -0.1675
  733TMC3    C510886   3.641   4.456  13.162  0.3427  0.4021  0.3680
  733TMC3    C610887   3.704   4.427  13.280 -0.0985  0.1526  0.1913
  733TMC3     C10888   3.413   4.188  13.153 -0.2070 -0.2816 -0.6674
  733TMC3     O10889   3.329   4.267  13.107  0.4475 -0.2406 -0.7570
  733TMC3     H10890   3.596   4.113  13.317 -3.4255  0.1358 -1.2976
  733TMC3    H110891   3.518   4.380  13.005 -2.0152 -2.7815  0.3228
  733TMC3    H210892   3.761   4.499  13.338 -0.0607  0.6567 -0.4772
  733TMC3    C710893   3.667   4.573  13.090  0.2859  0.5095 -0.1725
  733TMC3    C810894   3.784   4.263  13.426  0.9427 -0.3724  0.5637
  733TMC3    O110895   3.614   4.593  12.980 -0.3260  0.4881 -0.0611
  733TMC3    O210896   3.743   4.206  13.526 -0.5566 -0.3538 -0.9982
  734MPD2     C10897   0.355   1.766  12.435 -0.1438 -0.7424  0.1119
  734MPD2    C110898   0.325   1.639  12.410 -0.6954 -0.0173  0.1852
  734MPD2    C210899   0.355   1.590  12.284  0.4724  0.8712  0.2032
  734MPD2    C310900   0.403   1.673  12.189 -1.2548  0.2606 -0.7605
  734MPD2    C410901   0.436   1.800  12.218  0.2545 -0.4225  0.1560
  734MPD2    C510902   0.398   1.852  12.338 -1.2322 -0.2512 -0.2784
  734MPD2     H10903   0.341   1.485  12.262 -0.2396  0.8727  0.6441
  734MPD2    H110904   0.494   1.864  12.153 -1.6286  0.3854 -0.7233
  734MPD2    H210905   0.338   1.800  12.537  2.1612 -0.8771  0.5482
  734MPD2    H310906   0.415   1.957  12.362 -2.8006 -0.2666  0.9162
  734MPD2     N10907   0.436   1.608  12.066  0.8860 -0.2661  0.3221
  734MPD2    H510908   0.416   1.509  12.056  1.5168 -0.3142 -0.4983
  734MPD2    N110909   0.292   1.560  12.521  0.5788  0.3853 -0.0856
  734MPD2    H710910   0.307   1.592  12.616  1.7012 -0.7067  0.1010
  735TMC3    C110911   0.216   1.350  12.629  0.6279  0.0554 -0.3835
  735TMC3    C210912   0.163   1.233  12.590 -0.0192  0.1339  0.1140
  735TMC3    C310913   0.240   1.121  12.621 -0.2350  0.1471 -1.0925
  735TMC3    C410914   0.315   1.360  12.725  0.1143  0.6063  0.1074
  735TMC3    C510915   0.388   1.246  12.756  0.2688  1.2511 -0.5698
  735TMC3    C610916   0.345   1.122  12.714  0.0058  0.9685  0.0481
  735TMC3     C10917   0.241   1.435  12.504 -0.4153 -0.3587  0.1900
  735TMC3     O10918   0.199   1.384  12.401  0.5288  0.0914  0.5151
  735TMC3     H10919   0.071   1.226  12.533  0.5516 -0.5463 -0.7060
  735TMC3    H110920   0.358   1.459  12.732  1.2732  0.1436 -0.5402
  735TMC3    H210921   0.405   1.033  12.730  0.7370  1.2637 -1.0290
  735TMC3    C710922   0.532   1.260  12.725 -0.0261  0.3023 -1.0473
  735TMC3    C810923   0.250   1.037  12.506 -0.6730 -0.3458 -0.3967
  735TMC3    O110924   0.577   1.178  12.643  0.5572 -0.6643 -0.7073
  735TMC3    O210925   0.291   0.922  12.523 -0.2613  0.2049 -0.1755
  736MPD2     C10926   0.728   1.564  12.786 -0.3949  1.3801  0.9488
  736MPD2    C110927   0.705   1.443  12.731 -0.5883 -0.5651  0.3303
  736MPD2    C210928   0.792   1.389  12.636 -0.1431  0.2866 -0.9683
  736MPD2    C310929   0.898   1.469  12.596  0.3503 -0.0755  0.1845
  736MPD2    C410930   0.921   1.586  12.666  0.1886 -0.0246 -0.2101
  736MPD2    C510931   0.839   1.643  12.753  0.3766 -0.4277  0.2971
  736MPD2     H10932   0.772   1.295  12.586  1.5827 -0.4173 -0.3323
  736MPD2    H110933   1.008   1.648  12.646  0.8328 -0.7151  0.4614
  736MPD2    H210934   0.659   1.624  12.844 -0.3014  1.9080  0.5145
  736MPD2    H310935   0.848   1.743  12.794  0.4021 -0.2836 -0.0573
  736MPD2     N10936   0.988   1.438  12.491  0.0692 -1.2183  0.1647
  736MPD2    H510937   1.067   1.502  12.480 -0.5652 -0.3053  0.9446
  736MPD2    N110938   0.585   1.380  12.779  0.0573 -0.0222 -0.0258
  736MPD2    H710939   0.527   1.444  12.832 -0.1902 -0.3660  0.1215
  737TMC3    C110940   1.077   1.326  12.302 -0.4350 -0.2603 -0.2386
  737TMC3    C210941   1.121   1.449  12.250  0.0417 -0.4125  0.5720
  737TMC3    C310942   1.209   1.450  12.142  0.6287  0.0624  0.6405
  737TMC3    C410943   1.123   1.208  12.244 -0.0991 -0.4563 -0.0611
  737TMC3    C510944   1.209   1.215  12.136 -0.5258  0.1439 -0.2051
  737TMC3    C610945   1.262   1.331  12.093  0.5357  0.5833 -0.6686
  737TMC3     C10946   0.978   1.325  12.414 -0.0906 -0.2316 -0.5613
  737TMC3     O10947   0.924   1.216  12.430  0.0864 -0.3283 -0.1150
  737TMC3     H10948   1.093   1.546  12.289 -0.0055 -0.2744  0.1920
  737TMC3    H110949   1.083   1.114  12.279  0.2510 -1.0683 -1.3243
  737TMC3    H210950   1.338   1.327  12.016  0.9146 -1.4326 -0.1872
  737TMC3    C710951   1.228   1.088  12.063 -1.2668  0.1723 -0.5380
  737TMC3    C810952   1.261   1.579  12.094  0.2909 -0.0625 -0.2115
  737TMC3    O110953   1.194   0.986  12.120  0.0134  0.6381  0.6690
  737TMC3    O210954   1.266   1.675  12.170 -0.0003  0.2856  0.1176
  738MPD2     C10955   1.415   0.672  14.904  0.8018  0.2928 -1.0489
  738MPD2    C110956   1.424   0.544  14.854 -0.6330  0.1135  0.6613
  738MPD2    C210957   1.523   0.509  14.762 -0.7771  0.5164  0.7384
  738MPD2    C310958   1.624   0.593  14.723  0.1064 -0.6697 -0.1055
  738MPD2    C410959   1.619   0.721  14.774 -0.2967  0.8342 -0.2536
  738MPD2    C510960   1.515   0.754  14.863  0.0917  0.3638 -0.5523
  738MPD2     H10961   1.530   0.407  14.726 -3.5362 -0.1207  1.9752
  738MPD2    H110962   1.703   0.784  14.747 -0.5821  1.0211 -0.7175
  738MPD2    H210963   1.337   0.705  14.972  3.3737  1.2522  1.4026
  738MPD2    H310964   1.515   0.852  14.908 -1.8927  0.4824 -0.8236
  738MPD2     N10965   1.729   0.550  14.645 -0.0963 -0.6701  0.0585
  738MPD2    H510966   1.805   0.616  14.633 -1.2453  0.2524 -2.1821
  738MPD2    N110967   1.343   0.444  14.905  0.4668  0.5901  1.0090
  738MPD2    H710968   1.357   0.347  14.878 -1.5974  0.0536  1.8534
  739TMC3    C110969   1.834   0.400  14.489 -0.7874 -0.2836 -0.4728
  739TMC3    C210970   1.817   0.355  14.363 -0.2695  0.1925 -0.5877
  739TMC3    C310971   1.881   0.236  14.327 -0.0933 -0.1097  0.8993
  739TMC3    C410972   1.906   0.330  14.588  0.1842 -0.5174 -0.2358
  739TMC3    C510973   1.964   0.218  14.550 -0.5687  0.2919 -0.0106
  739TMC3    C610974   1.954   0.166  14.425 -0.5502 -0.3638  0.1754
  739TMC3     C10975   1.715   0.448  14.550  0.1734  0.1213 -0.0995
  739TMC3     O10976   1.615   0.387  14.518 -0.3419  0.2866 -0.4357
  739TMC3     H10977   1.752   0.407  14.293  0.4213  0.1534 -1.2555
  739TMC3    H110978   1.899   0.359  14.692 -0.8662 -1.8798  0.0708
  739TMC3    H210979   1.989   0.064  14.410 -3.7883 -1.5788  0.9371
  739TMC3    C710980   2.024   0.127  14.646  0.1863  0.1581 -0.5480
  739TMC3    C810981   1.837   0.174  14.202  0.0074  0.3055  0.5474
  739TMC3    O110982   2.038   0.008  14.616  0.3497  0.1033  0.1757
  739TMC3    O210983   1.744   0.225  14.142  0.7957 -0.6408 -0.2068
  740TMC3    C110984   2.179   1.826  14.517  0.4521 -0.2787  0.4635
  740TMC3    C210985   2.187   1.740  14.622  0.4416 -0.4377  0.4108
  740TMC3    C310986   2.293   1.639  14.611 -0.7644 -0.2423  0.3677
  740TMC3    C410987   2.242   1.799  14.397  0.2357  0.1600 -0.3108
  740TMC3    C510988   2.336   1.709  14.393  1.0084 -0.2324 -0.1773
  740TMC3    C610989   2.367   1.629  14.497  0.4298  0.1242 -0.3057
  740TMC3     C10990   2.060   1.899  14.488 -1.1069 -0.1483 -0.0077
  740TMC3     O10991   2.062   1.984  14.403 -0.4438  0.0562  0.4816
  740TMC3     H10992   2.138   1.766  14.715 -1.8659  1.3009 -1.3124
  740TMC3    H110993   2.235   1.868  14.314  2.7856 -0.7618 -1.2818
  740TMC3    H210994   2.448   1.557  14.492  1.2257  0.8179  2.2709
  740TMC3    C710995   2.388   1.663  14.261  0.1737 -0.1579 -0.1008
  740TMC3    C810996   2.320   1.549  14.723  0.1895  0.0988  0.1145
  740TMC3    O110997   2.494   1.604  14.275  0.2271 -0.5076  0.4838
  740TMC3    O210998   2.410   1.469  14.706 -0.4729  0.2393  0.5103
  741TMC3    C110999   1.528   0.972  13.833  0.6551  0.4720  0.4094
  741TMC3    C211000   1.416   0.896  13.850 -0.1613 -0.1660  0.4867
  741TMC3    C311001   1.432   0.760  13.862 -0.0097 -0.7771 -0.5626
  741TMC3    C411002   1.650   0.908  13.821  0.1035  0.3202 -0.4043
  741TMC3    C511003   1.659   0.774  13.849  0.4781  0.3501  0.2001
  741TMC3    C611004   1.548   0.697  13.861 -0.1751 -0.1345  0.3174
  741TMC3     C11005   1.522   1.092  13.750 -0.3296 -0.0776 -0.1701
  741TMC3     O11006   1.612   1.104  13.671  0.7055  0.0293 -0.2631
  741TMC3     H11007   1.317   0.940  13.859 -0.1896 -0.2451  0.5699
  741TMC3    H111008   1.744   0.957  13.799  0.3923  0.6193  1.5089
  741TMC3    H211009   1.548   0.588  13.865  0.1804 -0.0999  1.3292
  741TMC3    C711010   1.793   0.714  13.825 -0.5023 -0.5088  0.0633
  741TMC3    C811011   1.303   0.690  13.892  0.0707  1.2970  0.2586
  741TMC3    O111012   1.873   0.782  13.768  0.0000 -0.9699  0.0943
  741TMC3    O211013   1.201   0.759  13.889 -0.6026  0.1962  0.4734
  742TMC3    C111014   1.546   4.271  15.246  0.1058  0.1723 -0.1215
  742TMC3    C211015   1.478   4.248  15.129  0.2188  0.5264  0.6131
  742TMC3    C311016   1.535   4.159  15.040  0.2754 -0.1049 -0.6671
  742TMC3    C411017   1.673   4.238  15.264 -0.3593  0.3463  0.8999
  742TMC3    C511018   1.731   4.178  15.165  0.3099  0.2033  0.3450
  742TMC3    C611019   1.667   4.137  15.052 -0.2159  0.4263  0.0810
  742TMC3     C11020   1.471   4.334  15.353 -0.2475  0.2284 -0.5829
  742TMC3     O11021   1.382   4.402  15.306 -0.3811 -0.1699 -0.2250
  742TMC3     H11022   1.370   4.257  15.133  0.1908 -0.3570  1.9952
  742TMC3    H111023   1.731   4.255  15.355 -0.5492 -0.2432  1.1340
  742TMC3    H211024   1.716   4.067  14.985  1.9978 -0.4515  2.6169
  742TMC3    C711025   1.878   4.160  15.165  0.8139 -1.1460 -0.4360
  742TMC3    C811026   1.461   4.105  14.922 -0.1150  0.4097 -0.2236
  742TMC3    O111027   1.920   4.072  15.093  0.5418  0.1021  0.0465
  742TMC3    O211028   1.526   4.032  14.846 -0.6449  0.0715  0.7219
  743MPD2     C11029   4.050   0.877   1.744 -0.6555 -0.1465 -0.1686
  743MPD2    C111030   3.994   0.823   1.639  0.1564  0.2730  0.7993
  743MPD2    C211031   4.080   0.744   1.557  0.2215  0.4372 -0.2723
  743MPD2    C311032   4.214   0.721   1.582 -0.2409  0.0004  0.1115
  743MPD2    C411033   4.262   0.777   1.700  0.5468 -0.2321 -0.3883
  743MPD2    C511034   4.183   0.860   1.777 -0.2697 -0.1540  0.5642
  743MPD2     H11035   4.047   0.696   1.466  1.3482  1.1378 -1.0595
  743MPD2    H111036   4.364   0.762   1.733  0.1236 -0.7416  0.6756
  743MPD2    H211037   3.992   0.936   1.814  0.1327  1.9088 -1.2157
  743MPD2    H311038   4.227   0.910   1.863 -1.0807  1.0712  0.2694
  743MPD2     N11039   4.289   0.651   1.475  0.2413  1.1579  0.0906
  743MPD2    H511040   4.241   0.629   1.388 -1.1836  0.2408  1.1010
  743MPD2    N111041   3.867   0.875   1.593 -0.5796  0.1489  0.2212
  743MPD2    H711042   3.832   0.964   1.628  0.8990  0.9119 -0.2647
  744TMC3    C111043   3.683   0.886   1.451 -0.2467  0.1150 -0.5940
  744TMC3    C211044   3.660   1.009   1.495 -0.0251  1.0074 -0.2544
  744TMC3    C311045   3.605   1.105   1.411  0.5427  0.1859 -0.4832
  744TMC3    C411046   3.630   0.837   1.335  0.2703  0.5580 -0.0344
  744TMC3    C511047   3.581   0.935   1.250 -0.5621  0.0433  0.3406
  744TMC3    C611048   3.559   1.066   1.288 -0.0652  0.5279 -0.1629
  744TMC3     C11049   3.791   0.804   1.496  0.2328 -0.1340  0.4802
  744TMC3     O11050   3.799   0.690   1.455 -0.2277  0.0010 -0.3161
  744TMC3     H11051   3.676   1.032   1.599 -1.5790  1.7545 -0.1803
  744TMC3    H111052   3.650   0.738   1.296 -0.2317 -0.6077  2.6769
  744TMC3    H211053   3.517   1.132   1.213  0.1995  1.2073  0.2922
  744TMC3    C711054   3.585   0.920   1.102  0.3170 -0.5206 -0.0946
  744TMC3    C811055   3.601   1.246   1.441  0.3965  0.1523  0.0284
  744TMC3    O111056   3.589   1.024   1.041 -0.1789 -0.4198  0.5621
  744TMC3    O211057   3.558   1.319   1.351  0.4834  0.2591 -0.0193
  745TMC3    C111058   1.984   3.491  13.263  0.2830 -0.1245  0.9506
  745TMC3    C211059   1.862   3.439  13.282 -0.0928 -0.0319 -0.3762
  745TMC3    C311060   1.758   3.492  13.211  0.0725  0.3979  0.0016
  745TMC3    C411061   2.012   3.596  13.181  0.1629 -0.4686  0.1819
  745TMC3    C511062   1.907   3.659  13.127  0.5749 -0.6366  0.0121
  745TMC3    C611063   1.783   3.605  13.142 -0.1038 -0.1268 -0.7944
  745TMC3     C11064   2.034   3.516  13.396  0.4144 -0.8055  0.0417
  745TMC3     O11065   1.945   3.491  13.472 -0.2674  0.1193  0.7319
  745TMC3     H11066   1.851   3.342  13.328 -1.7805  1.6106  2.6932
  745TMC3    H111067   2.116   3.623  13.162 -0.1461  1.9053  1.7695
  745TMC3    H211068   1.703   3.659  13.094 -0.8050 -1.3542 -1.0105
  745TMC3    C711069   1.923   3.746  13.011 -0.2830  0.2133  0.0484
  745TMC3    C811070   1.647   3.513  13.300  0.2224  0.2444 -0.0590
  745TMC3    O111071   1.849   3.735  12.907 -0.1806  0.0109 -0.1995
  745TMC3    O211072   1.542   3.566  13.262 -0.0123  0.2363 -0.3701
  746TMC3    C111073   0.111   0.558  10.824  0.7042  0.0443  0.7648
  746TMC3    C211074   0.120   0.545  10.692 -0.5580  0.9809 -0.2306
  746TMC3    C311075   0.018   0.481  10.620 -0.9443  0.5076 -0.0784
  746TMC3    C411076   0.001   0.513  10.891  0.3525  0.3280  0.2268
  746TMC3    C511077   4.641   0.444  10.828  0.2914 -0.1334  0.3324
  746TMC3    C611078   4.645   0.429  10.692  0.5386 -0.4276  0.2769
  746TMC3     C11079   0.160   0.681  10.874  0.1765  0.3496 -0.5265
  746TMC3     O11080   0.202   0.688  10.989  0.1473 -0.5750  0.7821
  746TMC3     H11081   0.213   0.576  10.645 -0.5994 -1.2799 -1.7567
  746TMC3    H111082   4.731   0.528  10.998 -1.7395 -0.2311  0.1892
  746TMC3    H211083   4.572   0.362  10.647  1.5590 -0.8502 -0.7555
  746TMC3    C711084   4.506   0.485  10.873  0.3382  0.2645  1.1834
  746TMC3    C811085   4.711   0.580  10.522  0.2760 -0.2638 -0.0175
  746TMC3    O111086   4.411   0.409  10.884  0.2585  0.2105 -0.5070
  746TMC3    O211087   0.024   0.693  10.538 -0.3252  0.4660 -0.2345
  747TMC3    C111088   1.923   1.051  11.253  0.2153 -0.0787 -0.4225
  747TMC3    C211089   1.818   0.978  11.318 -0.1032  0.7241  0.0829
  747TMC3    C311090   1.804   1.003  11.456  0.3643 -0.8749  0.5517
  747TMC3    C411091   2.001   1.146  11.314 -0.6193  0.3683 -0.1336
  747TMC3    C511092   1.987   1.159  11.451  0.1511 -0.3361  0.5517
  747TMC3    C611093   1.890   1.092  11.519 -0.3784  0.3143  0.1845
  747TMC3     C11094   1.900   1.089  11.114 -0.4021 -0.4163  0.0643
  747TMC3     O11095   1.925   1.206  11.076 -0.0616  0.5139 -0.0014
  747TMC3     H11096   1.763   0.900  11.267  2.1905 -0.7971 -0.0436
  747TMC3    H111097   2.074   1.203  11.257 -1.4030  1.2687 -0.2474
  747TMC3    H211098   1.885   1.111  11.626  1.4737 -0.0432  0.3283
  747TMC3    C711099   2.070   1.250  11.529 -0.3476 -0.4413  0.4308
  747TMC3    C811100   1.695   0.926  11.524  0.4134  0.5450 -0.3857
  747TMC3    O111101   2.038   1.287  11.641  0.3737  0.2345 -0.4034
  747TMC3    O211102   1.678   0.814  11.480  0.2915  0.2889 -0.2166
  748MPD2     C11103   3.358   2.344   1.345 -0.0810 -0.0481 -0.4006
  748MPD2    C111104   3.385   2.380   1.215 -0.6705  0.3148  0.1398
  748MPD2    C211105   3.512   2.421   1.172 -0.2753  0.2740 -0.4522
  748MPD2    C311106   3.608   2.426   1.267  0.2205  0.7538 -0.3352
  748MPD2    C411107   3.576   2.404   1.405 -0.0079 -0.4746  0.6041
  748MPD2    C511108   3.450   2.363   1.434  0.1359 -0.2552  0.3050
  748MPD2     H11109   3.528   2.443   1.067  0.9142 -0.7485 -0.4721
  748MPD2    H111110   3.634   2.423   1.494 -0.6239 -1.7065  1.2691
  748MPD2    H211111   3.263   2.301   1.376 -0.0624  0.1255 -0.0956
  748MPD2    H311112   3.433   2.347   1.540  2.4838 -0.3367  0.6879
  748MPD2     N11113   3.738   2.467   1.226 -0.3484  0.3279 -0.7690
  748MPD2    H511114   3.756   2.475   1.126 -3.1032 -1.6208 -1.4448
  748MPD2    N111115   3.276   2.373   1.129 -0.1263  0.5670  0.2729
  748MPD2    H711116   3.188   2.351   1.174  0.8838  1.1182  2.5195
  749TMC3    C111117   3.964   2.498   1.245 -0.6309  0.3895  0.2849
  749TMC3    C211118   4.071   2.464   1.324  0.4075 -0.1209 -0.4178
  749TMC3    C311119   4.178   2.546   1.326  0.2465  0.1078  0.3765
  749TMC3    C411120   3.965   2.602   1.157  0.3335  0.9273 -1.2353
  749TMC3    C511121   4.078   2.679   1.153 -0.1334 -0.1101 -0.2938
  749TMC3    C611122   4.187   2.657   1.240  0.5589 -0.2902 -0.6354
  749TMC3     C11123   3.844   2.475   1.314  0.1142  0.6897 -0.4116
  749TMC3     O11124   3.854   2.464   1.434  0.4247  0.2098  0.2976
  749TMC3     H11125   4.069   2.376   1.387  1.4193 -0.3974 -0.7872
  749TMC3    H111126   3.878   2.631   1.099 -0.8689 -0.6553 -0.2176
  749TMC3    H211127   4.273   2.721   1.224  0.8359 -0.2534  0.9629
  749TMC3    C711128   4.091   2.790   1.048 -0.1032 -0.3407 -0.0077
  749TMC3    C811129   4.313   2.486   1.367  0.2517 -0.5527 -0.0551
  749TMC3    O111130   4.177   2.873   1.074 -0.2140 -0.6977 -1.0512
  749TMC3    O211131   4.404   2.557   1.411  0.0785  0.0996 -0.3664
  750MPD2     C11132   4.506   2.596  11.226 -0.2795  0.0802  0.7050
  750MPD2    C111133   4.381   2.573  11.263  0.2753  0.4005 -0.0005
  750MPD2    C211134   4.306   2.492  11.181 -0.0649 -0.0583  0.3876
  750MPD2    C311135   4.361   2.432  11.070  0.1609 -0.1355  0.0501
  750MPD2    C411136   4.484   2.467  11.034 -0.4623 -0.3155 -0.0965
  750MPD2    C511137   4.559   2.541  11.117 -0.2050  0.3974  0.5765
  750MPD2     H11138   4.208   2.456  11.210 -0.3416 -0.0030 -0.4786
  750MPD2    H111139   4.533   2.425  10.947  0.6513  0.2315  0.2569
  750MPD2    H211140   4.576   2.649  11.290  0.5821 -0.9602  0.6385
  750MPD2    H311141   4.664   2.554  11.091 -0.4405  2.3189  0.5792
  750MPD2     N11142   4.300   2.329  10.992  0.5267  0.4684  0.2117
  750MPD2    H511143   4.345   2.296  10.907 -2.2674 -2.2661 -0.2102
  750MPD2    N111144   4.344   2.632  11.387 -0.9779 -0.0949 -0.0444
  750MPD2    H711145   4.407   2.698  11.431 -1.2276  0.8542 -1.1379
  751TMC3    C111146   4.112   2.182  10.931  0.4698  0.2128 -0.3245
  751TMC3    C211147   3.987   2.128  10.970  0.4682 -0.6244  0.1388
  751TMC3    C311148   3.927   2.041  10.882 -0.9288  0.4211  0.6143
  751TMC3    C411149   4.180   2.128  10.825  0.1918  0.2938 -0.1803
  751TMC3    C511150   4.110   2.043  10.742  0.5816 -0.3693  0.1969
  751TMC3    C611151   3.982   2.001  10.769 -1.0161  0.7077 -0.6303
  751TMC3     C11152   4.176   2.273  11.023  0.6335 -0.0551  0.3442
  751TMC3     O11153   4.095   2.304  11.111  0.0959  0.9981 -0.1095
  751TMC3     H11154   3.934   2.153  11.061 -2.0756  0.5508 -1.6527
  751TMC3    H111155   4.275   2.160  10.786  0.9843  0.8013  2.1452
  751TMC3    H211156   3.928   1.937  10.700  1.3567 -0.9881 -0.9194
  751TMC3    C711157   4.181   1.974  10.633  0.2260 -0.3128  0.2437
  751TMC3    C811158   3.798   1.975  10.910  0.3760 -0.8200  0.3554
  751TMC3    O111159   4.266   2.043  10.587  0.1515 -0.2246  0.4393
  751TMC3    O211160   3.778   1.863  10.856  0.0718  0.7969 -0.6330
  752TMC3    C111161   3.532   3.686  17.146  0.3914 -0.4400 -0.5810
  752TMC3    C211162   3.468   3.579  17.202  0.2691  0.7808 -0.2944
  752TMC3    C311163   3.421   3.592  17.331 -0.4952 -0.6569  0.3240
  752TMC3    C411164   3.534   3.805  17.211  0.0499  0.3738  0.2853
  752TMC3    C511165   3.485   3.817  17.336  0.3232  0.5633  0.3893
  752TMC3    C611166   3.430   3.711  17.401 -0.5228  0.3717  0.0425
  752TMC3     C11167   3.573   3.685  17.007 -0.7451 -0.7001 -0.3637
  752TMC3     O11168   3.655   3.768  16.970  0.4863  0.2219 -0.2510
  752TMC3     H11169   3.474   3.481  17.155 -1.1422  0.2591  0.6096
  752TMC3    H111170   3.566   3.896  17.162  0.8768  0.4765  1.0139
  752TMC3    H211171   3.405   3.726  17.505  1.3010  1.7459  0.2835
  752TMC3    C711172   3.467   3.958  17.384  0.8561 -0.4333 -0.0271
  752TMC3    C811173   3.358   3.475  17.397  0.2250 -0.3804  0.4869
  752TMC3    O111174   3.521   4.048  17.328 -0.0531  0.2924  0.0040
  752TMC3    O211175   3.336   3.377  17.323  0.1183  0.1116  0.1476
  753TMC3    C111176   0.286   3.573  13.638 -0.9194 -0.4947  0.4203
  753TMC3    C211177   0.377   3.561  13.735  0.4794  0.4092  0.4246
  753TMC3    C311178   0.485   3.478  13.722  0.0762 -0.1849 -0.1876
  753TMC3    C411179   0.277   3.492  13.530  0.5906  0.1450  0.6939
  753TMC3    C511180   0.383   3.393  13.526 -0.3443  0.2318  0.0176
  753TMC3    C611181   0.487   3.392  13.612 -0.3960  0.1505 -0.7102
  753TMC3     C11182   0.211   3.693  13.649  0.8071  0.2741 -0.1573
  753TMC3     O11183   0.160   3.711  13.761  0.3891 -0.4628 -0.0292
  753TMC3     H11184   0.380   3.633  13.817 -2.5030  1.3649 -0.3153
  753TMC3    H111185   0.197   3.493  13.457  0.3047 -1.3207  0.9758
  753TMC3    H211186   0.554   3.307  13.615 -1.7542 -0.8854  0.0736
  753TMC3    C711187   0.403   3.297  13.419  0.0475 -0.2898 -0.3589
  753TMC3    C811188   0.596   3.464  13.824  0.3913 -0.1388  0.2207
  753TMC3    O111189   0.514   3.282  13.366 -0.5121 -0.6391 -0.1773
  753TMC3    O211190   0.689   3.392  13.785  0.1687  0.2046  0.0724
  754MPD2     C11191   3.846   2.051  12.879  0.3629 -0.0649  0.7700
  754MPD2    C111192   3.749   2.148  12.894  1.0147 -0.0482 -0.0307
  754MPD2    C211193   3.730   2.254  12.806  0.6787  0.8779 -0.1532
  754MPD2    C311194   3.815   2.266  12.698  0.1029 -0.1270  0.0632
  754MPD2    C411195   3.909   2.169  12.682  0.0737 -0.3803  0.6804
  754MPD2    C511196   3.922   2.057  12.764 -0.1614  0.1738  0.1600
  754MPD2     H11197   3.654   2.329  12.823 -0.0408 -0.2084  1.4622
  754MPD2    H111198   3.966   2.166  12.590 -0.8842 -1.2156  0.1124
  754MPD2    H211199   3.862   1.963  12.940 -1.5180  0.1719  1.5967
  754MPD2    H311200   3.992   1.978  12.738  2.4905  2.6066 -0.1242
  754MPD2     N11201   3.820   2.373  12.609 -0.1010 -0.4294  0.1881
  754MPD2    H511202   3.901   2.370  12.548 -0.9231 -0.7008 -0.8707
  754MPD2    N111203   3.668   2.129  13.010  0.5202 -0.2998 -0.4219
  754MPD2    H711204   3.691   2.053  13.074  0.3974 -0.7278 -0.8876
  755MPD2     C11205   3.131   3.088  12.959 -0.3681 -0.5714 -0.1834
  755MPD2    C111206   3.060   2.996  12.890 -0.2887  0.3055 -0.2114
  755MPD2    C211207   3.123   2.897  12.822 -0.7095 -0.1475 -0.4578
  755MPD2    C311208   3.262   2.899  12.831 -0.4635  0.4012  0.5176
  755MPD2    C411209   3.330   3.003  12.878  0.2976  0.6862 -0.0038
  755MPD2    C511210   3.262   3.100  12.944  0.5155  0.0779  0.6184
  755MPD2     H11211   3.060   2.830  12.764  0.2950 -0.7187 -0.8778
  755MPD2    H111212   3.434   3.018  12.849  0.1906  0.5791 -0.4314
  755MPD2    H211213   3.088   3.175  13.006 -2.3360 -0.9312 -1.2976
  755MPD2    H311214   3.329   3.179  12.975  0.8852 -1.4352  3.6965
  755MPD2     N11215   3.350   2.796  12.771 -0.8797  0.3099 -0.0446
  755MPD2    H511216   3.451   2.793  12.777 -0.7736  0.5341 -1.6175
  755MPD2    N111217   2.914   2.988  12.894  0.7257 -0.0524  0.3198
  755MPD2    H711218   2.869   2.922  12.832  0.3630 -1.3725  1.9802
  756MPD2     C11219   3.368   3.183   9.642 -0.4955  0.0418  0.0123
  756MPD2    C111220   3.296   3.172   9.759  0.0542  0.3221  0.1658
  756MPD2    C211221   3.159   3.193   9.756 -0.0858  0.0716 -0.9485
  756MPD2    C311222   3.093   3.221   9.644  0.8403  0.0156 -0.5204
  756MPD2    C411223   3.159   3.236   9.527 -0.0912  0.5481  0.7903
  756MPD2    C511224   3.296   3.223   9.528 -0.2969 -0.1207 -0.8305
  756MPD2     H11225   3.107   3.185   9.851  2.4492 -3.0232  0.2084
  756MPD2    H111226   3.112   3.257   9.432  0.5119  2.4814  0.9134
  756MPD2    H211227   3.476   3.172   9.632 -0.3153  1.9392 -0.0667
  756MPD2    H311228   3.348   3.221   9.432 -1.9085 -0.2894 -1.7020
  756MPD2     N11229   2.957   3.258   9.652 -0.4591  0.7018 -0.0988
  756MPD2    H511230   2.911   3.235   9.739 -0.5049 -0.9131 -0.5448
  756MPD2    N111231   3.357   3.126   9.876 -0.4143 -0.5087  0.8744
  756MPD2    H711232   3.303   3.131   9.962  1.8789 -1.3195  2.3663
  757MPD2     C11233   2.366   2.792  10.073  0.0359  0.2225  0.2083
  757MPD2    C111234   2.491   2.780  10.012 -0.4685  1.3480  0.3536
  757MPD2    C211235   2.541   2.885   9.934 -0.0037 -0.2972  0.1213
  757MPD2    C311236   2.481   3.001   9.936 -0.9472  0.2059  0.0003
  757MPD2    C411237   2.366   3.022  10.003  0.2253 -0.0691  0.4562
  757MPD2    C511238   2.308   2.914  10.068  0.1937 -0.3437  0.7836
  757MPD2     H11239   2.628   2.883   9.869  0.4850  0.5413  0.7477
  757MPD2    H111240   2.314   3.117  10.010 -1.7601 -1.1605  0.5724
  757MPD2    H211241   2.314   2.711  10.122  0.9181 -0.9949 -0.8650
  757MPD2    H311242   2.214   2.932  10.119  0.1905 -1.3863  1.1501
  757MPD2     N11243   2.538   3.098   9.854 -0.1682 -0.0219  0.6337
  757MPD2    H511244   2.632   3.094   9.816 -0.4741  2.0209 -0.3529
  757MPD2    N111245   2.550   2.649  10.021 -0.2308  0.3263  0.3016
  757MPD2    H711246   2.508   2.577  10.080  0.2631 -1.7888 -1.9239
  758MPD2     C11247   3.960   2.564  15.565 -0.2745  0.0591 -0.3874
  758MPD2    C111248   3.976   2.459  15.656 -0.1226 -0.4350 -0.4312
  758MPD2    C211249   3.946   2.484  15.789 -0.0407  0.0991  0.4667
  758MPD2    C311250   3.910   2.609  15.834 -0.2365  0.6054  0.2759
  758MPD2    C411251   3.900   2.712  15.745  0.3519  0.5598 -0.1471
  758MPD2    C511252   3.925   2.690  15.608  0.1849  0.1543 -0.3708
  758MPD2     H11253   3.975   2.413  15.864 -0.4738 -1.3254 -0.7132
  758MPD2    H111254   3.871   2.814  15.767  1.0091  1.3991 -3.1696
  758MPD2    H211255   3.991   2.557  15.462 -0.8768 -1.1001 -0.4971
  758MPD2    H311256   3.920   2.773  15.539  0.5121 -0.3015 -0.9394
  758MPD2     N11257   3.902   2.647  15.974 -0.3009  0.0589  0.4551
  758MPD2    H511258   3.882   2.743  15.997  2.8090  0.2367  2.3228
  758MPD2    N111259   4.029   2.335  15.622 -0.0156 -0.7531  0.1810
  758MPD2    H711260   4.038   2.270  15.700 -0.0798 -0.4279  0.4566
  759MPD2     C11261   2.656   0.520  10.510 -0.1095 -0.1247  0.0743
  759MPD2    C111262   2.726   0.402  10.489  0.5346  0.4708 -0.6716
  759MPD2    C211263   2.805   0.398  10.384 -0.1621 -0.3510  0.4797
  759MPD2    C311264   2.836   0.501  10.308  0.0822 -0.4631  0.1430
  759MPD2    C411265   2.785   0.621  10.346 -0.1213  0.4612  0.4794
  759MPD2    C511266   2.701   0.635  10.454  0.1669  0.0022 -0.9079
  759MPD2     H11267   2.852   0.304  10.356  1.0338  0.2444  0.5036
  759MPD2    H111268   2.816   0.708  10.289  2.0647 -1.6013 -1.5217
  759MPD2    H211269   2.579   0.530  10.586 -0.5036  1.9382 -0.5895
  759MPD2    H311270   2.657   0.729  10.485 -0.2409 -0.6621  0.5340
  759MPD2     N11271   2.924   0.473  10.195  0.4645  0.1488  0.6319
  759MPD2    H511272   2.952   0.376  10.188 -1.1727 -0.2555 -0.2571
  759MPD2    N111273   2.685   0.286  10.564 -0.4167  0.4306  0.2602
  759MPD2    H711274   2.622   0.304  10.641 -1.0248  0.1827 -0.1788
  760MPD2     C11275   2.057   2.975  12.190 -0.7577  0.3904  0.3011
  760MPD2    C111276   2.187   2.972  12.141 -0.4055 -0.0680 -0.4607
  760MPD2    C211277   2.252   2.857  12.102  0.2452 -0.1290 -0.4440
  760MPD2    C311278   2.177   2.736  12.114 -0.0119 -0.6197 -0.6812
  760MPD2    C411279   2.046   2.738  12.173  0.5319 -0.1217  0.1941
  760MPD2    C511280   1.983   2.858  12.193  0.2973 -0.1465  0.4795
  760MPD2     H11281   2.354   2.855  12.065 -0.3455  0.3175 -2.1090
  760MPD2    H111282   1.980   2.651  12.178 -0.8975  0.9990  0.7117
  760MPD2    H211283   2.009   3.071  12.204  0.2797  0.9189  0.1825
  760MPD2    H311284   1.878   2.867  12.217 -0.3676  1.6436 -3.0740
  760MPD2     N11285   2.237   2.609  12.091  0.1946  0.3090  0.0818
  760MPD2    H511286   2.167   2.536  12.100  0.0941  0.4235  0.2157
  760MPD2    N111287   2.258   3.088  12.111  0.2364  0.3467  0.3273
  760MPD2    H711288   2.344   3.071  12.059 -2.1118 -0.8655 -3.1361
  761MPD2     C11289   3.398   1.909  11.219 -0.5204 -0.1200  0.6331
  761MPD2    C111290   3.457   1.820  11.137 -0.3114  0.8738  0.6705
  761MPD2    C211291   3.563   1.866  11.062  0.3100 -0.4155  0.3251
  761MPD2    C311292   3.612   1.989  11.075 -0.1444 -0.1140 -0.3457
  761MPD2    C411293   3.548   2.075  11.163  0.3899  0.1485 -0.4801
  761MPD2    C511294   3.443   2.036  11.239 -0.3017 -0.3329 -0.7110
  761MPD2     H11295   3.621   1.795  11.004 -0.7085  0.4464 -1.7451
  761MPD2    H111296   3.577   2.179  11.176  0.5610  0.1147 -0.5762
  761MPD2    H211297   3.318   1.871  11.282 -0.2148  2.3286  2.4658
  761MPD2    H311298   3.416   2.107  11.317  1.4352 -0.1739 -0.2520
  761MPD2     N11299   3.723   2.042  11.010  0.2197  0.0104  0.1944
  761MPD2    H511300   3.760   2.129  11.048 -1.0349  1.0155 -0.8694
  761MPD2    N111301   3.415   1.689  11.132 -0.6138 -0.1797  0.4780
  761MPD2    H711302   3.370   1.656  11.218  0.0174 -0.8588  0.5457
  762MPD2     C11303   4.154   1.325  11.148 -0.2760 -0.3437  0.5537
  762MPD2    C111304   4.064   1.332  11.041 -0.2258 -0.6305  0.1592
  762MPD2    C211305   4.114   1.325  10.908  0.5259  0.4865 -0.4186
  762MPD2    C311306   4.246   1.333  10.885 -0.0701  0.4019  0.4625
  762MPD2    C411307   4.335   1.331  10.987 -0.5388 -0.4423 -0.3842
  762MPD2    C511308   4.292   1.333  11.113  0.1229 -0.6904  0.0156
  762MPD2     H11309   4.041   1.327  10.828 -0.1545 -2.7918  0.0854
  762MPD2    H111310   4.442   1.327  10.971 -0.6884 -2.3323 -0.8918
  762MPD2    H211311   4.129   1.336  11.252 -1.6747 -0.0982  0.1890
  762MPD2    H311312   4.365   1.330  11.193  1.2886  1.3582 -0.9725
  762MPD2     N11313   4.294   1.349  10.749 -0.8247 -0.1447  0.1616
  762MPD2    H511314   4.224   1.331  10.678 -0.9188 -1.5149  0.6164
  762MPD2    N111315   3.928   1.342  11.080 -0.3209  0.5350  0.0973
  762MPD2    H711316   3.908   1.349  11.180 -1.5276 -0.5985 -0.0735
  763MPD2     C11317   0.885   2.275  16.249 -0.0817 -0.2016 -0.4052
  763MPD2    C111318   0.944   2.331  16.138  0.6165  0.1873  0.6021
  763MPD2    C211319   1.005   2.456  16.153  0.6101 -0.4674 -0.1694
  763MPD2    C311320   1.013   2.528  16.272 -0.1670 -0.4507  0.0252
  763MPD2    C411321   0.959   2.462  16.382  0.5957  0.5207 -0.5703
  763MPD2    C511322   0.884   2.349  16.366  0.2094 -0.5264  0.0354
  763MPD2     H11323   1.037   2.508  16.063 -1.0561  1.6276  0.4308
  763MPD2    H111324   0.969   2.492  16.485 -0.0563  0.8066 -0.5915
  763MPD2    H211325   0.838   2.179  16.261  0.3765 -0.2927  0.6878
  763MPD2    H311326   0.855   2.301  16.459 -0.8135 -0.5723 -0.3052
  763MPD2     N11327   1.085   2.649  16.274 -0.0757  0.5165  0.1339
  763MPD2    H511328   1.138   2.679  16.193  0.5916 -1.0225  0.0105
  763MPD2    N111329   0.940   2.274  16.004 -0.6953 -0.4201 -0.1891
  763MPD2    H711330   0.987   2.323  15.929 -1.3138 -0.6191 -0.7061
  764MPD2     C11331   4.208   4.249  17.198  0.4793 -1.4572  0.1556
  764MPD2    C111332   4.080   4.292  17.183  0.1679  0.3378 -0.1950
  764MPD2    C211333   4.001   4.297  17.296 -0.1618  0.0176  0.4953
  764MPD2    C311334   4.046   4.259  17.423 -0.4658  0.2744  0.2062
  764MPD2    C411335   4.173   4.203  17.427  0.0425 -0.4528  0.3682
  764MPD2    C511336   4.252   4.208  17.319 -0.4299  0.2161 -0.4131
  764MPD2     H11337   3.900   4.333  17.285 -0.9976 -2.8821 -1.0864
  764MPD2    H111338   4.215   4.156  17.516  0.6570 -4.0944 -1.8401
  764MPD2    H211339   4.287   4.245  17.123 -0.3495  1.5526 -0.8969
  764MPD2    H311340   4.356   4.181  17.331 -0.6836 -0.7160 -0.3263
  764MPD2     N11341   3.961   4.278  17.535 -0.2603 -0.6391 -0.5047
  764MPD2    H511342   3.874   4.327  17.514  0.3956  1.0034  0.6457
  764MPD2    N111343   4.022   4.330  17.058 -0.7994  0.0011  0.5913
  764MPD2    H711344   3.928   4.370  17.061 -0.4783  0.9214 -1.9616
  765MPD2     C11345   3.634   1.738  15.436  0.3207  0.0821  0.7096
  765MPD2    C111346   3.723   1.820  15.497 -0.4908  1.2917 -0.3627
  765MPD2    C211347   3.857   1.776  15.506 -0.0629  0.2602 -0.3301
  765MPD2    C311348   3.897   1.654  15.455  0.5755 -0.1129  0.2913
  765MPD2    C411349   3.799   1.578  15.398  0.7843 -0.2702  0.2648
  765MPD2    C511350   3.675   1.618  15.388  0.0721 -0.0174 -0.2333
  765MPD2     H11351   3.933   1.840  15.550 -0.1826  1.3697 -1.7512
  765MPD2    H111352   3.818   1.487  15.343  0.6004 -0.7792  1.0369
  765MPD2    H211353   3.530   1.766  15.430  0.6530  0.4707 -3.2176
  765MPD2    H311354   3.605   1.553  15.336 -0.6980  0.9941 -0.4739
  765MPD2     N11355   4.038   1.612  15.449 -0.2020  0.1835  0.2194
  765MPD2    H511356   4.112   1.663  15.496 -1.2203  1.4119  0.4711
  765MPD2    N111357   3.664   1.940  15.555  0.1718 -0.2422 -0.3089
  765MPD2    H711358   3.564   1.950  15.564 -0.0300 -0.6549 -2.2477
  766MPD2     C11359   2.999   2.064  15.415 -0.6314  0.1655  0.0399
  766MPD2    C111360   3.129   2.033  15.434 -0.3722  0.2392  0.2559
  766MPD2    C211361   3.185   1.936  15.351 -0.1174  0.1022 -0.6211
  766MPD2    C311362   3.111   1.895  15.241  0.1185 -0.0843  0.5182
  766MPD2    C411363   2.981   1.937  15.220 -0.1591  0.0211 -0.0644
  766MPD2    C511364   2.924   2.024  15.303  0.2796  0.0011  0.9551
  766MPD2     H11365   3.292   1.922  15.360 -0.1822  0.8593  1.2349
  766MPD2    H111366   2.926   1.904  15.132  0.2033  0.2245 -0.3671
  766MPD2    H211367   2.943   2.136  15.474 -1.9661 -2.1285  1.5652
  766MPD2    H311368   2.823   2.057  15.281  0.6077 -0.0706 -0.6786
  766MPD2     N11369   3.159   1.815  15.131  0.3859  0.8017  0.4350
  766MPD2    H511370   3.102   1.811  15.047 -0.1068  2.3839  0.6928
  766MPD2    N111371   3.215   2.109  15.523 -0.3002 -0.1317  0.2696
  766MPD2    H711372   3.169   2.190  15.565 -0.3441  0.0342 -0.0984
  767MPD2     C11373   2.798   2.056  14.964  0.1855 -0.4574  0.1862
  767MPD2    C111374   2.918   2.051  14.904 -0.1665 -0.2878 -0.5919
  767MPD2    C211375   2.936   1.981  14.789 -0.1657  0.0414  0.7863
  767MPD2    C311376   2.830   1.911  14.735 -0.3409 -0.3097 -0.2358
  767MPD2    C411377   2.703   1.913  14.805  0.0346 -0.2855 -0.1631
  767MPD2    C511378   2.693   1.992  14.917  0.1239  0.7293  0.6833
  767MPD2     H11379   3.027   1.987  14.732 -1.4480  1.7561 -1.0686
  767MPD2    H111380   2.616   1.859  14.771  0.8015 -0.2055 -2.2411
  767MPD2    H211381   2.786   2.119  15.051 -1.5401 -0.0803 -0.3111
  767MPD2    H311382   2.598   1.991  14.970 -0.3771  0.5862 -0.2090
  767MPD2     N11383   2.857   1.852  14.610 -0.9429  0.0405  0.2044
  767MPD2    H511384   2.951   1.824  14.587  1.0553  6.0093  1.0051
  767MPD2    N111385   3.022   2.116  14.967  0.3224 -0.0883  0.1296
  767MPD2    H711386   2.994   2.169  15.049 -2.4108  0.4756 -1.1624
  768MPD2     C11387   3.757   0.148  11.414  0.0437 -0.0628 -0.5255
  768MPD2    C111388   3.851   0.219  11.342  0.5810  0.6987  0.5988
  768MPD2    C211389   3.983   0.194  11.358 -0.4529  0.3918  0.7136
  768MPD2    C311390   4.026   0.105  11.455  0.1674  0.3886  0.4970
  768MPD2    C411391   3.931   0.033  11.531  0.6604 -0.2988  0.0533
  768MPD2    C511392   3.797   0.066  11.514 -0.4257  0.2760  0.7184
  768MPD2     H11393   4.053   0.245  11.293 -2.8469  1.3390 -1.1308
  768MPD2    H111394   3.959   4.709  11.616 -3.4995 -2.1425  0.1258
  768MPD2    H211395   3.650   0.165  11.403 -0.0042  0.0477  0.1070
  768MPD2    H311396   3.728   0.011  11.576  2.4219 -1.0699  2.6804
  768MPD2     N11397   4.163   0.084  11.486  0.2647 -0.7846  0.0464
  768MPD2    H511398   4.176   0.021  11.565 -3.1488  0.4642  1.5789
  768MPD2    N111399   3.827   0.330  11.263  0.2978  0.9056  0.1644
  768MPD2    H711400   3.911   0.373  11.225 -1.2430  1.6519 -2.3301
  769MPD2     C11401   4.437   3.449  14.900  0.3491  0.4105  0.2767
  769MPD2    C111402   4.499   3.342  14.955  0.9427  0.1413 -0.2705
  769MPD2    C211403   4.565   3.343  15.078 -0.3052 -0.1961  0.9362
  769MPD2    C311404   4.585   3.466  15.134  0.0257 -0.3828 -0.2591
  769MPD2    C411405   4.524   3.581  15.073  0.5160 -0.0543 -0.2201
  769MPD2    C511406   4.450   3.568  14.962 -0.2584 -0.1173  0.4914
  769MPD2     H11407   4.621   3.266  15.130  0.8525 -1.8075 -2.7077
  769MPD2    H111408   4.515   3.677  15.123 -2.1622  0.0109 -0.8298
  769MPD2    H211409   4.375   3.439  14.812 -0.2003  0.6166  0.6471
  769MPD2    H311410   4.400   3.654  14.920 -0.8161 -1.2843 -1.2575
  769MPD2     N11411   4.652   3.474  15.262 -0.2515 -0.4341 -0.2511
  769MPD2    H511412   4.662   3.389  15.317  1.5449 -0.5573 -0.7807
  769MPD2    N111413   4.489   3.228  14.880 -0.0494 -0.3324  0.8567
  769MPD2    H711414   4.430   3.233  14.798  2.6237  1.1204 -0.9886
  770MPD2     C11415   4.653   2.158  14.714 -0.1820  0.4625  1.0434
  770MPD2    C111416   4.523   2.183  14.672  0.2158  0.3888  0.4946
  770MPD2    C211417   4.481   2.316  14.664 -0.8389  0.6032 -0.4801
  770MPD2    C311418   4.564   2.415  14.707 -0.3061 -0.0331  1.0374
  770MPD2    C411419   4.687   2.390  14.758  0.2650  0.1023 -0.1210
  770MPD2    C511420   4.735   2.265  14.751  0.3419 -0.3679 -0.0193
  770MPD2     H11421   4.379   2.340  14.637 -1.2531 -0.1639  0.4148
  770MPD2    H111422   0.020   2.463  14.800  0.0510  0.5871 -0.6033
  770MPD2    H211423   4.685   2.055  14.712 -1.2044  0.1360  1.5167
  770MPD2    H311424   0.096   2.228  14.782 -0.5943 -2.2605  0.6584
  770MPD2     N11425   4.517   2.545  14.699 -0.6727  0.6158  0.0250
  770MPD2    H511426   4.425   2.553  14.655 -0.1775  0.4856 -1.0237
  770MPD2    N111427   4.441   2.078  14.636 -0.6231  0.5307 -0.1951
  770MPD2    H711428   4.479   1.986  14.657  0.1015  0.9476  0.3065
  771MPD2     C11429   0.762   1.243  14.034  0.6489 -0.3381 -0.4995
  771MPD2    C111430   0.750   1.287  13.905 -0.1995  0.0686  0.4324
  771MPD2    C211431   0.746   1.192  13.807 -0.2465  0.8510  0.3428
  771MPD2    C311432   0.763   1.062  13.826 -0.0481 -0.7679  0.2737
  771MPD2    C411433   0.789   1.016  13.955 -0.0623  0.0331  0.4907
  771MPD2    C511434   0.782   1.113  14.058 -0.7143  0.7732  0.4474
  771MPD2     H11435   0.731   1.219  13.703  0.8481  0.9439  0.2136
  771MPD2    H111436   0.798   0.913  13.986 -0.3021  0.0860  0.7353
  771MPD2    H211437   0.749   1.310  14.119 -0.6885 -0.1773 -0.8232
  771MPD2    H311438   0.786   1.084  14.163 -1.3846 -1.2792 -0.0904
  771MPD2     N11439   0.747   0.980  13.713 -0.1245 -0.0827  0.7057
  771MPD2    H511440   0.697   1.021  13.635  0.7827  2.2729  1.3411
  771MPD2    N111441   0.730   1.422  13.864 -0.2159  0.0957 -0.1888
  771MPD2    H711442   0.737   1.451  13.767 -0.0517 -0.3607 -0.3140
  772MPD2     C11443   0.301   2.111  14.032  0.0804  0.3908  0.2470
  772MPD2    C111444   0.314   1.980  14.035  0.0268  0.0772 -0.0961
  772MPD2    C211445   0.221   1.902  14.095  0.9078  0.3387  0.0652
  772MPD2    C311446   0.099   1.960  14.140 -0.1891 -0.7741  0.0500
  772MPD2    C411447   0.082   2.095  14.121 -0.4885  0.0221 -0.4390
  772MPD2    C511448   0.180   2.171  14.067  0.4563  0.5562  0.8716
  772MPD2     H11449   0.228   1.794  14.106  2.0284  0.3111 -0.9790
  772MPD2    H111450   4.728   2.147  14.149 -0.5557 -0.4491  0.2310
  772MPD2    H211451   0.382   2.175  14.000 -0.7897  1.9128  1.0858
  772MPD2    H311452   0.180   2.279  14.069 -2.3301  0.5904 -0.4116
  772MPD2     N11453   4.723   1.891  14.191  0.2752  0.3734  0.2537
  772MPD2    H511454   4.638   1.944  14.208  0.1416 -0.0881  1.0048
  772MPD2    N111455   0.425   1.916  13.978  0.2313 -0.3634 -0.0937
  772MPD2    H711456   0.435   1.818  14.003 -0.8677 -0.4780 -0.1178
  773MPD2     C11457   4.541   2.856   0.220 -0.0903 -0.0345 -0.5447
  773MPD2    C111458   4.514   2.766   0.115 -0.1645  0.6511 -0.0132
  773MPD2    C211459   4.521   2.634   0.139 -0.5974 -0.7999 -0.1817
  773MPD2    C311460   4.566   2.586   0.259 -0.1078 -0.0520  0.5885
  773MPD2    C411461   4.608   2.676   0.355  0.2772  0.3187 -0.0561
  773MPD2    C511462   4.604   2.812   0.329  0.3589  0.0894  0.1244
  773MPD2     H11463   4.494   2.562   0.063 -1.2681 -0.9244  0.1736
  773MPD2    H111464   4.643   2.662   0.457  0.4946  0.7471 -0.0704
  773MPD2    H211465   4.541   2.963   0.201 -0.7999 -0.3455 -2.3850
  773MPD2    H311466   4.649   2.880   0.400  0.0277  0.0798  0.3384
  773MPD2     N11467   4.592   2.446   0.276  0.6200 -0.1490  0.3546
  773MPD2    H511468   4.570   2.384   0.199 -0.0110 -0.9673  1.2044
  773MPD2    N111469   4.456   2.805  17.736  0.1345  0.2478  0.0072
  773MPD2    H711470   4.395   2.737  17.690  0.9167 -0.2314 -0.3126
  774MPD2     C11471   3.050   1.566  13.609  0.9782  0.3840 -0.6965
  774MPD2    C111472   3.179   1.550  13.584 -0.5037 -0.0488  0.6982
  774MPD2    C211473   3.238   1.652  13.512  0.5255 -0.2920 -0.6051
  774MPD2    C311474   3.172   1.767  13.483 -0.4781  0.5244  0.0973
  774MPD2    C411475   3.038   1.781  13.514  0.0785 -0.1849  0.1616
  774MPD2    C511476   2.979   1.676  13.580 -0.0074 -0.0061 -0.4424
  774MPD2     H11477   3.337   1.642  13.470  1.4042 -2.2110  1.9346
  774MPD2    H111478   2.987   1.875  13.498 -0.0101  0.0425  1.7893
  774MPD2    H211479   2.997   1.486  13.659  0.0585 -0.2943 -2.7444
  774MPD2    H311480   2.875   1.677  13.611  0.2273 -1.2226  0.4192
  774MPD2     N11481   3.218   1.877  13.410  0.2170 -0.1558 -0.0261
  774MPD2    H511482   3.163   1.963  13.404  1.3886  0.6389  0.7594
  774MPD2    N111483   3.242   1.429  13.624  0.0821  0.1769 -0.1764
  774MPD2    H711484   3.190   1.370  13.689 -0.2854  1.3007  0.5475
  775MPD2     C11485   0.832   3.282  15.895 -0.1120 -0.3788  0.5378
  775MPD2    C111486   0.751   3.395  15.890 -0.2899 -0.3724  0.0006
  775MPD2    C211487   0.792   3.507  15.823 -0.4951  0.1299 -0.0447
  775MPD2    C311488   0.921   3.512  15.759  0.0343 -1.0417  0.2088
  775MPD2    C411489   1.002   3.403  15.775 -0.1798 -0.3202 -0.0280
  775MPD2    C511490   0.954   3.292  15.839  0.1285  0.3777 -0.1460
  775MPD2     H11491   0.718   3.586  15.816  0.5993  0.9908 -1.8260
  775MPD2    H111492   1.101   3.405  15.730 -0.2665 -0.3689 -0.2212
  775MPD2    H211493   0.799   3.194  15.949 -0.0535  1.0828  2.9919
  775MPD2    H311494   1.020   3.206  15.843  0.6503  0.8190  0.6670
  775MPD2     N11495   0.962   3.628  15.687  0.2285  0.1694  0.1164
  775MPD2    H511496   1.047   3.615  15.633  0.3083 -0.5102  0.4107
  775MPD2    N111497   0.613   3.386  15.939 -0.0097 -0.1599 -0.0053
  775MPD2    H711498   0.594   3.305  15.997 -0.7229 -1.0802 -1.5316
  776MPD2     C11499   3.762   3.171  11.520 -0.2367  0.0386  0.7262
  776MPD2    C111500   3.898   3.167  11.535 -0.1738 -0.3576  0.9502
  776MPD2    C211501   3.967   3.284  11.530  0.0924 -0.5738  0.2819
  776MPD2    C311502   3.912   3.404  11.490  0.4428 -0.0743 -0.4412
  776MPD2    C411503   3.777   3.404  11.455  0.2610 -0.1668 -0.1086
  776MPD2    C511504   3.704   3.288  11.472  0.7539  0.0858 -0.3816
  776MPD2     H11505   4.071   3.287  11.559  0.5069 -1.8322 -1.0838
  776MPD2    H111506   3.727   3.497  11.435 -2.1979 -1.4609  0.0204
  776MPD2    H211507   3.699   3.084  11.534 -0.7978  0.2339 -0.6280
  776MPD2    H311508   3.598   3.284  11.450  0.2694 -0.4318  1.9932
  776MPD2     N11509   3.963   3.536  11.481 -0.2467  0.0950 -0.1886
  776MPD2    H511510   3.900   3.605  11.441 -1.2131 -0.3404  0.5847
  776MPD2    N111511   3.949   3.053  11.591  0.4729  0.5802 -0.3136
  776MPD2    H711512   3.886   2.975  11.606  1.1221  0.1945  0.4227
  777MPD2     C11513   4.346   1.647   0.665 -0.8726 -0.3821  0.6002
  777MPD2    C111514   4.311   1.548   0.756  0.7658 -0.6671 -0.3223
  777MPD2    C211515   4.244   1.436   0.701 -0.2323  0.6773 -0.1343
  777MPD2    C311516   4.212   1.432   0.568 -0.8703 -0.0633  0.5917
  777MPD2    C411517   4.244   1.538   0.483 -0.6185  0.9060  0.1662
  777MPD2    C511518   4.316   1.643   0.532 -0.0659 -0.3854 -0.0350
  777MPD2     H11519   4.216   1.353   0.764  2.1727  1.1307  1.5238
  777MPD2    H111520   4.215   1.538   0.378  0.9945  0.2996 -0.2736
  777MPD2    H211521   4.394   1.738   0.699  0.5322 -0.6344 -0.6663
  777MPD2    H311522   4.345   1.726   0.469  1.2241 -0.4278  0.5037
  777MPD2     N11523   4.146   1.319   0.530  0.4444 -0.0301 -0.1834
  777MPD2    H511524   4.126   1.249   0.600  1.4876 -1.0834 -0.9458
  777MPD2    N111525   4.325   1.562   0.898  0.4243  0.4422  0.0256
  777MPD2    H711526   4.331   1.657   0.934  0.8696  1.1760 -1.9399
  778MPD2     C11527   0.725   1.032  14.866 -0.1776  0.5053 -0.0427
  778MPD2    C111528   0.722   0.940  14.768  0.1880 -0.2244  0.1011
  778MPD2    C211529   0.764   0.981  14.647 -0.7394 -0.1135 -0.1066
  778MPD2    C311530   0.819   1.104  14.618  0.1777 -0.5362  0.2722
  778MPD2    C411531   0.815   1.201  14.722 -0.6568 -0.1952 -0.0706
  778MPD2    C511532   0.775   1.158  14.844 -0.8188  0.3898  0.5482
  778MPD2     H11533   0.765   0.907  14.567 -0.2210 -0.3120  0.0852
  778MPD2    H111534   0.879   1.288  14.711 -2.8370  1.4299  0.3544
  778MPD2    H211535   0.685   1.018  14.966 -0.3931 -3.0359 -0.6187
  778MPD2    H311536   0.786   1.218  14.933  0.3431 -0.0768  0.7261
  778MPD2     N11537   0.873   1.141  14.489 -0.4038 -0.1410 -0.0888
  778MPD2    H511538   0.888   1.073  14.415  3.4551  1.7509 -1.0370
  778MPD2    N111539   0.670   0.805  14.778  0.2044 -0.2526 -0.5150
  778MPD2    H711540   0.671   0.750  14.693 -0.9880 -1.1565  0.0534
  779MPD2     C11541   0.320   4.499  13.927  0.0350  0.0630  0.4230
  779MPD2    C111542   0.411   4.540  14.032 -0.4254 -0.3112  0.0256
  779MPD2    C211543   0.442   4.670  14.041 -0.2224 -0.3655  0.5962
  779MPD2    C311544   0.385   0.034  13.953 -0.4667 -0.0400 -0.5771
  779MPD2    C411545   0.292   4.727  13.858 -0.6427 -0.6742  0.3399
  779MPD2    C511546   0.261   4.591  13.846 -0.5228  0.4507 -0.0869
  779MPD2     H11547   0.508   4.703  14.120  0.2282  2.8018 -1.0988
  779MPD2    H111548   0.252   0.062  13.787  0.0889  0.3127  0.9057
  779MPD2    H211549   0.281   4.399  13.912  1.7437  0.0089 -3.7144
  779MPD2    H311550   0.187   4.560  13.773  0.4955 -0.9183 -0.5279
  779MPD2     N11551   0.431   0.171  13.960  0.0123  0.5748  0.4393
  779MPD2    H511552   0.506   0.185  14.027  0.9585  0.6148 -0.6331
  779MPD2    N111553   0.477   4.436  14.112 -0.0862  0.0567 -0.6079
  779MPD2    H711554   0.467   4.342  14.075 -2.9047 -0.5140  1.6439
  780MPD2     C11555   0.137   4.581   1.047 -0.4653  0.0798 -0.4360
  780MPD2    C111556   0.065   4.698   1.037 -0.3505 -0.7191 -0.3272
  780MPD2    C211557   0.021   0.002   0.905 -0.0890 -0.7306  0.7426
  780MPD2    C311558   0.043   4.664   0.791  0.5149  0.2268  0.0847
  780MPD2    C411559   0.121   4.547   0.804 -0.0646 -0.0249  0.1106
  780MPD2    C511560   0.159   4.510   0.932  0.3531  0.1230  0.3285
  780MPD2     H11561   4.705   0.096   0.888  2.0459 -0.1768 -2.5634
  780MPD2    H111562   0.148   4.490   0.716  0.0277  0.6325 -0.2906
  780MPD2    H211563   0.163   4.547   1.146 -2.2835 -1.7261 -0.5804
  780MPD2    H311564   0.227   4.426   0.946 -0.6103 -0.6165  0.5524
  780MPD2     N11565   4.730   4.714   0.671  0.1203  0.0485  0.2051
  780MPD2    H511566   4.667   0.058   0.680  1.7685  1.4113 -0.3297
  780MPD2    N111567   0.048   0.038   1.160  0.0964 -0.4335 -0.0457
  780MPD2    H711568   0.078   4.720   1.241 -1.5987  0.3523  1.1105
  781MPD2     C11569   1.574   2.134  12.006 -0.1671  0.1233  0.4417
  781MPD2    C111570   1.665   2.057  12.077 -0.0833 -0.8292 -0.0659
  781MPD2    C211571   1.793   2.058  12.025  0.1425  0.2688  0.6144
  781MPD2    C311572   1.833   2.135  11.921 -0.1793  0.2351  0.1335
  781MPD2    C411573   1.737   2.200  11.846 -0.0585  0.3852 -0.3228
  781MPD2    C511574   1.609   2.193  11.892  0.2986  0.4025  0.1394
  781MPD2     H11575   1.860   2.000  12.088  0.9857 -0.9523 -1.4307
  781MPD2    H111576   1.757   2.243  11.748 -0.4097  0.2994 -0.4309
  781MPD2    H211577   1.469   2.130  12.030 -0.5399 -2.6432 -1.6303
  781MPD2    H311578   1.534   2.254  11.843  0.4557  0.0563 -0.5312
  781MPD2     N11579   1.965   2.126  11.867 -0.2027 -0.0177 -0.0138
  781MPD2    H511580   1.989   2.188  11.790  1.6520 -0.6326  0.0640
  781MPD2    N111581   1.641   1.990  12.196 -0.1543  0.0186 -0.3092
  781MPD2    H711582   1.715   1.931  12.234  1.4820  2.8961  0.9448
  782MPD2     C11583   0.193   2.104   9.719 -0.0453  0.3557 -0.4595
  782MPD2    C111584   0.177   2.079   9.853  0.0013 -0.1852  1.0101
  782MPD2    C211585   0.212   2.183   9.935  0.2247  0.9157  0.5523
  782MPD2    C311586   0.271   2.300   9.887 -0.1000  0.3421  0.2542
  782MPD2    C411587   0.292   2.319   9.748 -0.0936 -0.2325 -0.4093
  782MPD2    C511588   0.254   2.216   9.670 -0.2650 -0.6042  0.1886
  782MPD2     H11589   0.189   2.180  10.041 -0.0483 -0.9382  0.4371
  782MPD2    H111590   0.337   2.407   9.703 -1.0061  0.7856  0.6809
  782MPD2    H211591   0.171   2.029   9.643 -2.9969 -1.8752  2.5997
  782MPD2    H311592   0.266   2.228   9.563  0.2644 -1.2508  0.1718
  782MPD2     N11593   0.302   2.397   9.983  0.2979  0.1690 -0.4034
  782MPD2    H511594   0.271   2.379  10.078 -0.1679 -0.3761 -0.6546
  782MPD2    N111595   0.125   1.962   9.912 -0.0768  0.2891 -0.8144
  782MPD2    H711596   0.084   1.975  10.004 -0.4923 -1.9556 -0.6931
  783MPD2     C11597   4.140   1.644  10.497 -0.0563  0.4903 -0.3422
  783MPD2    C111598   4.202   1.764  10.513  0.3654 -0.1516  0.0184
  783MPD2    C211599   4.321   1.794  10.445 -0.0543  0.2433 -0.3076
  783MPD2    C311600   4.386   1.701  10.365  0.5894 -0.1808  0.5160
  783MPD2    C411601   4.320   1.582  10.340  0.3261 -0.6476 -0.3259
  783MPD2    C511602   4.195   1.561  10.396 -0.3372 -0.8562  0.1037
  783MPD2     H11603   4.363   1.893  10.440 -1.0448  0.6802  0.1994
  783MPD2    H111604   4.354   1.500  10.277  1.8110  0.2234 -0.6549
  783MPD2    H211605   4.053   1.615  10.556 -0.1689 -2.9677 -2.1459
  783MPD2    H311606   4.141   1.467  10.387  0.1668 -0.9215 -2.2348
  783MPD2     N11607   4.507   1.733  10.301  0.1831 -0.7438 -0.2242
  783MPD2    H511608   4.546   1.826  10.313 -1.2833  0.0637 -1.6475
  783MPD2    N111609   4.143   1.849  10.614  0.1431  0.1471  1.1775
  783MPD2    H711610   4.063   1.821  10.670  0.5612  0.6053  1.9958
  784MPD2     C11611   2.331   3.392   0.494  0.6413  0.1047 -0.1069
  784MPD2    C111612   2.345   3.476   0.606  0.6888  0.3396  0.3146
  784MPD2    C211613   2.250   3.568   0.638  0.1311  0.2378 -0.2486
  784MPD2    C311614   2.128   3.575   0.565 -0.0874  0.2087  0.0135
  784MPD2    C411615   2.112   3.484   0.455  0.2023  0.3347 -0.3527
  784MPD2    C511616   2.213   3.398   0.419  0.7144 -0.2682 -0.8687
  784MPD2     H11617   2.269   3.631   0.724 -0.0039  1.4165 -1.0889
  784MPD2    H111618   2.026   3.482   0.389  0.4018  2.2987 -0.6900
  784MPD2    H211619   2.413   3.324   0.470 -1.7717 -1.9004 -2.6344
  784MPD2    H311620   2.194   3.328   0.339 -0.8348  0.2541 -0.9650
  784MPD2     N11621   2.020   3.663   0.609  0.1493 -0.1891  0.2539
  784MPD2    H511622   2.045   3.746   0.661  1.1972 -2.2612  3.0684
  784MPD2    N111623   2.458   3.463   0.688  0.5729  0.1083  0.0554
  784MPD2    H711624   2.470   3.541   0.752  0.8235 -0.4355  0.6667
  785MPD2     C11625   3.002   0.786  11.083 -0.1051 -0.2973 -0.2209
  785MPD2    C111626   2.950   0.909  11.115 -0.6137  0.5644  0.6593
  785MPD2    C211627   2.823   0.919  11.158 -0.7785  0.6627  0.4294
  785MPD2    C311628   2.742   0.808  11.164 -0.7027  0.4170 -0.9464
  785MPD2    C411629   2.793   0.690  11.129  0.7702 -0.0841 -0.0259
  785MPD2    C511630   2.921   0.679  11.084  1.1437 -0.0257 -0.6904
  785MPD2     H11631   2.774   1.015  11.174  2.0247  2.0150  0.9377
  785MPD2    H111632   2.739   0.598  11.145 -0.5293  0.7591  0.4205
  785MPD2    H211633   3.105   0.764  11.061  0.0408 -1.0551  1.2490
  785MPD2    H311634   2.966   0.582  11.063  3.2473  0.9361 -0.6422
  785MPD2     N11635   2.602   0.837  11.199  1.1177  0.1409  0.0509
  785MPD2    H511636   2.580   0.936  11.206  0.2292  0.0117 -1.0628
  785MPD2    N111637   3.040   1.020  11.099  0.6488 -0.2952 -0.2392
  785MPD2    H711638   3.136   1.008  11.067  0.5077 -0.2278 -0.6916
  786MPD2     C11639   1.033   4.055  14.631 -0.1570  0.7827  0.0829
  786MPD2    C111640   1.151   3.995  14.626  0.5337  0.3813 -0.4242
  786MPD2    C211641   1.245   4.007  14.722 -0.3888 -0.9834 -0.0477
  786MPD2    C311642   1.224   4.108  14.822  0.2554  0.2338  0.4738
  786MPD2    C411643   1.099   4.172  14.825 -0.3395  0.1497  0.4339
  786MPD2    C511644   1.003   4.140  14.730  0.0536 -0.7105  0.0999
  786MPD2     H11645   1.338   3.952  14.715  0.7242  0.9918 -0.9361
  786MPD2    H111646   1.083   4.253  14.896 -1.9415  1.1817 -1.1106
  786MPD2    H211647   0.959   4.050  14.551 -1.5562  1.6209  1.3206
  786MPD2    H311648   0.911   4.198  14.726  0.3298 -0.2515  0.5064
  786MPD2     N11649   1.332   4.155  14.911 -0.0666  0.1941  0.9142
  786MPD2    H511650   1.290   4.193  14.995 -0.7113  0.8925  0.2948
  786MPD2    N111651   1.188   3.908  14.515  0.0906  0.6250  0.0681
  786MPD2    H711652   1.284   3.878  14.519 -1.1277 -3.1955  0.5537
  787MPD2     C11653   1.686   3.502  14.529  0.0393  0.2922 -0.0151
  787MPD2    C111654   1.622   3.491  14.406 -0.0451  0.0097  0.0023
  787MPD2    C211655   1.661   3.381  14.327 -0.0235 -0.0201 -0.2098
  787MPD2    C311656   1.776   3.309  14.372  0.7786 -0.3287 -0.5254
  787MPD2    C411657   1.836   3.328  14.494 -0.0982  1.0702  0.1341
  787MPD2    C511658   1.786   3.424  14.575  0.4390  0.0270  0.2086
  787MPD2     H11659   1.619   3.356  14.231 -0.5089  2.2339 -0.5627
  787MPD2    H111660   1.931   3.293  14.533 -1.9935 -3.1934  0.9598
  787MPD2    H211661   1.652   3.574  14.603  0.5458  1.4592 -0.9028
  787MPD2    H311662   1.848   3.441  14.663 -3.2021  1.8394  2.4208
  787MPD2     N11663   1.833   3.209  14.300  0.0400 -0.7816 -0.1860
  787MPD2    H511664   1.814   3.210  14.200  0.2985 -2.8220 -0.2566
  787MPD2    N111665   1.508   3.574  14.368  0.0381 -0.4746  0.1462
  787MPD2    H711666   1.479   3.638  14.441 -0.3741 -2.5359  1.7867
  788MPD2     C11667   3.458   3.275   1.104 -0.7020 -0.1462  0.4368
  788MPD2    C111668   3.436   3.276   0.965 -0.3599 -0.4103 -0.0227
  788MPD2    C211669   3.448   3.391   0.892 -0.8846  0.1354  0.4829
  788MPD2    C311670   3.483   3.509   0.961  0.6410  0.5911 -0.9582
  788MPD2    C411671   3.522   3.501   1.088 -0.3688 -0.2302 -0.0999
  788MPD2    C511672   3.504   3.390   1.160  0.4602 -0.4558  0.5757
  788MPD2     H11673   3.433   3.398   0.785  0.2703  1.0789  0.3905
  788MPD2    H111674   3.562   3.587   1.140  1.6349  0.0824 -2.1332
  788MPD2    H211675   3.457   3.174   1.143  0.1451 -0.3856 -0.1384
  788MPD2    H311676   3.534   3.390   1.264 -0.3517 -1.2590  0.8048
  788MPD2     N11677   3.471   3.638   0.901  0.0720 -0.1433 -0.5922
  788MPD2    H511678   3.457   3.709   0.972  1.9294  0.4779 -0.8483
  788MPD2    N111679   3.382   3.167   0.893  0.5529  0.1055 -0.0208
  788MPD2    H711680   3.383   3.171   0.792 -0.9374 -1.1190 -0.0839
  789MPD2     C11681   3.567   2.017  16.665 -0.0373 -0.2051 -0.1658
  789MPD2    C111682   3.450   2.057  16.606  0.1880  0.1721 -0.0391
  789MPD2    C211683   3.400   2.185  16.624  0.5221 -0.3233  0.0470
  789MPD2    C311684   3.468   2.278  16.711  1.2264  0.6993 -0.6410
  789MPD2    C411685   3.588   2.232  16.769  0.0114 -0.1898 -0.2323
  789MPD2    C511686   3.638   2.104  16.747  0.1251 -0.3382 -0.1453
  789MPD2     H11687   3.308   2.205  16.570 -0.7583 -1.0010  1.9652
  789MPD2    H111688   3.642   2.299  16.834 -0.2973 -1.8407  1.7157
  789MPD2    H211689   3.604   1.917  16.646 -0.8171 -0.4040 -0.6290
  789MPD2    H311690   3.731   2.067  16.787 -0.2217 -0.2143  0.7907
  789MPD2     N11691   3.415   2.404  16.746 -0.1670  0.1431 -1.1671
  789MPD2    H511692   3.472   2.453  16.815 -1.2427 -0.7600  0.3549
  789MPD2    N111693   3.373   1.968  16.532 -0.0039  0.0163  0.1197
  789MPD2    H711694   3.279   2.006  16.524  0.1956  0.6540  0.8628
  790MPD2     C11695   4.575   3.892  13.417 -0.6558 -0.8195  0.2100
  790MPD2    C111696   4.557   3.761  13.453 -0.8445  0.1577  0.1245
  790MPD2    C211697   4.526   3.673  13.354 -0.2033 -0.4404  0.2124
  790MPD2    C311698   4.496   3.716  13.229  0.3811  0.1878  0.2446
  790MPD2    C411699   4.521   3.846  13.190 -0.3033 -0.3857  0.2545
  790MPD2    C511700   4.563   3.931  13.287  0.0132 -0.0160  0.4919
  790MPD2     H11701   4.485   3.577  13.383 -0.9827 -0.1662 -0.0040
  790MPD2    H111702   4.498   3.878  13.089 -2.3852 -0.0927  0.8199
  790MPD2    H211703   4.603   3.969  13.488 -0.2896 -1.5908  0.8934
  790MPD2    H311704   4.584   4.033  13.255 -0.0215  0.2477  1.3039
  790MPD2     N11705   4.429   3.620  13.143  0.0357  0.8488  0.3015
  790MPD2    H511706   4.407   3.528  13.181  0.7942  0.6008  0.1355
  790MPD2    N111707   4.574   3.723  13.587 -0.3489 -0.2548  0.1124
  790MPD2    H711708   4.585   3.796  13.656 -1.3514 -0.4725  0.5038
  791MPD2     C11709   3.806   3.681  12.718  0.2162 -0.7864 -0.0596
  791MPD2    C111710   3.830   3.546  12.740  0.3019 -0.2884 -0.0855
  791MPD2    C211711   3.729   3.451  12.708 -0.2947 -0.2100  0.4108
  791MPD2    C311712   3.607   3.496  12.658 -0.1992 -1.2030  0.4260
  791MPD2    C411713   3.587   3.634  12.631  0.7805  0.4404  0.5409
  791MPD2    C511714   3.685   3.720  12.668 -0.0320  0.7572  0.6282
  791MPD2     H11715   3.749   3.345  12.721 -0.3092 -0.2416  0.1700
  791MPD2    H111716   3.494   3.673  12.591  1.3615  1.0890 -0.1775
  791MPD2    H211717   3.891   3.749  12.721  0.1405 -0.6432 -1.5578
  791MPD2    H311718   3.671   3.826  12.652 -2.3116  0.3542 -0.0584
  791MPD2     N11719   3.513   3.396  12.628 -0.3670 -0.4195 -0.0560
  791MPD2    H511720   3.540   3.300  12.647 -2.3921 -1.2315 -1.2269
  791MPD2    N111721   3.962   3.522  12.771 -0.6278 -0.5987 -0.2980
  791MPD2    H711722   4.026   3.601  12.765 -0.1292 -0.9225  0.7420
  792MPD2     C11723   4.159   2.989  11.207 -0.0810 -0.2279  0.4440
  792MPD2    C111724   4.092   3.111  11.189  0.1608  0.0931 -0.6130
  792MPD2    C211725   3.955   3.114  11.193  0.8166  0.3855  0.0091
  792MPD2    C311726   3.881   2.995  11.218  0.2162 -0.0405  0.1196
  792MPD2    C411727   3.949   2.875  11.238  1.3684 -0.1154  0.4752
  792MPD2    C511728   4.088   2.875  11.230 -0.6668 -0.1479  0.6240
  792MPD2     H11729   3.896   3.202  11.172 -0.0328 -0.1734  0.0355
  792MPD2    H111730   3.897   2.787  11.274 -1.8840  1.0373 -1.4296
  792MPD2    H211731   4.268   2.984  11.211  0.0968  0.4446 -4.0034
  792MPD2    H311732   4.153   2.791  11.251  0.0328  0.0756 -0.6138
  792MPD2     N11733   3.740   2.997  11.231  0.7010  0.4658 -0.0300
  792MPD2    H511734   3.699   2.910  11.264  1.4847  0.3651  0.6963
  792MPD2    N111735   4.168   3.225  11.161 -0.0510  0.0423 -0.6556
  792MPD2    H711736   4.267   3.218  11.183 -0.2315  0.4681  0.2983
  793MPD2     C11737   3.225   2.838  10.534  0.1849 -0.3884 -0.7945
  793MPD2    C111738   3.336   2.925  10.554  0.0664 -0.9257  1.2432
  793MPD2    C211739   3.362   2.978  10.677 -0.0386  0.2678  0.1417
  793MPD2    C311740   3.270   2.966  10.779 -0.7016  0.8161  0.3667
  793MPD2    C411741   3.156   2.893  10.755 -0.3604 -0.3004 -0.1179
  793MPD2    C511742   3.129   2.837  10.634 -0.8225  0.1374  0.2399
  793MPD2     H11743   3.458   3.024  10.697 -0.1917 -0.1480  1.8143
  793MPD2    H111744   3.082   2.891  10.833 -1.2609  0.1669 -0.9675
  793MPD2    H211745   3.211   2.774  10.449 -2.5227  0.5533 -1.0611
  793MPD2    H311746   3.041   2.774  10.624 -1.4233  1.1558 -0.8389
  793MPD2     N11747   3.302   3.020  10.903  0.6571  0.1310 -0.8898
  793MPD2    H511748   3.390   3.070  10.915  0.9480 -1.0451  2.0668
  793MPD2    N111749   3.425   2.950  10.446  0.2294  0.6438 -0.8636
  793MPD2    H711750   3.498   3.020  10.455 -0.2119  0.8154  1.2475
  794MPD2     C11751   4.278   3.409  17.164  0.1515 -0.4292  0.6641
  794MPD2    C111752   4.248   3.283  17.111  0.1699  0.0158  0.1162
  794MPD2    C211753   4.203   3.269  16.983  0.4832  0.0477 -0.8046
  794MPD2    C311754   4.171   3.390  16.918  0.2172  0.5570 -0.0527
  794MPD2    C411755   4.187   3.516  16.972  0.0163  0.3576  0.5497
  794MPD2    C511756   4.238   3.521  17.097 -0.6847  0.1921 -0.7500
  794MPD2     H11757   4.199   3.176  16.928 -0.9385 -1.2192  1.4480
  794MPD2    H111758   4.155   3.609  16.928  0.0511  1.0979  2.0779
  794MPD2    H211759   4.308   3.419  17.267  1.4772 -0.1304  0.2474
  794MPD2    H311760   4.244   3.613  17.153  0.1892 -0.4963  0.2832
  794MPD2     N11761   4.126   3.382  16.785  0.1359  0.0645 -0.1027
  794MPD2    H511762   4.090   3.464  16.739 -3.9216 -1.3663  0.5149
  794MPD2    N111763   4.260   3.160  17.181  0.3859 -0.3596 -0.0592
  794MPD2    H711764   4.230   3.072  17.139 -1.9618  0.5818 -0.3685
  795MPD2     C11765   1.857   0.158  13.508  0.2106 -0.2607  0.9473
  795MPD2    C111766   1.796   0.037  13.499  0.2002  0.3955  0.8462
  795MPD2    C211767   1.873   4.658  13.531  0.4183  0.3814 -0.6214
  795MPD2    C311768   2.005   4.668  13.582  0.3228 -0.2925  0.5422
  795MPD2    C411769   2.059   0.055  13.598 -0.3650  0.0861 -0.5485
  795MPD2    C511770   1.984   0.161  13.557  0.3075  0.1206  0.4184
  795MPD2     H11771   1.830   4.559  13.520 -1.5353  1.0047  1.4006
  795MPD2    H111772   2.157   0.079  13.637  0.1156  0.0539 -1.7124
  795MPD2    H211773   1.815   0.254  13.481 -1.0011 -1.1742 -0.4426
  795MPD2    H311774   2.025   0.262  13.559 -0.3997  0.3774  2.5247
  795MPD2     N11775   2.075   4.556  13.631  0.0122  0.0621 -0.1135
  795MPD2    H511776   2.024   4.469  13.645  0.7995 -0.5789 -1.1687
  795MPD2    N111777   1.666   0.033  13.452 -0.2002 -0.1510  0.4117
  795MPD2    H711778   1.624   4.680  13.426  0.8344  0.2134 -2.5988
  796MPD2     C11779   1.203   1.831  16.137  0.1846 -0.1454  0.3336
  796MPD2    C111780   1.244   1.918  16.238  0.1863 -0.1345  0.1103
  796MPD2    C211781   1.289   2.047  16.212 -0.1957  0.1734 -0.6312
  796MPD2    C311782   1.279   2.085  16.080  0.3728 -0.8477 -0.0262
  796MPD2    C411783   1.223   2.009  15.976 -0.6563 -0.0653  0.3967
  796MPD2    C511784   1.186   1.878  16.007  0.1134  0.1818 -0.5000
  796MPD2     H11785   1.339   2.102  16.291 -1.8997  1.3945 -0.4186
  796MPD2    H111786   1.197   2.044  15.877 -2.7554 -0.4018  0.8320
  796MPD2    H211787   1.166   1.732  16.159 -1.5502  0.5174  0.4311
  796MPD2    H311788   1.164   1.810  15.925 -1.1262  0.0207 -0.0233
  796MPD2     N11789   1.341   2.207  16.051  0.2416 -0.4018  0.4010
  796MPD2    H511790   1.372   2.262  16.130  1.5353  0.9803 -1.0808
  796MPD2    N111791   1.258   1.859  16.370  0.8345 -0.4389 -0.6321
  796MPD2    H711792   1.211   1.770  16.380  0.0135  0.0288 -0.2765
  797MPD2     C11793   2.457   1.986   0.300 -0.1897  1.0399 -0.0275
  797MPD2    C111794   2.400   2.096   0.243 -0.1511  0.4072 -0.7439
  797MPD2    C211795   2.268   2.094   0.206 -0.5700 -0.2535 -0.5926
  797MPD2    C311796   2.198   1.977   0.201  0.0952 -0.4464  0.1635
  797MPD2    C411797   2.259   1.863   0.251 -0.0627  1.3169  0.0656
  797MPD2    C511798   2.384   1.870   0.299 -0.4114  0.0081 -0.3382
  797MPD2     H11799   2.229   2.189   0.170 -1.2952  0.2542  1.5768
  797MPD2    H111800   2.214   1.764   0.247  0.2739  1.2018 -1.0038
  797MPD2    H211801   2.555   1.990   0.346  0.0315 -0.2256 -0.4032
  797MPD2    H311802   2.441   1.784   0.335  1.2199  1.2079 -0.0377
  797MPD2     N11803   2.065   1.969   0.153 -0.1560  0.4145  0.0322
  797MPD2    H511804   2.030   1.874   0.149 -0.6741  0.6457 -1.0299
  797MPD2    N111805   2.458   2.222   0.224 -0.6221 -0.1199 -0.4227
  797MPD2    H711806   2.410   2.288   0.164 -0.2906 -0.7537 -1.3718
  798MPD2     C11807   1.996   2.538  17.476  0.0322  0.4544 -0.0231
  798MPD2    C111808   2.022   2.444  17.572  0.6740 -0.2240  0.2243
  798MPD2    C211809   2.140   2.451  17.649  0.4430 -0.1105  0.4403
  798MPD2    C311810   2.239   2.538  17.604 -0.2269  0.2877  0.5352
  798MPD2    C411811   2.213   2.640  17.514  0.2207 -0.6492  0.2303
  798MPD2    C511812   2.089   2.639  17.449 -0.1288 -0.3810 -0.0792
  798MPD2     H11813   2.150   2.383  17.733 -0.7877  0.7152  1.2639
  798MPD2    H111814   2.281   2.724  17.523 -0.8776  0.2133  0.5327
  798MPD2    H211815   1.902   2.539  17.422  0.1782  1.6251 -0.2551
  798MPD2    H311816   2.047   2.719  17.389  0.2488  0.0200  0.1904
  798MPD2     N11817   2.353   2.533  17.683  0.1492 -0.0859  0.3128
  798MPD2    H511818   2.361   2.457   0.008  0.5992 -1.4329 -1.2572
  798MPD2    N111819   1.933   2.347  17.612  0.3052 -0.2122 -0.0944
  798MPD2    H711820   1.965   2.288  17.688 -0.7542 -0.5500  0.0957
  799MPD2     C11821   1.069   2.955  14.801  0.4069  0.9911  0.3931
  799MPD2    C111822   1.004   2.878  14.701  0.4087 -0.2692 -0.1013
  799MPD2    C211823   0.955   2.942  14.588 -0.0005  0.0298  0.3223
  799MPD2    C311824   0.981   3.077  14.563  0.0266  0.2191  0.3589
  799MPD2    C411825   1.050   3.144  14.662 -0.3999  0.1511  0.0450
  799MPD2    C511826   1.082   3.085  14.782  0.3182  0.3888  0.2681
  799MPD2     H11827   0.893   2.880  14.523  0.8452 -0.4745 -0.0120
  799MPD2    H111828   1.067   3.251  14.670 -0.9418  0.3666 -1.6522
  799MPD2    H211829   1.112   2.900  14.884  2.0534  0.9057 -0.5256
  799MPD2    H311830   1.121   3.142  14.866  0.2188  0.7693  0.0540
  799MPD2     N11831   0.950   3.138  14.435 -0.1494 -0.0264 -0.4872
  799MPD2    H511832   0.986   3.232  14.419 -1.2754  0.5452  0.2438
  799MPD2    N111833   0.984   2.743  14.718 -0.3054 -0.2826  0.2662
  799MPD2    H711834   0.932   2.698  14.643 -0.4443 -0.4891  0.4852
  800MPD2     C11835   1.478   3.511  13.786 -0.3939  0.2533 -0.1861
  800MPD2    C111836   1.615   3.510  13.789  0.1060 -0.4216 -0.3000
  800MPD2    C211837   1.679   3.518  13.669  0.2140  0.0225 -0.2414
  800MPD2    C311838   1.607   3.522  13.546 -0.5139 -0.3073  0.7813
  800MPD2    C411839   1.470   3.536  13.548 -0.0900  0.0915  0.3800
  800MPD2    C511840   1.407   3.521  13.669  0.9148 -0.0195  0.4574
  800MPD2     H11841   1.786   3.504  13.662  0.3237  1.4903 -1.6098
  800MPD2    H111842   1.410   3.561  13.461 -0.6746 -0.2114  0.7006
  800MPD2    H211843   1.421   3.505  13.878 -2.1474 -1.0351 -1.3353
  800MPD2    H311844   1.305   3.555  13.686  0.2077 -1.3465 -1.0644
  800MPD2     N11845   1.687   3.505  13.433  0.0921  0.0794  0.3053
  800MPD2    H511846   1.786   3.498  13.451  0.2017 -0.7631 -0.6084
  800MPD2    N111847   1.681   3.520  13.913  0.2168  0.0440 -0.3031
  800MPD2    H711848   1.617   3.510  13.991  0.8226  1.5669  0.3871
  801MPD2     C11849   1.559   3.993  14.455 -0.6530 -0.5409  0.9448
  801MPD2    C111850   1.551   3.953  14.323  0.0868 -1.0593  0.4160
  801MPD2    C211851   1.462   4.024  14.242 -0.3651  0.5606 -0.5938
  801MPD2    C311852   1.369   4.119  14.284 -0.2586 -0.4884  0.0993
  801MPD2    C411853   1.373   4.155  14.416  0.0102  0.2697 -0.4016
  801MPD2    C511854   1.470   4.089  14.492  0.2463 -0.7268 -0.0983
  801MPD2     H11855   1.477   4.000  14.137 -0.7828  1.5960 -0.8888
  801MPD2    H111856   1.318   4.235  14.466 -0.9018 -1.9432  2.1875
  801MPD2    H211857   1.620   3.950  14.534 -1.0645  1.4788  2.3753
  801MPD2    H311858   1.486   4.122  14.594  1.0520 -0.2031 -0.4010
  801MPD2     N11859   1.271   4.177  14.201  0.9744 -0.5659  0.4106
  801MPD2    H511860   1.202   4.237  14.244 -0.8043 -1.3048 -1.4719
  801MPD2    N111861   1.639   3.861  14.259  0.5363  0.1610 -0.1914
  801MPD2    H711862   1.628   3.848  14.159  0.5344  0.1187 -0.1857
  802MPD2     C11863   0.671   0.600  17.181  0.2296  0.1467 -0.1864
  802MPD2    C111864   0.718   0.596  17.308  0.0399  1.0497  0.1826
  802MPD2    C211865   0.834   0.512  17.330  0.0707  0.2698 -0.9607
  802MPD2    C311866   0.896   0.443  17.227  0.0190 -0.5259  0.3522
  802MPD2    C411867   0.846   0.458  17.097 -0.4613  0.8247 -0.3629
  802MPD2    C511868   0.734   0.531  17.082 -0.3248  0.2409 -0.5882
  802MPD2     H11869   0.865   0.495  17.432 -3.2323 -3.5118 -0.6103
  802MPD2    H111870   0.887   0.406  17.011  1.4716  3.2055 -0.8878
  802MPD2    H211871   0.579   0.655  17.162 -0.3392 -0.1261  1.7408
  802MPD2    H311872   0.673   0.538  16.992  0.8533 -0.9299 -1.4806
  802MPD2     N11873   1.008   0.360  17.257 -0.2190  0.6056  0.1420
  802MPD2    H511874   1.035   0.359  17.355  0.9178 -1.1256 -0.1918
  802MPD2    N111875   0.666   0.670  17.415  0.9695  0.1026  0.3366
  802MPD2    H711876   0.711   0.670  17.506  0.3714 -0.7538  0.6279
  803MPD2     C11877   1.850   4.130  12.292 -0.2259 -0.2927  0.2741
  803MPD2    C111878   1.935   4.053  12.213  0.3272 -0.3649  0.2703
  803MPD2    C211879   1.981   3.938  12.276 -0.5365  0.4719 -0.6940
  803MPD2    C311880   1.952   3.907  12.411 -0.2605 -0.0623 -0.5502
  803MPD2    C411881   1.879   3.993  12.487  0.2671 -0.2521  0.7456
  803MPD2    C511882   1.821   4.100  12.423  0.4486 -0.2031  0.5053
  803MPD2     H11883   2.044   3.870  12.221 -1.6678 -1.8573  0.8809
  803MPD2    H111884   1.860   3.971  12.591  0.2505 -0.3394  0.7240
  803MPD2    H211885   1.809   4.223  12.254 -0.6148  0.6147  2.8817
  803MPD2    H311886   1.751   4.161  12.479  2.0792  3.0601 -1.0690
  803MPD2     N11887   2.000   3.793  12.479 -0.2153  0.5858 -0.1913
  803MPD2    H511888   1.965   3.787  12.575  1.2513  1.5458  0.3970
  803MPD2    N111889   1.969   4.071  12.075  0.7034 -0.5215 -0.0405
  803MPD2    H711890   2.058   4.027  12.051  1.0118  0.0222  0.1207
  804MPD2     C11891   2.115   0.402  16.697 -0.2760  0.5776  0.3025
  804MPD2    C111892   2.072   0.421  16.826 -0.2560  0.8628  0.7886
  804MPD2    C211893   2.130   0.521  16.899 -0.7138 -0.2170  0.0845
  804MPD2    C311894   2.235   0.592  16.844 -0.5455 -0.4327 -0.3378
  804MPD2    C411895   2.276   0.567  16.718 -0.7007  0.1982 -0.7420
  804MPD2    C511896   2.218   0.475  16.644 -0.4012 -0.2648  0.2530
  804MPD2     H11897   2.110   0.524  17.005 -1.1481  0.8028 -0.0244
  804MPD2    H111898   2.367   0.602  16.670 -0.5588 -0.8550 -1.2531
  804MPD2    H211899   2.074   0.332  16.625  2.1674 -0.3435 -0.2053
  804MPD2    H311900   2.248   0.456  16.542  3.0201  1.3685  0.9406
  804MPD2     N11901   2.301   0.679  16.936  0.0743 -0.2580  0.4873
  804MPD2    H511902   2.269   0.670  17.032 -2.7385 -0.1112 -0.4629
  804MPD2    N111903   1.974   0.342  16.892 -0.5325  0.3928 -0.4256
  804MPD2    H711904   1.958   0.365  16.989  2.5781 -0.7622  0.3702
  805MPD2     C11905   1.005   2.943  15.662  0.1237 -0.1574 -0.4465
  805MPD2    C111906   1.021   3.072  15.612  0.0191  0.0754 -1.0349
  805MPD2    C211907   1.143   3.137  15.606 -0.0271 -0.6370  0.0711
  805MPD2    C311908   1.246   3.085  15.678  1.2275 -0.7407 -0.1724
  805MPD2    C411909   1.226   2.953  15.736 -0.9028 -0.3977 -0.5952
  805MPD2    C511910   1.109   2.888  15.736  0.9143  0.4799  0.2233
  805MPD2     H11911   1.154   3.234  15.558 -2.0558  0.0903  1.0445
  805MPD2    H111912   1.309   2.916  15.796 -0.3181  2.5646  0.4202
  805MPD2    H211913   0.919   2.878  15.657  0.1082  0.0160 -2.3678
  805MPD2    H311914   1.098   2.795  15.792  0.7580  1.2742  1.5030
  805MPD2     N11915   1.367   3.156  15.703  0.3228 -0.6493 -0.4547
  805MPD2    H511916   1.363   3.249  15.664  2.3183 -0.5299 -0.3749
  805MPD2    N111917   0.917   3.143  15.556  0.0348 -0.6147  0.1121
  805MPD2    H711918   0.929   3.236  15.519 -1.3192 -0.5141 -0.0587
  806MPD2     C11919   1.456   3.038  17.732  0.4482  0.7858 -0.5660
  806MPD2    C111920   1.473   3.068   0.123 -0.2555  0.6532  0.3575
  806MPD2    C211921   1.576   3.153   0.165 -0.2903  0.0780  0.2694
  806MPD2    C311922   1.668   3.193   0.071  0.4971  0.3375 -0.9988
  806MPD2    C411923   1.657   3.155  17.680  0.2071  0.5281  0.2804
  806MPD2    C511924   1.553   3.085  17.642  0.3956  0.3493 -0.1642
  806MPD2     H11925   1.587   3.176   0.270 -0.4986  0.1397  0.2784
  806MPD2    H111926   1.730   3.190  17.609  1.5792  1.7127  2.2633
  806MPD2    H211927   1.369   2.989  17.691  0.4588 -0.8386  1.3915
  806MPD2    H311928   1.537   3.065  17.537 -0.2958  0.4538 -0.0808
  806MPD2     N11929   1.773   3.279   0.116 -0.6553 -0.0046 -0.0956
  806MPD2    H511930   1.787   3.295   0.215 -2.2759 -2.5496  0.5250
  806MPD2    N111931   1.373   3.022   0.214 -0.5117  0.3377  0.8702
  806MPD2    H711932   1.303   2.962   0.173  0.0973  0.4638 -0.3433
  807MPD2     C11933   1.301   2.324   0.536  0.1310 -0.4843  0.1072
  807MPD2    C111934   1.211   2.393   0.616 -0.0907 -0.0056  0.0168
  807MPD2    C211935   1.127   2.319   0.696 -0.0708  0.2928 -0.0741
  807MPD2    C311936   1.146   2.182   0.718 -0.7698 -0.3890  0.4422
  807MPD2    C411937   1.249   2.126   0.644  0.3158  0.3928  0.4329
  807MPD2    C511938   1.313   2.191   0.546  0.3688 -0.2660  0.0751
  807MPD2     H11939   1.055   2.370   0.759  1.6029 -0.3245  2.3494
  807MPD2    H111940   1.277   2.022   0.661  2.0298  0.8140  0.1660
  807MPD2    H211941   1.368   2.375   0.466 -0.4405 -0.4854 -0.4410
  807MPD2    H311942   1.377   2.135   0.478  0.3029  0.1072 -0.2965
  807MPD2     N11943   1.073   2.119   0.816  0.9758 -0.4099  0.2037
  807MPD2    H511944   0.994   2.165   0.860  0.9986 -0.4043  0.2385
  807MPD2    N111945   1.195   2.535   0.605  0.2701 -0.2636  0.3847
  807MPD2    H711946   1.113   2.566   0.657  0.7749 -0.6111  1.4020
  808MPD2     C11947   2.381   4.036   9.833 -0.3356  0.3349 -0.0839
  808MPD2    C111948   2.272   4.086   9.898  0.4167  0.5380  0.2216
  808MPD2    C211949   2.279   4.207   9.964 -0.2142 -0.3479 -0.0942
  808MPD2    C311950   2.396   4.281   9.970  0.2387  0.3422 -0.2583
  808MPD2    C411951   2.505   4.224   9.907  0.3491  0.0031  1.1237
  808MPD2    C511952   2.497   4.107   9.834  0.6111 -0.1304 -0.1639
  808MPD2     H11953   2.188   4.254  10.002  0.1232 -0.3085  0.6712
  808MPD2    H111954   2.597   4.282   9.904 -0.1513  0.7281 -0.3544
  808MPD2    H211955   2.375   3.941   9.782 -0.1328 -0.2527  0.9849
  808MPD2    H311956   2.582   4.060   9.785 -1.6107 -1.5865 -2.6496
  808MPD2     N11957   2.412   4.400  10.037  0.2182  0.3405  0.6809
  808MPD2    H511958   2.507   4.435  10.033  0.2174  0.1805 -0.8253
  808MPD2    N111959   2.142   4.029   9.897  1.0094  0.5336  0.0423
  808MPD2    H711960   2.072   4.080   9.950 -2.2735 -2.5285 -1.3459
  809MPD2     C11961   2.795   0.386   9.739 -0.2561 -0.0481  0.6030
  809MPD2    C111962   2.802   0.250   9.749  0.0893 -0.2947  0.2320
  809MPD2    C211963   2.755   0.191   9.869 -0.1114 -0.5144 -0.2294
  809MPD2    C311964   2.690   0.264   9.963 -0.7129 -0.2249  0.0169
  809MPD2    C411965   2.689   0.400   9.955  0.0764  0.4967  0.0418
  809MPD2    C511966   2.736   0.458   9.839  0.1400  0.4150  0.1779
  809MPD2     H11967   2.756   0.083   9.878 -1.9990 -0.5187 -0.1717
  809MPD2    H111968   2.641   0.465  10.027  0.9494  1.8290 -0.5559
  809MPD2    H211969   2.834   0.427   9.646 -1.2123  2.6078  1.3950
  809MPD2    H311970   2.715   0.564   9.828 -0.5399  0.0119 -2.1838
  809MPD2     N11971   2.625   0.206  10.075 -0.5005 -0.3078 -0.7107
  809MPD2    H511972   2.563   0.257  10.136  1.0954  0.2850  0.4346
  809MPD2    N111973   2.850   0.168   9.647  0.0132  0.4998  0.2306
  809MPD2    H711974   2.831   0.068   9.649 -0.7778  0.6032 -3.1236
  810MPD2     C11975   1.130   3.310  11.007  0.0813 -0.2613  0.5071
  810MPD2    C111976   1.096   3.351  10.883 -0.7826 -0.3173  0.4341
  810MPD2    C211977   1.120   3.486  10.856  0.3440  0.0228 -0.1950
  810MPD2    C311978   1.179   3.572  10.942  0.1341  0.4704  0.2608
  810MPD2    C411979   1.222   3.521  11.065 -0.4555  0.1046 -0.0857
  810MPD2    C511980   1.201   3.390  11.090 -0.4852  0.2325 -0.4832
  810MPD2     H11981   1.108   3.527  10.756 -0.9438  1.5614  0.5692
  810MPD2    H111982   1.269   3.579  11.143 -0.0435  2.4741 -2.0733
  810MPD2    H211983   1.100   3.210  11.036  0.3825 -0.1288  1.2639
  810MPD2    H311984   1.232   3.353  11.186  0.3791  1.5402 -0.2512
  810MPD2     N11985   1.215   3.705  10.915  0.0802 -0.0074 -0.8427
  810MPD2    H511986   1.274   3.750  10.985  0.9534 -0.0378 -1.5589
  810MPD2    N111987   1.057   3.260  10.786 -0.0355 -0.1658 -0.4372
  810MPD2    H711988   1.045   3.167  10.824 -1.8646 -1.2554 -3.7280
  811MPD2     C11989   1.072   3.224   9.936 -0.0573  0.5364  0.2673
  811MPD2    C111990   1.100   3.291  10.050 -0.5946 -0.2344 -0.2779
  811MPD2    C211991   1.159   3.412  10.051  0.3169 -0.9137 -0.2711
  811MPD2    C311992   1.174   3.491   9.941 -0.2770  0.3565 -0.2034
  811MPD2    C411993   1.142   3.426   9.820 -0.0840 -0.2299 -0.5969
  811MPD2    C511994   1.100   3.295   9.822 -0.2951 -0.1936  0.3404
  811MPD2     H11995   1.182   3.453  10.148 -1.5751 -0.1875 -0.1153
  811MPD2    H111996   1.149   3.480   9.726 -0.1812  0.3424 -0.2818
  811MPD2    H211997   1.052   3.118   9.933  0.4527  0.4446 -0.0205
  811MPD2    H311998   1.099   3.237   9.730 -2.7315  1.7515 -0.8373
  811MPD2     N11999   1.222   3.617   9.953 -1.1980  0.4746  0.0257
  811MPD2    H512000   1.260   3.630  10.046 -0.9567 -0.0595  0.0047
  811MPD2    N112001   1.074   3.249  10.181 -0.5569  0.9531 -0.1237
  811MPD2    H712002   1.104   3.307  10.259 -2.9665  1.6519  0.2584
  812MPD2     C12003   0.027   2.946  12.067  0.0267  0.0220  0.2901
  812MPD2    C112004   0.098   3.038  12.144  0.2999  0.6824 -0.0182
  812MPD2    C212005   0.180   2.996  12.247  0.0646  0.2029 -1.0362
  812MPD2    C312006   0.188   2.861  12.272 -0.1831 -0.4116 -0.1918
  812MPD2    C412007   0.119   2.768  12.192  0.2612  0.1240 -0.7909
  812MPD2    C512008   0.033   2.812  12.101 -0.0104 -1.1499  0.0743
  812MPD2     H12009   0.245   3.059  12.307  0.3975  0.0001 -1.1857
  812MPD2    H112010   0.122   2.662  12.212  2.0302  0.4170  0.5244
  812MPD2    H212011   4.687   2.980  11.997 -0.9117 -1.1742  0.7313
  812MPD2    H312012   4.708   2.735  12.056 -3.7188  0.6098  2.0676
  812MPD2     N12013   0.270   2.824  12.386 -0.0553  0.1231  0.3239
  812MPD2    H512014   0.300   2.903  12.443 -0.5756 -0.8095  1.8730
  812MPD2    N112015   0.063   3.179  12.135 -0.1465  0.4667 -0.1180
  812MPD2    H712016   0.006   3.200  12.054  0.8895 -2.1218 -1.5210
  813MPD2     C12017   4.604   0.592  13.262  0.2057 -0.4893 -0.0935
  813MPD2    C112018   4.505   0.686  13.236  0.0660 -0.7643  1.1814
  813MPD2    C212019   4.388   0.668  13.306  0.1238 -0.1946 -0.1731
  813MPD2    C312020   4.369   0.566  13.400  0.1304 -0.4124 -0.2187
  813MPD2    C412021   4.473   0.484  13.427  0.4380 -0.5350  0.5233
  813MPD2    C512022   4.591   0.497  13.357  0.0495 -0.1288  0.4100
  813MPD2     H12023   4.305   0.736  13.291  0.5096  0.4044  0.4054
  813MPD2    H112024   4.474   0.412  13.508  1.1824 -0.8109  0.2717
  813MPD2    H212025   4.703   0.605  13.219  0.7806 -1.8296  0.8275
  813MPD2    H312026   4.674   0.430  13.377  1.7343  1.5986 -0.8354
  813MPD2     N12027   4.247   0.570  13.473 -0.3837  0.3799  0.2014
  813MPD2    H512028   4.181   0.648  13.477 -0.3551  0.3919  0.4515
  813MPD2    N112029   4.515   0.796  13.148  0.7139 -0.3405  0.5191
  813MPD2    H712030   4.441   0.865  13.152 -0.6721 -1.8181  0.1514
  814MPD2     C12031   4.319   1.515  12.010 -0.4845  0.1207 -0.6599
  814MPD2    C112032   4.455   1.513  12.030  0.9063 -0.5602 -0.3486
  814MPD2    C212033   4.523   1.631  12.046 -0.0485 -0.7295 -0.1848
  814MPD2    C312034   4.459   1.752  12.038  0.0798 -0.3278  0.5076
  814MPD2    C412035   4.324   1.752  12.011  0.1528 -0.1917  0.4398
  814MPD2    C512036   4.258   1.637  11.998 -0.2218 -0.0788  0.2056
  814MPD2     H12037   4.629   1.642  12.065 -0.5827 -1.2427  3.0922
  814MPD2    H112038   4.255   1.835  11.999 -0.6067 -1.1654 -1.9503
  814MPD2    H212039   4.256   1.429  11.995  0.5525 -0.8389  0.4194
  814MPD2    H312040   4.152   1.651  11.977 -0.7746 -1.0531  2.3297
  814MPD2     N12041   4.533   1.870  12.054  0.0820 -0.1115  0.2455
  814MPD2    H512042   4.632   1.864  12.075  0.0152  1.1863  0.9688
  814MPD2    N112043   4.540   1.405  12.016 -0.0168 -0.1687 -0.2624
  814MPD2    H712044   4.640   1.424  12.017 -0.0546  0.0220 -0.1729
  815MPD2     C12045   0.829   0.154  11.754  0.0626 -0.0283 -0.0202
  815MPD2    C112046   0.782   0.030  11.787 -0.8161 -0.1593  0.5196
  815MPD2    C212047   0.713   0.020  11.906  0.5534  0.2898  0.2610
  815MPD2    C312048   0.694   0.132  11.981 -0.4553  0.1735 -0.2820
  815MPD2    C412049   0.748   0.251  11.952 -0.3269 -0.6863 -0.0691
  815MPD2    C512050   0.824   0.266  11.837 -0.1888  0.6524 -0.3208
  815MPD2     H12051   0.686   4.656  11.936  1.0629  0.7641  2.2932
  815MPD2    H112052   0.756   0.325  12.031  0.4297 -1.0480  0.1881
  815MPD2    H212053   0.891   0.165  11.665 -0.4863  2.4491 -0.1143
  815MPD2    H312054   0.876   0.357  11.811  1.5534  0.3009  1.9078
  815MPD2     N12055   0.607   0.103  12.086 -0.0520 -0.4619 -0.5365
  815MPD2    H512056   0.574   0.007  12.099  0.2435 -0.3731  0.8997
  815MPD2    N112057   0.809   4.662  11.698  0.1439  0.0029  0.5419
  815MPD2    H712058   0.859   4.681  11.611  2.3593  0.0027  1.8091
  816MPD2     C12059   0.161   4.399  17.040 -0.1120  0.3060 -0.5525
  816MPD2    C112060   0.187   4.522  16.978 -0.2396 -0.2071 -0.9118
  816MPD2    C212061   0.314   4.538  16.930 -0.3901  0.2596 -0.2271
  816MPD2    C312062   0.406   4.434  16.930  0.4605  0.4805 -0.0198
  816MPD2    C412063   0.368   4.311  16.984 -0.1280 -0.0459  0.6963
  816MPD2    C512064   0.247   4.295  17.038  0.0137 -0.1212  1.6143
  816MPD2     H12065   0.352   4.635  16.899  2.2326 -0.1233  1.7493
  816MPD2    H112066   0.440   4.230  16.992  2.1951  1.4972 -4.4988
  816MPD2    H212067   0.063   4.380  17.084  0.0221 -0.3123 -0.5240
  816MPD2    H312068   0.216   4.203  17.085  1.2439  0.5891  3.8289
  816MPD2     N12069   0.534   4.462  16.877  0.3193  0.0749 -0.1330
  816MPD2    H512070   0.534   4.554  16.834  2.0468  0.8150  1.4627
  816MPD2    N112071   0.083   4.621  16.980 -0.4463 -0.7471 -0.3288
  816MPD2    H712072   4.726   4.598  17.014 -0.6887  1.1423  0.2773
  817MPD2     C12073   4.432   0.615   9.883 -0.6474  0.3065 -0.3669
  817MPD2    C112074   4.414   0.620   9.747 -0.2363  0.2243  0.3374
  817MPD2    C212075   4.331   0.717   9.694 -0.0681 -0.8903  0.4266
  817MPD2    C312076   4.259   0.801   9.779  0.4718  1.1014  0.5414
  817MPD2    C412077   4.274   0.803   9.913  0.2511 -0.3377  0.3128
  817MPD2    C512078   4.360   0.697   9.961 -0.7423  0.0797  0.7889
  817MPD2     H12079   4.307   0.721   9.589  1.3709 -3.8818 -0.0117
  817MPD2    H112080   4.234   0.872   9.986 -1.5847 -2.1770  1.0132
  817MPD2    H212081   4.505   0.553   9.933 -1.2927  1.6362  2.2113
  817MPD2    H312082   4.378   0.701  10.068 -0.4071  1.1631  0.6897
  817MPD2     N12083   4.175   0.893   9.715  0.2579  0.6045  0.2024
  817MPD2    H512084   4.192   0.887   9.615 -0.3460 -0.1540  0.1416
  817MPD2    N112085   4.476   0.537   9.646  0.2245  0.1227  0.3797
  817MPD2    H712086   4.460   0.568   9.551 -0.1899 -0.3653  0.2981
  818MPD2     C12087   3.459   0.747   9.871  0.7197 -0.5464  0.5747
  818MPD2    C112088   3.421   0.675   9.976 -0.1618 -0.1938 -0.2377
  818MPD2    C212089   3.457   0.538   9.991 -0.2221 -0.9896 -0.4807
  818MPD2    C312090   3.535   0.478   9.892 -0.4025 -0.5149  0.4191
  818MPD2    C412091   3.563   0.548   9.779  0.2012 -0.3684 -0.7327
  818MPD2    C512092   3.524   0.681   9.771 -0.4989 -0.0426  0.0557
  818MPD2     H12093   3.424   0.476  10.074  0.8894 -2.0723 -0.8404
  818MPD2    H112094   3.630   0.506   9.705  1.6995 -1.1944  1.0992
  818MPD2    H212095   3.425   0.848   9.852  0.8895 -0.4500  0.7877
  818MPD2    H312096   3.546   0.740   9.683 -0.2808  1.5153  1.1419
  818MPD2     N12097   3.580   0.345   9.892 -0.7317  0.0474 -0.5290
  818MPD2    H512098   3.647   0.322   9.819  0.1467  0.5876  0.1047
  818MPD2    N112099   3.369   0.743  10.089  0.0783  0.3764 -0.2414
  818MPD2    H712100   3.338   0.683  10.165  0.0114 -0.6213 -1.0517
  819MPD2     C12101   1.977   3.454  15.725 -0.1793 -0.6950 -0.2196
  819MPD2    C112102   1.951   3.324  15.720 -0.0656 -1.3771  0.1265
  819MPD2    C212103   2.006   3.241  15.818  0.5396 -0.1932 -0.5333
  819MPD2    C312104   2.085   3.295  15.920  0.2041 -0.5798  0.1391
  819MPD2    C412105   2.109   3.430  15.920 -0.4930 -0.0340  0.2208
  819MPD2    C512106   2.057   3.503  15.822  0.7232  0.0191 -0.2928
  819MPD2     H12107   2.000   3.133  15.824 -0.9399 -0.2007 -2.5048
  819MPD2    H112108   2.156   3.484  16.002  1.0067  1.8731 -1.8799
  819MPD2    H212109   1.936   3.525  15.654 -0.3166 -0.0462  0.4982
  819MPD2    H312110   2.081   3.609  15.817  1.2848 -0.0398  1.5190
  819MPD2     N12111   2.142   3.205  16.015  0.3338 -0.3697 -0.4598
  819MPD2    H512112   2.130   3.106  15.994 -1.7093 -0.1264 -0.4852
  819MPD2    N112113   1.865   3.288  15.619 -0.1711  0.5292 -0.9028
  819MPD2    H712114   1.824   3.369  15.574 -0.7089  2.0035  2.1845
  820MPD2     C12115   1.060   3.374  15.021  0.5676 -0.4751  0.2412
  820MPD2    C112116   1.051   3.379  15.158  0.0441 -0.5488  0.1330
  820MPD2    C212117   1.169   3.370  15.231  0.3651 -1.4528 -0.0744
  820MPD2    C312118   1.288   3.346  15.162  0.0971 -0.6983 -0.7615
  820MPD2    C412119   1.291   3.345  15.027  0.5178  0.2877 -0.2343
  820MPD2    C512120   1.181   3.370  14.961 -0.4686  0.0940  0.4549
  820MPD2     H12121   1.171   3.378  15.340  3.4442  0.8787 -0.2968
  820MPD2    H112122   1.385   3.332  14.973  0.2974  0.1401 -0.5786
  820MPD2    H212123   0.966   3.393  14.971  0.1565 -1.0340  0.8040
  820MPD2    H312124   1.193   3.382  14.854 -0.1103  0.8019  0.5675
  820MPD2     N12125   1.416   3.317  15.218 -0.8804 -0.3816  0.4517
  820MPD2    H512126   1.494   3.292  15.159  0.2802  0.1730  1.7513
  820MPD2    N112127   0.925   3.404  15.212  0.8767 -0.4101  0.0785
  820MPD2    H712128   0.848   3.383  15.150  2.1603 -2.4694 -0.8590
  821MPD2     C12129   2.057   3.945  12.826 -0.1814 -0.2329 -0.4088
  821MPD2    C112130   2.098   3.924  12.956 -0.0094  0.3370  0.3512
  821MPD2    C212131   2.206   3.991  13.004 -0.3125 -0.4676 -0.3205
  821MPD2    C312132   2.267   4.083  12.922 -0.0889  0.0965 -0.9131
  821MPD2    C412133   2.219   4.110  12.799  0.1546  0.8938  0.1180
  821MPD2    C512134   2.111   4.041  12.749 -0.1797 -0.2433  0.3304
  821MPD2     H12135   2.238   3.980  13.107 -2.0631  1.9366  0.4713
  821MPD2    H112136   2.274   4.183  12.741  1.0451  0.4893  0.4530
  821MPD2    H212137   1.967   3.900  12.785  0.8561  0.0850 -3.0050
  821MPD2    H312138   2.074   4.068  12.651 -0.3264  0.8409  0.6896
  821MPD2     N12139   2.375   4.164  12.967 -0.9963 -0.2718 -0.0422
  821MPD2    H512140   2.400   4.236  12.901  2.0262 -0.1818  1.1867
  821MPD2    N112141   2.033   3.828  13.043  0.2353 -0.0994  0.2063
  821MPD2    H712142   2.069   3.826  13.138 -0.3943  0.4732  0.4573
  822MPD2     C12143   2.643   4.222  15.616  0.8356 -0.4755 -0.1628
  822MPD2    C112144   2.584   4.176  15.727  0.4036 -0.4301  0.1324
  822MPD2    C212145   2.513   4.266  15.801 -0.4694  1.0445  0.8473
  822MPD2    C312146   2.496   4.401  15.765 -0.2401  0.1806 -0.6120
  822MPD2    C412147   2.556   4.437  15.646 -0.6210  0.3152 -0.3075
  822MPD2    C512148   2.634   4.352  15.574 -0.6181 -0.1493  0.1060
  822MPD2     H12149   2.461   4.237  15.892 -0.0653  1.8478  1.3348
  822MPD2    H112150   2.524   4.534  15.608  0.5696 -0.0230 -2.1495
  822MPD2    H212151   2.696   4.150  15.554  1.6634  0.9090 -1.0691
  822MPD2    H312152   2.686   4.387  15.486  1.3091  0.9973  1.6851
  822MPD2     N12153   2.442   4.495  15.853 -0.0586  0.5996  0.2436
  822MPD2    H512154   2.404   4.456  15.938  2.8477  0.7547  1.6379
  822MPD2    N112155   2.599   4.045  15.791  0.0647 -0.4711 -0.4195
  822MPD2    H712156   2.542   4.024  15.872  1.0522 -1.2207  0.0789
  823MPD2     C12157   2.168   4.669  16.631  0.6954 -0.0316 -0.0085
  823MPD2    C112158   2.179   4.584  16.521  0.3510  0.5391  0.6456
  823MPD2    C212159   2.177   4.445  16.546 -0.3491 -0.2023  0.9670
  823MPD2    C312160   2.160   4.397  16.672  0.0580 -0.3019 -0.3802
  823MPD2    C412161   2.138   4.478  16.774 -0.2051  0.0942  0.7716
  823MPD2    C512162   2.145   4.618  16.758 -0.2572 -0.2127  0.0326
  823MPD2     H12163   2.186   4.371  16.468  1.0515 -0.2609  1.1827
  823MPD2    H112164   2.119   4.436  16.871 -0.7110  0.9635  1.0515
  823MPD2    H212165   2.158   0.040  16.625  1.3683  0.1315  1.5817
  823MPD2    H312166   2.115   4.682  16.841 -2.5562 -1.4642  0.1794
  823MPD2     N12167   2.159   4.257  16.703 -0.0225  0.3969 -0.0010
  823MPD2    H512168   2.122   4.230  16.794  1.5010 -0.9854  0.2220
  823MPD2    N112169   2.196   4.648  16.396 -0.3125 -0.0527  0.1870
  823MPD2    H712170   2.201   0.013  16.394 -1.3883 -0.0175 -0.9949
  824MPD2     C12171   3.247   3.482  15.871  0.3749 -0.2717 -0.3558
  824MPD2    C112172   3.156   3.506  15.772  0.1917 -0.3448 -0.4636
  824MPD2    C212173   3.184   3.469  15.638 -0.1435  0.6857 -0.7882
  824MPD2    C312174   3.298   3.400  15.606  0.4053 -0.1696 -0.1305
  824MPD2    C412175   3.390   3.375  15.709  0.0508  0.0740  0.2548
  824MPD2    C512176   3.364   3.424  15.834 -0.1432  0.2145  0.0775
  824MPD2     H12177   3.113   3.492  15.558 -0.7626 -1.3602 -0.8230
  824MPD2    H112178   3.475   3.310  15.690  0.1877 -0.7396  3.7301
  824MPD2    H212179   3.238   3.522  15.971  1.2872  0.3575 -0.5260
  824MPD2    H312180   3.438   3.413  15.913  0.6137 -0.2431 -0.6966
  824MPD2     N12181   3.319   3.361  15.471 -0.8401  0.0411  0.2270
  824MPD2    H512182   3.272   3.416  15.400 -0.3905 -0.2537 -0.2935
  824MPD2    N112183   3.037   3.576  15.806  0.4669 -0.3600  0.0859
  824MPD2    H712184   2.981   3.610  15.728  0.5272  1.0391  0.6402
  825MPD2     C12185   4.011   3.521  15.140  0.0198  0.3416  0.3129
  825MPD2    C112186   3.887   3.561  15.108 -0.3423  0.7051 -0.1960
  825MPD2    C212187   3.866   3.688  15.049  0.9104  0.3952 -0.6443
  825MPD2    C312188   3.973   3.764  15.006  0.3176  0.0571  0.2616
  825MPD2    C412189   4.102   3.719  15.029 -0.2052 -0.6508 -0.0519
  825MPD2    C512190   4.120   3.602  15.100 -0.1977  0.6075 -0.5002
  825MPD2     H12191   3.766   3.705  15.011  0.5127 -3.0559 -1.1881
  825MPD2    H112192   4.188   3.775  14.994  0.7866 -2.0021  0.1901
  825MPD2    H212193   4.032   3.431  15.195  2.2117 -0.3856 -1.7007
  825MPD2    H312194   4.222   3.580  15.128 -0.3717 -1.7113 -1.7153
  825MPD2     N12195   3.962   3.887  14.930 -0.0951 -0.0997  0.4955
  825MPD2    H512196   4.049   3.929  14.900 -0.4044 -1.0757 -1.7680
  825MPD2    N112197   3.783   3.478  15.155  0.4584  0.9460 -0.1080
  825MPD2    H712198   3.796   3.399  15.218 -1.0479  1.4516  0.8264
  826MPD2     C12199   3.049   2.656  13.137 -0.3492  0.3650 -0.1593
  826MPD2    C112200   3.105   2.751  13.214 -0.3282  0.9310 -0.1765
  826MPD2    C212201   3.026   2.833  13.301  0.1392 -0.0053 -0.0359
  826MPD2    C312202   2.895   2.799  13.317  0.7464  0.9184  0.5651
  826MPD2    C412203   2.839   2.703  13.240  0.2842  0.4756  0.0261
  826MPD2    C512204   2.916   2.630  13.156  0.8068  0.2571  0.4911
  826MPD2     H12205   3.070   2.913  13.359  1.1569 -0.3043 -0.3947
  826MPD2    H112206   2.734   2.676  13.240  1.2720 -3.3745 -0.4090
  826MPD2    H212207   3.099   2.596  13.063 -1.6285 -1.6559  0.6160
  826MPD2    H312208   2.878   2.560  13.083  0.7982  2.7775 -1.9678
  826MPD2     N12209   2.815   2.874  13.405  0.1886  0.4529 -0.3171
  826MPD2    H512210   2.721   2.837  13.412  1.0421 -1.3927  1.2068
  826MPD2    N112211   3.247   2.769  13.198  0.2193  0.0290 -0.6688
  826MPD2    H712212   3.295   2.698  13.144 -1.0165 -0.4782 -1.1107
  827MPD2     C12213   4.206   4.215  10.031 -0.0338  0.6840  0.1053
  827MPD2    C112214   4.109   4.257  10.116  0.9441 -0.0502 -0.1497
  827MPD2    C212215   3.986   4.292  10.064 -0.1013 -0.8271 -0.0747
  827MPD2    C312216   3.959   4.271   9.928 -0.3438 -0.2316 -0.1315
  827MPD2    C412217   4.060   4.245   9.841  0.3969  0.1507 -0.4216
  827MPD2    C512218   4.178   4.214   9.898  0.3815  0.4109 -0.4707
  827MPD2     H12219   3.910   4.339  10.126 -0.2805  0.1369 -1.0279
  827MPD2    H112220   4.049   4.242   9.734 -1.9999  0.7984 -0.1750
  827MPD2    H212221   4.302   4.180  10.068 -0.3348 -2.1928 -1.7743
  827MPD2    H312222   4.260   4.190   9.832 -0.2446  0.1931 -1.1763
  827MPD2     N12223   3.825   4.297   9.890 -0.0134 -0.0939  0.3526
  827MPD2    H512224   3.754   4.319   9.959  1.6315  2.6201  1.1935
  827MPD2    N112225   4.153   4.269  10.248 -0.2966 -0.0848 -0.2630
  827MPD2    H712226   4.241   4.220  10.262 -1.4430 -2.3944 -1.0538
  828MPD2     C12227   2.771   0.073  12.274 -0.0896  0.3768  0.2425
  828MPD2    C112228   2.660   0.113  12.210 -0.4813  0.5177 -0.4610
  828MPD2    C212229   2.665   0.126  12.073 -0.9727 -0.1592 -0.2539
  828MPD2    C312230   2.766   0.081  11.997  1.2222 -0.0392 -0.1070
  828MPD2    C412231   2.879   0.037  12.065  0.3595 -0.3131  0.3938
  828MPD2    C512232   2.881   0.048  12.199  0.3797  0.4674  0.4153
  828MPD2     H12233   2.569   0.147  12.026 -0.8742  0.0123 -0.3801
  828MPD2    H112234   2.966   4.733  12.014  0.9866 -0.1641  1.3386
  828MPD2    H212235   2.780   0.086  12.381 -0.0415 -0.1284  0.2977
  828MPD2    H312236   2.976   0.033  12.250  1.5003 -2.1560 -2.3831
  828MPD2     N12237   2.760   0.065  11.859  0.0329  0.3891  0.1070
  828MPD2    H512238   2.835   0.011  11.817 -1.8849 -2.8880  0.9687
  828MPD2    N112239   2.535   0.130  12.273 -0.0618  0.0873 -0.2158
  828MPD2    H712240   2.457   0.148  12.211  1.4083 -0.1209 -2.0998
  829MPD2     C12241   1.840   0.185  11.805 -0.4365 -0.2147 -0.2886
  829MPD2    C112242   1.768   0.161  11.922  0.3917  0.5660 -0.1494
  829MPD2    C212243   1.841   0.140  12.040 -0.8515 -0.1579  0.3720
  829MPD2    C312244   1.980   0.140  12.041  0.1315 -0.0771  0.3091
  829MPD2    C412245   2.040   0.154  11.917 -0.1678  0.0894  0.5296
  829MPD2    C512246   1.974   0.174  11.801 -0.0407 -0.1698  0.1951
  829MPD2     H12247   1.791   0.126  12.136 -0.3409  1.5738  0.9004
  829MPD2    H112248   2.146   0.173  11.915 -0.3073  0.7346 -0.8215
  829MPD2    H212249   1.790   0.220  11.716  0.1381  0.9204 -0.1538
  829MPD2    H312250   2.023   0.182  11.705 -1.2611  0.8412 -0.3510
  829MPD2     N12251   2.069   0.113  12.148  0.0389 -0.8230 -0.4091
  829MPD2    H512252   2.168   0.105  12.127 -0.0861 -2.3870 -0.4307
  829MPD2    N112253   1.630   0.175  11.912  0.1285  0.3000 -0.9242
  829MPD2    H712254   1.596   0.210  11.823 -1.2938 -0.0675 -0.5245
  830MPD2     C12255   2.530   2.498  16.146  0.7029 -0.2347 -0.3740
  830MPD2    C112256   2.453   2.586  16.084  0.0594 -0.0193 -0.7009
  830MPD2    C212257   2.449   2.585  15.945  0.3864  0.6060  1.2755
  830MPD2    C312258   2.532   2.487  15.875  0.0804  0.4471 -0.2203
  830MPD2    C412259   2.612   2.406  15.946 -0.4587 -0.5715 -0.0139
  830MPD2    C512260   2.614   2.414  16.076 -0.1360 -0.1327 -0.1979
  830MPD2     H12261   2.400   2.664  15.889  0.1977  0.0115  0.6186
  830MPD2    H112262   2.682   2.337  15.902  0.1605  0.4306 -0.5850
  830MPD2    H212263   2.531   2.487  16.254 -1.1637  0.8253 -0.2481
  830MPD2    H312264   2.682   2.352  16.134 -1.1057 -1.2536 -0.2556
  830MPD2     N12265   2.547   2.485  15.734 -0.3829  0.0376  1.0414
  830MPD2    H512266   2.626   2.430  15.702 -0.9256  0.3137 -0.7561
  830MPD2    N112267   2.375   2.671  16.161 -0.4507 -0.4687 -0.1622
  830MPD2    H712268   2.393   2.666  16.261  0.5965 -1.6517 -0.4144
  831MPD2     C12269   2.704   4.421  16.176 -0.8310  0.9888  0.2503
  831MPD2    C112270   2.714   4.304  16.109 -0.7229 -0.6986 -0.0861
  831MPD2    C212271   2.605   4.213  16.120 -0.0565 -0.3837  0.6451
  831MPD2    C312272   2.502   4.244  16.205  0.0738  0.4056  0.2909
  831MPD2    C412273   2.514   4.351  16.289 -0.1641 -0.0311 -0.0265
  831MPD2    C512274   2.610   4.444  16.267  0.3080  0.8230 -0.0659
  831MPD2     H12275   2.604   4.133  16.046  2.7918  1.2507 -1.1710
  831MPD2    H112276   2.439   4.379  16.362  0.7751  3.1475 -0.2753
  831MPD2    H212277   2.783   4.495  16.186  0.5546 -0.4001 -0.3800
  831MPD2    H312278   2.604   4.536  16.324 -0.9546 -0.2384  1.5165
  831MPD2     N12279   2.380   4.175  16.212  0.2384  0.3287 -0.4405
  831MPD2    H512280   2.312   4.210  16.279 -0.6978  1.7915 -2.1448
  831MPD2    N112281   2.817   4.283  16.012  0.2221 -0.2310  0.6466
  831MPD2    H712282   2.857   4.370  15.979 -1.4436  0.3104  0.0662
  832MPD2     C12283   0.908   0.960  17.257  0.1360  0.2555 -0.1460
  832MPD2    C112284   0.812   1.059  17.256  0.8302  0.0274  0.7405
  832MPD2    C212285   0.743   1.079  17.142  0.0186  0.6866  0.7945
  832MPD2    C312286   0.745   0.988  17.034 -0.3260 -0.0037 -0.6376
  832MPD2    C412287   0.837   0.889  17.041 -0.0257  1.1896 -0.1337
  832MPD2    C512288   0.911   0.871  17.155 -0.1891 -0.0883  0.1612
  832MPD2     H12289   0.664   1.153  17.148 -0.8440  0.0824 -3.0430
  832MPD2    H112290   0.843   0.822  16.956 -0.2444 -0.3505  1.0601
  832MPD2    H212291   0.971   0.937  17.342 -1.0342 -1.1989  0.3184
  832MPD2    H312292   0.972   0.782  17.164  0.7364  0.6893  1.6370
  832MPD2     N12293   0.664   0.991  16.925  0.1148 -0.2285  0.1000
  832MPD2    H512294   0.648   0.905  16.872  2.0685 -0.3910 -0.2341
  832MPD2    N112295   0.806   1.162  17.352 -0.1602 -0.3433  0.0760
  832MPD2    H712296   0.779   1.251  17.312 -1.7482 -1.2611 -0.8666
  833MPD2     C12297   3.022   1.693  12.473 -0.3280 -0.7554 -0.6130
  833MPD2    C112298   3.059   1.800  12.397 -0.2075  0.3359 -0.4922
  833MPD2    C212299   3.105   1.774  12.266 -0.7921  0.1211 -0.2245
  833MPD2    C312300   3.123   1.641  12.224  0.0328 -0.4004  0.1485
  833MPD2    C412301   3.074   1.534  12.299  0.2471 -0.3102 -0.1069
  833MPD2    C512302   3.026   1.562  12.426  0.2724  0.3781  0.6291
  833MPD2     H12303   3.118   1.857  12.197  1.5273  1.0049  1.2603
  833MPD2    H112304   3.085   1.430  12.271  2.9652  0.0905 -0.4678
  833MPD2    H212305   2.986   1.712  12.574 -0.7761  0.6914 -1.0479
  833MPD2    H312306   2.991   1.483  12.492  0.5159 -0.7239 -0.5818
  833MPD2     N12307   3.154   1.626  12.086 -0.1501  0.2175  0.4407
  833MPD2    H512308   3.108   1.551  12.036  0.9453 -0.8765  1.0571
  833MPD2    N112309   3.054   1.933  12.450  0.8573 -0.2272 -0.1407
  833MPD2    H712310   3.029   1.943  12.548  1.7955 -0.7123  0.1488
  834MPD2     C12311   2.919   1.083  11.473 -0.4809 -0.1819  1.2749
  834MPD2    C112312   3.040   1.110  11.524 -1.0948  0.1811 -0.6723
  834MPD2    C212313   3.062   1.228  11.593 -0.0209  0.2128 -0.5832
  834MPD2    C312314   2.960   1.321  11.610  0.0583 -0.7708 -0.6148
  834MPD2    C412315   2.835   1.286  11.569  0.8582  0.1420  0.2521
  834MPD2    C512316   2.818   1.168  11.501 -0.9662  0.1076  0.1832
  834MPD2     H12317   3.164   1.251  11.620 -0.3223  1.6008 -0.6244
  834MPD2    H112318   2.749   1.349  11.588  0.0939 -1.0254  0.6914
  834MPD2    H212319   2.889   0.993  11.420 -2.3006  1.4783 -0.5357
  834MPD2    H312320   2.717   1.155  11.464 -1.3771  0.2686  1.2449
  834MPD2     N12321   2.999   1.439  11.669  0.0167  0.1364  0.2903
  834MPD2    H512322   3.092   1.448  11.707  0.4806  0.4565 -0.8999
  834MPD2    N112323   3.143   1.009  11.495 -0.2573 -0.4880 -0.0610
  834MPD2    H712324   3.117   0.931  11.436 -0.0348 -0.4327 -0.2307
  835MPD2     C12325   3.432   4.354  11.056  0.5933 -0.4493 -0.5412
  835MPD2    C112326   3.403   4.460  11.137  0.1159  0.5534  0.3162
  835MPD2    C212327   3.488   4.482  11.246  0.1867  0.2743 -0.8858
  835MPD2    C312328   3.586   4.390  11.280 -0.5371  0.1818  0.6912
  835MPD2    C412329   3.609   4.284  11.193  0.6661 -0.2665 -0.9934
  835MPD2    C512330   3.536   4.276  11.079 -0.2044 -0.6572  0.3819
  835MPD2     H12331   3.479   4.571  11.307  1.1098 -1.0089  1.1174
  835MPD2    H112332   3.682   4.205  11.207  1.3821  0.1951 -2.1601
  835MPD2    H212333   3.379   4.328  10.965 -1.2844  0.8577  0.1942
  835MPD2    H312334   3.538   4.195  11.007  0.9981 -1.4431  1.3015
  835MPD2     N12335   3.667   4.400  11.402 -0.1808 -0.2576  0.3012
  835MPD2    H512336   3.748   4.339  11.410  1.0562  1.6114  2.0716
  835MPD2    N112337   3.293   4.544  11.106 -0.5319 -0.3127  0.0986
  835MPD2    H712338   3.277   4.629  11.158  0.0103 -0.5405  0.6425
  836MPD2     C12339   3.737   4.400  12.313  0.7140  0.2670 -0.4325
  836MPD2    C112340   3.658   4.450  12.215 -0.8045 -0.0250 -0.3767
  836MPD2    C212341   3.552   4.536  12.249 -0.1926  0.5826 -0.3821
  836MPD2    C312342   3.527   4.569  12.381  0.1920 -0.2688 -0.5383
  836MPD2    C412343   3.608   4.517  12.476 -0.3837 -0.2708  0.6707
  836MPD2    C512344   3.712   4.441  12.439 -0.5927 -0.9444  1.1901
  836MPD2     H12345   3.492   4.590  12.176  0.5220  3.8408  1.4180
  836MPD2    H112346   3.613   4.546  12.581 -0.7715  0.0508  0.6013
  836MPD2    H212347   3.831   4.350  12.292 -0.5964 -3.0121  1.5108
  836MPD2    H312348   3.773   4.400  12.519 -0.0388  0.2758  1.3804
  836MPD2     N12349   3.416   4.645  12.425  0.1602  0.1740 -0.4353
  836MPD2    H512350   3.407   4.650  12.526  0.7735  1.2934 -0.4339
  836MPD2    N112351   3.678   4.403  12.083 -0.2239  0.0738 -0.0773
  836MPD2    H712352   3.751   4.333  12.076 -0.0449  0.1052  1.4510
  837MPD2     C12353   1.577   4.128  10.414 -0.3734  0.2916  0.0579
  837MPD2    C112354   1.557   4.190  10.295  0.0341 -0.0451 -0.5940
  837MPD2    C212355   1.571   4.327  10.285 -0.0358 -0.2595 -0.6976
  837MPD2    C312356   1.579   4.404  10.393  0.2134  0.2900 -0.2139
  837MPD2    C412357   1.603   4.338  10.514 -0.2324  0.2544  0.0513
  837MPD2    C512358   1.603   4.206  10.520  0.7823 -0.2176  0.2452
  837MPD2     H12359   1.558   4.368  10.186  0.3230  0.8908 -0.2684
  837MPD2    H112360   1.608   4.403  10.601  0.3716 -0.3041  0.4408
  837MPD2    H212361   1.569   4.020  10.427  1.4402  0.1737  0.2136
  837MPD2    H312362   1.611   4.153  10.614  0.1892 -0.7385  0.0086
  837MPD2     N12363   1.552   4.542  10.377  0.5370  0.7284 -0.1177
  837MPD2    H512364   1.532   4.566  10.280  2.6670 -0.6735 -0.8982
  837MPD2    N112365   1.513   4.117  10.181 -0.1716  0.5253 -0.5121
  837MPD2    H712366   1.511   4.173  10.096  1.1370  2.0647  0.4767
  838MPD2     C12367   4.240   1.766  10.903 -0.2645 -0.3296 -0.9612
  838MPD2    C112368   4.260   1.857  11.008  0.0603 -0.7064 -0.0697
  838MPD2    C212369   4.170   1.864  11.107  0.4605 -0.1723 -0.1406
  838MPD2    C312370   4.055   1.785  11.116  0.7056 -0.5588  0.2526
  838MPD2    C412371   4.040   1.687  11.022  0.3245  0.8730 -0.1239
  838MPD2    C512372   4.128   1.688  10.907 -0.1122  0.1827  0.6043
  838MPD2     H12373   4.186   1.935  11.187  0.6798 -1.4122  0.9215
  838MPD2    H112374   3.949   1.628  11.019  1.2680 -0.6628  1.1517
  838MPD2    H212375   4.307   1.746  10.820 -0.5981 -0.4427 -1.2029
  838MPD2    H312376   4.101   1.619  10.828 -2.0261  0.3048  1.1361
  838MPD2     N12377   3.972   1.800  11.230  0.2252  0.1240  0.7714
  838MPD2    H512378   3.996   1.869  11.301  0.5551 -1.7630  2.5221
  838MPD2    N112379   4.369   1.946  11.019 -0.3810 -0.3409 -0.0313
  838MPD2    H712380   4.373   1.996  11.107 -0.2328 -0.4047 -0.0010
  839MPD2     C12381   4.591   1.806  11.636 -0.1466  0.4753  0.6601
  839MPD2    C112382   4.641   1.766  11.514 -0.6222  1.2275  0.2190
  839MPD2    C212383   4.684   1.859  11.424 -0.3903 -0.3144 -0.6236
  839MPD2    C312384   4.664   1.995  11.449 -0.4534  1.2210  0.8774
  839MPD2    C412385   4.592   2.037  11.563 -0.3599 -0.0111 -0.1321
  839MPD2    C512386   4.555   1.941  11.652 -0.4202  0.1183  0.6682
  839MPD2     H12387   4.711   1.840  11.321 -0.1885 -1.2140 -0.3993
  839MPD2    H112388   4.563   2.140  11.578 -0.3957  0.0040 -0.3024
  839MPD2    H212389   4.568   1.740  11.718  3.3081 -0.8323  0.5639
  839MPD2    H312390   4.507   1.969  11.745 -0.4894  1.9126  0.0870
  839MPD2     N12391   4.695   2.089  11.355  0.0398 -0.2294 -0.0604
  839MPD2    H512392   4.632   2.169  11.348  1.0073  0.3885 -1.7333
  839MPD2    N112393   4.637   1.633  11.470  0.5084 -0.3120 -0.0073
  839MPD2    H712394   4.669   1.621  11.375  1.0712 -1.1227  0.2810
  840MPD2     C12395   0.007   4.299  10.371  0.1066 -0.0586 -0.1667
  840MPD2    C112396   4.694   4.365  10.484  0.1992  0.0958  0.4755
  840MPD2    C212397   0.044   4.432  10.571 -0.2225 -0.6829 -0.2865
  840MPD2    C312398   0.183   4.425  10.552  0.2985  0.0922  0.2199
  840MPD2    C412399   0.234   4.360  10.442  0.1362 -0.1412 -0.3870
  840MPD2    C512400   0.143   4.306  10.352  0.1449 -0.2544  1.1565
  840MPD2     H12401   0.008   4.486  10.658 -2.9995 -1.4349 -0.9631
  840MPD2    H112402   0.339   4.346  10.418  0.4469 -2.0129  2.0641
  840MPD2    H212403   4.675   4.252  10.302 -0.3033  1.1919 -0.6055
  840MPD2    H312404   0.177   4.254  10.263 -3.1341 -0.5474  0.0910
  840MPD2     N12405   0.276   4.497  10.633  0.1408 -0.0496 -0.1639
  840MPD2    H512406   0.358   4.518  10.577  0.7428  0.4448  0.8892
  840MPD2    N112407   4.551   4.365  10.494 -0.1969  0.5141 -0.0260
  840MPD2    H712408   4.508   4.325  10.411  2.0197  0.6012 -1.2206
  841MPD2     C12409   3.898   4.123  14.460 -0.3949 -0.0463  0.6082
  841MPD2    C112410   3.989   4.040  14.516 -0.0881 -0.4127  0.3186
  841MPD2    C212411   4.098   4.090  14.583 -0.4287 -0.4028  0.4570
  841MPD2    C312412   4.128   4.222  14.585  0.0838  0.5817  0.7372
  841MPD2    C412413   4.036   4.313  14.525 -0.1466  0.7575  0.5284
  841MPD2    C512414   3.924   4.258  14.469  0.0179  0.0974 -0.0494
  841MPD2     H12415   4.169   4.016  14.617  0.5064  1.8848  3.4766
  841MPD2    H112416   4.042   4.421  14.527  3.6845  0.5145  3.0368
  841MPD2    H212417   3.809   4.093  14.405 -0.1868  0.8056 -0.1933
  841MPD2    H312418   3.850   4.323  14.424  0.9074  1.7415  0.8627
  841MPD2     N12419   4.244   4.265  14.647  0.1936  0.0346 -0.2832
  841MPD2    H512420   4.308   4.192  14.675  1.3977  0.9064 -0.7730
  841MPD2    N112421   3.982   3.899  14.511  0.2761 -0.0099  0.0232
  841MPD2    H712422   4.062   3.844  14.541 -0.4029 -1.0963 -0.1536
  842MPD2     C12423   4.565   0.920  16.703 -1.0786 -0.2575  0.1549
  842MPD2    C112424   4.606   1.046  16.716 -0.1081 -0.2871  0.2620
  842MPD2    C212425   4.608   1.106  16.837  0.4020 -0.1701 -0.2187
  842MPD2    C312426   4.556   1.037  16.940 -0.1510 -0.1863 -0.1244
  842MPD2    C412427   4.534   0.899  16.935  0.0357  0.5607  0.8607
  842MPD2    C512428   4.542   0.843  16.811 -0.3463  0.4774  0.1471
  842MPD2     H12429   4.621   1.214  16.833  0.5348 -0.1841 -0.1650
  842MPD2    H112430   4.503   0.836  17.017 -1.0654  1.3432  1.0495
  842MPD2    H212431   4.558   0.871  16.607  1.3685 -1.6885  0.6818
  842MPD2    H312432   4.508   0.740  16.801 -0.5280  0.6461 -1.0552
  842MPD2     N12433   4.530   1.104  17.065  0.3086 -0.2038 -0.7487
  842MPD2    H512434   4.502   1.046  17.143  0.3727  0.0705 -0.5235
  842MPD2    N112435   4.627   1.114  16.600 -0.5883  0.1258  0.5339
  842MPD2    H712436   4.593   1.071  16.515  1.0031 -0.0786  0.0116
  843MPD2     C12437   2.130   2.462   0.308 -0.4629 -0.3981 -0.0767
  843MPD2    C112438   2.223   2.420   0.405  0.1653 -0.1644  0.5049
  843MPD2    C212439   2.338   2.494   0.433 -0.1126  0.1541 -0.1075
  843MPD2    C312440   2.348   2.619   0.369  0.1246 -0.0139 -0.0393
  843MPD2    C412441   2.252   2.658   0.284  0.0244 -0.3591 -0.7634
  843MPD2    C512442   2.141   2.582   0.251  0.0140 -0.6464 -0.7102
  843MPD2     H12443   2.409   2.466   0.511 -1.5066 -0.8296  0.8137
  843MPD2    H112444   2.264   2.747   0.222  4.0714 -0.4389 -0.1321
  843MPD2    H212445   2.034   2.414   0.297  0.2738 -0.9841 -3.8365
  843MPD2    H312446   2.076   2.621   0.174  0.4088  0.3482 -0.5393
  843MPD2     N12447   2.460   2.699   0.383 -0.1712 -0.5631 -0.5422
  843MPD2    H512448   2.468   2.784   0.327 -0.6438 -0.9033 -1.1264
  843MPD2    N112449   2.197   2.295   0.466  0.1058  0.4498 -0.5286
  843MPD2    H712450   2.109   2.247   0.453 -0.3596  0.9565  0.7518
  844MPD2     C12451   0.790   0.681  16.342  0.5860 -0.4290 -0.5275
  844MPD2    C112452   0.918   0.623  16.340  0.3875  0.5127  0.0789
  844MPD2    C212453   1.017   0.657  16.434  0.5521 -0.1183  0.3807
  844MPD2    C312454   0.997   0.769  16.515 -0.0303 -0.5016  0.6800
  844MPD2    C412455   0.871   0.821  16.518 -0.2581  0.3477 -0.0291
  844MPD2    C512456   0.770   0.775  16.434 -0.0659 -0.0826  0.2884
  844MPD2     H12457   1.113   0.609  16.418  0.2553 -0.5897  0.0171
  844MPD2    H112458   0.842   0.909  16.574  0.3090 -0.2425  1.1938
  844MPD2    H212459   0.709   0.653  16.276  0.3898 -1.6876  0.2380
  844MPD2    H312460   0.674   0.822  16.450 -0.0958 -0.8013  2.2328
  844MPD2     N12461   1.108   0.829  16.575  0.3451 -0.8335 -0.3758
  844MPD2    H512462   1.200   0.788  16.565  1.4119  1.3704  0.4053
  844MPD2    N112463   0.951   0.540  16.231 -0.3411 -0.1073  0.0967
  844MPD2    H712464   1.027   0.473  16.231 -1.0277 -0.8845 -2.4775
  845MPD2     C12465   0.908   1.540  17.176 -0.7006 -0.2073  0.1035
  845MPD2    C112466   0.851   1.433  17.109 -0.2092 -0.2952  0.0445
  845MPD2    C212467   0.930   1.359  17.025  0.3340 -0.2773 -0.2738
  845MPD2    C312468   1.065   1.379  17.021  0.7421 -0.0460  0.1659
  845MPD2    C412469   1.121   1.488  17.083  0.3725  0.1061 -0.2550
  845MPD2    C512470   1.043   1.572  17.162 -0.1193  0.1513  0.2720
  845MPD2     H12471   0.887   1.275  16.972  0.2467 -0.9099  0.7997
  845MPD2    H112472   1.222   1.522  17.067  0.0667  0.9066 -0.4803
  845MPD2    H212473   0.859   1.594  17.256 -0.5290  1.6255 -1.0372
  845MPD2    H312474   1.090   1.661  17.201  0.3141  0.4302 -0.8910
  845MPD2     N12475   1.136   1.301  16.927  0.5297  0.2734  0.1261
  845MPD2    H512476   1.089   1.233  16.868  2.0002 -1.4707  0.9645
  845MPD2    N112477   0.715   1.395  17.125 -0.3684 -0.5334 -0.6142
  845MPD2    H712478   0.668   1.340  17.055 -1.2613  1.1455 -1.3074
  846MPD2     C12479   2.384   1.558  13.757 -0.6426 -1.0342  0.3558
  846MPD2    C112480   2.267   1.631  13.786 -0.1325 -0.1369  0.3162
  846MPD2    C212481   2.247   1.676  13.917  0.0335  0.4083  0.2965
  846MPD2    C312482   2.335   1.647  14.015 -0.4027 -0.4119 -0.4413
  846MPD2    C412483   2.439   1.558  13.993 -0.2356  1.2975 -0.3457
  846MPD2    C512484   2.458   1.514  13.864 -0.2238 -0.1521 -0.1136
  846MPD2     H12485   2.161   1.739  13.935 -0.6838  0.0421 -1.8300
  846MPD2    H112486   2.503   1.527  14.075  0.0724 -0.7374 -1.3596
  846MPD2    H212487   2.403   1.535  13.653 -0.9959  3.1561 -0.6414
  846MPD2    H312488   2.539   1.448  13.838  0.6716  0.2829  1.6025
  846MPD2     N12489   2.306   1.683  14.149  0.2473 -0.6235 -0.3260
  846MPD2    H512490   2.218   1.732  14.159  1.1682  1.3675 -1.9749
  846MPD2    N112491   2.181   1.686  13.692  0.0584  0.0651  0.3206
  846MPD2    H712492   2.114   1.753  13.729  0.1089 -0.2966  1.0629
  847MPD2     C12493   2.303   2.907  14.942 -0.2912 -0.2405  0.1990
  847MPD2    C112494   2.444   2.908  14.932  0.1950 -0.0474 -0.8521
  847MPD2    C212495   2.511   2.793  14.970  0.2668  0.9283 -0.5567
  847MPD2    C312496   2.445   2.679  15.013 -0.2622  0.2211  0.2674
  847MPD2    C412497   2.308   2.672  15.011  0.5311  0.0761  0.6601
  847MPD2    C512498   2.237   2.786  14.973 -0.4797 -1.2302 -0.2335
  847MPD2     H12499   2.619   2.785  14.960  0.1198 -3.0334  1.0111
  847MPD2    H112500   2.247   2.589  15.043  1.1837 -0.2120  1.1266
  847MPD2    H212501   2.243   2.995  14.923  0.5480 -0.0452 -1.4569
  847MPD2    H312502   2.130   2.798  14.987  0.0332  3.7824 -0.6078
  847MPD2     N12503   2.521   2.567  15.051  0.0182 -0.2445 -0.8810
  847MPD2    H512504   2.620   2.583  15.034  0.3052  0.6429  1.7170
  847MPD2    N112505   2.526   3.024  14.915 -0.5173  0.1094  0.1513
  847MPD2    H712506   2.625   3.010  14.898 -0.8620 -0.0134 -1.6711
  848MPD2     C12507   0.463   1.399  16.291 -0.0719 -0.3324  0.9945
  848MPD2    C112508   0.463   1.455  16.419 -0.0288  0.1750  0.6750
  848MPD2    C212509   0.517   1.581  16.434  0.7196 -0.2679  0.9591
  848MPD2    C312510   0.565   1.653  16.325 -0.1087  0.4566  0.4386
  848MPD2    C412511   0.555   1.602  16.198 -0.9198  0.0613 -0.5828
  848MPD2    C512512   0.500   1.482  16.186 -0.8418 -0.2833  0.7244
  848MPD2     H12513   0.520   1.628  16.531 -0.1296 -0.2160  0.9572
  848MPD2    H112514   0.584   1.665  16.115  0.0219  1.1146  0.5280
  848MPD2    H212515   0.439   1.298  16.259 -0.2124  0.6034 -1.8501
  848MPD2    H312516   0.509   1.434  16.089  2.3435  0.7728  0.4922
  848MPD2     N12517   0.611   1.792  16.333  0.3385 -0.4715 -0.5357
  848MPD2    H512518   0.642   1.835  16.246  0.3782  1.0616  0.2478
  848MPD2    N112519   0.401   1.398  16.531  0.0157  0.2515  0.4212
  848MPD2    H712520   0.415   1.442  16.621  2.1254 -1.7757  1.1039
  849MPD2     C12521   4.057   0.721  14.256 -0.0810  0.5047  0.0127
  849MPD2    C112522   4.176   0.761  14.316 -0.7721 -0.4450 -0.1514
  849MPD2    C212523   4.214   0.690  14.428 -0.7294 -0.1700 -0.5784
  849MPD2    C312524   4.133   0.592  14.480 -0.0863  0.5053 -0.3280
  849MPD2    C412525   4.010   0.562  14.421 -0.7122  0.1485 -0.6300
  849MPD2    C512526   3.977   0.624  14.306  0.3439 -0.3375  0.1479
  849MPD2     H12527   4.317   0.707  14.456 -0.7054  0.5868 -1.1023
  849MPD2    H112528   3.958   0.469  14.444 -1.1940  0.3461 -0.9286
  849MPD2    H212529   4.019   0.762  14.163  0.6235 -0.9379 -0.9250
  849MPD2    H312530   3.886   0.596  14.253  0.4910  1.4490 -1.0613
  849MPD2     N12531   4.187   0.503  14.576  0.2681 -0.1728 -0.4779
  849MPD2    H512532   4.150   0.409  14.584  1.2972 -0.4729  0.6737
  849MPD2    N112533   4.262   0.846  14.247 -0.0253  0.1671 -0.3334
  849MPD2    H712534   4.232   0.867  14.152 -1.5044  0.9318  0.2933
  850MPD2     C12535   2.668   3.616  14.564 -0.1601 -0.5450  0.0112
  850MPD2    C112536   2.707   3.673  14.682 -0.3845  0.1081  0.5041
  850MPD2    C212537   2.838   3.730  14.705 -0.1105 -0.3440 -1.2807
  850MPD2    C312538   2.925   3.740  14.593  1.0552  0.1666  0.2053
  850MPD2    C412539   2.881   3.684  14.469 -0.2872  0.2651 -0.0789
  850MPD2    C512540   2.758   3.624  14.461  0.1052 -0.6397 -0.1092
  850MPD2     H12541   2.865   3.763  14.804 -0.6921 -2.5464 -0.3731
  850MPD2    H112542   2.951   3.665  14.388 -0.5281 -0.1115 -0.1966
  850MPD2    H212543   2.577   3.558  14.552 -0.6478  0.0349  0.9119
  850MPD2    H312544   2.724   3.583  14.366 -2.0946 -0.6376  0.6805
  850MPD2     N12545   3.054   3.794  14.610  0.8273 -0.0278  0.3864
  850MPD2    H512546   3.117   3.787  14.531 -0.9670 -0.1082 -1.0455
  850MPD2    N112547   2.615   3.673  14.795 -1.0100  0.6509 -0.2264
  850MPD2    H712548   2.537   3.608  14.788  0.5594 -1.2903  0.3963
  851MPD2     C12549   2.852   3.356  15.454  0.5989 -0.3029  0.2463
  851MPD2    C112550   2.744   3.334  15.370 -0.0221  0.2412 -0.6729
  851MPD2    C212551   2.688   3.201  15.363  0.1763 -0.5224  0.4782
  851MPD2    C312552   2.747   3.096  15.432 -0.1500 -0.0406  0.4509
  851MPD2    C412553   2.854   3.122  15.518 -0.2277 -0.2653  0.1128
  851MPD2    C512554   2.908   3.254  15.521 -0.4614  0.6913  0.6392
  851MPD2     H12555   2.601   3.190  15.300 -0.4026  0.3202  1.1306
  851MPD2    H112556   2.903   3.041  15.570  1.8603  0.9612  0.0447
  851MPD2    H212557   2.888   3.458  15.465 -0.8518  0.6307 -3.6043
  851MPD2    H312558   2.984   3.265  15.596 -0.8875 -0.1435  1.2048
  851MPD2     N12559   2.686   2.968  15.420 -0.5670  0.5864 -1.0953
  851MPD2    H512560   2.608   2.967  15.356 -0.4749 -3.3345 -1.1217
  851MPD2    N112561   2.681   3.444  15.310 -0.4823 -0.0355 -0.0889
  851MPD2    H712562   2.735   3.529  15.327  1.7500 -1.3757 -0.4344
  852MPD2     C12563   2.182   0.844  10.553  0.2241 -0.7218  0.3776
  852MPD2    C112564   2.287   0.918  10.611 -0.3868  0.8568  0.0713
  852MPD2    C212565   2.397   0.959  10.535 -0.5786  0.1101  0.6229
  852MPD2    C312566   2.404   0.933  10.398  0.1555 -0.0149 -0.2106
  852MPD2    C412567   2.313   0.844  10.346 -0.3808  0.8930 -0.6639
  852MPD2    C512568   2.211   0.795  10.419 -0.2782 -0.0179  0.0654
  852MPD2     H12569   2.470   1.030  10.573 -2.0157  1.8065  0.2348
  852MPD2    H112570   2.305   0.811  10.243 -2.1917  2.9147 -1.1551
  852MPD2    H212571   2.102   0.804  10.614 -0.9671 -0.0243 -0.7552
  852MPD2    H312572   2.147   0.721  10.372 -0.7254 -0.4929  1.4032
  852MPD2     N12573   2.501   0.997  10.317  0.1248 -0.0557  0.0850
  852MPD2    H512574   2.568   1.060  10.359  1.1179 -0.5750 -0.6983
  852MPD2    N112575   2.295   0.933  10.752  0.1440 -0.8953 -0.5944
  852MPD2    H712576   2.377   0.981  10.787 -1.7853  0.9258  1.5069
  853MPD2     C12577   4.277   0.839  12.647 -0.1121  0.1218 -0.1083
  853MPD2    C112578   4.188   0.923  12.590  0.1155 -1.1652 -0.0495
  853MPD2    C212579   4.207   0.949  12.457 -0.6868 -0.2088 -0.4553
  853MPD2    C312580   4.296   0.875  12.378  0.5891 -0.2211  0.3971
  853MPD2    C412581   4.384   0.787  12.436  0.1191  0.0454 -0.6509
  853MPD2    C512582   4.372   0.769  12.570  0.0365  0.0471 -0.4241
  853MPD2     H12583   4.148   1.030  12.415  1.9945  1.8032 -0.3459
  853MPD2    H112584   4.455   0.733  12.373 -1.0902 -1.9259 -0.3447
  853MPD2    H212585   4.276   0.812  12.752  0.4224 -2.3778 -0.7490
  853MPD2    H312586   4.441   0.704  12.623 -1.1910 -0.3945  0.6282
  853MPD2     N12587   4.304   0.883  12.234 -0.0230 -0.1038  0.4267
  853MPD2    H512588   4.382   0.828  12.200  1.0494  0.4296  2.0156
  853MPD2    N112589   4.097   0.979  12.682  0.0176  1.3053 -0.7953
  853MPD2    H712590   4.098   0.944  12.777 -0.4378  0.0188 -1.2644
  854MPD2     C12591   1.579   1.660  13.060 -0.6482  0.0264  0.1102
  854MPD2    C112592   1.464   1.590  13.099 -0.5816 -0.3130  1.2508
  854MPD2    C212593   1.471   1.462  13.141  0.2718  0.7666  0.2041
  854MPD2    C312594   1.595   1.396  13.134  0.6557  0.0933 -0.1288
  854MPD2    C412595   1.705   1.458  13.081  0.4845 -0.6407 -0.5525
  854MPD2    C512596   1.692   1.590  13.044 -0.4237 -0.0374  0.3050
  854MPD2     H12597   1.387   1.412  13.188 -0.4555  0.6925 -1.1862
  854MPD2    H112598   1.799   1.406  13.063 -0.0273 -1.9710  0.5971
  854MPD2    H212599   1.586   1.761  13.022  1.1984  0.3672  1.3418
  854MPD2    H312600   1.777   1.634  12.994  0.5401 -2.3173 -0.0712
  854MPD2     N12601   1.612   1.262  13.173  0.3805  0.0257 -0.6780
  854MPD2    H512602   1.702   1.223  13.149 -0.0216  0.0286 -2.2018
  854MPD2    N112603   1.342   1.667  13.092 -0.2853 -0.4212 -0.2780
  854MPD2    H712604   1.351   1.764  13.061  0.5958  0.0269  1.3704
  855MPD2     C12605   1.121   0.554  13.578  0.3041 -0.1378 -0.4665
  855MPD2    C112606   1.251   0.498  13.573 -0.6429 -0.3389  0.1285
  855MPD2    C212607   1.359   0.581  13.556 -0.3967  0.6535  0.5593
  855MPD2    C312608   1.341   0.718  13.535  0.4180  0.1749  0.8077
  855MPD2    C412609   1.209   0.764  13.532 -0.4433 -0.2059  0.4944
  855MPD2    C512610   1.100   0.682  13.556  0.1878  0.1822  0.0552
  855MPD2     H12611   1.457   0.534  13.559 -0.1048  1.2434  0.2394
  855MPD2    H112612   1.187   0.868  13.514  1.2783 -0.0276 -0.5826
  855MPD2    H212613   1.035   0.501  13.617 -0.7661  2.5585  0.8576
  855MPD2    H312614   1.001   0.725  13.553 -0.3957 -1.2481 -1.2521
  855MPD2     N12615   1.440   0.812  13.519 -0.2094  0.3772 -0.0739
  855MPD2    H512616   1.406   0.905  13.496  1.1032  0.9978  0.4825
  855MPD2    N112617   1.271   0.362  13.590  0.3922  0.5253  0.0403
  855MPD2    H712618   1.367   0.332  13.604  0.1272 -1.2874 -1.9938
  856MPD2     C12619   3.373   1.551  13.990  0.3997 -0.7320  0.3150
  856MPD2    C112620   3.413   1.684  14.010  0.2028 -0.0933  0.1135
  856MPD2    C212621   3.328   1.782  13.972 -0.5925  0.0515  0.5506
  856MPD2    C312622   3.200   1.757  13.942  0.0911  0.2608 -0.6539
  856MPD2    C412623   3.152   1.625  13.949 -0.6761  0.3382  0.9317
  856MPD2    C512624   3.242   1.525  13.961 -0.3042 -0.0595 -0.0043
  856MPD2     H12625   3.356   1.886  13.968 -0.4496  0.0283  0.9590
  856MPD2    H112626   3.051   1.592  13.924  0.4224 -0.5804 -2.2888
  856MPD2    H212627   3.440   1.466  13.997  1.8584  0.3844 -0.0433
  856MPD2    H312628   3.205   1.425  13.943  1.4713 -0.9008  0.9676
  856MPD2     N12629   3.109   1.860  13.907  0.5574 -0.0390 -0.2966
  856MPD2    H512630   3.010   1.840  13.904  0.9213 -2.2674  1.8327
  856MPD2    N112631   3.544   1.714  14.047 -0.1748 -0.5681 -0.1200
  856MPD2    H712632   3.567   1.813  14.042  1.1909 -0.8316  0.8308
  857MPD2     C12633   0.234   3.755  12.926  0.0893 -0.0017 -0.1033
  857MPD2    C112634   0.358   3.769  12.878  0.0465  0.1283  0.0424
  857MPD2    C212635   0.416   3.898  12.880  0.0706  0.4739 -0.2994
  857MPD2    C312636   0.336   3.998  12.934 -0.8626  0.3548  0.0849
  857MPD2    C412637   0.210   3.980  12.993  0.0599 -0.5250 -0.1648
  857MPD2    C512638   0.160   3.858  12.975 -0.2474 -0.1355  0.3855
  857MPD2     H12639   0.516   3.916  12.844  0.4993  1.3421  1.3572
  857MPD2    H112640   0.142   4.057  13.027 -0.2743  0.4695 -3.0772
  857MPD2    H212641   0.181   3.661  12.915  1.8675 -1.2471  1.9254
  857MPD2    H312642   0.061   3.836  13.016  0.2119 -2.9647  0.0269
  857MPD2     N12643   0.402   4.121  12.942 -0.6466 -0.2997  0.7327
  857MPD2    H512644   0.495   4.122  12.903 -0.6634 -1.9431  0.6709
  857MPD2    N112645   0.418   3.653  12.818 -0.4420  0.4185  0.2541
  857MPD2    H712646   0.371   3.563  12.818  0.9134 -0.2848 -0.7077
  858MPD2     C12647   1.677   3.205  16.724 -0.3097 -0.4278  0.0511
  858MPD2    C112648   1.545   3.210  16.675 -0.5661 -0.3409 -0.4019
  858MPD2    C212649   1.456   3.295  16.742 -0.1282  0.0352  0.2039
  858MPD2    C312650   1.500   3.385  16.833  0.4204 -0.2944  0.2114
  858MPD2    C412651   1.629   3.397  16.864 -0.0953 -0.7671  0.6929
  858MPD2    C512652   1.722   3.303  16.814  0.4065 -0.6541 -0.0943
  858MPD2     H12653   1.349   3.296  16.723  0.1960  0.6824 -1.6734
  858MPD2    H112654   1.669   3.477  16.924  0.0875  0.0862 -0.5662
  858MPD2    H212655   1.749   3.129  16.697  0.1577  0.3419 -0.8491
  858MPD2    H312656   1.826   3.307  16.845  0.7850  1.4431 -1.6014
  858MPD2     N12657   1.403   3.459  16.902 -0.4951 -0.5748 -0.1146
  858MPD2    H512658   1.309   3.434  16.874 -0.3758  0.0477 -1.0775
  858MPD2    N112659   1.499   3.101  16.601 -0.1588  0.0377  0.0686
  858MPD2    H712660   1.563   3.026  16.577 -0.0988 -0.2455  1.1229
  859MPD2     C12661   4.336   0.227  15.441 -0.3466 -0.2207  0.5737
  859MPD2    C112662   4.447   0.252  15.366 -0.4167  0.3011  0.3548
  859MPD2    C212663   4.570   0.201  15.402  0.2027  0.1725 -0.0049
  859MPD2    C312664   4.580   0.130  15.519  0.5856 -0.7062 -0.8084
  859MPD2    C412665   4.464   0.117  15.600  0.2929  0.3644  0.4501
  859MPD2    C512666   4.341   0.149  15.553 -0.1733 -0.0535 -0.8936
  859MPD2     H12667   4.645   0.227  15.328 -1.0657  2.9511 -0.3210
  859MPD2    H112668   4.473   0.067  15.695 -0.6854 -0.7518 -0.0391
  859MPD2    H212669   4.235   0.252  15.411  0.2906  1.9706  0.2525
  859MPD2    H312670   4.246   0.127  15.601 -0.3355  2.6818  0.0457
  859MPD2     N12671   4.704   0.076  15.569  0.2792  0.4996  0.0374
  859MPD2    H512672   4.697   0.036  15.662 -3.5957  0.0996 -0.4090
  859MPD2    N112673   4.427   0.328  15.248  0.5418 -0.6043 -0.4079
  859MPD2    H712674   4.339   0.377  15.243  0.5398 -0.7468 -1.9657
  860MPD2     C12675   2.159   0.867  11.639 -0.5578  0.1370 -0.0880
  860MPD2    C112676   2.152   0.966  11.738  0.3020  0.0995  0.1559
  860MPD2    C212677   2.036   0.967  11.819 -0.3023 -0.3907 -0.5149
  860MPD2    C312678   1.939   0.881  11.804 -0.1760  0.6415 -0.0818
  860MPD2    C412679   1.946   0.780  11.711  0.1054  0.4722  0.2747
  860MPD2    C512680   2.058   0.773  11.632 -0.1017 -0.7040  0.0317
  860MPD2     H12681   2.026   1.046  11.893  1.3450 -0.9258  0.2807
  860MPD2    H112682   1.875   0.699  11.697  0.4856  0.0670  0.7062
  860MPD2    H212683   2.234   0.863  11.562  0.4674 -0.7411  0.9571
  860MPD2    H312684   2.068   0.696  11.557  0.3634 -1.0049  0.3971
  860MPD2     N12685   1.832   0.881  11.895 -0.3195 -0.1607  0.3772
  860MPD2    H512686   1.781   0.793  11.899 -0.6370 -0.0301 -0.7604
  860MPD2    N112687   2.256   1.050  11.778  0.1492 -0.7340  0.4269
  860MPD2    H712688   2.245   1.108  11.860 -1.8991  1.2373 -1.2064
  861MPD2     C12689   0.750   3.456  10.956  0.2480 -0.2731  1.0229
  861MPD2    C112690   0.627   3.454  11.023 -0.0053 -0.2384  0.3573
  861MPD2    C212691   0.511   3.498  10.957 -0.1266 -0.6341  0.1429
  861MPD2    C312692   0.527   3.557  10.827  0.4065  0.2783 -0.5939
  861MPD2    C412693   0.642   3.550  10.752  0.2700 -0.4663  0.3009
  861MPD2    C512694   0.754   3.490  10.817 -0.0646  0.0696 -0.4934
  861MPD2     H12695   0.417   3.501  11.011 -0.4308 -0.4648 -0.3964
  861MPD2    H112696   0.654   3.593  10.654 -1.3458  0.2594  0.4178
  861MPD2    H212697   0.841   3.413  10.996  0.7676  0.8813  1.0876
  861MPD2    H312698   0.848   3.490  10.764 -0.4313 -0.7439 -1.1422
  861MPD2     N12699   0.425   3.624  10.763 -0.3884  0.4199  0.1976
  861MPD2    H512700   0.454   3.652  10.671 -1.8237 -1.1870 -0.7539
  861MPD2    N112701   0.606   3.405  11.157  0.4996  0.2580 -0.1847
  861MPD2    H712702   0.512   3.411  11.195 -0.2464 -1.4038 -1.7543
  862MPD2     C12703   0.339   3.769  10.118 -0.2156 -0.1435 -0.1043
  862MPD2    C112704   0.248   3.730  10.222  0.6654  0.9791  0.1241
  862MPD2    C212705   0.165   3.621  10.198 -0.3199  0.3041 -1.0675
  862MPD2    C312706   0.185   3.536  10.090  0.2062  0.2227  0.5789
  862MPD2    C412707   0.281   3.574   9.995  0.2772 -0.2107  0.6017
  862MPD2    C512708   0.352   3.690  10.006 -0.8666  0.9612  0.1607
  862MPD2     H12709   0.102   3.584  10.279 -1.1378 -0.4595 -2.0628
  862MPD2    H112710   0.304   3.522   9.903 -2.9257 -0.7887  0.1438
  862MPD2    H212711   0.407   3.853  10.128 -0.6973 -0.0586  2.6336
  862MPD2    H312712   0.411   3.722   9.920 -0.6937  1.9171  0.6360
  862MPD2     N12713   0.106   3.416  10.071  0.1738  0.4780  0.1800
  862MPD2    H512714   0.130   3.352   9.996  0.2571  1.8204 -0.9199
  862MPD2    N112715   0.226   3.799  10.345  0.2074 -0.0602  0.0762
  862MPD2    H712716   0.162   3.756  10.411  1.1067 -1.0257  0.3185
  863MPD2     C12717   3.995   2.303  16.749  0.3021 -0.2773  0.3363
  863MPD2    C112718   4.104   2.390  16.721 -0.4814  0.0210 -0.0946
  863MPD2    C212719   4.222   2.391  16.798  0.4665  0.1784  0.0758
  863MPD2    C312720   4.239   2.301  16.905  0.0014  0.3807 -0.2458
  863MPD2    C412721   4.130   2.218  16.934 -1.0542 -0.5936  0.2760
  863MPD2    C512722   4.009   2.227  16.863  0.0212  0.7006 -0.1028
  863MPD2     H12723   4.297   2.460  16.763  0.8329 -0.9746 -1.3852
  863MPD2    H112724   4.127   2.162  17.027 -2.7378  0.6052  0.9508
  863MPD2    H212725   3.908   2.283  16.688 -0.4273 -1.3499  1.7171
  863MPD2    H312726   3.924   2.171  16.899 -1.0026  3.4162  1.6992
  863MPD2     N12727   4.348   2.296  16.995 -0.2812 -0.0831 -0.2024
  863MPD2    H512728   4.354   2.218  17.060 -0.1046 -1.5958 -2.0226
  863MPD2    N112729   4.091   2.475  16.609 -0.4451 -0.1195 -0.0981
  863MPD2    H712730   4.173   2.529  16.581  0.5247 -0.6655  1.6937
  864MPD2     C12731   4.584   3.521  17.283 -0.4648 -0.0357 -0.3906
  864MPD2    C112732   4.661   3.467  17.182 -0.0626 -0.2478  0.4657
  864MPD2    C212733   0.014   3.549  17.115  0.0635  0.1731  0.2074
  864MPD2    C312734   0.037   3.682  17.145 -0.3139  0.5033  0.4408
  864MPD2    C412735   4.689   3.731  17.240  0.8043  0.5590 -0.1148
  864MPD2    C512736   4.595   3.657  17.315  0.1650  1.0749  0.3891
  864MPD2     H12737   0.076   3.511  17.035 -0.1477  0.1658  0.0503
  864MPD2    H112738   4.686   3.832  17.277  3.6711  1.1095 -1.4042
  864MPD2    H212739   4.510   3.464  17.340  0.3661 -1.5344 -0.7969
  864MPD2    H312740   4.545   3.710  17.394  0.0842 -1.6931  2.2191
  864MPD2     N12741   0.133   3.766  17.091 -0.5638 -0.2461  0.2361
  864MPD2    H512742   0.120   3.863  17.119 -1.7895 -1.0271  2.4013
  864MPD2    N112743   4.650   3.327  17.158 -0.1835 -0.5600 -0.5792
  864MPD2    H712744   4.583   3.274  17.214  0.0624 -1.6045 -1.2670
  865MPD2     C12745   4.635   3.763  16.393 -0.8266 -0.0745  0.3055
  865MPD2    C112746   0.033   3.764  16.367 -0.2294 -0.0270  0.0243
  865MPD2    C212747   0.122   3.838  16.453 -0.6074  0.0710  0.0547
  865MPD2    C312748   0.072   3.899  16.567  0.3486 -0.0331  0.1411
  865MPD2    C412749   4.670   3.908  16.589  0.3720 -0.5982 -0.3889
  865MPD2    C512750   4.596   3.839  16.499 -0.4485  0.5307  0.0499
  865MPD2     H12751   0.229   3.833  16.439 -0.3730  1.3356  1.3568
  865MPD2    H112752   4.622   3.964  16.669  1.2475  1.3279 -1.1876
  865MPD2    H212753   4.569   3.692  16.343 -3.1195  2.0489  0.3281
  865MPD2    H312754   4.489   3.846  16.510 -0.3066  1.8856  0.4680
  865MPD2     N12755   0.158   3.953  16.667 -0.3549 -0.4214  0.3010
  865MPD2    H512756   0.111   4.007  16.738  0.2815  0.6375 -0.0951
  865MPD2    N112757   0.074   3.671  16.264 -0.4368 -0.2971 -0.2523
  865MPD2    H712758   0.002   3.613  16.222  0.6948 -0.8190 -1.5100
  866MPD2     C12759   1.246   3.823  11.569  0.2362  0.0615 -0.0924
  866MPD2    C112760   1.268   3.789  11.434 -0.4260 -0.5136 -0.2064
  866MPD2    C212761   1.159   3.795  11.347  0.2849  0.1207 -0.3151
  866MPD2    C312762   1.037   3.852  11.388 -0.4058 -0.7766 -0.0513
  866MPD2    C412763   1.010   3.870  11.523  0.1201  0.6675  0.3400
  866MPD2    C512764   1.116   3.853  11.611  0.2247  0.2727 -0.0887
  866MPD2     H12765   1.168   3.768  11.243 -0.5772 -3.8483  0.6644
  866MPD2    H112766   0.914   3.895  11.568 -0.0728  2.8203 -1.2858
  866MPD2    H212767   1.326   3.813  11.641 -0.6338 -0.5922  0.7771
  866MPD2    H312768   1.113   3.857  11.719 -0.8100  1.2671 -0.1592
  866MPD2     N12769   0.934   3.858  11.295  0.7102  0.2740  0.6834
  866MPD2    H512770   0.842   3.882  11.332  0.5624 -3.0476  2.4814
  866MPD2    N112771   1.397   3.748  11.395  0.3139 -0.0796 -0.5275
  866MPD2    H712772   1.463   3.727  11.469 -0.9767 -2.5994 -0.0905
  867MPD2     C12773   3.724   3.815  16.219  0.5401  0.1135  0.1400
  867MPD2    C112774   3.802   3.796  16.327 -0.0384 -0.5102 -0.2549
  867MPD2    C212775   3.840   3.908  16.393  0.1624 -0.0126 -0.0533
  867MPD2    C312776   3.794   4.037  16.364  0.8787  0.0565  0.0738
  867MPD2    C412777   3.707   4.050  16.265  0.2668  0.0239  0.4542
  867MPD2    C512778   3.665   3.938  16.198  0.2839 -0.0501 -0.1376
  867MPD2     H12779   3.908   3.900  16.476 -1.4874 -1.0422  1.2129
  867MPD2    H112780   3.666   4.146  16.235  0.1891 -0.3238 -0.5433
  867MPD2    H212781   3.697   3.734  16.152  1.4018  0.9806 -1.2526
  867MPD2    H312782   3.598   3.958  16.115  0.5182  2.1962  0.2017
  867MPD2     N12783   3.825   4.149  16.450  0.0161 -0.8094 -0.3331
  867MPD2    H512784   3.788   4.236  16.413 -0.1884 -0.7073  0.1138
  867MPD2    N112785   3.855   3.672  16.349 -0.0031  0.2280 -0.9977
  867MPD2    H712786   3.811   3.593  16.301 -0.6550  0.0103 -0.0463
  868MPD2     C12787   0.287   2.191  12.512 -0.4402 -0.0770 -0.0416
  868MPD2    C112788   0.348   2.134  12.627 -0.1872 -0.5298  0.1092
  868MPD2    C212789   0.290   2.028  12.694  0.1497 -0.1969 -0.5287
  868MPD2    C312790   0.170   1.971  12.640 -0.0314  0.1737 -0.2566
  868MPD2    C412791   0.123   2.031  12.525 -0.1840  0.5035 -0.7506
  868MPD2    C512792   0.176   2.138  12.456 -0.0663  0.5205 -0.0371
  868MPD2     H12793   0.334   1.983  12.783  0.1628  0.4260 -0.2148
  868MPD2    H112794   0.034   1.982  12.485 -0.8633  2.8967 -2.2147
  868MPD2    H212795   0.328   2.278  12.461  2.8702 -1.4879  0.1884
  868MPD2    H312796   0.124   2.191  12.377 -0.7103  1.2767  0.8930
  868MPD2     N12797   0.112   1.861  12.705 -0.5718  0.6765 -0.1306
  868MPD2    H512798   0.153   1.838  12.795 -1.1150  1.0133  0.2061
  868MPD2    N112799   0.449   2.207  12.689  0.3472 -0.1210 -0.7910
  868MPD2    H712800   0.483   2.284  12.633  2.1371 -0.3937 -0.0843
  869MPD2     C12801   2.136   1.006   0.493 -0.0196  0.4453  0.4044
  869MPD2    C112802   2.027   1.058   0.557 -0.9463  0.5351  0.0454
  869MPD2    C212803   2.028   1.063   0.700 -0.2480  0.0204  0.5602
  869MPD2    C312804   2.140   1.036   0.763 -0.5420  0.1142 -0.6976
  869MPD2    C412805   2.257   0.998   0.699  0.3531 -0.4294 -0.7533
  869MPD2    C512806   2.246   0.978   0.565 -0.0981 -0.2515  0.1536
  869MPD2     H12807   1.958   1.125   0.755 -3.1325 -3.3627  0.6827
  869MPD2    H112808   2.346   0.968   0.754 -0.3718 -0.6196  0.3300
  869MPD2    H212809   2.137   1.009   0.385  0.2644 -2.0624  0.3398
  869MPD2    H312810   2.332   0.944   0.509  0.5823  1.9506 -0.1456
  869MPD2     N12811   2.145   1.064   0.903  0.3445  0.3649  0.0852
  869MPD2    H512812   2.237   1.075   0.945  1.0692  1.3598 -1.7672
  869MPD2    N112813   1.925   1.114   0.479 -0.3895  0.2596 -0.5032
  869MPD2    H712814   1.929   1.101   0.379 -0.1856  4.5302 -1.0540
  870MPD2     C12815   1.581   4.278   1.402  0.2627 -0.3962  0.1139
  870MPD2    C112816   1.713   4.313   1.407 -0.8621 -0.3832  0.4605
  870MPD2    C212817   1.739   4.448   1.403  0.6838 -0.7370  0.2587
  870MPD2    C312818   1.638   4.545   1.421  0.0787 -0.5180 -0.2721
  870MPD2    C412819   1.513   4.506   1.431  1.0020  0.2440 -0.3770
  870MPD2    C512820   1.483   4.373   1.418 -0.4326 -0.3528  0.5937
  870MPD2     H12821   1.840   4.479   1.427  0.4070  0.6239 -0.3267
  870MPD2    H112822   1.439   4.584   1.444 -1.3826 -1.7423 -2.1393
  870MPD2    H212823   1.549   4.175   1.410 -2.2024  0.2295 -1.6570
  870MPD2    H312824   1.380   4.343   1.427 -0.7594 -0.1730 -2.4072
  870MPD2     N12825   1.675   4.676   1.407  0.1925  0.6031 -0.2849
  870MPD2    H512826   1.775   4.694   1.401  0.2110  1.5170  3.1097
  870MPD2    N112827   1.808   4.216   1.386  0.0182  0.1139 -0.1941
  870MPD2    H712828   1.778   4.120   1.373  1.0946 -0.4809  1.7932
  871MPD2     C12829   2.365   3.588  16.244  0.3341 -0.1295  0.3278
  871MPD2    C112830   2.419   3.614  16.364  0.1526  0.8977  0.3465
  871MPD2    C212831   2.532   3.553  16.402  0.2235 -0.4685  0.2971
  871MPD2    C312832   2.602   3.468  16.314 -0.6090  0.0234  0.4213
  871MPD2    C412833   2.556   3.450  16.182  1.5010 -0.3714  0.0485
  871MPD2    C512834   2.436   3.509  16.155 -0.1178  0.8564 -0.1015
  871MPD2     H12835   2.577   3.579  16.497 -0.8014  3.3939 -0.2404
  871MPD2    H112836   2.601   3.376  16.117 -0.1272  0.5537 -2.1358
  871MPD2    H212837   2.286   3.653  16.207  1.7846  2.1837  1.3210
  871MPD2    H312838   2.394   3.482  16.059  0.8912 -2.1632  0.2839
  871MPD2     N12839   2.723   3.413  16.354 -0.2922  0.3581 -0.2144
  871MPD2    H512840   2.751   3.417  16.452 -0.5878  0.7379 -0.1416
  871MPD2    N112841   2.332   3.689  16.447 -0.4184 -0.5718  0.7669
  871MPD2    H712842   2.247   3.729  16.410  1.1732 -0.4911 -2.8519
  872MPD2     C12843   3.120   0.948  14.116 -0.5405  0.3910 -0.0934
  872MPD2    C112844   3.095   1.062  14.041  0.3532  0.1482  0.1371
  872MPD2    C212845   2.961   1.119  14.044  0.1939 -0.5135 -0.1494
  872MPD2    C312846   2.865   1.067  14.124  0.3481 -0.0892 -0.1540
  872MPD2    C412847   2.896   0.951  14.190 -0.3752  1.3185 -1.0088
  872MPD2    C512848   3.018   0.889  14.191  1.1611  0.1903 -0.3763
  872MPD2     H12849   2.946   1.209  13.985  0.2454 -0.5805 -0.2662
  872MPD2    H112850   2.819   0.899  14.247  0.0572  1.1793 -0.5541
  872MPD2    H212851   3.217   0.898  14.121  0.2959  2.0985  0.6472
  872MPD2    H312852   3.028   0.794  14.242  0.1953 -1.8916 -4.1105
  872MPD2     N12853   2.740   1.127  14.152  1.0516 -0.3233 -0.0654
  872MPD2    H512854   2.684   1.091  14.229  0.6370 -0.3346 -0.3714
  872MPD2    N112855   3.201   1.133  13.981 -0.5960 -0.1565 -0.2959
  872MPD2    H712856   3.169   1.204  13.915 -0.0363 -1.0909 -1.5723
  873MPD2     C12857   4.683   1.553   0.396  0.1260 -0.1936 -0.3124
  873MPD2    C112858   4.643   1.465   0.492  0.4009  0.4063  0.0468
  873MPD2    C212859   4.549   1.368   0.463  0.6673 -0.2864  0.1135
  873MPD2    C312860   4.503   1.348   0.333 -0.3767  0.2687 -0.4191
  873MPD2    C412861   4.542   1.443   0.229  0.7973 -0.3474  0.3528
  873MPD2    C512862   4.636   1.541   0.264  0.2198  0.2555  0.6648
  873MPD2     H12863   4.493   1.322   0.544  0.8399  1.4167  1.1866
  873MPD2    H112864   4.493   1.447   0.133  0.2108 -1.7175  0.5910
  873MPD2    H212865   0.012   1.639   0.415  0.7278 -0.2511 -2.1118
  873MPD2    H312866   4.668   1.609   0.187  0.5089 -3.3487 -2.4009
  873MPD2     N12867   4.413   1.241   0.299 -0.1727 -0.6814 -0.3870
  873MPD2    H512868   4.386   1.227   0.202  0.7032  1.5531 -0.9433
  873MPD2    N112869   4.704   1.475   0.617 -0.4625 -0.2429 -0.3761
  873MPD2    H712870   0.023   1.557   0.640  1.4436 -1.5303 -0.3217
  874MPD2     C12871   0.173   1.612  15.990 -0.1618  0.1290  0.3964
  874MPD2    C112872   0.156   1.631  16.123 -0.0754  0.6162 -0.0127
  874MPD2    C212873   0.205   1.745  16.179 -0.3466 -0.0213 -0.6234
  874MPD2    C312874   0.291   1.822  16.105 -0.7233 -0.3957 -0.8579
  874MPD2    C412875   0.325   1.787  15.974  0.3038  0.3621  0.0794
  874MPD2    C512876   0.262   1.685  15.918 -0.1968  1.1349 -0.2798
  874MPD2     H12877   0.186   1.777  16.280 -0.8846  1.3409 -1.1509
  874MPD2    H112878   0.401   1.843  15.923 -0.9628  2.2811  0.3038
  874MPD2    H212879   0.125   1.529  15.939 -1.1702  0.7229  0.3764
  874MPD2    H312880   0.272   1.663  15.812 -1.8183  0.8679 -0.3713
  874MPD2     N12881   0.347   1.935  16.174  0.0182 -0.4687  0.0319
  874MPD2    H512882   0.301   1.957  16.262 -1.0240  1.4547 -1.0101
  874MPD2    N112883   0.072   1.543  16.204 -0.6678 -0.3361 -0.4600
  874MPD2    H712884   0.060   1.578  16.298  0.0838 -2.4290  0.4179
  875MPD2     C12885   1.200   4.475  14.453 -0.3355  0.7025 -0.4003
  875MPD2    C112886   1.082   4.507  14.507  1.5392 -0.3655  0.7922
  875MPD2    C212887   1.068   4.602  14.602 -0.1265 -0.1415 -0.0848
  875MPD2    C312888   1.181   4.672  14.652  0.3862  0.0220  0.8578
  875MPD2    C412889   1.302   4.642  14.594  0.8213 -0.1762 -0.6626
  875MPD2    C512890   1.315   4.549  14.494  0.5936 -0.1076 -0.4796
  875MPD2     H12891   0.969   4.616  14.642 -0.1202  1.1747 -0.5173
  875MPD2    H112892   1.385   4.678  14.653  0.4965 -1.2288  0.4450
  875MPD2    H212893   1.209   4.387  14.390 -2.1449  1.5717 -1.8868
  875MPD2    H312894   1.414   4.510  14.475  0.4184 -1.4365  1.3763
  875MPD2     N12895   1.181   0.024  14.753 -0.2033  0.2286  0.0999
  875MPD2    H512896   1.268   0.070  14.780  0.8699 -1.5047 -0.4174
  875MPD2    N112897   0.966   4.430  14.474 -0.0318 -0.1653  0.2807
  875MPD2    H712898   0.878   4.458  14.516  1.0532  0.8221  1.9046
  876MPD2     C12899   0.350   1.370  15.780 -0.3078  0.3602 -0.3622
  876MPD2    C112900   0.351   1.263  15.689 -0.0838  0.4976 -0.2056
  876MPD2    C212901   0.343   1.131  15.736 -0.3332  0.7899 -1.2440
  876MPD2    C312902   0.336   1.104  15.868  0.1166 -0.1677 -0.2204
  876MPD2    C412903   0.321   1.207  15.956  0.3364  0.4285 -0.3110
  876MPD2    C512904   0.326   1.335  15.910  0.0318  0.0545  0.6144
  876MPD2     H12905   0.360   1.045  15.673  1.5383  0.2582 -0.0079
  876MPD2    H112906   0.319   1.203  16.064 -0.5656  0.6788 -0.3193
  876MPD2    H212907   0.352   1.472  15.744 -1.4369  0.7571  0.7100
  876MPD2    H312908   0.332   1.407  15.991  1.0465  0.5608  0.0878
  876MPD2     N12909   0.349   0.966  15.910  0.2706  0.1679 -0.1627
  876MPD2    H512910   0.378   0.896  15.842 -1.0176 -0.3450 -0.1878
  876MPD2    N112911   0.367   1.278  15.547  0.3684  0.2003 -0.5946
  876MPD2    H712912   0.366   1.195  15.489  0.9328 -0.4336  0.3266
  877MPD2     C12913   0.243   1.718  14.746 -0.2875  0.1379  0.4572
  877MPD2    C112914   0.232   1.580  14.770  0.9344  0.1098 -0.2075
  877MPD2    C212915   0.193   1.507  14.663  0.0310 -0.1373 -0.6304
  877MPD2    C312916   0.192   1.552  14.532  0.6437  0.0323 -0.0498
  877MPD2    C412917   0.210   1.687  14.509  0.2056  0.9085 -0.5365
  877MPD2    C512918   0.233   1.767  14.622  0.0773  0.1319 -0.3780
  877MPD2     H12919   0.171   1.406  14.696 -1.4437  0.2230 -0.5027
  877MPD2    H112920   0.212   1.740  14.414  0.9111 -0.6906 -1.4179
  877MPD2    H212921   0.266   1.780  14.832  0.2159  0.7985 -0.1464
  877MPD2    H312922   0.252   1.873  14.610 -1.1393  0.0452 -2.9296
  877MPD2     N12923   0.166   1.465  14.420 -0.0332  0.5025  0.2171
  877MPD2    H512924   0.146   1.512  14.332 -0.0719  0.8874  0.4283
  877MPD2    N112925   0.258   1.516  14.895  0.8633  0.8396  0.3735
  877MPD2    H712926   0.235   1.417  14.897 -0.3991  1.1102 -1.1772
  878MPD2     C12927   4.237   0.998  13.453 -0.1231  0.4047  0.1046
  878MPD2    C112928   4.376   0.997  13.455 -0.4364  0.3740  0.0610
  878MPD2    C212929   4.447   0.940  13.566  0.4466  0.1237  0.3191
  878MPD2    C312930   4.367   0.879  13.655  0.3895 -0.4318  0.9115
  878MPD2    C412931   4.236   0.871  13.644 -0.2346  0.0313 -0.8328
  878MPD2    C512932   4.167   0.937  13.546 -0.1739  0.0957  0.0013
  878MPD2     H12933   4.555   0.939  13.578  0.3342 -0.9669  1.2042
  878MPD2    H112934   4.173   0.839  13.726  1.0229  0.3343  0.2329
  878MPD2    H212935   4.190   1.058  13.375 -1.5122 -1.0902 -0.2090
  878MPD2    H312936   4.060   0.937  13.530 -0.6879 -0.9342  3.4706
  878MPD2     N12937   4.434   0.826  13.768 -0.1216  0.5578 -0.1576
  878MPD2    H512938   4.535   0.833  13.763 -0.0508 -0.1731  0.1566
  878MPD2    N112939   4.442   1.067  13.353  0.4989  0.7227 -0.3534
  878MPD2    H712940   4.385   1.089  13.272  3.4213 -0.7743 -2.8271
  879MPD2     C12941   0.324   2.516  16.870 -0.1309 -0.1532 -0.4687
  879MPD2    C112942   0.308   2.392  16.924 -0.6335 -0.6269 -0.0801
  879MPD2    C212943   0.197   2.321  16.883  0.1065  0.4087 -0.6718
  879MPD2    C312944   0.111   2.370  16.790  0.9768  0.2517 -0.5109
  879MPD2    C412945   0.137   2.496  16.739 -0.0690 -0.0948 -0.9006
  879MPD2    C512946   0.240   2.570  16.774  0.5348  1.0591  0.2018
  879MPD2     H12947   0.165   2.231  16.932  1.9581  0.7612  1.1642
  879MPD2    H112948   0.067   2.530  16.663 -1.9749 -0.2663  0.7741
  879MPD2    H212949   0.410   2.576  16.897  0.3043 -1.2423  0.5508
  879MPD2    H312950   0.246   2.665  16.723  0.1767  1.6704  1.3023
  879MPD2     N12951   0.001   2.305  16.729 -0.4709 -0.0818  0.4924
  879MPD2    H512952   4.687   2.362  16.662  0.4752 -2.6867 -2.4398
  879MPD2    N112953   0.392   2.357  17.030 -0.0018  0.3002 -0.0571
  879MPD2    H712954   0.477   2.410  17.039 -0.5745  0.6486  3.0815
  880MPD2     C12955   1.298   4.301   0.332 -0.8484 -0.1811 -0.2187
  880MPD2    C112956   1.426   4.329   0.390  0.4408  0.1329 -0.6177
  880MPD2    C212957   1.493   4.217   0.448 -1.2979  0.3805  0.2004
  880MPD2    C312958   1.430   4.097   0.461  0.7892 -0.8534  0.4467
  880MPD2    C412959   1.310   4.071   0.396  0.2299 -0.3987 -0.3168
  880MPD2    C512960   1.244   4.174   0.339  0.1214  0.0555  0.4293
  880MPD2     H12961   1.598   4.220   0.474 -1.0777  0.9588 -0.7693
  880MPD2    H112962   1.256   3.979   0.418  0.6736 -0.0185  2.3778
  880MPD2    H212963   1.233   4.381   0.297 -1.6976  0.2544  2.3616
  880MPD2    H312964   1.141   4.177   0.304  0.3224  1.0265 -0.1000
  880MPD2     N12965   1.501   4.004   0.539  0.3987 -0.3699  0.5104
  880MPD2    H512966   1.571   4.038   0.604 -1.2612  1.4191  1.3572
  880MPD2    N112967   1.483   4.459   0.363  0.7857  0.1901  0.1226
  880MPD2    H712968   1.434   4.525   0.303  0.6158 -1.1125 -1.1810
  881MPD2     C12969   1.782   0.413  17.452  0.0784 -0.3438  0.3931
  881MPD2    C112970   1.785   0.274  17.444 -0.7487  0.0146  0.1068
  881MPD2    C212971   1.773   0.212  17.567  0.1913  0.5768 -0.0954
  881MPD2    C312972   1.738   0.271  17.683 -0.3240 -0.3406 -0.4792
  881MPD2    C412973   1.735   0.408  17.686  0.3237 -0.6153  0.0055
  881MPD2    C512974   1.751   0.481  17.566 -0.3284  0.5633 -0.7302
  881MPD2     H12975   1.787   0.105  17.564 -0.2353  0.5625 -1.5051
  881MPD2    H112976   1.707   0.465   0.031  0.2891  1.3186 -1.2805
  881MPD2    H212977   1.786   0.476  17.365  0.9110  1.4218  1.7063
  881MPD2    H312978   1.744   0.589  17.569  1.1046  0.6198  1.0134
  881MPD2     N12979   1.728   0.209   0.068  0.5670  0.5383  0.0228
  881MPD2    H512980   1.715   0.269   0.149  0.4250 -0.8552  1.0347
  881MPD2    N112981   1.820   0.212  17.318 -0.5180  0.1961 -0.0987
  881MPD2    H712982   1.829   0.283  17.246  0.4902  0.3059  0.1316
  882MPD2     C12983   4.389   1.252  13.772 -0.8703 -0.0266  0.7004
  882MPD2    C112984   4.428   1.256  13.906 -0.0295  0.2693  0.1120
  882MPD2    C212985   4.334   1.251  13.999 -0.5981  0.3081 -0.4975
  882MPD2    C312986   4.202   1.234  13.967  0.0351  0.6433  0.3774
  882MPD2    C412987   4.165   1.228  13.835 -0.7244  0.8331  1.4672
  882MPD2    C512988   4.258   1.249  13.738  0.2674  0.1907  0.6529
  882MPD2     H12989   4.360   1.240  14.104 -0.9054 -0.3441 -0.4860
  882MPD2    H112990   4.066   1.209  13.795  0.8599 -1.0902 -1.5656
  882MPD2    H212991   4.461   1.258  13.691 -1.1518 -0.3327  0.4248
  882MPD2    H312992   4.211   1.261  13.641  2.2289 -0.9907 -0.4508
  882MPD2     N12993   4.100   1.198  14.061 -0.2763 -0.2362 -0.1192
  882MPD2    H512994   4.007   1.178  14.026 -1.0151  0.0290  1.6966
  882MPD2    N112995   4.564   1.265  13.938  0.3766 -0.4164  0.4216
  882MPD2    H712996   4.635   1.253  13.867  0.7468 -1.4476  0.9625
  883MPD2     C12997   1.480   1.330  15.757 -0.2644  0.1676 -0.3804
  883MPD2    C112998   1.557   1.396  15.659 -0.8121 -0.3155  0.0455
  883MPD2    C212999   1.690   1.449  15.691 -0.5060  0.3881 -0.0962
  883MPD2    C313000   1.728   1.438  15.824  0.2969  0.6994  0.3863
  883MPD2    C413001   1.647   1.373  15.918  0.0698  0.3843  0.6643
  883MPD2    C513002   1.532   1.318  15.881  0.5538  1.0168  0.3041
  883MPD2     H13003   1.757   1.506  15.628  0.9699  0.3708  1.4395
  883MPD2    H113004   1.667   1.368  16.024 -0.7880  1.8545  0.9005
  883MPD2    H213005   1.387   1.279  15.734 -0.0562  0.4509 -1.8407
  883MPD2    H313006   1.471   1.266  15.954  2.2343 -2.5191 -0.8524
  883MPD2     N13007   1.856   1.502  15.851 -0.2110 -0.1347  0.3197
  883MPD2    H513008   1.915   1.522  15.770 -0.6632 -0.3118 -0.0533
  883MPD2    N113009   1.508   1.419  15.523 -0.3983 -0.0219  0.1459
  883MPD2    H713010   1.569   1.463  15.455 -0.4446  1.5665  1.1375
  884MPD2     C13011   3.991   1.882  15.107 -0.2674 -0.0190  0.0621
  884MPD2    C113012   3.937   1.901  14.983  0.6207  0.0865  0.6391
  884MPD2    C213013   3.805   1.953  14.986  0.4737 -0.4728 -0.1298
  884MPD2    C313014   3.746   1.996  15.107 -0.5023 -0.0510 -0.4323
  884MPD2    C413015   3.812   1.983  15.225  0.4685  0.0010  0.1902
  884MPD2    C513016   3.934   1.922  15.226  0.0896  0.0094 -0.7986
  884MPD2     H13017   3.749   1.962  14.893 -0.7232  2.2837  0.8491
  884MPD2    H113018   3.779   2.010  15.324  0.1620  0.3240  0.0018
  884MPD2    H213019   4.095   1.851  15.109  0.4336  2.2352 -0.7378
  884MPD2    H313020   3.986   1.923  15.320  0.8991 -0.8747 -1.2380
  884MPD2     N13021   3.612   2.047  15.101  0.7122  0.1306  0.5100
  884MPD2    H513022   3.567   2.051  15.011  0.6323  3.2414  0.7083
  884MPD2    N113023   3.997   1.866  14.857 -0.4502 -0.1155 -0.1227
  884MPD2    H713024   3.949   1.886  14.770 -0.7702 -0.3065  0.0092
  885MPD2     C13025   1.849   2.935   0.195 -0.3557  0.1668 -0.2876
  885MPD2    C113026   1.975   2.977   0.221 -0.7977  0.6225 -0.9294
  885MPD2    C213027   2.061   2.989   0.114 -0.1364  0.5510  0.6875
  885MPD2    C313028   2.031   2.951  17.729  0.0537  0.0736 -0.0078
  885MPD2    C413029   1.907   2.897  17.709  0.1654  0.3087 -0.5097
  885MPD2    C513030   1.820   2.891   0.069  0.1319 -0.0284 -0.1053
  885MPD2     H13031   2.159   3.032   0.129 -0.5288  1.4252  0.7865
  885MPD2    H113032   1.877   2.872  17.608  2.2940 -0.3799 -0.9833
  885MPD2    H213033   1.771   2.929   0.269 -1.1614  2.1184 -0.9859
  885MPD2    H313034   1.716   2.866   0.052  0.8687 -3.4478  0.5359
  885MPD2     N13035   2.116   2.962  17.617 -0.0766  0.4576  0.3811
  885MPD2    H513036   2.075   2.941  17.527 -0.0083  1.0147  0.2247
  885MPD2    N113037   2.012   3.009   0.355 -0.7431 -0.0763  0.1314
  885MPD2    H713038   1.943   3.010   0.430 -1.0110  2.9109 -0.1522
  886MPD2     C13039   3.565   0.887  15.626  0.2278 -0.2679 -0.0738
  886MPD2    C113040   3.617   0.850  15.506 -0.8233 -0.2129 -0.2135
  886MPD2    C213041   3.591   0.927  15.393  0.2305  0.3964  0.4528
  886MPD2    C313042   3.525   1.047  15.408  0.0392 -0.5826 -0.6503
  886MPD2    C413043   3.478   1.088  15.532  0.1981  0.2901  0.4434
  886MPD2    C513044   3.509   1.011  15.642  0.0143 -0.1667 -0.1898
  886MPD2     H13045   3.626   0.893  15.297  0.1172 -1.6499  1.1350
  886MPD2    H113046   3.409   1.170  15.544 -0.2624 -0.1605  0.8991
  886MPD2    H213047   3.593   0.831  15.715 -0.1030  0.1652  0.3008
  886MPD2    H313048   3.486   1.046  15.742 -0.2399  1.1503 -0.7038
  886MPD2     N13049   3.517   1.131  15.292  0.9094 -0.2776 -0.1307
  886MPD2    H513050   3.543   1.088  15.203  1.5098  0.6024 -0.3759
  886MPD2    N113051   3.683   0.725  15.484 -0.6196 -0.0589  0.1311
  886MPD2    H713052   3.716   0.719  15.389 -0.4180  2.0683  0.0697
  887MPD2     C13053   4.388   0.711  15.352 -0.0790 -0.1668 -0.1309
  887MPD2    C113054   4.266   0.765  15.338  0.4954  0.3506  0.1827
  887MPD2    C213055   4.263   0.899  15.322 -0.1857 -0.1396  0.5747
  887MPD2    C313056   4.379   0.973  15.322  0.3755 -0.1589  0.1771
  887MPD2    C413057   4.502   0.911  15.324 -0.2432  0.7721  0.2354
  887MPD2    C513058   4.511   0.777  15.339  0.4137 -0.2838  0.6460
  887MPD2     H13059   4.167   0.945  15.302 -0.3577 -1.6050 -1.8914
  887MPD2    H113060   4.596   0.964  15.324 -0.0063  0.3556  0.1547
  887MPD2    H213061   4.412   0.608  15.374 -2.1886 -0.8522 -1.0965
  887MPD2    H313062   4.602   0.718  15.338  0.6049  0.0377 -0.2668
  887MPD2     N13063   4.371   1.113  15.318  0.8477 -0.2845 -0.1035
  887MPD2    H513064   4.275   1.145  15.315  0.9230 -0.0712 -0.1916
  887MPD2    N113065   4.146   0.701  15.345 -0.5857 -0.2657  0.3997
  887MPD2    H713066   4.062   0.756  15.334 -1.4287 -0.9706  3.3072
  888MPD2     C13067   1.174   0.785  14.686  1.0186 -0.4763 -0.0986
  888MPD2    C113068   1.098   0.845  14.787 -0.6200  0.8970  0.7943
  888MPD2    C213069   1.098   0.980  14.792  0.1817 -0.1776 -0.0162
  888MPD2    C313070   1.175   1.055  14.704  0.4766  0.0031 -0.2843
  888MPD2    C413071   1.245   0.997  14.601 -0.3421 -0.2120  0.3814
  888MPD2    C513072   1.252   0.861  14.603  0.2661  0.0143 -0.7382
  888MPD2     H13073   1.042   1.031  14.870  2.0351  1.3449  0.3090
  888MPD2    H113074   1.307   1.056  14.534  0.0448 -1.8940 -0.7496
  888MPD2    H213075   1.199   0.679  14.685  1.6588 -0.3212 -1.4576
  888MPD2    H313076   1.327   0.823  14.535 -0.9307 -0.4527 -1.7726
  888MPD2     N13077   1.186   1.193  14.742  0.1091  0.4629  0.5497
  888MPD2    H513078   1.141   1.223  14.827 -2.6441 -0.1951 -0.6905
  888MPD2    N113079   1.025   0.777  14.892  0.6742  0.6720  0.1765
  888MPD2    H713080   0.988   0.844  14.958 -0.2378  0.6984 -0.3640
  889MPD2     C13081   0.547   4.671  13.487  0.1408 -0.0007 -0.3437
  889MPD2    C113082   0.521   4.732  13.365 -0.1726  0.7995 -0.0589
  889MPD2    C213083   0.545   0.138  13.357 -0.2765  0.4934 -0.3680
  889MPD2    C313084   0.582   0.212  13.476  0.0223 -0.4599 -0.6619
  889MPD2    C413085   0.578   0.148  13.598 -0.5110 -0.3554 -0.2957
  889MPD2    C513086   0.558   0.013  13.600  0.4605  0.0328  0.2110
  889MPD2     H13087   0.556   0.194  13.265 -0.9278  0.7793 -0.2725
  889MPD2    H113088   0.603   0.195  13.692  0.4911 -1.4898  0.0190
  889MPD2    H213089   0.540   4.563  13.497 -0.0384  0.2796  2.3074
  889MPD2    H313090   0.550   4.707  13.700  0.3678  1.5140  0.8299
  889MPD2     N13091   0.619   0.346  13.464 -0.5438  0.2035  0.5770
  889MPD2    H513092   0.606   0.392  13.375  1.4272 -0.5280 -0.0873
  889MPD2    N113093   0.499   4.644  13.250  0.3173  0.4123 -0.3557
  889MPD2    H713094   0.484   4.548  13.278  0.6446 -0.0799 -1.8859
  890MPD2     C13095   0.185   2.320  14.435 -0.2686  0.3105  0.0211
  890MPD2    C113096   0.216   2.418  14.532  0.0083 -0.0259 -0.8953
  890MPD2    C213097   0.302   2.377  14.633  0.2301  0.3221  0.0933
  890MPD2    C313098   0.342   2.243  14.652  0.1201  0.0890 -0.2038
  890MPD2    C413099   0.302   2.150  14.558 -0.3815  0.0775  0.4433
  890MPD2    C513100   0.232   2.192  14.453 -0.4076  0.1212 -0.3753
  890MPD2     H13101   0.329   2.458  14.700 -0.0039  0.6275 -0.1794
  890MPD2    H113102   0.357   2.056  14.552 -0.6975 -0.0151 -1.0748
  890MPD2    H213103   0.110   2.333  14.359 -1.6247 -0.0840  1.3022
  890MPD2    H313104   0.215   2.117  14.376  0.5300  0.2487 -0.7048
  890MPD2     N13105   0.421   2.203  14.764 -0.5333  0.3445 -0.5587
  890MPD2    H513106   0.458   2.284  14.812 -1.7261 -0.1640  1.2057
  890MPD2    N113107   0.185   2.551  14.496  0.8320 -0.1653  0.0257
  890MPD2    H713108   0.146   2.566  14.403 -0.3268  1.1629  0.7252
  891MPD2     C13109   3.077   0.883  16.391 -0.3952 -0.7081 -0.6771
  891MPD2    C113110   3.024   0.940  16.507 -0.1248  0.2104  1.3730
  891MPD2    C213111   3.107   0.972  16.615 -0.6348  1.1811 -0.6531
  891MPD2    C313112   3.244   0.956  16.599 -0.2814 -0.2751 -0.6208
  891MPD2    C413113   3.295   0.885  16.487 -0.5400  0.3482 -0.5893
  891MPD2    C513114   3.206   0.846  16.391  0.6726 -0.6888 -0.0728
  891MPD2     H13115   3.071   1.023  16.704 -0.5627  0.5793 -0.2818
  891MPD2    H113116   3.399   0.855  16.478 -0.0438  1.7690  0.3620
  891MPD2    H213117   3.024   0.867  16.298 -1.7138  0.1838 -0.0710
  891MPD2    H313118   3.255   0.809  16.301 -0.3745 -0.8053 -0.5893
  891MPD2     N13119   3.336   1.002  16.699  0.0113  0.0824  0.0125
  891MPD2    H513120   3.294   1.039  16.784  1.1463 -0.5508  0.8447
  891MPD2    N113121   2.878   0.958  16.503  0.9113  0.2695 -0.2631
  891MPD2    H713122   2.833   0.931  16.417 -1.4733 -0.6383  1.2683
  892MPD2     C13123   3.958   1.547  14.970  0.2673 -0.1149 -0.5706
  892MPD2    C113124   3.848   1.529  14.887  0.1876  1.0283 -0.0016
  892MPD2    C213125   3.862   1.443  14.780  0.6108  0.0208  0.3375
  892MPD2    C313126   3.964   1.354  14.776 -0.5109  0.1977  0.2871
  892MPD2    C413127   4.070   1.372  14.860  0.0647 -0.0704 -0.1764
  892MPD2    C513128   4.073   1.477  14.953 -0.3626 -0.0678  0.0221
  892MPD2     H13129   3.777   1.422  14.715  1.4990 -2.0659 -0.1347
  892MPD2    H113130   4.157   1.306  14.859 -0.0356 -0.1886 -1.3092
  892MPD2    H213131   3.954   1.629  15.041 -3.3221 -0.8703  0.1304
  892MPD2    H313132   4.163   1.497  15.010 -0.0732  3.0645 -1.5319
  892MPD2     N13133   3.974   1.245  14.681  0.0060 -0.1846 -0.0558
  892MPD2    H513134   4.064   1.198  14.669 -1.0583 -2.0827 -0.5643
  892MPD2    N113135   3.744   1.614  14.903  0.1562 -0.8234  0.1046
  892MPD2    H713136   3.761   1.678  14.980  0.2481 -0.7701  0.0398
  893MPD2     C13137   0.567   0.824   1.038  0.5361 -0.5673 -0.2662
  893MPD2    C113138   0.664   0.774   1.114 -0.1226 -0.3727  0.1309
  893MPD2    C213139   0.626   0.668   1.197 -0.4438  0.0287 -0.0447
  893MPD2    C313140   0.495   0.618   1.206  0.6031  0.0924  0.1573
  893MPD2    C413141   0.398   0.677   1.123  0.2880  0.0388  0.2981
  893MPD2    C513142   0.438   0.776   1.040  1.2047  0.7877  0.0299
  893MPD2     H13143   0.701   0.622   1.260  1.7804  0.2409 -2.5617
  893MPD2    H113144   0.299   0.633   1.120  1.0031 -1.5109 -0.5673
  893MPD2    H213145   0.600   0.910   0.981 -0.2425 -0.1377 -0.0698
  893MPD2    H313146   0.367   0.807   0.964 -1.0594 -0.1222  1.7727
  893MPD2     N13147   0.460   0.518   1.288 -0.3691 -0.7710  0.4302
  893MPD2    H513148   0.360   0.502   1.282 -0.5555  1.4061 -2.3220
  893MPD2    N113149   0.793   0.820   1.106  0.4982  0.0620  0.1413
  893MPD2    H713150   0.805   0.904   1.049 -1.4880  0.5169  0.3995
  894MPD2     C13151   3.722   2.944   0.863  0.2845 -0.2185  0.2392
  894MPD2    C113152   3.711   2.995   0.989  0.3800  0.7218 -0.1713
  894MPD2    C213153   3.730   3.130   1.012  0.0065  0.3716 -0.2039
  894MPD2    C313154   3.785   3.208   0.916 -0.7691 -0.7003 -0.4936
  894MPD2    C413155   3.792   3.161   0.789  0.2585  0.5962 -0.3733
  894MPD2    C513156   3.761   3.027   0.761  0.3609  0.3739 -0.2312
  894MPD2     H13157   3.729   3.167   1.114  1.4431  1.3381 -0.5452
  894MPD2    H113158   3.837   3.212   0.704 -1.7872 -0.7165 -2.2310
  894MPD2    H213159   3.714   2.839   0.836 -1.6542 -0.2273  0.8626
  894MPD2    H313160   3.787   2.991   0.662  2.1673  2.8228 -0.6562
  894MPD2     N13161   3.810   3.340   0.955 -0.5293 -0.1483  0.3734
  894MPD2    H513162   3.803   3.363   1.053  0.1500  1.9016 -0.0574
  894MPD2    N113163   3.662   2.922   1.097 -0.4332  0.8490 -0.4224
  894MPD2    H713164   3.666   2.960   1.191  0.1157 -1.2037  0.3899
  895MPD2     C13165   3.081   0.407  14.138 -0.3257 -0.2101  0.0507
  895MPD2    C113166   3.059   0.407  13.998 -0.1643 -0.4811  0.0072
  895MPD2    C213167   3.143   0.330  13.916  0.5937  0.1201  0.1587
  895MPD2    C313168   3.239   0.244  13.971 -0.0952  0.2499 -0.1617
  895MPD2    C413169   3.248   0.236  14.111 -0.0870 -0.1028  0.3369
  895MPD2    C513170   3.177   0.326  14.191  0.1779  0.0229 -0.1014
  895MPD2     H13171   3.125   0.325  13.809 -0.7867 -1.9645  0.4787
  895MPD2    H113172   3.319   0.175  14.165  0.0501 -1.7306 -1.6968
  895MPD2    H213173   3.027   0.482  14.195  0.1420 -2.9506  4.0281
  895MPD2    H313174   3.194   0.338  14.297 -0.4647  1.2689 -0.1431
  895MPD2     N13175   3.322   0.161  13.887 -0.1388  0.1874 -0.1773
  895MPD2    H513176   3.312   0.179  13.788  1.0295 -1.5478 -0.6184
  895MPD2    N113177   2.953   0.487  13.938  0.6658 -0.4265  0.0045
  895MPD2    H713178   2.934   0.465  13.841 -1.9093  0.2533  0.3719
  896MPD2     C13179   0.916   4.022   1.481 -1.0239 -0.3993 -0.4953
  896MPD2    C113180   0.881   3.930   1.387 -0.4767  0.9642  0.6940
  896MPD2    C213181   0.750   3.877   1.400  0.0601  0.1103 -0.0660
  896MPD2    C313182   0.657   3.922   1.489  0.1270 -0.1310 -0.5758
  896MPD2    C413183   0.704   4.012   1.585  0.0428 -0.2725 -0.7171
  896MPD2    C513184   0.825   4.067   1.573  0.1390  0.6494 -0.0284
  896MPD2     H13185   0.715   3.810   1.322  0.8192 -1.4106  0.9016
  896MPD2    H113186   0.639   4.047   1.664 -1.0799 -0.5357 -1.5239
  896MPD2    H213187   1.018   4.057   1.476 -0.3404 -2.3636 -0.3689
  896MPD2    H313188   0.857   4.148   1.638 -1.9179  1.1641  0.3214
  896MPD2     N13189   0.529   3.862   1.500  0.3712 -0.1903  0.1338
  896MPD2    H513190   0.503   3.804   1.421 -0.0945 -1.6170  1.3130
  896MPD2    N113191   0.967   3.903   1.276 -0.5054  0.4215  0.1604
  896MPD2    H713192   1.057   3.949   1.272 -0.4053  0.0806 -1.6354
  897MPD2     C13193   1.886   0.291  10.856  0.1343  0.1937 -0.5097
  897MPD2    C113194   1.830   0.245  10.739 -0.7748  0.3613  0.5675
  897MPD2    C213195   1.760   0.127  10.747 -0.0315  0.4184 -0.1470
  897MPD2    C313196   1.726   0.075  10.870  0.2229  0.0885 -0.0347
  897MPD2    C413197   1.803   0.115  10.979 -0.2609  0.7956  0.2212
  897MPD2    C513198   1.886   0.220  10.972 -0.2283 -0.5007 -0.2732
  897MPD2     H13199   1.712   0.086  10.659  0.8828  0.5574 -0.7178
  897MPD2    H113200   1.789   0.067  11.075 -0.7348 -1.0259 -0.7465
  897MPD2    H213201   1.939   0.386  10.859  0.8109 -0.2322  0.7291
  897MPD2    H313202   1.937   0.253  11.062 -3.3876  1.6710  0.7097
  897MPD2     N13203   1.631   4.708  10.872  0.0476 -0.3823  0.4933
  897MPD2    H513204   1.594   4.681  10.782  1.0185 -2.3561  0.6784
  897MPD2    N113205   1.855   0.327  10.631 -0.6233  0.1081  0.3127
  897MPD2    H713206   1.888   0.421  10.650 -0.9280  0.1327  0.7361
  898MPD2     C13207   3.038   1.666  17.553  0.1724  1.2015 -0.4401
  898MPD2    C113208   3.167   1.687  17.513 -0.6277  0.5138  0.2023
  898MPD2    C213209   3.197   1.813  17.465 -0.1946 -0.7717  0.5685
  898MPD2    C313210   3.108   1.916  17.454 -0.4002 -0.2835 -0.1958
  898MPD2    C413211   2.977   1.892  17.504  0.4543 -0.2037  1.1138
  898MPD2    C513212   2.944   1.763  17.539 -0.4789 -0.8162 -0.0787
  898MPD2     H13213   3.294   1.832  17.418  0.1353 -1.8316  0.8337
  898MPD2    H113214   2.896   1.964  17.508 -0.1671 -0.8809  0.7701
  898MPD2    H213215   3.005   1.571  17.594  0.5630  0.0313 -2.7999
  898MPD2    H313216   2.844   1.744  17.576 -0.3347  0.7456  1.1227
  898MPD2     N13217   3.146   2.041  17.396 -0.0875  0.6114  0.4494
  898MPD2    H513218   3.241   2.050  17.362 -0.5669 -1.3665 -1.4195
  898MPD2    N113219   3.267   1.587  17.520 -0.4630 -0.2963 -0.2713
  898MPD2    H713220   3.355   1.621  17.482  0.4163 -0.8466  1.2388
  899MPD2     C13221   4.305   1.902  17.342 -0.1450 -0.1574 -0.4026
  899MPD2    C113222   4.368   1.988  17.430  0.3493  0.1266 -0.0516
  899MPD2    C213223   4.319   1.996  17.561 -0.0196  0.2994  0.1668
  899MPD2    C313224   4.208   1.923  17.604 -0.6050 -0.1153  0.1316
  899MPD2    C413225   4.149   1.835  17.516 -0.6001 -0.1701 -0.4500
  899MPD2    C513226   4.201   1.828  17.392  0.2389  0.0615  0.1206
  899MPD2     H13227   4.369   2.064  17.629  3.1685  0.9770 -2.9048
  899MPD2    H113228   4.073   1.768  17.555 -0.7340 -0.5611 -1.3906
  899MPD2    H213229   4.343   1.876  17.244  0.0110  1.2798 -0.7151
  899MPD2    H313230   4.156   1.753  17.328 -0.8188  0.3237  0.5526
  899MPD2     N13231   4.134   1.951  17.727 -0.7461  0.3667 -0.2358
  899MPD2    H513232   4.055   1.888  17.734  1.4261 -2.0397  2.5856
  899MPD2    N113233   4.456   2.081  17.374  0.0147 -0.2617  0.0877
  899MPD2    H713234   4.467   2.075  17.273 -1.3711  0.3508 -0.0976
  900MPD2     C13235   3.988   3.281  12.433 -0.0021 -0.6830 -0.2047
  900MPD2    C113236   3.891   3.227  12.349 -0.6149  0.1969  0.0565
  900MPD2    C213237   3.799   3.322  12.297 -0.0672 -0.4429 -0.3711
  900MPD2    C313238   3.816   3.461  12.318  0.1797  0.3379  0.3297
  900MPD2    C413239   3.921   3.505  12.388  0.1813  0.1522 -0.0840
  900MPD2    C513240   4.003   3.416  12.452 -0.8647  0.3459  0.0919
  900MPD2     H13241   3.713   3.286  12.242 -1.7097  4.0290 -0.7699
  900MPD2    H113242   3.935   3.610  12.406 -1.0700  0.2155  0.5358
  900MPD2    H213243   4.052   3.220  12.496  0.8663  0.2407 -0.1879
  900MPD2    H313244   4.071   3.444  12.531  1.6292 -0.4672 -1.7866
  900MPD2     N13245   3.718   3.548  12.265  0.0526  0.2568  0.5908
  900MPD2    H513246   3.641   3.500  12.219 -0.3006  2.3481 -0.9924
  900MPD2    N113247   3.884   3.084  12.329 -0.4736  0.2132 -0.3918
  900MPD2    H713248   3.960   3.035  12.374  0.8940  2.3152 -0.4262
  901MPD2     C13249   3.451   2.070  12.208  0.1794  0.5472  0.0294
  901MPD2    C113250   3.571   2.069  12.274  0.4654  0.3534  0.3033
  901MPD2    C213251   3.636   2.192  12.284 -0.2367  0.0093 -0.4552
  901MPD2    C313252   3.584   2.314  12.246  0.8665 -0.7465 -0.2679
  901MPD2    C413253   3.459   2.317  12.191  0.1431  0.8589  0.8136
  901MPD2    C513254   3.394   2.190  12.174  0.6978 -0.2977 -0.0517
  901MPD2     H13255   3.738   2.192  12.322 -0.4687  0.0604  0.1706
  901MPD2    H113256   3.412   2.406  12.150 -2.6683 -1.3918 -0.8068
  901MPD2    H213257   3.391   1.981  12.191 -0.8422  0.8364  2.1102
  901MPD2    H313258   3.297   2.208  12.129  0.9809  2.1945  0.3074
  901MPD2     N13259   3.669   2.430  12.253  0.0022 -0.2376 -0.5934
  901MPD2    H513260   3.769   2.416  12.265 -0.1407  0.4049  1.4131
  901MPD2    N113261   3.624   1.947  12.322  0.2378  0.1423 -0.1245
  901MPD2    H713262   3.588   1.856  12.294  0.3339  0.7324 -2.1759
  902MPD2     C13263   2.709   1.202  13.190  0.7996  0.2718  0.8311
  902MPD2    C113264   2.743   1.242  13.063 -0.0944  0.3132 -0.7245
  902MPD2    C213265   2.815   1.152  12.986  0.2345 -0.1713  0.6523
  902MPD2    C313266   2.858   1.035  13.032  0.2255  0.1420  0.1411
  902MPD2    C413267   2.837   1.003  13.166 -0.3660 -0.7660 -0.2019
  902MPD2    C513268   2.761   1.087  13.244 -0.0440  0.8300  0.8292
  902MPD2     H13269   2.828   1.170  12.880 -0.4326 -1.0181  0.4267
  902MPD2    H113270   2.865   0.908  13.210  0.3065 -1.5156 -2.2409
  902MPD2    H213271   2.656   1.258  13.266 -1.5791 -1.5131  0.5036
  902MPD2    H313272   2.742   1.054  13.345 -0.5358  1.7571  1.0381
  902MPD2     N13273   2.911   0.943  12.941  0.3204 -0.5348 -0.5354
  902MPD2    H513274   2.880   0.955  12.845  1.2752 -2.0450 -1.0498
  902MPD2    N113275   2.715   1.374  13.027 -0.5076 -1.0006  0.0998
  902MPD2    H713276   2.638   1.420  13.076  1.5750  1.0739  1.4265
  903MPD2     C13277   3.150   0.723  12.154 -0.0789  0.4609 -0.2975
  903MPD2    C113278   3.073   0.785  12.245  0.3081 -0.1934  0.6563
  903MPD2    C213279   2.958   0.844  12.206 -0.5512  0.0282 -0.3030
  903MPD2    C313280   2.937   0.870  12.071  0.0096 -0.0400 -0.3974
  903MPD2    C413281   3.028   0.809  11.974  0.0428  0.4395 -0.5138
  903MPD2    C513282   3.123   0.720  12.027 -0.3849  0.1891 -0.2795
  903MPD2     H13283   2.884   0.880  12.276 -3.3358 -1.2094 -2.6134
  903MPD2    H113284   3.020   0.820  11.866  2.0111  1.1568 -0.5798
  903MPD2    H213285   3.239   0.667  12.179 -0.6715 -0.2433  0.2234
  903MPD2    H313286   3.195   0.672  11.961 -1.1044  0.2323 -1.0910
  903MPD2     N13287   2.826   0.947  12.039 -0.6336  0.4216 -0.3291
  903MPD2    H513288   2.765   0.981  12.112 -0.4163 -0.6199  0.3433
  903MPD2    N113289   3.106   0.756  12.380 -0.2919  0.1397  0.6563
  903MPD2    H713290   3.189   0.701  12.400  0.6034  0.0910 -3.0999
  904MPD2     C13291   2.821   0.194  14.429  0.2358 -0.0006 -0.1163
  904MPD2    C113292   2.832   0.127  14.311 -0.4074 -0.4184  0.1719
  904MPD2    C213293   2.951   0.063  14.276 -0.1744  0.5278 -0.2173
  904MPD2    C313294   3.064   0.071  14.349 -0.0180 -0.4309 -0.4787
  904MPD2    C413295   3.057   0.140  14.467  0.4962  0.4144  0.8113
  904MPD2    C513296   2.932   0.189  14.512 -0.1698 -0.0770  0.9918
  904MPD2     H13297   2.947   0.007  14.183 -0.4467  0.7225 -0.3245
  904MPD2    H113298   3.145   0.144  14.530  0.2710 -2.9670  1.3497
  904MPD2    H213299   2.738   0.253  14.463  0.0896 -1.0067  1.2703
  904MPD2    H313300   2.921   0.234  14.610 -1.8008  0.1915  0.6878
  904MPD2     N13301   3.182   4.735  14.329  1.0454  0.5909 -0.1242
  904MPD2    H513302   3.263   0.026  14.383 -0.6454 -0.8311  3.1588
  904MPD2    N113303   2.734   0.137  14.208 -0.5244 -0.1644 -0.4702
  904MPD2    H713304   2.754   0.078  14.127 -1.5897 -0.1343 -0.7476
  905MPD2     C13305   2.698   4.681  13.570 -0.2386 -0.0559 -0.0226
  905MPD2    C113306   2.764   0.042  13.635  0.0354  0.4949  0.2314
  905MPD2    C213307   2.899   0.060  13.608 -1.0781  0.3574  1.1290
  905MPD2    C313308   2.964   4.715  13.523  0.0739 -0.3852  0.1114
  905MPD2    C413309   2.893   4.607  13.462  0.5731 -0.5201 -0.2185
  905MPD2    C513310   2.756   4.607  13.476 -0.2255 -0.5009  0.3163
  905MPD2     H13311   2.960   0.128  13.666 -0.8403  0.0357  1.2606
  905MPD2    H113312   2.943   4.533  13.401  0.0801 -1.4744  0.5269
  905MPD2    H213313   2.590   4.673  13.580 -0.2308  1.3764  1.1312
  905MPD2    H313314   2.698   4.531  13.425  0.3572  0.5274 -1.8939
  905MPD2     N13315   3.111   4.704  13.505 -0.0227  0.4031 -0.1857
  905MPD2    H513316   3.145   4.624  13.454  0.5805  2.8845 -3.7286
  905MPD2    N113317   2.687   0.119  13.723  0.1808  0.0155 -0.0730
  905MPD2    H713318   2.593   0.085  13.742 -0.3853  0.6145 -1.7149
  906MPD2     C13319   0.477   4.690  11.463 -0.3468  0.0215 -0.8881
  906MPD2    C113320   0.386   4.626  11.382 -0.1236 -0.5201  0.2455
  906MPD2    C213321   0.291   4.547  11.432 -0.4638  0.3900  0.8996
  906MPD2    C313322   0.274   4.526  11.569  0.0136 -0.0794 -0.1218
  906MPD2    C413323   0.376   4.577  11.651  0.1555  0.6956 -0.1929
  906MPD2    C513324   0.468   4.662  11.599  0.1595  0.0846 -0.4382
  906MPD2     H13325   0.216   4.519  11.359  0.2494  3.5898 -1.0842
  906MPD2    H113326   0.381   4.555  11.757 -1.3578  1.5210  0.0543
  906MPD2    H213327   0.543   0.035  11.432 -1.9344  1.1529 -1.3270
  906MPD2    H313328   0.536   4.716  11.664  2.1120 -1.2189 -1.3726
  906MPD2     N13329   0.160   4.457  11.614  0.0410  0.3501 -0.0406
  906MPD2    H513330   0.131   4.463  11.711 -1.4812 -1.6234 -0.3664
  906MPD2    N113331   0.388   4.630  11.239  0.3139  0.2525 -0.7516
  906MPD2    H713332   0.312   4.583  11.191  0.1686  1.3156 -1.5502
  907MPD2     C13333   4.338   4.509  14.996  0.1090 -0.8289  0.0705
  907MPD2    C113334   4.294   4.390  15.042 -0.7831  0.7786  0.1750
  907MPD2    C213335   4.364   4.324  15.150 -0.7025 -0.2577 -0.7453
  907MPD2    C313336   4.458   4.398  15.222 -0.3690  0.3195 -0.1194
  907MPD2    C413337   4.493   4.527  15.179  0.2781 -0.0005  0.0856
  907MPD2    C513338   4.440   4.575  15.059 -0.0514 -0.2882 -0.3490
  907MPD2     H13339   4.332   4.228  15.188  1.1953 -1.0307 -1.0961
  907MPD2    H113340   4.560   4.589  15.238 -0.0330  1.7203 -1.3538
  907MPD2    H213341   4.293   4.555  14.909 -1.4675  0.2736  1.4622
  907MPD2    H313342   4.481   4.665  15.015 -1.8436 -0.2615 -1.9718
  907MPD2     N13343   4.503   4.343  15.347 -0.1018  0.6510 -0.0741
  907MPD2    H513344   4.454   4.261  15.380 -1.5290  1.0761 -1.2037
  907MPD2    N113345   4.179   4.329  14.993 -0.3328 -0.5521  0.3038
  907MPD2    H713346   4.162   4.232  15.016  0.0584 -0.3450  1.5003
  908MPD2     C13347   2.403   0.346   9.808  0.1270  0.2255  0.5060
  908MPD2    C113348   2.322   0.239   9.841  1.0457  0.0147 -0.1836
  908MPD2    C213349   2.212   0.262   9.920  0.2204  0.3597 -0.5694
  908MPD2    C313350   2.183   0.387   9.969  0.6130 -0.2626  0.1255
  908MPD2    C413351   2.255   0.493   9.916  0.3476  0.4966 -0.6297
  908MPD2    C513352   2.363   0.469   9.840  0.3982 -0.7330  0.8566
  908MPD2     H13353   2.153   0.175   9.947  0.2908 -1.0052 -4.7353
  908MPD2    H113354   2.243   0.595   9.949  0.7925  0.4644 -0.3635
  908MPD2    H213355   2.483   0.328   9.738 -0.1763 -1.8355  0.6881
  908MPD2    H313356   2.408   0.549   9.783 -0.9208 -1.1959 -0.8569
  908MPD2     N13357   2.082   0.414  10.066  1.0481  0.5669 -0.4928
  908MPD2    H513358   2.015   0.338  10.068  0.4702  1.1725  2.7872
  908MPD2    N113359   2.360   0.113   9.782 -0.1277 -0.1452  0.0596
  908MPD2    H713360   2.443   0.114   9.724 -1.2069 -0.6797 -1.4881
  909MPD2     C13361   2.128   2.666  11.689  0.2375  0.5101  0.4284
  909MPD2    C113362   2.125   2.806  11.675  0.1227 -0.2532  0.0699
  909MPD2    C213363   2.025   2.874  11.743 -0.0915 -0.2077 -0.3383
  909MPD2    C313364   1.940   2.814  11.823  0.0425 -0.1130 -0.3314
  909MPD2    C413365   1.954   2.679  11.841 -0.3452  0.1942 -0.0642
  909MPD2    C513366   2.044   2.603  11.780 -0.1920 -0.0116  0.7521
  909MPD2     H13367   2.015   2.978  11.716  3.7186  0.2831  0.1030
  909MPD2    H113368   1.882   2.631  11.906  2.8685 -0.4526  2.9708
  909MPD2    H213369   2.190   2.597  11.632  0.0198  2.7001 -2.4424
  909MPD2    H313370   2.038   2.495  11.789  0.4630 -0.2533 -1.6358
  909MPD2     N13371   1.833   2.895  11.874 -0.1671 -0.4021 -0.1315
  909MPD2    H513372   1.839   2.995  11.858 -0.8001 -0.4817 -0.8456
  909MPD2    N113373   2.199   2.874  11.570 -0.4661 -0.3068  0.7870
  909MPD2    H713374   2.182   2.974  11.559 -0.6515 -0.3113  1.0306
  910MPD2     C13375   3.433   0.438  16.395 -0.2921  0.0386  0.1156
  910MPD2    C113376   3.465   0.337  16.304 -0.5490 -0.0778 -0.3634
  910MPD2    C213377   3.394   0.311  16.191  0.2781 -0.7021  0.1486
  910MPD2    C313378   3.289   0.395  16.164 -0.7245  0.0305 -1.0835
  910MPD2    C413379   3.247   0.491  16.250 -0.2239 -0.0954 -0.0339
  910MPD2    C513380   3.320   0.508  16.364  0.1956  0.9401 -0.5322
  910MPD2     H13381   3.400   0.222  16.129  2.3185  1.3992 -2.6585
  910MPD2    H113382   3.166   0.560  16.231  1.3448  2.0743  1.1126
  910MPD2    H213383   3.488   0.456  16.487  3.3707  2.0659 -2.4955
  910MPD2    H313384   3.279   0.576  16.438  2.2541  3.3637 -1.6541
  910MPD2     N13385   3.213   0.376  16.050 -0.3037  0.3136 -0.2022
  910MPD2    H513386   3.128   0.431  16.049 -0.6423 -0.2255 -1.3797
  910MPD2    N113387   3.575   0.246  16.312 -0.6913 -0.4475  0.0721
  910MPD2    H713388   3.571   0.165  16.252 -0.2408  0.5773 -1.3561
  911MPD2     C13389   1.259   0.683  16.078  0.4039  0.0838  0.5403
  911MPD2    C113390   1.300   0.738  16.200 -0.9170 -0.4471 -0.5866
  911MPD2    C213391   1.225   0.848  16.240 -0.6158 -0.4161  0.1791
  911MPD2    C313392   1.117   0.896  16.166 -0.2950 -0.2225 -0.7576
  911MPD2    C413393   1.096   0.843  16.042 -0.7540 -0.3295  0.4017
  911MPD2    C513394   1.159   0.727  16.002 -0.0617 -0.4965  0.2736
  911MPD2     H13395   1.241   0.895  16.336 -0.0692  0.2263 -0.2259
  911MPD2    H113396   1.018   0.874  15.974  0.5435  1.9649 -0.0668
  911MPD2    H213397   1.325   0.606  16.039 -1.3244 -1.9795  1.6651
  911MPD2    H313398   1.144   0.686  15.903  1.9211  0.2219 -0.3244
  911MPD2     N13399   1.022   0.984  16.219  0.0822 -0.3328  0.2447
  911MPD2    H513400   0.930   0.992  16.177  1.7927  0.3546 -3.3880
  911MPD2    N113401   1.411   0.685  16.265  0.1621  0.1233 -0.0334
  911MPD2    H713402   1.455   0.607  16.216 -0.8577 -0.3837 -0.1431
  912MPD2     C13403   0.672   1.070  15.727  0.2283 -0.3712 -0.0224
  912MPD2    C113404   0.686   1.016  15.851 -0.2195 -0.5646 -0.1631
  912MPD2    C213405   0.710   0.883  15.869 -0.3929  0.2593  0.4909
  912MPD2    C313406   0.706   0.796  15.768 -0.4920 -0.0608  0.5823
  912MPD2    C413407   0.681   0.844  15.643  0.2795 -0.2330 -0.1163
  912MPD2    C513408   0.668   0.980  15.619 -0.2286 -0.2684 -0.1779
  912MPD2     H13409   0.739   0.847  15.967 -0.5929 -0.7762  0.1729
  912MPD2    H113410   0.675   0.774  15.561 -1.3327  1.8887 -1.8070
  912MPD2    H213411   0.651   1.172  15.697 -1.5355  0.1559  3.0094
  912MPD2    H313412   0.649   1.014  15.518 -1.6216 -0.5458 -0.0231
  912MPD2     N13413   0.737   0.665  15.796  0.7215  0.4550 -0.2516
  912MPD2    H513414   0.745   0.643  15.895 -1.3843  2.6303  0.4268
  912MPD2    N113415   0.687   1.112  15.958  0.0247  0.0435  0.3211
  912MPD2    H713416   0.688   1.211  15.936  2.2242 -0.6315 -2.5480
  913MPD2     C13417   1.597   1.576  10.760  0.0702  0.5095 -0.1502
  913MPD2    C113418   1.582   1.711  10.789 -0.3658  0.1675  0.0052
  913MPD2    C213419   1.528   1.800  10.698  0.0708  0.2977 -0.2592
  913MPD2    C313420   1.475   1.752  10.577  0.0930  0.6790 -0.7338
  913MPD2    C413421   1.474   1.615  10.561  0.7929  0.2072 -0.1930
  913MPD2    C513422   1.539   1.525  10.647  0.2345  0.4477 -1.0793
  913MPD2     H13423   1.527   1.906  10.720 -1.6377  0.2958 -0.3431
  913MPD2    H113424   1.428   1.575  10.472  0.1707  0.7036 -0.0991
  913MPD2    H213425   1.651   1.507  10.824 -1.3410 -1.8868 -1.5337
  913MPD2    H313426   1.538   1.418  10.630  3.0693 -0.1009  2.3280
  913MPD2     N13427   1.418   1.836  10.480  0.0726 -0.0997 -0.3823
  913MPD2    H513428   1.381   1.799  10.392  1.6471 -1.3678 -0.5097
  913MPD2    N113429   1.644   1.752  10.911  0.4504  0.3081 -0.5137
  913MPD2    H713430   1.683   1.676  10.965  2.2374  1.8498  0.3661
  914MPD2     C13431   3.921   1.402  11.789 -0.3005 -0.7712  0.2876
  914MPD2    C113432   3.811   1.487  11.805 -0.8654 -0.2272 -0.3208
  914MPD2    C213433   3.774   1.523  11.933  0.1045  0.6490 -0.6112
  914MPD2    C313434   3.860   1.498  12.038 -0.4973  0.5445 -0.4635
  914MPD2    C413435   3.956   1.398  12.020  0.0544  0.1859 -0.6281
  914MPD2    C513436   3.994   1.357  11.895  0.0979  0.4965  0.1501
  914MPD2     H13437   3.681   1.577  11.949 -0.5738 -1.2426  1.7503
  914MPD2    H113438   4.008   1.359  12.106  0.9581  0.9850 -0.8075
  914MPD2    H213439   3.964   1.396  11.690 -1.1134 -1.7803  0.0071
  914MPD2    H313440   4.081   1.293  11.892  0.3972  1.0150 -2.3572
  914MPD2     N13441   3.843   1.565  12.162  0.4946 -0.5045  0.7100
  914MPD2    H513442   3.767   1.633  12.167  1.1903  0.2680  0.7296
  914MPD2    N113443   3.761   1.547  11.688 -0.0222 -0.1571  0.0242
  914MPD2    H713444   3.832   1.550  11.616  1.3717 -0.3205  1.3986
  915MPD2     C13445   2.324   2.104  15.718  0.7166 -0.5949 -0.0668
  915MPD2    C113446   2.209   2.184  15.714 -0.0184  0.6985 -0.8270
  915MPD2    C213447   2.181   2.256  15.828 -0.4214 -0.4377 -0.1353
  915MPD2    C313448   2.254   2.240  15.948  0.2890  0.6193 -0.5644
  915MPD2    C413449   2.364   2.166  15.947 -0.0382 -0.4081 -0.0968
  915MPD2    C513450   2.402   2.101  15.831 -0.1180  0.4037  0.4431
  915MPD2     H13451   2.088   2.311  15.835 -1.8883 -2.8881 -0.3645
  915MPD2    H113452   2.433   2.145  16.029 -2.2631  0.2829  1.9494
  915MPD2    H213453   2.355   2.040  15.636  0.4937 -0.4482 -0.2651
  915MPD2    H313454   2.488   2.036  15.819  1.3821  2.7651 -1.4189
  915MPD2     N13455   2.196   2.299  16.060  0.5048 -0.3867  0.5767
  915MPD2    H513456   2.119   2.364  16.048  1.3853  0.5731  0.1666
  915MPD2    N113457   2.112   2.194  15.606 -0.3083 -0.1582 -0.4829
  915MPD2    H713458   2.028   2.242  15.634 -0.5107 -1.0720  0.4777
  916MPD2     C13459   0.381   0.431  15.556  0.2937 -0.3650  0.7511
  916MPD2    C113460   0.410   0.391  15.682  0.2929  0.0304 -0.0711
  916MPD2    C213461   0.464   0.259  15.700  0.0032  0.1499  0.1838
  916MPD2    C313462   0.487   0.176  15.589  0.0743  0.9322 -0.3810
  916MPD2    C413463   0.456   0.232  15.467 -0.2059  0.1583  0.4034
  916MPD2    C513464   0.401   0.352  15.444  0.1310 -0.3958 -0.0407
  916MPD2     H13465   0.498   0.224  15.797 -3.1235  1.3727  1.7310
  916MPD2    H113466   0.460   0.176  15.374 -1.0186 -2.1830  1.7911
  916MPD2    H213467   0.330   0.526  15.546  0.4303 -0.1636  1.9117
  916MPD2    H313468   0.372   0.384  15.344 -1.1632 -1.6403 -0.0461
  916MPD2     N13469   0.546   0.052  15.603  0.5189  0.5290 -0.2264
  916MPD2    H513470   0.587   0.037  15.695  0.9788  0.6715 -0.4078
  916MPD2    N113471   0.409   0.488  15.786  0.3240 -0.0530  0.3613
  916MPD2    H713472   0.383   0.578  15.749 -0.6119 -0.8162 -0.8356
  917MPD2     C13473   0.403   2.068  10.969 -0.1957 -0.3103 -0.0091
  917MPD2    C113474   0.461   2.128  11.075 -0.3231 -0.5065  0.9163
  917MPD2    C213475   0.522   2.249  11.042 -0.4789  0.0870  0.0333
  917MPD2    C313476   0.521   2.311  10.922 -0.3905 -0.6012 -1.0045
  917MPD2    C413477   0.440   2.251  10.826 -0.1460 -0.0788 -0.0190
  917MPD2    C513478   0.382   2.131  10.849 -0.3062  0.2665  0.0873
  917MPD2     H13479   0.589   2.294  11.115  2.0752  0.2301 -2.4061
  917MPD2    H113480   0.419   2.290  10.727 -0.7566 -1.3265 -0.3767
  917MPD2    H213481   0.359   1.970  10.984  0.1986 -0.3314  0.9914
  917MPD2    H313482   0.318   2.089  10.773 -2.7312  0.8749  1.7972
  917MPD2     N13483   0.592   2.429  10.888  0.1929  0.1283 -0.2201
  917MPD2    H513484   0.572   2.460  10.794 -0.7007 -1.3904 -0.5266
  917MPD2    N113485   0.482   2.047  11.186 -0.2255  0.1543 -0.6101
  917MPD2    H713486   0.430   1.960  11.185 -0.6758  0.4673 -3.8264
  918MPD2     C13487   0.450   2.655  11.934  0.1212 -0.1524  0.3365
  918MPD2    C113488   0.564   2.588  11.903  0.4973 -0.9438 -0.9573
  918MPD2    C213489   0.558   2.463  11.840  0.5254  0.4676  0.1465
  918MPD2    C313490   0.441   2.410  11.796  0.6273  0.9207 -0.5312
  918MPD2    C413491   0.330   2.481  11.813 -0.3641 -0.0999 -0.6222
  918MPD2    C513492   0.331   2.595  11.883 -0.9457  0.6062  0.1884
  918MPD2     H13493   0.649   2.407  11.823 -1.7539 -3.3861  0.3810
  918MPD2    H113494   0.232   2.441  11.787 -0.9614 -0.1930  1.7458
  918MPD2    H213495   0.450   2.743  11.997 -0.7433  0.1326 -0.0525
  918MPD2    H313496   0.239   2.650  11.900 -1.0631 -0.2429  2.3406
  918MPD2     N13497   0.456   2.283  11.743  0.6018  0.6491  0.0667
  918MPD2    H513498   0.544   2.233  11.751  0.3111  0.3788  1.6664
  918MPD2    N113499   0.692   2.632  11.947  0.4654 -0.0493 -0.3409
  918MPD2    H713500   0.769   2.567  11.954  0.7000  0.4339  1.6841
  919MPD2     C13501   1.352   1.806  11.902  0.0470 -0.1750  0.5846
  919MPD2    C113502   1.314   1.679  11.865 -0.1648 -0.4681  0.0540
  919MPD2    C213503   1.322   1.653  11.729 -0.4292  1.1087 -0.1379
  919MPD2    C313504   1.357   1.744  11.629  0.4768 -0.3466 -0.4443
  919MPD2    C413505   1.375   1.876  11.675 -0.0789 -0.0320 -0.6213
  919MPD2    C513506   1.391   1.898  11.810  0.0524  0.0177  0.4089
  919MPD2     H13507   1.293   1.552  11.702 -0.1963  0.7791  0.8509
  919MPD2    H113508   1.406   1.945  11.597  0.8433  1.3146  0.9295
  919MPD2    H213509   1.342   1.842  12.003  0.1610  0.2525  0.4441
  919MPD2    H313510   1.424   1.996  11.840 -0.3394  0.7743 -1.5988
  919MPD2     N13511   1.373   1.713  11.494  0.8332  0.7243  0.0131
  919MPD2    H513512   1.374   1.794  11.433  0.5574  0.1953 -0.6960
  919MPD2    N113513   1.270   1.583  11.953  0.2220 -0.1698 -0.0512
  919MPD2    H713514   1.235   1.500  11.905 -0.2962 -0.7664  1.3680
  920MPD2     C13515   1.083   2.014  10.599 -0.3326  0.6123  0.1403
  920MPD2    C113516   1.026   1.892  10.602 -0.2817  0.4824 -0.8298
  920MPD2    C213517   1.057   1.811  10.715  0.6241 -0.0014  0.8158
  920MPD2    C313518   1.156   1.858  10.802  0.8005  0.0936 -0.4811
  920MPD2    C413519   1.227   1.980  10.783  0.3032 -0.5088  0.3945
  920MPD2    C513520   1.174   2.061  10.691  0.3112  0.2372  0.2796
  920MPD2     H13521   1.030   1.707  10.727 -0.1442  0.0134 -0.7241
  920MPD2    H113522   1.279   2.023  10.868  0.9848  0.2227 -0.3939
  920MPD2    H213523   1.044   2.086  10.528 -1.2433  0.2720  0.3015
  920MPD2    H313524   1.220   2.159  10.691 -1.4183  1.0560  1.0225
  920MPD2     N13525   1.189   1.777  10.911  0.1719 -0.2981 -0.1242
  920MPD2    H513526   1.144   1.686  10.906 -0.7574  0.1849 -0.6087
  920MPD2    N113527   0.941   1.844  10.502  0.1304  0.7384 -0.3460
  920MPD2    H713528   0.908   1.749  10.517 -3.4987  2.1365  0.6105
  921MPD2     C13529   2.099   1.033  16.888  0.3690 -0.0017  0.5163
  921MPD2    C113530   2.124   0.948  16.781 -0.9403 -0.0944  0.2206
  921MPD2    C213531   2.035   0.850  16.749  0.2096 -0.1237 -0.0750
  921MPD2    C313532   1.919   0.827  16.820  0.3393  0.0678  0.1303
  921MPD2    C413533   1.901   0.912  16.927 -0.1693 -0.0408 -0.2578
  921MPD2    C513534   1.991   0.996  16.971  0.1554  0.5781 -0.4497
  921MPD2     H13535   2.057   0.792  16.661 -1.5708 -0.4535 -0.2951
  921MPD2    H113536   1.815   0.883  16.987 -0.2027  3.4764  1.4167
  921MPD2    H213537   2.170   1.108  16.920  3.4173 -1.9438 -1.7113
  921MPD2    H313538   1.976   1.047  17.065  0.9407  1.2117 -0.6711
  921MPD2     N13539   1.814   0.735  16.779  0.2059 -0.0383 -0.2575
  921MPD2    H513540   1.724   0.741  16.824  0.9240 -0.2475  1.2164
  921MPD2    N113541   2.236   0.964  16.696 -0.0086  0.6202 -0.9818
  921MPD2    H713542   2.239   0.911  16.610 -2.4649  1.5771 -1.6853
  922MPD2     C13543   3.172   4.215  17.085  0.2227 -0.6955  0.4763
  922MPD2    C113544   3.098   4.215  17.202 -0.9750 -0.1246 -0.0910
  922MPD2    C213545   3.072   4.099  17.277 -0.0122 -0.2254 -0.0442
  922MPD2    C313546   3.110   3.977  17.224 -0.5046 -0.7893  0.9954
  922MPD2    C413547   3.194   3.977  17.114  0.2628  0.2725  0.5672
  922MPD2    C513548   3.231   4.093  17.053  0.2088 -0.3083  0.4424
  922MPD2     H13549   3.018   4.113  17.370 -3.7418 -1.0305 -2.0929
  922MPD2    H113550   3.240   3.883  17.086 -0.5482 -1.1277  3.9194
  922MPD2    H213551   3.194   4.301  17.023  1.8308 -0.8877  0.8022
  922MPD2    H313552   3.317   4.089  16.987  1.4874  3.1883  1.9260
  922MPD2     N13553   3.066   3.859  17.287  0.0343  0.2031 -0.0826
  922MPD2    H513554   3.010   3.867  17.371 -0.6536  0.2086 -0.5422
  922MPD2    N113555   3.033   4.330  17.250 -0.1117 -0.4281  0.0978
  922MPD2    H713556   2.984   4.316  17.338 -2.2295 -1.2914 -1.2416
  923MPD2     C13557   4.234   4.587   9.164  1.2507  0.4847 -0.2245
  923MPD2    C113558   4.222   4.693   9.255 -0.9864  0.1736 -0.0252
  923MPD2    C213559   4.305   4.695   9.365  0.2005 -0.8664 -0.7743
  923MPD2    C313560   4.386   4.588   9.396  0.4914 -0.0548 -0.3615
  923MPD2    C413561   4.379   4.478   9.313  0.6856 -0.6030 -0.1312
  923MPD2    C513562   4.312   4.478   9.197 -0.4738 -0.0109  0.7308
  923MPD2     H13563   4.308   0.051   9.423 -1.6043 -1.3168  0.0604
  923MPD2    H113564   4.432   4.386   9.335 -0.6591 -0.9284  1.6785
  923MPD2    H213565   4.180   4.586   9.070 -0.2882  1.6036  0.6449
  923MPD2    H313566   4.317   4.399   9.123  0.6772  3.5071 -2.9380
  923MPD2     N13567   4.472   4.583   9.517 -0.3609  0.2950 -0.0134
  923MPD2    H513568   4.530   4.501   9.532 -1.6581 -0.5605  0.2708
  923MPD2    N113569   4.133   0.060   9.206  0.0791 -0.0060 -0.1063
  923MPD2    H713570   4.093   0.042   9.114 -4.1171  2.0864  1.3314
  924MPD2     C13571   4.279   3.595  15.593  0.2371 -0.1162  0.5729
  924MPD2    C113572   4.331   3.664  15.696  0.1191 -0.0044  0.1391
  924MPD2    C213573   4.419   3.767  15.672  0.4064 -0.1703 -0.1131
  924MPD2    C313574   4.469   3.795  15.547  0.5864 -0.0480 -0.0450
  924MPD2    C413575   4.404   3.731  15.442 -0.4659 -1.0680  0.1804
  924MPD2    C513576   4.315   3.631  15.467  0.1304 -0.5264  0.1754
  924MPD2     H13577   4.461   3.820  15.757  0.2259 -0.7266  0.3203
  924MPD2    H113578   4.426   3.756  15.339 -0.3118  1.3836  0.8040
  924MPD2    H213579   4.209   3.512  15.596  0.1970 -0.1981 -3.3604
  924MPD2    H313580   4.269   3.580  15.384 -2.3205  1.6362  0.2021
  924MPD2     N13581   4.548   3.904  15.513  0.5941  0.0566  0.4532
  924MPD2    H513582   4.557   3.942  15.420 -0.1086 -1.1058 -0.0868
  924MPD2    N113583   4.289   3.632  15.829 -0.5816 -0.0385 -0.0356
  924MPD2    H713584   4.206   3.574  15.820  2.1690 -3.6147 -2.3382
  925MPD2     C13585   2.885   1.470  14.778 -0.5508 -0.2074 -0.3962
  925MPD2    C113586   2.749   1.490  14.760  0.4621  0.3925 -0.1570
  925MPD2    C213587   2.686   1.555  14.863  0.2826  0.2893  0.3009
  925MPD2    C313588   2.748   1.598  14.977 -0.7037  0.1071  0.3644
  925MPD2    C413589   2.884   1.575  14.997  0.3157 -0.3301 -0.8922
  925MPD2    C513590   2.953   1.511  14.898 -0.0470  0.8817  0.2762
  925MPD2     H13591   2.581   1.576  14.846 -0.0995 -1.5652  0.3948
  925MPD2    H113592   2.936   1.609  15.085  0.0241 -1.0741 -0.4279
  925MPD2    H213593   2.945   1.415  14.706  2.3649  2.8183 -0.2699
  925MPD2    H313594   3.057   1.487  14.914  0.7044  2.0995 -2.7961
  925MPD2     N13595   2.684   1.652  15.088  0.3661 -0.1062  0.6548
  925MPD2    H513596   2.735   1.661  15.176 -0.1863  2.3471  0.7209
  925MPD2    N113597   2.675   1.445  14.640 -0.5228 -0.3197  0.1085
  925MPD2    H713598   2.575   1.451  14.653 -0.4661 -0.5400  0.6470
  926MPD2     C13599   1.697   4.444  13.203  0.2556  0.7077 -0.4218
  926MPD2    C113600   1.622   4.459  13.090 -0.0688  0.0165  0.2108
  926MPD2    C213601   1.649   4.569  13.004 -1.4065  0.4680  0.0281
  926MPD2    C313602   1.740   4.666  13.034  0.0453 -0.0308  0.6913
  926MPD2    C413603   1.819   4.640  13.139  0.0900  0.1838 -0.1163
  926MPD2    C513604   1.793   4.539  13.232 -0.3705 -0.2109  0.1894
  926MPD2     H13605   1.588   4.581  12.915  0.2062 -1.5153 -1.3427
  926MPD2    H113606   1.909   4.698  13.153  0.0267  0.6678 -1.6775
  926MPD2    H213607   1.677   4.374  13.283  0.8712  0.2050 -0.7105
  926MPD2    H313608   1.854   4.515  13.318  1.4274  1.2295 -0.6751
  926MPD2     N13609   1.762   0.049  12.956  0.3431  0.1274  0.1517
  926MPD2    H513610   1.834   0.116  12.979  1.0533 -1.1203  1.5337
  926MPD2    N113611   1.524   4.365  13.052  0.1059  0.3875  0.0716
  926MPD2    H713612   1.480   4.386  12.963  0.1472  0.7778  0.1444
  927MPD2     C13613   0.707   2.424  17.632  0.1752  0.2414 -0.4972
  927MPD2    C113614   0.778   2.325  17.695  0.0893 -0.7236 -0.5941
  927MPD2    C213615   0.911   2.309  17.664  0.1645  0.0355 -0.5015
  927MPD2    C313616   0.980   2.397  17.578 -0.3325 -0.4122 -0.1971
  927MPD2    C413617   0.905   2.495  17.523 -1.0698  1.1186  0.1329
  927MPD2    C513618   0.769   2.507  17.544  0.0645  0.4787 -0.6191
  927MPD2     H13619   0.978   2.245  17.721 -0.8915 -1.2765 -0.7282
  927MPD2    H113620   0.935   2.559  17.441  1.0701 -1.2348 -0.9261
  927MPD2    H213621   0.601   2.434  17.652  0.0120  0.0627 -1.2789
  927MPD2    H313622   0.719   2.584  17.486 -0.7374  1.1619  0.9828
  927MPD2     N13623   1.119   2.373  17.570 -0.0484 -0.0305  0.0548
  927MPD2    H513624   1.160   2.289  17.610 -0.4925  0.0200  0.6142
  927MPD2    N113625   0.727   2.250   0.063 -1.0763  0.2917  0.3860
  927MPD2    H713626   0.634   2.279   0.091 -1.6088 -0.6195 -0.4068
  928MPD2     C13627   3.536   0.628   0.895 -0.4154  0.3194  0.2922
  928MPD2    C113628   3.583   0.753   0.932 -0.6017  0.6948  0.1148
  928MPD2    C213629   3.657   0.826   0.837 -0.1799 -0.1385 -0.8290
  928MPD2    C313630   3.679   0.781   0.711 -0.2958  0.7965  0.2673
  928MPD2    C413631   3.626   0.658   0.680 -0.9335  0.1159 -0.0706
  928MPD2    C513632   3.551   0.580   0.770  0.5785  0.1183 -0.1451
  928MPD2     H13633   3.698   0.915   0.881 -0.5357 -0.3039 -0.1611
  928MPD2    H113634   3.643   0.613   0.582  2.1376 -0.6651  0.8146
  928MPD2    H213635   3.474   0.571   0.963 -1.1783  1.7225  0.7658
  928MPD2    H313636   3.526   0.476   0.756 -1.4639  0.8624 -1.9242
  928MPD2     N13637   3.750   0.851   0.610  0.1891 -0.5957  0.5083
  928MPD2    H513638   3.749   0.810   0.517  0.7067 -2.8074  1.5019
  928MPD2    N113639   3.551   0.796   1.064 -0.5439 -0.2664 -0.0616
  928MPD2    H713640   3.503   0.740   1.134 -0.5667  1.7305  1.5040
  929MPD2     C13641   4.265   4.652  10.365  0.2813 -0.2837 -0.0908
  929MPD2    C113642   4.144   4.711  10.385 -0.3509 -0.1947 -0.4435
  929MPD2    C213643   4.062   4.736  10.278 -0.0073  0.9987 -0.1117
  929MPD2    C313644   4.087   4.678  10.146  0.0161  0.5467 -0.3964
  929MPD2    C413645   4.204   4.609  10.129 -0.3340 -0.2723 -0.8225
  929MPD2    C513646   4.291   4.604  10.238  0.4734  0.2346  0.4559
  929MPD2     H13647   3.960   0.024  10.307  0.1046 -0.7372  1.6869
  929MPD2    H113648   4.245   4.571  10.036 -0.9054 -1.4557 -0.5929
  929MPD2    H213649   4.341   4.635  10.441 -0.7765 -2.1024  0.5669
  929MPD2    H313650   4.391   4.561  10.234 -0.6545 -2.3626  0.1234
  929MPD2     N13651   4.008   4.710  10.034  0.1267 -0.3157 -0.0802
  929MPD2    H513652   4.045   4.678   9.945 -0.0485 -0.9833  0.0886
  929MPD2    N113653   4.085   0.017  10.508 -0.6570  0.0403  0.2595
  929MPD2    H713654   3.989   0.047  10.507 -0.7506 -0.3452 -4.5559
  930MPD2     C13655   0.760   2.462  14.238 -0.4253  0.1557  0.1873
  930MPD2    C113656   0.890   2.464  14.192 -0.2953 -0.3985 -0.7152
  930MPD2    C213657   0.922   2.412  14.065  0.0839  0.0950  0.0816
  930MPD2    C313658   0.821   2.360  13.985 -0.3765 -0.2083 -0.5950
  930MPD2    C413659   0.691   2.352  14.036 -0.2177  0.7787 -0.5740
  930MPD2    C513660   0.666   2.402  14.162 -0.4097  0.7439 -0.1610
  930MPD2     H13661   1.021   2.432  14.025 -0.2913 -0.3654 -1.0835
  930MPD2    H113662   0.611   2.308  13.978  0.1502 -2.9200  1.7561
  930MPD2    H213663   0.724   2.514  14.326  0.4797  0.5477  0.3263
  930MPD2    H313664   0.562   2.414  14.192 -0.0938 -1.5827  1.8630
  930MPD2     N13665   0.840   2.328  13.851 -0.3791 -0.1720  0.7117
  930MPD2    H513666   0.755   2.316  13.796  0.6813 -2.0920 -0.4895
  930MPD2    N113667   1.000   2.524  14.251  0.0122  0.5871  0.0829
  930MPD2    H713668   1.084   2.510  14.195 -0.3027  0.7154 -0.4302
  931MPD2     C13669   1.154   1.786   0.525 -0.3785 -0.2587 -0.3628
  931MPD2    C113670   1.031   1.798   0.576 -0.8144 -0.5395  0.6908
  931MPD2    C213671   0.978   1.698   0.664  0.7759  0.3439 -0.0179
  931MPD2    C313672   1.064   1.597   0.709 -0.1264 -0.4393 -0.0648
  931MPD2    C413673   1.192   1.594   0.663 -0.3686  0.5834 -0.1218
  931MPD2    C513674   1.232   1.683   0.568  0.1362 -0.4115  0.3305
  931MPD2     H13675   0.883   1.713   0.715  1.5522  0.9810  1.2565
  931MPD2    H113676   1.260   1.515   0.692  0.6687  1.5520  0.0555
  931MPD2    H213677   1.187   1.851   0.444 -1.1844 -0.7902 -1.1291
  931MPD2    H313678   1.339   1.685   0.550 -0.1031  1.3650 -0.8818
  931MPD2     N13679   1.031   1.496   0.798 -0.1666 -0.2381 -0.1743
  931MPD2    H513680   1.110   1.435   0.818  0.3332  0.3830 -0.2483
  931MPD2    N113681   0.950   1.901   0.524  0.3369  0.8022  0.7215
  931MPD2    H713682   0.986   1.954   0.446 -0.1929 -0.4532 -0.3620
  932MPD2     C13683   3.892   0.589  11.540 -0.0136 -0.2463  0.3864
  932MPD2    C113684   3.782   0.618  11.613 -0.5355 -0.1413 -0.7033
  932MPD2    C213685   3.771   0.547  11.730  0.7701  0.5219  0.1072
  932MPD2    C313686   3.871   0.459  11.767  0.0732 -0.2958  0.2550
  932MPD2    C413687   3.983   0.444  11.694 -0.0979  0.4651  0.6355
  932MPD2    C513688   3.989   0.504  11.574 -0.2067 -0.2676 -0.0761
  932MPD2     H13689   3.681   0.551  11.790  0.2810 -1.2772 -0.5056
  932MPD2    H113690   4.074   0.393  11.723 -1.5899 -0.7992  3.0696
  932MPD2    H213691   3.907   0.629  11.441  1.9306 -0.4690  0.5763
  932MPD2    H313692   4.077   0.498  11.511  0.7101  0.3289  1.1362
  932MPD2     N13693   3.857   0.394  11.896 -0.1041 -0.8236  0.7274
  932MPD2    H513694   3.774   0.405  11.953 -0.1132 -0.7789  0.7050
  932MPD2    N113695   3.686   0.707  11.562  0.1575  0.0453 -0.0628
  932MPD2    H713696   3.597   0.716  11.611 -0.5454  1.6644 -1.6299
  933MPD2     C13697   3.705   1.445   1.732  0.0819 -0.0876  0.0115
  933MPD2    C113698   3.647   1.420   1.612 -0.0829 -0.2779  0.4588
  933MPD2    C213699   3.599   1.530   1.538  0.3100 -0.0255 -0.4002
  933MPD2    C313700   3.625   1.659   1.588 -0.3994 -0.6179 -1.1641
  933MPD2    C413701   3.701   1.672   1.701 -0.0244 -0.0648 -0.4369
  933MPD2    C513702   3.738   1.568   1.776 -0.2028 -0.7927  0.1631
  933MPD2     H13703   3.550   1.528   1.441 -2.9332  0.0391  1.2459
  933MPD2    H113704   3.726   1.775   1.727  0.0034 -0.6038  1.6953
  933MPD2    H213705   3.745   1.358   1.783 -0.1377 -1.1256 -1.5976
  933MPD2    H313706   3.801   1.578   1.863  0.0582  0.8509 -0.2169
  933MPD2     N13707   3.582   1.763   1.503  0.1043  0.0689  0.1452
  933MPD2    H513708   3.507   1.735   1.441  0.1756  2.2611 -0.9278
  933MPD2    N113709   3.644   1.290   1.565  0.2796 -0.0616  0.0600
  933MPD2    H713710   3.687   1.220   1.625  2.0442  0.1341 -0.9800
  934MPD2     C13711   0.504   3.640   1.829 -1.0166  0.5202  0.3210
  934MPD2    C113712   0.562   3.589   1.715 -0.0954 -0.2721  0.0989
  934MPD2    C213713   0.481   3.504   1.631 -0.5488  0.2683 -0.8139
  934MPD2    C313714   0.351   3.464   1.667 -0.1179 -0.7115  0.2135
  934MPD2    C413715   0.299   3.510   1.788  0.3876 -0.5050  0.2774
  934MPD2    C513716   0.383   3.584   1.867 -0.1140  0.4992 -0.4657
  934MPD2     H13717   0.542   3.468   1.549 -2.4205 -0.4831 -1.8669
  934MPD2    H113718   0.200   3.487   1.825 -0.6055 -0.6708 -2.5108
  934MPD2    H213719   0.554   3.702   1.902 -0.1270 -1.9735  1.8194
  934MPD2    H313720   0.337   3.614   1.961  1.3722  2.2905 -0.3045
  934MPD2     N13721   0.267   3.378   1.591 -0.3093  0.0783  0.7446
  934MPD2    H513722   0.172   3.377   1.625 -0.4139 -2.6239  0.3233
  934MPD2    N113723   0.689   3.628   1.670  0.0953  0.5211  0.4806
  934MPD2    H713724   0.723   3.591   1.582 -1.3232  0.3817 -0.0099
  935MPD2     C13725   0.504   2.642   0.939  0.6857  0.1651 -0.1452
  935MPD2    C113726   0.371   2.627   0.981  0.2367 -0.3720  0.4917
  935MPD2    C213727   0.306   2.736   1.036 -1.1181  0.2463 -0.1279
  935MPD2    C313728   0.373   2.853   1.060  0.6982 -0.3356 -0.1193
  935MPD2    C413729   0.511   2.863   1.030  0.4769  0.7654  0.3391
  935MPD2    C513730   0.575   2.751   0.978 -1.1047  0.5075 -0.2347
  935MPD2     H13731   0.202   2.737   1.066 -0.8320  0.8485  0.8778
  935MPD2    H113732   0.569   2.948   1.065 -1.1005  1.9344  0.0960
  935MPD2    H213733   0.553   2.564   0.882  1.5495 -0.9678  2.1351
  935MPD2    H313734   0.684   2.744   0.976 -1.1544 -1.1352  2.5832
  935MPD2     N13735   0.310   2.965   1.126  0.4274  0.1186 -0.4317
  935MPD2    H513736   0.369   3.040   1.160  1.3572 -1.5411  1.6138
  935MPD2    N113737   0.296   2.516   0.946 -0.3251  0.1908 -0.2070
  935MPD2    H713738   0.194   2.514   0.954 -0.1158  0.2471  2.6623
  936MPD2     C13739   3.795   0.076  12.976  0.0694 -0.0924 -0.3099
  936MPD2    C113740   3.848   0.008  13.087 -0.0780 -0.0943  0.3228
  936MPD2    C213741   3.966   0.056  13.150  0.1320 -0.3511 -0.4299
  936MPD2    C313742   4.027   0.171  13.098 -0.5635  0.3578  0.2194
  936MPD2    C413743   3.986   0.222  12.974 -0.4309 -0.2916  0.2953
  936MPD2    C513744   3.870   0.177  12.925  0.3352  0.6583  0.4592
  936MPD2     H13745   4.000   0.000  13.236  1.7731  0.5438 -0.4972
  936MPD2    H113746   4.042   0.294  12.917 -1.5513 -0.0308 -0.4833
  936MPD2    H213747   3.702   0.050  12.926 -0.0492 -0.9881  0.3844
  936MPD2    H313748   3.830   0.230  12.839  1.2005 -1.4996 -1.2845
  936MPD2     N13749   4.153   0.206  13.150  0.3561 -0.0955  0.2176
  936MPD2    H513750   4.207   0.261  13.083 -0.4779 -0.9634 -1.1553
  936MPD2    N113751   3.777   4.634  13.144  0.3444  0.6874  0.3386
  936MPD2    H713752   3.820   4.598  13.229 -0.1625  1.8277  1.0737
  937MPD2     C13753   1.373   0.877  11.905 -0.7085  0.5658 -0.6078
  937MPD2    C113754   1.380   1.014  11.875 -0.0552  0.1776  0.5753
  937MPD2    C213755   1.479   1.053  11.788 -0.3991  0.2694  0.3270
  937MPD2    C313756   1.553   0.963  11.722 -0.5998 -0.8376 -0.3512
  937MPD2    C413757   1.521   0.831  11.739  0.0731 -0.5238 -0.3816
  937MPD2    C513758   1.433   0.785  11.835 -0.4529  0.0075 -0.5724
  937MPD2     H13759   1.502   1.155  11.758 -2.2352  0.7107  0.4213
  937MPD2    H113760   1.572   0.758  11.677  2.0533  2.1923 -1.9200
  937MPD2    H213761   1.298   0.845  11.976  0.9693 -3.3563 -0.5943
  937MPD2    H313762   1.398   0.683  11.847  0.2773 -0.5207 -2.8478
  937MPD2     N13763   1.639   1.006  11.621 -0.0505 -0.1896 -0.2509
  937MPD2    H513764   1.658   1.106  11.614  0.6661 -0.2527  0.8218
  937MPD2    N113765   1.315   1.111  11.951  0.5277 -0.6135  0.1718
  937MPD2    H713766   1.326   1.208  11.923 -1.5022  0.1592  2.0634
  938MPD2     C13767   4.049   2.985   0.588  0.5727  0.7899  0.1439
  938MPD2    C113768   4.091   3.047   0.702  1.1833 -0.5735  0.4438
  938MPD2    C213769   4.085   2.973   0.822 -0.2636 -0.1678 -1.0982
  938MPD2    C313770   4.042   2.839   0.817  0.4235  0.4509 -0.8721
  938MPD2    C413771   3.999   2.782   0.696 -0.1767 -0.0869  0.0054
  938MPD2    C513772   4.007   2.859   0.579  0.5918 -0.1670  0.2776
  938MPD2     H13773   4.097   3.040   0.907  0.9372  1.0691 -2.2363
  938MPD2    H113774   3.977   2.676   0.687 -0.9645 -0.1057  2.0885
  938MPD2    H213775   4.057   3.031   0.491 -1.2764 -0.5979 -0.6605
  938MPD2    H313776   3.985   2.812   0.484 -2.2773 -0.6395  1.1682
  938MPD2     N13777   4.019   2.764   0.933 -0.1846 -0.0150  0.3071
  938MPD2    H513778   3.976   2.673   0.921  2.9493 -1.4312 -0.1149
  938MPD2    N113779   4.123   3.183   0.709  0.3847 -0.4357 -0.2918
  938MPD2    H713780   4.142   3.222   0.801 -0.2832  1.5414 -0.9834
  939MPD2     C13781   0.404   3.978   0.611 -0.3959  0.1467  0.4522
  939MPD2    C113782   0.280   3.963   0.553  0.4056 -0.5825  0.1257
  939MPD2    C213783   0.263   3.866   0.455 -0.8160 -0.0122  0.3489
  939MPD2    C313784   0.365   3.785   0.410  0.2769 -0.1041 -0.5316
  939MPD2    C413785   0.487   3.791   0.479  0.4556 -0.3656  0.4327
  939MPD2    C513786   0.506   3.884   0.577 -0.0211  0.3494 -1.0614
  939MPD2     H13787   0.170   3.856   0.401 -0.6072 -1.9854  0.3693
  939MPD2    H113788   0.573   3.729   0.459  0.3053  0.0319 -1.5012
  939MPD2    H213789   0.430   4.048   0.689  0.5600 -0.9938  1.1703
  939MPD2    H313790   0.609   3.897   0.610 -0.8777 -1.3909  2.3967
  939MPD2     N13791   0.341   3.696   0.299 -0.0028  0.7799 -0.3740
  939MPD2    H513792   0.245   3.699   0.267 -0.1572  2.5675  0.2852
  939MPD2    N113793   0.177   4.028   0.619  0.3128  0.2477  0.0954
  939MPD2    H713794   0.201   4.076   0.706 -2.3749  3.1118 -0.7475
  940MPD2     C13795   4.538   4.344  12.968 -0.4910  0.0325  0.2408
  940MPD2    C113796   4.465   4.232  13.003  0.7511 -0.1692 -0.2199
  940MPD2    C213797   4.472   4.121  12.919 -0.7846 -0.0510 -0.3500
  940MPD2    C313798   4.551   4.124  12.800  0.4501 -0.1436 -0.1107
  940MPD2    C413799   4.624   4.235  12.777  0.2417 -0.4079 -0.1335
  940MPD2    C513800   4.610   4.350  12.852 -0.0119  0.4511 -0.3146
  940MPD2     H13801   4.406   4.034  12.924  0.2559 -0.8194 -0.0065
  940MPD2    H113802   4.700   4.234  12.699 -0.0156 -2.0903 -0.3791
  940MPD2    H213803   4.536   4.426  13.039  1.7701 -1.2136  1.7323
  940MPD2    H313804   4.678   4.433  12.837 -1.3340  1.7653  0.9995
  940MPD2     N13805   4.565   4.009  12.716 -0.4335 -0.3272 -0.5106
  940MPD2    H513806   4.652   4.010  12.664  0.3299 -0.7754  0.7454
  940MPD2    N113807   4.383   4.241  13.113  0.2796 -0.6011  0.6194
  940MPD2    H713808   4.420   4.314  13.174 -0.0063 -0.4671  0.6374
  941MPD2     C13809   2.732   3.559   9.887  0.6211 -0.9239 -0.4596
  941MPD2    C113810   2.819   3.471   9.950 -0.0179 -0.1628 -0.2954
  941MPD2    C213811   2.776   3.388  10.059 -0.7848 -0.5215  0.3127
  941MPD2    C313812   2.642   3.384  10.080 -0.0223  0.5357  0.2443
  941MPD2    C413813   2.566   3.481  10.034 -0.4819 -0.2426  0.7801
  941MPD2    C513814   2.608   3.570   9.937 -0.7266 -0.6059  0.6222
  941MPD2     H13815   2.841   3.319  10.111  0.1770 -1.2431 -1.8395
  941MPD2    H113816   2.464   3.487  10.069 -1.6026 -1.0394 -2.3567
  941MPD2    H213817   2.753   3.625   9.804  0.3121 -2.3561 -1.6634
  941MPD2    H313818   2.538   3.635   9.886 -0.8934 -1.3576 -0.1193
  941MPD2     N13819   2.584   3.300  10.175  0.2359  0.0642 -0.4792
  941MPD2    H513820   2.487   3.312  10.204  0.5520 -1.9936  1.4849
  941MPD2    N113821   2.956   3.461   9.911 -0.1592  0.3395  0.9299
  941MPD2    H713822   3.017   3.397   9.961 -1.1358 -1.6628 -0.4233
  942MPD2     C13823   2.602   0.752   9.534  0.0675  0.2415 -0.6002
  942MPD2    C113824   2.695   0.829   9.470  0.1367 -0.3868  0.3427
  942MPD2    C213825   2.799   0.766   9.396 -0.2165  0.1039  0.4843
  942MPD2    C313826   2.798   0.632   9.384 -0.0390 -0.1464  0.9337
  942MPD2    C413827   2.701   0.551   9.448  0.0471 -1.2312 -0.0227
  942MPD2    C513828   2.608   0.614   9.518 -0.1012  0.5672 -0.1831
  942MPD2     H13829   2.881   0.822   9.352 -0.7608  0.5429  0.0161
  942MPD2    H113830   2.698   0.444   9.434  0.5801 -1.3205  0.5959
  942MPD2    H213831   2.508   0.789   9.574  0.3571  1.2463 -0.8515
  942MPD2    H313832   2.522   0.560   9.556  1.4450 -0.2477  2.0950
  942MPD2     N13833   2.916   0.563   9.324  0.1341 -0.1203 -0.5292
  942MPD2    H513834   2.944   0.472   9.359 -0.9873  0.0814  0.8900
  942MPD2    N113835   2.689   0.969   9.476 -0.3147 -0.6798  0.1173
  942MPD2    H713836   2.764   1.019   9.428 -0.4723  0.8943  1.5190
  943MPD2     C13837   2.214   3.523   9.979 -0.0360  0.1363 -0.5102
  943MPD2    C113838   2.099   3.461  10.021 -0.0217  0.1343  0.3378
  943MPD2    C213839   2.024   3.533  10.118 -0.3190 -0.0024  0.6107
  943MPD2    C313840   2.058   3.659  10.166  0.0712 -0.0416  0.4461
  943MPD2    C413841   2.176   3.714  10.118 -0.5765 -0.0263 -0.3006
  943MPD2    C513842   2.249   3.650  10.027  0.2135  0.7551  0.5746
  943MPD2     H13843   1.932   3.485  10.147 -1.3051  0.5403 -1.6507
  943MPD2    H113844   2.217   3.809  10.150 -1.9971  0.0609  1.2618
  943MPD2    H213845   2.277   3.472   9.908 -0.8931 -1.4874 -0.1078
  943MPD2    H313846   2.341   3.703  10.004 -0.1180  1.1478  0.1564
  943MPD2     N13847   1.988   3.736  10.263  0.1337  0.2429 -0.2711
  943MPD2    H513848   2.022   3.830  10.280  2.0835 -0.3805 -0.6408
  943MPD2    N113849   2.072   3.325   9.980 -0.2194 -0.5876  0.1330
  943MPD2    H713850   2.131   3.298   9.902 -0.4618 -1.0123  0.0972
  944MPD2     C13851   2.246   2.639  11.064  0.2361  0.4318 -0.5541
  944MPD2    C113852   2.177   2.580  11.167  0.5400 -0.3508 -0.1671
  944MPD2    C213853   2.088   2.657  11.231  0.0007  0.3639  0.5861
  944MPD2    C313854   2.078   2.793  11.203 -0.4011  0.2206  0.2074
  944MPD2    C413855   2.141   2.852  11.092  0.3534  0.5575  0.0328
  944MPD2    C513856   2.229   2.768  11.027  1.0491 -1.0407 -0.5125
  944MPD2     H13857   2.032   2.616  11.314  0.9801 -1.5013  0.3103
  944MPD2    H113858   2.127   2.954  11.058  0.6460  0.3496 -0.7196
  944MPD2    H213859   2.309   2.576  11.003 -0.3759  0.0943 -0.8460
  944MPD2    H313860   2.278   2.806  10.937  3.2126 -1.2547  0.5789
  944MPD2     N13861   1.998   2.878  11.291 -0.2509 -0.3161 -0.4240
  944MPD2    H513862   1.936   2.828  11.354 -0.6952 -0.5934 -1.0922
  944MPD2    N113863   2.211   2.451  11.193  0.7656  0.0832  0.1364
  944MPD2    H713864   2.282   2.408  11.134  1.2735  1.5487 -0.3175
    1TMC1    C113865   0.642   3.187  14.799 -0.2109 -0.0212  0.5118
    1TMC1    C213866   0.591   3.179  14.672  0.0993  0.1368 -0.1690
    1TMC1    C313867   0.565   3.061  14.616  0.0511  0.6505  0.4692
    1TMC1    C413868   0.673   3.072  14.866  0.1031  0.3584 -0.8032
    1TMC1    C513869   0.631   2.952  14.815 -0.4579 -0.0581  0.3866
    1TMC1    C613870   0.578   2.944  14.690 -0.0497  0.1530 -0.1218
    1TMC1     C13871   0.664   3.312  14.865  0.0034 -0.3630  0.0297
    1TMC1     O13872   0.738   3.311  14.961 -0.1062  0.0603 -0.1955
    1TMC1     H13873   0.564   3.275  14.632 -2.4840 -1.4457 -2.1741
    1TMC1    H113874   0.721   3.082  14.963 -0.4511  0.0134 -0.4955
    1TMC1    H213875   0.571   2.842  14.654  1.9509 -0.7937  2.1700
    1TMC1    C713876   0.629   2.829  14.891 -0.0551 -0.2335 -0.0272
    1TMC1    C813877   0.491   3.040  14.487  0.7388 -0.1391  0.3642
    1TMC1    O113878   0.623   2.719  14.837  0.4601 -0.8298  0.2380
    1TMC1    O213879   0.440   2.932  14.452  0.2008 -0.0179  0.6389
    1TMC1    O313880   0.592   2.856  15.019 -0.1045  0.6806 -0.7295
    1TMC1    H313881   0.570   2.949  15.039  0.6454  0.9123 -0.9499
    1TMC1    O513882   0.488   3.157  14.423  0.4159 -0.2521  0.5894
    1TMC1    H513883   0.535   3.231  14.467  0.6561 -0.0157 -0.0591
    2MPD2     C13884   0.584   3.802  14.975  0.2868 -0.2998  0.0075
    2MPD2    C113885   0.491   3.762  14.883 -0.0186 -0.0601 -0.2207
    2MPD2    C213886   0.491   3.628  14.835 -0.0462  0.1216  0.1952
    2MPD2    C313887   0.583   3.539  14.886 -0.0139  0.0673  0.3245
    2MPD2    C413888   0.681   3.583  14.978 -0.4818 -0.3904  0.0673
    2MPD2    C513889   0.673   3.712  15.025  0.0633 -0.1797 -0.7516
    2MPD2     H13890   0.426   3.595  14.755 -0.5679 -0.8607  1.0254
    2MPD2    H113891   0.761   3.525  15.022 -1.8230 -3.2138 -1.1421
    2MPD2    H213892   0.590   3.901  15.019 -0.6724 -0.6108  0.8428
    2MPD2    H313893   0.746   3.750  15.095 -0.7634 -0.2811  0.1686
    2MPD2     N13894   0.577   3.410  14.826 -0.3326  0.1512  0.5484
    2MPD2    H513895   0.500   3.395  14.761 -0.9032  1.8955  0.8294
    2MPD2    N113896   0.409   3.873  14.831 -0.1853 -0.0261 -0.2416
    2MPD2    H713897   0.433   3.966  14.865  0.6084 -0.3347  0.0358
    3TMC2    C113898   0.232   3.985  14.708  0.5024 -0.1884  0.6397
    3TMC2    C213899   0.304   4.101  14.695  0.1301 -0.3249 -0.5391
    3TMC2    C313900   0.252   4.197  14.613 -0.1161 -0.1170  0.3070
    3TMC2    C413901   0.110   3.968  14.651 -0.6634 -0.2592  0.2426
    3TMC2    C513902   0.056   4.075  14.584  0.8296 -1.0894  0.9116
    3TMC2    C613903   0.124   4.190  14.561 -0.1081 -0.6582  1.1002
    3TMC2     C13904   0.298   3.856  14.750  0.1582 -0.4615  0.5562
    3TMC2     O13905   0.254   3.754  14.704  0.4684 -0.1237  0.1615
    3TMC2     H13906   0.406   4.104  14.733 -0.5618  3.6988  0.9715
    3TMC2    H113907   0.055   3.875  14.659 -1.2166  0.0680  0.1904
    3TMC2    H213908   0.089   4.276  14.506  3.1855  0.4017  0.6464
    3TMC2    C713909   4.664   4.056  14.518  0.0072  0.0090  0.4301
    3TMC2    C813910   0.315   4.329  14.628  1.2268  0.0596 -0.4716
    3TMC2    O113911   4.601   3.954  14.543 -0.3514 -0.0853  0.2410
    3TMC2    O213912   0.352   4.388  14.732  0.0198 -0.5864 -0.0473
    3TMC2    O513913   0.309   4.386  14.509 -0.0695  0.3620 -0.1541
    3TMC2    H513914   0.279   4.328  14.436  1.0372 -0.5896  0.1464
    4TMC2    C113915   4.083   4.661  13.933  0.1448  0.6451  0.2599
    4TMC2    C213916   4.126   0.053  13.918 -0.5305  0.3645  0.6574
    4TMC2    C313917   4.239   0.079  13.983  0.0025 -0.2439 -0.0409
    4TMC2    C413918   4.145   4.574  14.019  0.3643  0.1146  0.1177
    4TMC2    C513919   4.247   4.616  14.099  1.1860 -0.1133  0.0097
    4TMC2    C613920   4.302   4.729  14.069  0.0037  0.3325 -0.1804
    4TMC2     C13921   3.964   4.620  13.863 -0.2528 -0.1475 -0.1633
    4TMC2     O13922   3.904   4.526  13.913 -0.3936  0.0014 -0.7726
    4TMC2     H13923   4.076   0.129  13.859  2.5902  0.1071 -2.2973
    4TMC2    H113924   4.109   4.472  14.028 -0.1781  0.1739 -1.3805
    4TMC2    H213925   4.397   0.015  14.117 -0.7444  0.6308  1.1683
    4TMC2    C713926   4.312   4.529  14.199  0.2696  0.4753 -0.8192
    4TMC2    C813927   4.302   0.211  13.964 -0.1570 -0.6751 -0.1160
    4TMC2    O113928   4.421   4.565  14.244  0.1140 -0.2443  0.1576
    4TMC2    O213929   4.230   0.303  13.929 -0.7267  0.1788  0.0283
    4TMC2    O513930   4.428   0.193  13.939 -0.0754 -0.2236 -0.1040
    4TMC2    H513931   4.448   0.098  13.955  2.0609  0.0028 -1.3679
    5MPD2     C13932   3.598   4.650  13.495  0.3603 -0.4061 -0.0529
    5MPD2    C113933   3.674   0.026  13.487 -0.4495  0.6331  0.0058
    5MPD2    C213934   3.788   0.043  13.568  0.5383  0.4576 -0.8271
    5MPD2    C313935   3.824   4.676  13.655  0.2700  0.1302 -0.4346
    5MPD2    C413936   3.744   4.566  13.665 -0.4928 -0.3987  0.3830
    5MPD2    C513937   3.639   4.550  13.575 -0.6986 -0.1917 -0.4984
    5MPD2     H13938   3.848   0.133  13.573  0.0361  0.6622  1.4740
    5MPD2    H113939   3.770   4.482  13.729  0.2796  0.5154  1.2662
    5MPD2    H213940   3.511   4.638  13.432  0.7632 -2.0606 -0.2840
    5MPD2    H313941   3.582   4.459  13.578 -0.9404 -0.1130 -2.3940
    5MPD2     N13942   3.936   4.695  13.746 -0.3857 -0.0553  0.2050
    5MPD2    H513943   4.002   0.031  13.720  0.1579 -0.5142  0.3171
    5MPD2    N113944   3.632   0.128  13.404 -0.3973  0.2170 -0.2438
    5MPD2    H713945   3.549   0.102  13.351  0.5310 -2.1326 -0.5506
    6MPD1     C13946   2.680   1.868  13.194  0.3546  0.0525  0.0844
    6MPD1    C113947   2.814   1.900  13.205 -0.6234  0.4781 -0.4617
    6MPD1    C213948   2.909   1.805  13.224  0.5241  0.8544 -0.0448
    6MPD1    C313949   2.873   1.668  13.248 -0.7428 -0.1389  0.7787
    6MPD1    C413950   2.736   1.646  13.249 -0.5938  0.6588  0.0112
    6MPD1    C513951   2.640   1.740  13.222 -0.9365  0.3177  0.1629
    6MPD1     H13952   3.014   1.832  13.225  0.4314  1.1979  1.1796
    6MPD1    H113953   2.697   1.547  13.269 -0.0652  0.1254 -1.5916
    6MPD1    H213954   2.609   1.942  13.160  1.8690  1.9205  1.0041
    6MPD1    H313955   2.534   1.719  13.214 -0.7734 -0.4426 -0.0703
    6MPD1     N13956   2.960   1.562  13.266  0.5159  0.4323  0.4169
    6MPD1    H513957   2.916   1.476  13.295 -0.6688  0.8079 -0.3045
    6MPD1    N113958   2.849   2.018  13.159 -0.2163 -0.1400 -0.7439
    6MPD1    H613959   2.775   2.088  13.167 -0.8737 -0.8582 -0.4115
    6MPD1    H713960   2.865   2.010  13.059  0.1308  0.4875 -0.7405
    7MPD2     C13961   3.175   0.897  13.607 -1.4232 -0.3809 -0.5596
    7MPD2    C113962   3.169   0.875  13.472  0.0665 -0.3604  0.8849
    7MPD2    C213963   3.213   0.761  13.413  0.2728  0.0859  0.2593
    7MPD2    C313964   3.259   0.658  13.496 -0.4510 -0.1743 -0.2285
    7MPD2    C413965   3.259   0.678  13.632  0.0506  0.5670 -0.3517
    7MPD2    C513966   3.232   0.796  13.684  0.2301  0.1665 -0.1669
    7MPD2     H13967   3.208   0.753  13.305 -0.1708  2.8525  0.0941
    7MPD2    H113968   3.306   0.606  13.698 -2.7565 -1.1495 -0.2038
    7MPD2    H213969   3.138   0.988  13.654 -0.0996 -1.4060  2.4646
    7MPD2    H313970   3.242   0.805  13.791 -2.2994  0.0794  0.0817
    7MPD2     N13971   3.317   0.533  13.440 -0.2061 -0.2494 -0.0147
    7MPD2    H513972   3.366   0.477  13.509 -0.5075 -1.1140 -0.5030
    7MPD2    N113973   3.126   0.971  13.384  0.4913  0.0549 -0.2265
    7MPD2    H713974   3.104   0.936  13.291 -0.6075  0.5975 -0.1741
    8TMC3    C113975   3.393   0.377  13.268 -0.1723  0.0547 -0.0966
    8TMC3    C213976   3.494   0.341  13.361 -0.3461 -0.3471  0.2658
    8TMC3    C313977   3.620   0.335  13.309 -0.5764 -0.0311  0.7554
    8TMC3    C413978   3.416   0.382  13.131  0.8410  0.1223  0.4540
    8TMC3    C513979   3.543   0.372  13.084 -0.0330  1.0285  0.8909
    8TMC3    C613980   3.646   0.359  13.174 -0.1191  0.2459  0.5994
    8TMC3     C13981   3.319   0.495  13.308 -0.4605 -0.2665  0.3125
    8TMC3     O13982   3.287   0.563  13.211  0.4214  0.4080 -0.8714
    8TMC3     H13983   3.479   0.311  13.464 -0.4325  0.0731  0.3749
    8TMC3    H113984   3.330   0.400  13.067  1.1412 -0.5398 -0.1440
    8TMC3    H213985   3.740   0.334  13.125  0.2403 -0.6484  1.7322
    8TMC3    C713986   3.571   0.481  12.985 -0.1510  0.6440  0.1505
    8TMC3    C813987   3.707   0.233  13.368 -0.7504  0.3881  0.1731
    8TMC3    O113988   3.662   0.477  12.901 -0.4374 -0.1110 -0.7869
    8TMC3    O213989   3.824   0.253  13.389  0.9822 -0.0644 -0.0443
    9TMC3    C113990   3.115   1.403  13.192 -0.1282 -0.5115 -0.7472
    9TMC3    C213991   3.177   1.352  13.082 -0.6246 -0.6308  0.0270
    9TMC3    C313992   3.184   1.217  13.078  0.1518  0.2012  0.4069
    9TMC3    C413993   3.067   1.319  13.295 -0.1567 -0.6336  0.0889
    9TMC3    C513994   3.081   1.182  13.286 -0.2540 -0.4598  0.5214
    9TMC3    C613995   3.133   1.131  13.170  0.1578  0.7605 -0.4521
    9TMC3     C13996   3.071   1.546  13.190 -0.6541 -0.2451  0.3572
    9TMC3     O13997   3.118   1.613  13.099  0.2072  1.2176 -0.2241
    9TMC3     H13998   3.229   1.409  13.006  0.2014 -0.8564  0.4302
    9TMC3    H113999   3.024   1.350  13.389  0.0971  0.1668 -0.0644
    9TMC3    H214000   3.133   1.025  13.149 -1.0053  0.7199 -0.2601
    9TMC3    C714001   3.114   1.102  13.407 -0.6465 -0.5182  0.3146
    9TMC3    C814002   3.264   1.154  12.969  0.3373  0.5122  0.0273
    9TMC3    O114003   3.122   1.166  13.507 -0.8772  0.2664 -0.1196
    9TMC3    O214004   3.291   1.220  12.869  0.1014 -0.0809 -0.0017
   10MPD2     C14005   3.523   0.730  12.801 -0.3873 -0.1425  0.1127
   10MPD2    C114006   3.478   0.712  12.934  0.2062 -0.4116 -0.4908
   10MPD2    C214007   3.411   0.817  12.998 -0.0033  0.1352  0.1215
   10MPD2    C314008   3.382   0.936  12.932 -0.7563  0.2778 -0.4422
   10MPD2    C414009   3.430   0.950  12.804  0.3611 -0.0336  0.3741
   10MPD2    C514010   3.505   0.850  12.740  0.3833 -0.2903 -0.1609
   10MPD2     H14011   3.381   0.813  13.102 -2.9240 -1.8905 -0.7698
   10MPD2    H114012   3.425   1.044  12.749  0.3998  0.6541  1.5600
   10MPD2    H214013   3.576   0.649  12.751  1.7406  0.6316  1.1606
   10MPD2    H314014   3.543   0.848  12.638  0.9677  1.3704  0.0188
   10MPD2     N14015   3.315   1.035  13.006 -0.3855  0.2947  0.4337
   10MPD2    H514016   3.291   1.013  13.102  0.5923 -1.6874  0.2114
   10MPD2    N114017   3.490   0.590  13.007  0.6784  0.1053 -0.3351
   10MPD2    H714018   3.434   0.583  13.091  1.4946 -0.8642  0.1301
   11MPD2     C14019   4.407   4.050  14.361 -0.3734  0.5700 -0.1805
   11MPD2    C114020   4.484   4.162  14.380  0.1606 -0.0498 -0.8307
   11MPD2    C214021   4.434   4.280  14.324  0.4563 -0.2201  0.8636
   11MPD2    C314022   4.302   4.292  14.277 -0.4261 -0.4650  0.0331
   11MPD2    C414023   4.230   4.176  14.262 -0.5094  0.1066 -0.4197
   11MPD2    C514024   4.281   4.057  14.309 -0.2046 -0.2138  1.0457
   11MPD2     H14025   4.490   4.373  14.328  1.0210 -0.4579 -1.5038
   11MPD2    H114026   4.131   4.188  14.219  0.0358 -0.7512 -1.8761
   11MPD2    H214027   4.428   3.949  14.395  0.0300  0.5590 -0.4625
   11MPD2    H314028   4.217   3.970  14.296 -0.6187  0.5284 -2.0814
   11MPD2     N14029   4.247   4.408  14.213  0.0729 -0.1190  0.4021
   11MPD2    H514030   4.150   4.399  14.181  0.6275 -0.7730 -1.1144
   11MPD2    N114031   4.615   4.164  14.442  0.6479  0.6234 -0.2080
   11MPD2    H714032   4.666   4.251  14.436  0.0932  0.8439 -1.7420
    1MPD1     C14033   1.545   1.324  17.360  0.0867 -0.1476  0.8475
    1MPD1    C114034   1.562   1.297  17.223  1.2890 -0.2460 -0.1610
    1MPD1    C214035   1.679   1.328  17.162 -0.1542  0.0677  0.1113
    1MPD1    C314036   1.781   1.389  17.232 -0.2378  0.7957  0.5434
    1MPD1    C414037   1.755   1.427  17.364  0.3633 -0.3545 -0.4286
    1MPD1    C514038   1.640   1.393  17.428  0.2865 -0.2950  0.7443
    1MPD1     H14039   1.685   1.312  17.055  2.0360 -0.6356  0.3460
    1MPD1    H114040   1.833   1.484  17.415 -0.5843 -0.8165  1.5480
    1MPD1    H214041   1.453   1.306  17.415 -0.7642  1.9092  0.1199
    1MPD1    H314042   1.622   1.425  17.530  0.2961  2.0680 -0.0073
    1MPD1     N14043   1.907   1.423  17.176  0.7286 -0.4928  0.3744
    1MPD1    H514044   1.978   1.462  17.237  1.1708 -0.8275  0.0811
    1MPD1    N114045   1.460   1.223  17.151 -0.7824  1.0633 -0.0639
    1MPD1    H614046   1.442   1.284  17.071  2.0781  0.4814 -1.1458
    1MPD1    H714047   1.371   1.226  17.201  1.2595  3.0989  3.4214
    2MPD1     C14048   2.864   1.340  17.394 -0.0786  0.7629 -0.4350
    2MPD1    C114049   2.881   1.332  17.250 -0.1550 -0.3073 -0.3143
    2MPD1    C214050   2.761   1.343  17.173 -0.2249 -0.3680  0.3810
    2MPD1    C314051   2.637   1.366  17.226 -0.5810 -0.5313 -0.9062
    2MPD1    C414052   2.634   1.396  17.360 -0.4144 -0.0925 -0.7183
    2MPD1    C514053   2.738   1.368  17.436  0.4321  0.3080  0.0344
    2MPD1     H14054   2.777   1.327  17.067  0.7151  1.8327  0.1770
    2MPD1    H114055   2.546   1.415  17.421  1.9542  0.7731  2.4407
    2MPD1    H214056   2.946   1.345  17.464  1.4156  1.8605 -2.2406
    2MPD1    H314057   2.717   1.378  17.542 -2.5774 -0.0166 -0.5300
    2MPD1     N14058   2.525   1.375  17.146  0.1133 -0.4094  0.2370
    2MPD1    H514059   2.536   1.320  17.060  0.5761  1.9916 -1.2355
    2MPD1    N114060   3.007   1.309  17.189 -0.6113  0.5887  0.4126
    2MPD1    H614061   2.991   1.280  17.093  1.2060 -0.2179  0.3462
    2MPD1    H714062   3.061   1.243  17.245 -1.2398  1.0487  1.5702
    3TMC3    C114063   2.304   1.411  17.080 -0.5113  0.8733  0.7213
    3TMC3    C214064   2.340   1.419  16.952  0.4433 -0.1461  0.6097
    3TMC3    C314065   2.246   1.426  16.855 -0.1425  0.1342  0.5201
    3TMC3    C414066   2.173   1.407  17.119 -0.8560 -0.0687  0.7459
    3TMC3    C514067   2.080   1.408  17.016  0.1093  0.3771 -0.2707
    3TMC3    C614068   2.117   1.413  16.884  0.6460  0.4053 -0.2679
    3TMC3     C14069   2.407   1.429  17.183  0.1442  0.6587  0.6121
    3TMC3     O14070   2.372   1.496  17.278  0.1567 -0.5277  0.0570
    3TMC3     H14071   2.441   1.437  16.918 -0.9945  1.1551 -2.9396
    3TMC3    H114072   2.149   1.397  17.224  1.3138 -0.4992  1.2019
    3TMC3    H214073   2.037   1.435  16.815  1.1216  0.7826 -0.7046
    3TMC3    C714074   1.942   1.388  17.042  0.3809  0.1064 -0.3098
    3TMC3    C814075   2.293   1.403  16.715  0.2239  0.3313  0.1403
    3TMC3    O114076   1.884   1.345  16.942 -0.5096 -0.2263 -0.1902
    3TMC3    O214077   2.415   1.420  16.696 -0.4709  0.2401  0.2701
    4MPD1     C14078   2.205   1.206  16.257  0.6882 -0.1842 -0.5022
    4MPD1    C114079   2.092   1.182  16.322  0.2259 -0.0305  0.8166
    4MPD1    C214080   2.099   1.224  16.458  0.1545  0.1549  0.0341
    4MPD1    C314081   2.202   1.294  16.512 -0.1204 -0.4186 -0.1414
    4MPD1    C414082   2.315   1.319  16.435  0.1784  0.6401  0.3655
    4MPD1    C514083   2.309   1.271  16.307 -0.0504  0.5687  0.0388
    4MPD1     H14084   2.004   1.207  16.507 -1.5117 -0.3439 -3.3186
    4MPD1    H114085   2.398   1.385  16.459  0.1703  0.9735 -0.5354
    4MPD1    H214086   2.210   1.167  16.156 -2.2714  0.4840 -0.9079
    4MPD1    H314087   2.396   1.287  16.244 -0.8014 -1.4982 -1.5404
    4MPD1     N14088   2.191   1.342  16.645  0.2185 -0.2904  0.4285
    4MPD1    H514089   2.100   1.318  16.683  0.5663 -0.0030  1.4374
    4MPD1    N114090   1.996   1.093  16.269 -0.0888 -0.6960  0.4569
    4MPD1    H614091   1.968   1.116  16.174 -2.8535 -3.2883  0.6528
    4MPD1    H714092   1.912   1.102  16.326  0.2880 -1.3899  1.1256
    1TCq1    O114093   4.658   0.358  12.388  0.0486 -0.5127  1.1256
    1TCq1    C114094   4.592   0.283  12.471 -0.1579  0.4683 -0.1501
    1TCq1    O214095   4.623   0.171  12.516 -0.0100  0.3584 -0.0442
    1TCq1    C214096   4.450   0.317  12.462 -0.0252  0.6918  0.3854
    1TCq1    C314097   4.372   0.225  12.512 -1.0407  0.3033 -0.1260
    1TCq1    C414098   4.239   0.231  12.487 -0.7095 -0.0655 -0.2805
    1TCq1    C514099   4.186   0.324  12.400 -0.4249 -0.3782 -0.2753
    1TCq1    C614100   4.270   0.418  12.353 -0.2107  1.4089  0.2794
    1TCq1    C714101   4.406   0.418  12.385  0.1186  0.4459 -0.8937
    1TCq1    C814102   4.222   0.517  12.260  0.6784  0.6775  0.1428
    1TCq1    O414103   4.308   0.561  12.181 -0.3653 -0.0370  0.5221
    1TCq1    C914104   4.157   0.122  12.535 -0.2966 -0.1919 -0.2630
    1TCq1    O514105   4.060   0.094  12.458  0.1395  0.0601 -0.3377
    1TCq1    O614106   4.212   0.045  12.618 -0.3617  0.3469 -0.0476
    1TCq1    H114107   4.626   0.450  12.383 -1.6612 -0.9881  3.2168
    1TCq1    H214108   4.406   0.133  12.559 -2.3148 -0.0798  0.0589
    1TCq1    H314109   4.080   0.325  12.375 -0.3780 -2.6449 -0.5803
    1TCq1    H414110   4.464   0.503  12.353  0.6897  0.4841  0.2602
    2MPD1     C14111   3.868   0.765  12.017 -0.1046 -0.4813 -0.0338
    2MPD1    C114112   3.804   0.739  12.137  0.2577  0.1805 -0.2639
    2MPD1    C214113   3.890   0.680  12.231 -0.2949 -0.2603 -0.4072
    2MPD1    C314114   4.008   0.624  12.190  0.7259  0.5859 -0.5074
    2MPD1    C414115   4.042   0.618  12.058  0.2959  0.3162  0.1539
    2MPD1    C514116   3.979   0.698  11.976  0.0460 -0.0449  0.4396
    2MPD1     H14117   3.863   0.672  12.336  1.3615 -1.7744 -0.0894
    2MPD1    H114118   4.125   0.559  12.021 -1.5853 -2.9677  1.0990
    2MPD1    H214119   3.820   0.822  11.938  0.6651 -0.1252 -0.2473
    2MPD1    H314120   4.019   0.712  11.876  0.1942  3.6160  1.0187
    2MPD1     N14121   4.091   0.557  12.281 -0.2758  0.1853 -0.5676
    2MPD1    H514122   4.055   0.545  12.375  0.1911 -2.8168 -0.7910
    2MPD1    N114123   3.685   0.799  12.168  0.0496  0.2478  0.4618
    2MPD1    H614124   3.634   0.813  12.080  0.8537 -1.0008 -0.2068
    2MPD1    H714125   3.632   0.734  12.226 -0.0577 -1.9733 -2.0906
    1TMC1    C114126   0.301   0.226   0.710 -0.5834  0.0291 -0.5557
    1TMC1    C214127   0.266   0.355   0.698 -0.3242 -0.7895  0.4451
    1TMC1    C314128   0.264   0.434   0.813  0.1097  0.1522  0.1749
    1TMC1    C414129   0.316   0.166   0.835  0.6885  0.3010  0.1218
    1TMC1    C514130   0.306   0.250   0.945 -0.0255  0.4741  0.3402
    1TMC1    C614131   0.292   0.383   0.935  0.0684  0.1533  0.1276
    1TMC1     C14132   0.342   0.152   0.594 -0.1632  0.5725  0.1626
    1TMC1     O14133   0.365   0.033   0.600  0.1995  0.1795  0.4226
    1TMC1     H14134   0.218   0.403   0.614 -0.5032 -0.6801  0.6093
    1TMC1    H114135   0.332   0.059   0.833  0.0961  0.2400 -1.6750
    1TMC1    H214136   0.292   0.451   1.019  1.3433 -1.4975  1.4700
    1TMC1    C714137   0.341   0.182   1.073  0.3231  0.4346 -0.1109
    1TMC1    C814138   0.208   0.566   0.806  0.2165  0.1504  0.1273
    1TMC1    O114139   0.423   0.095   1.081 -0.4773  0.4738  0.0714
    1TMC1    O214140   0.179   0.628   0.909 -0.1221 -0.8275 -0.5652
    1TMC1    O314141   0.295   0.249   1.179  0.1887 -0.2872  0.3110
    1TMC1    H314142   0.235   0.317   1.143 -0.2716  0.1424  1.8692
    1TMC1    O514143   0.290   0.613   0.715  0.0023 -0.0474  0.5632
    1TMC1    H514144   0.338   0.551   0.656  0.2860 -0.8241  1.6038
    2MPD1     C14145   0.396   0.131   0.088 -0.9687 -0.4020  0.2238
    2MPD1    C114146   0.413   0.263   0.124 -0.1751  0.2503  0.1231
    2MPD1    C214147   0.395   0.298   0.258 -0.7851 -0.1599 -0.1411
    2MPD1    C314148   0.373   0.200   0.354  0.0301 -0.6719 -0.0881
    2MPD1    C414149   0.352   0.066   0.313 -0.2150  0.2174 -0.1024
    2MPD1    C514150   0.359   0.037   0.178  0.1216 -0.3409 -0.0930
    2MPD1     H14151   0.400   0.402   0.290 -0.1356 -0.9014  2.1708
    2MPD1    H114152   0.322   4.724   0.382  0.9441 -1.7899 -1.8425
    2MPD1    H214153   0.403   0.098  17.728  1.1961 -0.2660  0.3348
    2MPD1    H314154   0.360   4.670   0.146  2.3178  0.0287 -1.1847
    2MPD1     N14155   0.356   0.238   0.489 -0.0999  0.3751  0.1929
    2MPD1    H514156   0.372   0.338   0.498  2.6372 -0.0673  0.1286
    2MPD1    N114157   0.432   0.365   0.029  0.1106 -0.4798 -0.4014
    2MPD1    H614158   0.462   0.340  17.677 -3.0288 -2.3354 -0.9361
    2MPD1    H714159   0.479   0.441   0.078 -1.1154  1.2609 -1.9155
    1MPD1     C14160   1.114   0.948  12.846  0.5036  0.1055 -0.0889
    1MPD1    C114161   1.025   1.040  12.807  0.0062 -0.7709 -0.5232
    1MPD1    C214162   0.969   1.028  12.682  0.6315  0.2386 -0.0618
    1MPD1    C314163   1.004   0.934  12.587  0.0637  0.1785  0.3730
    1MPD1    C414164   1.098   0.844  12.621  0.1276 -0.5401 -0.4530
    1MPD1    C514165   1.143   0.847  12.752  0.8664 -0.7604 -0.1931
    1MPD1     H14166   0.898   1.106  12.660 -0.8706 -0.7180  1.3940
    1MPD1    H114167   1.132   0.769  12.551 -1.8417 -0.0234 -1.9592
    1MPD1    H214168   1.160   0.945  12.944  1.1487 -1.2110 -0.4412
    1MPD1    H314169   1.215   0.773  12.785 -0.0271 -0.9276  1.4104
    1MPD1     N14170   0.941   0.943  12.460 -0.3816 -0.2048  0.6737
    1MPD1    H514171   0.879   1.023  12.451  1.4940  1.1974  0.2533
    1MPD1    N114172   0.979   1.138  12.891  0.0542  0.1239 -0.5289
    1MPD1    H614173   1.046   1.156  12.966  0.0743  1.1326 -0.7887
    1MPD1    H714174   0.967   1.229  12.848  0.0926  0.8742  1.0339
    2MPD1     C14175   0.359   0.217  11.845  0.1577 -0.0520  0.8296
    2MPD1    C114176   0.281   0.151  11.753  0.1549 -0.0776 -0.6199
    2MPD1    C214177   0.292   0.191  11.619  0.2344 -0.0961  0.6100
    2MPD1    C314178   0.387   0.280  11.580 -0.1082 -0.1273  0.2869
    2MPD1    C414179   0.468   0.336  11.677 -0.5961  0.0191 -0.1209
    2MPD1    C514180   0.444   0.319  11.807  0.0469  0.1707 -0.2266
    2MPD1     H14181   0.226   0.148  11.544  3.0696 -1.4798 -1.0949
    2MPD1    H114182   0.551   0.401  11.653 -0.1408 -0.2013  0.8452
    2MPD1    H214183   0.347   0.186  11.949  1.3320  0.6627  1.1780
    2MPD1    H314184   0.507   0.368  11.881  1.5018  1.0946 -2.0679
    2MPD1     N14185   0.419   0.311  11.446  0.0896  0.1262 -0.1935
    2MPD1    H514186   0.483   0.387  11.425  0.2902  0.0811  0.2716
    2MPD1    N114187   0.198   0.042  11.789  0.2605  0.6195 -0.7060
    2MPD1    H614188   0.202   0.005  11.884 -0.5044 -1.6682 -1.5788
    2MPD1    H714189   0.203   4.702  11.722  2.6214 -0.9456  1.2765
    3MPD1     C14190   4.669   0.016  10.637 -0.7668 -0.0718  0.3119
    3MPD1    C114191   4.627   0.060  10.758  0.7350 -0.8812 -0.2843
    3MPD1    C214192   4.722   0.123  10.834 -0.1078 -0.4770  0.1791
    3MPD1    C314193   0.111   0.154  10.792 -0.4865  0.4310  0.0143
    3MPD1    C414194   0.141   0.130  10.660  0.6104  1.3742 -0.3186
    3MPD1    C514195   0.053   0.056  10.586 -0.4459 -0.1105 -0.4604
    3MPD1     H14196   4.708   0.142  10.939 -0.2971  0.0105  0.0637
    3MPD1    H114197   0.234   0.161  10.613  0.2823 -0.3768 -2.0931
    3MPD1    H214198   4.608   4.689  10.574 -1.2587  1.4796 -0.7761
    3MPD1    H314199   0.072   0.027  10.483  1.7533 -1.1054  0.2395
    3MPD1     N14200   0.190   0.217  10.886  0.5935  0.2201  0.3426
    3MPD1    H514201   0.145   0.223  10.976  0.6269 -3.5169  0.6242
    3MPD1    N114202   4.508   0.017  10.811 -0.5423  0.4197 -0.3239
    3MPD1    H614203   4.434   0.010  10.742  0.0161 -1.9744 -0.7113
    3MPD1    H714204   4.468   0.087  10.873  1.1688  0.3323  0.8838
    4MPD2     C14205   0.878   1.424  11.972 -0.3043  0.2577  0.1391
    4MPD2    C114206   0.883   1.298  11.908  0.7604 -0.4631 -0.4346
    4MPD2    C214207   0.936   1.283  11.778  0.3634 -0.4184 -0.2077
    4MPD2    C314208   0.969   1.395  11.708  0.8896  0.0506  0.2760
    4MPD2    C414209   0.967   1.517  11.775  0.2166 -0.6033  0.0560
    4MPD2    C514210   0.924   1.532  11.905  0.7421 -0.3295 -0.4252
    4MPD2     H14211   0.952   1.184  11.737 -2.1336 -1.2371  0.7986
    4MPD2    H114212   1.022   1.600  11.733  0.7880  0.2873  2.5125
    4MPD2    H214213   0.854   1.432  12.077 -0.7341  3.7984 -0.2229
    4MPD2    H314214   0.932   1.631  11.949  0.3056 -1.8557  3.1043
    4MPD2     N14215   1.016   1.389  11.576  0.0661 -0.0260  0.1538
    4MPD2    H514216   1.053   1.469  11.527 -1.6549  0.2974 -0.6067
    4MPD2    N114217   0.835   1.181  11.961 -0.6566  0.4022 -0.0419
    4MPD2    H714218   0.854   1.098  11.905 -2.1400  0.9761 -1.3878
    5TMC3    C114219   0.738   1.023  12.107 -0.5575  0.3223 -0.1536
    5TMC3    C214220   0.792   0.994  12.226  0.4308  0.1815  0.0185
    5TMC3    C314221   0.883   0.892  12.238 -0.2001  0.0327  0.0370
    5TMC3    C414222   0.751   0.939  12.000  0.0321  0.3471 -0.2124
    5TMC3    C514223   0.842   0.835  12.008  0.1633 -1.4783  1.0913
    5TMC3    C614224   0.912   0.817  12.125  0.0315  0.6167  0.1817
    5TMC3     C14225   0.764   1.160  12.084 -1.0955  0.4686 -0.2746
    5TMC3     O14226   0.733   1.252  12.157 -0.1875 -0.2116  0.2552
    5TMC3     H14227   0.787   1.064  12.309  1.1542 -0.2127  0.3970
    5TMC3    H114228   0.694   0.970  11.913 -1.6134 -3.0590 -0.3654
    5TMC3    H214229   0.989   0.741  12.130 -2.0425 -1.2825  3.1121
    5TMC3    C714230   0.913   0.814  11.888  0.8323 -0.3199  0.0346
    5TMC3    C814231   0.957   0.855  12.354 -0.3236  0.3595  0.2015
    5TMC3    O114232   0.894   0.917  11.818  0.5110  0.5861  0.0824
    5TMC3    O214233   1.018   0.749  12.356 -0.1017  0.1300 -0.2026
    6TMC3    C114234   0.363   0.348  11.222  0.0229 -0.1985  0.0129
    6TMC3    C214235   0.324   0.279  11.112 -0.2412  0.2549 -0.4105
    6TMC3    C314236   0.367   0.335  10.991 -0.0683  0.3904 -1.3338
    6TMC3    C414237   0.441   0.455  11.221  0.5744 -0.4224  0.3194
    6TMC3    C514238   0.465   0.509  11.105  0.0629 -0.0308  0.2579
    6TMC3    C614239   0.436   0.451  10.986 -0.0712 -0.7859 -0.6715
    6TMC3     C14240   0.335   0.277  11.342  0.0374  0.1868 -0.2461
    6TMC3     O14241   0.243   0.196  11.338 -0.0747  0.2471 -0.6903
    6TMC3     H14242   0.287   0.177  11.115  0.2012  0.1459  1.2791
    6TMC3    H114243   0.466   0.503  11.315  0.1606 -1.4192  0.9358
    6TMC3    H214244   0.488   0.482  10.897  0.2606  0.0093 -0.2021
    6TMC3    C714245   0.539   0.633  11.111  0.0042  0.3300 -0.0986
    6TMC3    C814246   0.304   0.292  10.865 -0.2030  0.0122 -0.5065
    6TMC3    O114247   0.592   0.678  11.212  0.5604 -0.1672 -0.2964
    6TMC3    O214248   0.357   0.321  10.761 -0.4101  0.2781 -0.6917
    7MPD2     C14249   1.243   0.663  11.543  0.1259  1.0453 -0.0922
    7MPD2    C114250   1.208   0.792  11.576 -0.2145 -0.0720 -0.7907
    7MPD2    C214251   1.130   0.809  11.688 -0.2036 -0.2892  0.2155
    7MPD2    C314252   1.093   0.699  11.775 -0.2518 -0.2533  0.5736
    7MPD2    C414253   1.152   0.579  11.743 -0.0736 -0.0676 -0.2331
    7MPD2    C514254   1.202   0.555  11.619  0.0215  0.5570 -0.7939
    7MPD2     H14255   1.096   0.909  11.714  0.1013 -0.4379  1.1931
    7MPD2    H114256   1.118   0.490  11.795 -0.7183 -0.1331 -0.7607
    7MPD2    H214257   1.304   0.644  11.455 -0.2126  0.2934 -0.1600
    7MPD2    H314258   1.230   0.455  11.588 -3.0512 -0.9533  1.3571
    7MPD2     N14259   1.001   0.710  11.880  0.2500  0.2183  0.6202
    7MPD2    H514260   0.998   0.636  11.949  0.4389 -0.0615  0.3270
    7MPD2    N114261   1.256   0.900  11.506  0.6834 -0.6681 -0.4893
    7MPD2    H714262   1.304   0.865  11.424 -0.4831 -2.0492 -0.5860
    8TMC3    C114263   1.213   1.101  11.387 -0.6250 -1.2004 -0.5201
    8TMC3    C214264   1.136   1.034  11.294  0.8743 -0.1203  0.1523
    8TMC3    C314265   1.026   1.099  11.247  0.4772 -0.2881  0.0610
    8TMC3    C414266   1.175   1.235  11.410 -0.3627  0.1673  0.1334
    8TMC3    C514267   1.056   1.288  11.371 -0.0934 -0.5642  0.9339
    8TMC3    C614268   0.978   1.218  11.284  0.2816  0.1957 -0.1174
    8TMC3     C14269   1.220   1.033  11.518  0.0663 -0.2168  0.3886
    8TMC3     O14270   1.174   1.095  11.610  0.1335 -0.5542  0.5004
    8TMC3     H14271   1.166   0.933  11.271 -0.7355 -0.4322 -0.5861
    8TMC3    H114272   1.220   1.295  11.488  0.9754 -1.8651  0.9129
    8TMC3    H214273   0.879   1.254  11.260  1.2492  2.6926 -0.3093
    8TMC3    C714274   0.977   1.287  11.492  0.0684  0.1683 -0.6582
    8TMC3    C814275   0.948   0.998  11.177  0.1266  0.5752  0.3155
    8TMC3    O114276   0.880   1.215  11.514 -0.3482  0.0710  0.4568
    8TMC3    O214277   0.948   0.882  11.209  0.2632  0.4840  0.5179
    9MPD2     C14278   0.728   1.057  10.878 -1.0958  0.7728  0.2251
    9MPD2    C114279   0.771   0.994  10.995 -0.3786 -0.2436  0.0233
    9MPD2    C214280   0.708   0.874  11.032 -0.4123 -0.0021 -0.4346
    9MPD2    C314281   0.608   0.818  10.958 -0.6267  0.1260  0.4466
    9MPD2    C414282   0.571   0.881  10.839  0.0376  0.6858  0.8907
    9MPD2    C514283   0.627   1.001  10.803  0.3676  0.3415 -0.5152
    9MPD2     H14284   0.737   0.824  11.124 -0.6095  0.3826 -0.1654
    9MPD2    H114285   0.473   0.861  10.796 -0.2205  1.3321  1.1741
    9MPD2    H214286   0.779   1.148  10.851 -1.5660  0.7693 -0.6909
    9MPD2    H314287   0.579   1.060  10.726 -1.6667  0.1474  0.6034
    9MPD2     N14288   0.536   0.700  10.992 -0.8643 -0.5102 -0.0272
    9MPD2    H514289   0.475   0.656  10.924  1.4169 -2.0805 -1.0327
    9MPD2    N114290   0.879   1.055  11.070  0.3172  0.2297 -0.2320
    9MPD2    H714291   0.907   1.149  11.043  1.2864  0.6300  2.1814
    1MPD1     C14292   0.805   0.304  16.553  0.1917  0.5997  0.1181
    1MPD1    C114293   0.762   0.200  16.636  0.5355  0.2732  0.0463
    1MPD1    C214294   0.652   0.125  16.605  0.1380  0.3784  0.1418
    1MPD1    C314295   0.572   0.155  16.494 -0.4887  0.2271 -0.6341
    1MPD1    C414296   0.611   0.255  16.408 -0.0139  0.0696  0.2261
    1MPD1    C514297   0.733   0.325  16.436 -0.3656 -0.1171 -0.3444
    1MPD1     H14298   0.635   0.043  16.673  1.1484  0.8798  1.0151
    1MPD1    H114299   0.571   0.269  16.309 -2.6188 -1.2658  1.0925
    1MPD1    H214300   0.900   0.349  16.578  1.2575 -2.7443  2.0531
    1MPD1    H314301   0.773   0.396  16.365 -1.3076  0.5708 -0.1746
    1MPD1     N14302   0.467   0.069  16.450  0.1955 -0.3781 -0.3228
    1MPD1    H514303   0.420   0.091  16.363 -0.1737  2.3429  0.5597
    1MPD1    N114304   0.822   0.183  16.767  0.4901 -0.9027 -0.3873
    1MPD1    H614305   0.923   0.189  16.757  0.3065  1.5278 -0.8189
    1MPD1    H714306   0.790   0.097  16.811  0.0969 -0.6415 -0.1554
    2TMC2    C114307   0.106   4.653  16.330  0.8363  0.5406  0.3104
    2TMC2    C214308   0.057   4.536  16.382 -0.8804  0.5449  0.2692
    2TMC2    C314309   0.116   4.485  16.494 -0.7046 -0.4833 -0.1342
    2TMC2    C414310   0.228   4.701  16.361  0.8282  0.4136 -0.2079
    2TMC2    C514311   0.288   4.645  16.470  0.6318 -0.2531 -0.4047
    2TMC2    C614312   0.233   4.534  16.540  0.6057 -0.3423  0.4616
    2TMC2     C14313   0.025   4.709  16.221 -0.1820 -0.0828 -0.0468
    2TMC2     O14314   4.644   4.673  16.231  0.3240  0.2101 -0.7701
    2TMC2     H14315   4.694   4.495  16.367 -0.0371 -1.4903  0.3566
    2TMC2    H114316   0.262   0.059  16.320  0.5182  0.6619  0.1038
    2TMC2    H214317   0.278   4.493  16.630  2.7877  0.7171 -0.1237
    2TMC2    C714318   0.410   4.708  16.526  0.6002 -0.2811 -0.1906
    2TMC2    C814319   0.029   4.417  16.589 -0.5775  0.5273 -0.7388
    2TMC2    O114320   0.431   4.679  16.647 -0.0295 -0.0095  0.2537
    2TMC2    O214321   4.649   4.445  16.612  0.5644  0.0179 -0.7838
    2TMC2    O514322   0.104   4.325  16.647 -0.2535 -0.6170  0.8302
    2TMC2    H514323   0.198   4.337  16.624 -0.1193 -2.0364  0.6447
    3MPD1     C14324   4.651   0.311  15.846  0.3454 -0.0527  0.2409
    3MPD1    C114325   0.052   0.328  15.888 -0.3437  0.0352  0.0368
    3MPD1    C214326   0.101   0.245  15.993  0.2592 -0.3922  0.3829
    3MPD1    C314327   0.017   0.145  16.041 -0.1402 -0.3424  0.7030
    3MPD1    C414328   4.621   0.134  16.007  0.7756 -0.2069  0.6858
    3MPD1    C514329   4.569   0.223  15.919 -1.0066 -0.0320 -0.2702
    3MPD1     H14330   0.206   0.254  16.020  0.4788 -1.2878 -0.1561
    3MPD1    H114331   4.554   0.065  16.056 -0.3900  0.9457  0.7114
    3MPD1    H214332   4.596   0.380  15.782 -1.8874  0.4746  2.7202
    3MPD1    H314333   4.466   0.220  15.885 -1.8653 -0.4050  2.4105
    3MPD1     N14334   0.087   0.066  16.135 -0.0254  0.0032  0.2692
    3MPD1    H514335   0.186   0.086  16.146 -0.5488  2.1804  1.0115
    3MPD1    N114336   0.118   0.439  15.835  0.2004  0.6456  0.7914
    3MPD1    H614337   0.087   0.458  15.740 -2.2612 -1.3181  1.1936
    3MPD1    H714338   0.218   0.425  15.819 -0.2503 -0.3611 -1.2090
    1TMC1    C114339   2.975   3.464  12.960 -0.0341 -0.8045 -0.3248
    1TMC1    C214340   2.951   3.470  13.100 -0.1658  0.6600 -0.8951
    1TMC1    C314341   2.828   3.434  13.139 -0.2727  0.3611 -0.0321
    1TMC1    C414342   2.878   3.464  12.867  0.2275  0.2811  0.2137
    1TMC1    C514343   2.755   3.451  12.916 -0.3459  0.4504 -0.0344
    1TMC1    C614344   2.724   3.434  13.048 -0.0813 -0.1232  0.3136
    1TMC1     C14345   3.109   3.501  12.917 -0.4254  0.3446  0.1443
    1TMC1     O14346   3.128   3.555  12.809  0.1917  0.5260 -0.2267
    1TMC1     H14347   3.019   3.508  13.175 -0.2200  0.3002 -0.6600
    1TMC1    H114348   2.908   3.478  12.764  2.0652 -1.2448  0.5485
    1TMC1    H214349   2.617   3.427  13.068 -0.4196  0.2199 -1.3439
    1TMC1    C714350   2.649   3.417  12.822 -0.6568 -0.2429 -0.0923
    1TMC1    C814351   2.798   3.456  13.276  0.0813  0.1237  0.0946
    1TMC1    O114352   2.585   3.313  12.834 -0.6540  0.4133  0.4729
    1TMC1    O214353   2.685   3.502  13.302  0.1391  0.5537  0.3868
    1TMC1    O314354   2.640   3.507  12.724  0.0630  0.2186  0.2042
    1TMC1    H314355   2.706   3.579  12.729  1.7480 -1.3292  0.4089
    1TMC1    O514356   2.903   3.425  13.358  0.1372  0.0115 -0.1338
    1TMC1    H514357   2.976   3.378  13.311 -0.5085 -1.2892  0.1564
    2MPD2     C14358   3.370   3.639  12.973 -0.3225  0.6973  0.0178
    2MPD2    C114359   3.318   3.536  13.042 -0.1162 -0.0864 -0.0384
    2MPD2    C214360   3.389   3.484  13.143 -0.3751  0.6786  0.1265
    2MPD2    C314361   3.519   3.528  13.172 -0.0951  0.2764 -0.2706
    2MPD2    C414362   3.570   3.629  13.093  0.1623 -0.3141 -0.3973
    2MPD2    C514363   3.498   3.680  12.994  0.3305  1.3272  0.0450
    2MPD2     H14364   3.353   3.405  13.208 -0.4981 -0.4469 -1.3167
    2MPD2    H114365   3.674   3.658  13.096 -0.2805  1.2393  0.1444
    2MPD2    H214366   3.321   3.685  12.888 -1.0471  1.6669  0.9683
    2MPD2    H314367   3.535   3.756  12.926  2.4809  0.0386 -0.2472
    2MPD2     N14368   3.576   3.479  13.297 -0.2054  0.2359  0.1251
    2MPD2    H514369   3.537   3.401  13.349  1.5948 -0.0772  1.0051
    2MPD2    N114370   3.192   3.474  13.022  0.0055  0.4730  0.8414
    2MPD2    H714371   3.168   3.405  13.092 -0.0903  0.4304  0.7661
    3TCq1    O114372   4.068   3.279  13.323 -0.0734 -0.4073  0.2138
    3TCq1    C114373   4.045   3.218  13.440 -0.4522  0.0075  0.5135
    3TCq1    O214374   4.117   3.133  13.492  0.5145 -0.6231 -0.1146
    3TCq1    C214375   3.928   3.285  13.497  0.3215 -0.0407 -0.4270
    3TCq1    C314376   3.843   3.202  13.562 -0.1977 -0.1079 -0.2665
    3TCq1    C414377   3.714   3.241  13.579  0.1915 -0.9287  0.0559
    3TCq1    C514378   3.661   3.349  13.518  0.5139  0.4219 -0.3606
    3TCq1    C614379   3.746   3.436  13.451  0.9340 -0.6788  0.1344
    3TCq1    C714380   3.884   3.401  13.445 -0.3429  0.3063 -0.6763
    3TCq1    C814381   3.697   3.524  13.348 -0.0051  0.8125  0.1092
    3TCq1    O414382   3.781   3.605  13.307 -0.0928 -0.4132  0.0320
    3TCq1    C914383   3.627   3.145  13.652 -0.2381  0.0827  0.1472
    3TCq1    O514384   3.504   3.162  13.618 -0.2830  0.2305 -0.5163
    3TCq1    O614385   3.682   3.063  13.724  0.3420 -0.2922  0.2938
    3TCq1    H114386   3.989   3.330  13.295 -1.0297 -0.8877  2.0655
    3TCq1    H214387   3.877   3.109  13.606  0.0653  0.3022  0.4114
    3TCq1    H314388   3.556   3.374  13.526  0.3123 -1.3703  2.5151
    3TCq1    H414389   3.958   3.464  13.396 -0.5263  0.1853 -1.1053
    1MPD2     C14390   2.783   0.214  14.899  0.1646  0.2919 -0.3261
    1MPD2    C114391   2.754   0.105  14.815  1.0215  0.0719 -0.7011
    1MPD2    C214392   2.826   4.727  14.826 -0.7436 -0.7442 -1.1965
    1MPD2    C314393   2.922   4.715  14.922 -0.0777 -0.1908 -0.6408
    1MPD2    C414394   2.955   0.084  15.002  0.7130  0.5408  0.5196
    1MPD2    C514395   2.894   0.204  14.986 -0.6451  0.7629  0.7193
    1MPD2     H14396   2.806   4.641  14.763 -1.7550 -1.7236  0.4527
    1MPD2    H114397   3.025   0.066  15.083  1.9598  0.4553 -0.5928
    1MPD2    H214398   2.724   0.305  14.899  1.1218  0.9177 -0.7511
    1MPD2    H314399   2.914   0.288  15.052  1.3259  2.1648 -1.6733
    1MPD2     N14400   2.981   4.583  14.931 -0.1412 -0.1678 -0.5921
    1MPD2    H514401   2.937   4.517  14.867 -1.9569  2.8065 -2.3855
    1MPD2    N114402   2.631   0.107  14.743 -0.4424 -0.1729  0.0670
    1MPD2    H714403   2.565   0.177  14.773 -1.8563 -0.3048 -2.7804
    2TMC3    C114404   2.440   0.024  14.634  0.2802 -0.2453  0.2723
    2TMC3    C214405   2.396   4.637  14.618  0.4407 -0.8389 -0.0944
    2TMC3    C314406   2.322   4.597  14.513 -0.1381  0.8350 -0.0558
    2TMC3    C414407   2.407   0.118  14.539 -0.0896 -0.4345  0.2819
    2TMC3    C514408   2.326   0.078  14.436 -0.0861  0.1706 -0.8037
    2TMC3    C614409   2.293   4.684  14.412 -0.1523 -0.3696 -0.4633
    2TMC3     C14410   2.582   0.015  14.655 -0.6692  0.1773  0.4628
    2TMC3     O14411   2.638   4.657  14.599 -0.4197  0.0938 -0.4464
    2TMC3     H14412   2.401   4.568  14.702  0.5055  0.5996  1.0743
    2TMC3    H114413   2.479   0.194  14.513 -0.9974  0.4904  0.4328
    2TMC3    H214414   2.230   4.651  14.330 -1.6726 -0.2731  0.6774
    2TMC3    C714415   2.262   0.174  14.351  0.4263 -0.2055 -0.4968
    2TMC3    C814416   2.348   4.463  14.474 -0.4405 -0.0907  0.3121
    2TMC3    O114417   2.211   0.136  14.247 -0.0510 -0.7423  0.2493
    2TMC3    O214418   2.258   4.399  14.417 -0.2946  0.4249  0.1467
    3TCq1    O114419   2.030   1.314  14.619 -0.0031  0.0329 -0.3861
    3TCq1    C114420   2.064   1.259  14.735 -0.6320 -0.6965  0.3366
    3TCq1    O214421   2.007   1.283  14.842  0.1810  0.0654 -0.3591
    3TCq1    C214422   2.135   1.139  14.711 -0.2888 -0.4078 -0.3713
    3TCq1    C314423   2.249   1.128  14.785 -0.2949 -0.3954  0.0136
    3TCq1    C414424   2.342   1.032  14.750  0.8893 -0.2731 -0.5817
    3TCq1    C514425   2.323   0.961  14.635  0.3567  0.0866  0.6086
    3TCq1    C614426   2.220   0.994  14.555 -0.0683 -0.0039  0.0756
    3TCq1    C714427   2.117   1.079  14.591  0.6259  0.3165 -0.0724
    3TCq1    C814428   2.180   0.911  14.444  0.0289  0.3846 -0.1893
    3TCq1    O414429   2.099   0.963  14.371  0.5283  0.1479 -0.1929
    3TCq1    C914430   2.453   0.992  14.836 -0.1153 -0.5817  0.2788
    3TCq1    O514431   2.472   1.063  14.935 -0.2323 -0.3717  0.5250
    3TCq1    O614432   2.526   0.899  14.803 -0.4919 -0.6495  0.1866
    3TCq1    H114433   2.094   1.285  14.551 -2.2080 -1.3794 -1.8191
    3TCq1    H214434   2.249   1.174  14.883 -0.2076 -1.1175  0.3522
    3TCq1    H314435   2.393   0.886  14.600 -0.3986 -0.7522  0.8943
    3TCq1    H414436   2.032   1.098  14.527  0.8116 -0.6934 -0.6290
    4MPD2     C14437   2.161   0.678  14.240  0.3983 -0.0844 -0.1011
    4MPD2    C114438   2.212   0.669  14.368  0.2711 -0.1450 -0.2970
    4MPD2    C214439   2.266   0.547  14.412 -0.4853  0.4735  0.0068
    4MPD2    C314440   2.230   0.429  14.350 -0.9391 -0.2913 -0.0604
    4MPD2    C414441   2.157   0.438  14.230 -0.2600 -0.0433 -0.5143
    4MPD2    C514442   2.128   0.562  14.175 -0.1325  0.4344 -1.0060
    4MPD2     H14443   2.319   0.543  14.506 -2.1664 -0.7018  0.8954
    4MPD2    H114444   2.120   0.345  14.189 -1.4792 -0.0073  0.5013
    4MPD2    H214445   2.127   0.773  14.200  0.3931  0.1283  0.4130
    4MPD2    H314446   2.069   0.555  14.085 -0.7226  1.4891 -0.6946
    4MPD2     N14447   2.266   0.298  14.408 -0.3961 -0.3840 -0.2400
    4MPD2    H514448   2.299   0.305  14.504  2.4918 -0.8466 -1.1932
    4MPD2    N114449   2.228   0.783  14.448 -0.7647  0.4672  0.0968
    4MPD2    H714450   2.262   0.752  14.539  0.2496 -1.5595 -0.9889
    5TMC2    C114451   2.994   4.234  14.847 -0.7163 -0.0376  0.3957
    5TMC2    C214452   2.950   4.157  14.957  0.2516 -0.1077  0.0165
    5TMC2    C314453   2.992   4.196  15.086  0.7706 -0.5475  0.3652
    5TMC2    C414454   3.065   4.347  14.871 -0.3959 -0.3007 -0.0251
    5TMC2    C514455   3.102   4.390  14.995 -0.0957 -0.0006 -1.0183
    5TMC2    C614456   3.064   4.312  15.105  0.8129 -0.8048 -0.1531
    5TMC2     C14457   2.898   4.251  14.739  0.4799 -0.2455 -0.3855
    5TMC2     O14458   2.895   4.360  14.688  0.0423 -0.3141 -0.3693
    5TMC2     H14459   2.868   4.087  14.951 -0.6770  0.9497  0.3387
    5TMC2    H114460   3.099   4.412  14.791  1.3925  0.6886  1.5457
    5TMC2    H214461   3.064   4.361  15.201 -0.9045  2.2396 -1.6841
    5TMC2    C714462   3.086   4.534  15.015 -1.2593 -0.1064  0.3440
    5TMC2    C814463   2.909   4.167  15.197 -0.2208  0.3421 -0.1787
    5TMC2    O114464   3.137   4.593  15.108 -0.3021 -0.0998 -0.1695
    5TMC2    O214465   2.876   4.254  15.275  0.2051 -0.1800 -0.1643
    5TMC2    O514466   2.875   4.042  15.207 -0.0167 -0.1821  0.0326
    5TMC2    H514467   2.929   3.988  15.145  0.8403  1.4052 -0.6217
    6MPD2     C14468   2.450   4.192  14.509 -0.4097  0.1262 -0.1053
    6MPD2    C114469   2.523   4.302  14.544 -0.8010 -0.1291  0.8808
    6MPD2    C214470   2.639   4.288  14.608 -0.2257 -0.0507 -0.0631
    6MPD2    C314471   2.691   4.166  14.646 -0.2615 -0.2080 -0.5054
    6MPD2    C414472   2.617   4.052  14.612  0.0444  0.1599 -0.2970
    6MPD2    C514473   2.504   4.072  14.534 -0.2528 -0.4115  0.0337
    6MPD2     H14474   2.687   4.382  14.632  1.3293 -0.3009 -2.2560
    6MPD2    H114475   2.651   3.951  14.631 -0.8088 -0.2087 -0.7008
    6MPD2    H214476   2.361   4.198  14.449  0.0155 -2.0676 -0.9734
    6MPD2    H314477   2.439   3.992  14.500 -1.6930  1.0732 -0.6870
    6MPD2     N14478   2.808   4.148  14.723  0.2413  0.6966  0.0513
    6MPD2    H514479   2.832   4.057  14.759  0.0255  0.0528 -1.4441
    6MPD2    N114480   2.471   4.432  14.528  0.0340 -0.6656  0.0570
    6MPD2    H714481   2.522   4.508  14.572  0.7020 -0.8085 -0.4713
  945NH4     N114482   2.626   3.725   8.702  0.6260 -0.0997  0.4431
  945NH4     H214483   2.705   3.730   8.768  0.6124 -0.4833  0.4856
  945NH4     H314484   2.540   3.759   8.749  0.8524  0.6021  0.3585
  945NH4     H414485   2.622   3.623   8.686 -1.0666  0.1685 -0.9643
  945NH4     H514486   2.639   3.788   8.620  2.4181 -0.9391  0.0920
  946SOD     NA14487   2.315   0.508  13.542  0.4245 -0.4707 -0.1639
  947SOD     NA14488   3.363   3.030  15.688  0.0434  0.3141 -0.1518
  948SOD     NA14489   4.134   4.679  14.542  0.1273 -0.1335  0.2476
  949SOD     NA14490   0.958   4.169  15.980 -0.4344 -0.6526 -0.0722
  950SOD     NA14491   0.330   1.573   6.239 -0.2710  0.1383 -0.1793
  951SOD     NA14492   3.611   3.961  11.551 -0.4782  0.2697 -0.2832
  952SOD     NA14493   2.530   0.417  11.136  0.6595 -0.4843 -0.2773
  953SOL     OW14494   1.177   0.456   3.809  0.1977 -0.2130  0.2871
  953SOL    HW114495   1.114   0.451   3.881  0.5574 -0.4532  0.5859
  953SOL    HW214496   1.127   0.506   3.745 -0.0769 -1.2670 -0.3218
  954SOL     OW14497   1.471   3.234   7.218  0.4308  0.0585  0.3567
  954SOL    HW114498   1.395   3.292   7.219  1.4389  1.3394  2.3454
  954SOL    HW214499   1.519   3.291   7.278  1.3948 -0.1519 -0.2257
  955SOL     OW14500   3.923   1.529   5.178  0.4809 -0.0184 -0.9053
  955SOL    HW114501   3.947   1.538   5.085  0.3056 -0.0410 -0.9527
  955SOL    HW214502   3.893   1.438   5.181 -1.3680  0.5929 -1.5078
  956SOL     OW14503   0.287   3.764   7.502 -0.4918  0.0983 -0.0116
  956SOL    HW114504   0.333   3.837   7.544  0.4303 -0.4826 -0.0126
  956SOL    HW214505   0.247   3.722   7.578 -0.3142  1.1359  0.6599
  957SOL     OW14506   0.518   4.544  12.120  0.2785 -0.2561 -0.4685
  957SOL    HW114507   0.485   4.457  12.097 -1.9020 -0.0592  1.9766
  957SOL    HW214508   0.485   4.554  12.209 -0.6321 -1.0922 -0.7024
  958SOL     OW14509   4.070   1.279  15.804 -0.0950  0.5651  0.3448
  958SOL    HW114510   4.063   1.253  15.896 -1.0873 -2.5457 -0.6111
  958SOL    HW214511   4.075   1.374  15.812  2.9597  0.5221 -0.9803
  959SOL     OW14512   0.896   2.965   2.676 -0.1004 -0.1339 -0.5806
  959SOL    HW114513   0.975   2.988   2.628 -0.8204 -1.4172 -2.3881
  959SOL    HW214514   0.833   2.951   2.605  0.1407  0.2878 -0.8724
  960SOL     OW14515   4.547   2.150   1.812  0.2237  0.7824 -0.2247
  960SOL    HW114516   4.478   2.144   1.745 -0.8714  1.3839  0.8598
  960SOL    HW214517   4.590   2.227   1.775 -1.2508  0.6253 -2.2916
  961SOL     OW14518   4.381   4.347   2.640  0.5400 -0.3348 -0.6817
  961SOL    HW114519   4.471   4.350   2.672  0.0251  0.5620  0.6891
  961SOL    HW214520   4.387   4.310   2.552  1.6917 -0.9760 -0.3313
  962SOL     OW14521   3.746   0.443   1.525 -0.4530  0.0663 -0.1752
  962SOL    HW114522   3.764   0.537   1.516  1.2897 -0.3325 -0.7667
  962SOL    HW214523   3.827   0.416   1.483 -2.0290 -3.5877 -0.8697
  963SOL     OW14524   2.241   4.344   5.032  0.0932 -0.2537 -0.1149
  963SOL    HW114525   2.288   4.321   5.112 -0.4343 -1.4082 -0.1319
  963SOL    HW214526   2.183   4.408   5.073  0.8684  2.3437 -3.0405
  964SOL     OW14527   4.417   3.899   7.701  0.1456  0.0798 -0.1749
  964SOL    HW114528   4.328   3.930   7.686  0.7544  1.7134 -0.4328
  964SOL    HW214529   4.404   3.808   7.728 -1.6371  0.3228 -0.2005
  965SOL     OW14530   0.527   0.391   7.859  0.2271 -0.0003 -0.1242
  965SOL    HW114531   0.505   0.324   7.924  2.0006 -0.5305 -0.0588
  965SOL    HW214532   0.619   0.370   7.839  1.2035  1.3818  2.8533
  966SOL     OW14533   3.776   1.296   5.249 -0.3583  0.2563  0.0184
  966SOL    HW114534   3.681   1.295   5.262 -0.3385 -0.2525  0.1470
  966SOL    HW214535   3.799   1.288   5.342  1.3269  0.2529 -0.4077
  967SOL     OW14536   3.257   0.897   7.382  0.5836  0.3131  0.1558
  967SOL    HW114537   3.188   0.962   7.393 -0.6609 -1.2904  1.7809
  967SOL    HW214538   3.313   0.937   7.315  2.0171 -2.1780 -0.1387
  968SOL     OW14539   4.427   0.424   7.644 -0.5255 -0.1545 -0.7185
  968SOL    HW114540   4.482   0.499   7.619 -2.3056  2.0584  1.9633
  968SOL    HW214541   4.490   0.352   7.643  0.3866  0.6328  0.2707
  969SOL     OW14542   3.547   0.684  15.147 -0.1554  0.1516 -0.0417
  969SOL    HW114543   3.576   0.730  15.068  1.4040  2.3099  1.7966
  969SOL    HW214544   3.459   0.720  15.159 -0.4106 -0.0407 -1.2709
  970SOL     OW14545   2.578   3.885   7.936 -0.1816  0.1733 -0.7003
  970SOL    HW114546   2.486   3.877   7.911  0.1882 -3.2643 -0.9067
  970SOL    HW214547   2.585   3.824   8.010 -0.4950  1.8850  0.7383
  971SOL     OW14548   1.154   1.425   9.314  0.5868  0.5398  0.4584
  971SOL    HW114549   1.212   1.489   9.274 -0.6313  2.2512  1.4697
  971SOL    HW214550   1.087   1.482   9.350  0.2626  1.1593 -1.1474
  972SOL     OW14551   4.358   1.811   4.252  0.6361  0.0063  0.2696
  972SOL    HW114552   4.342   1.843   4.340  1.7595  1.2899 -0.0002
  972SOL    HW214553   4.407   1.732   4.273 -0.5225 -0.3758  1.5496
  973SOL     OW14554   0.899   4.693   5.730 -0.3047  0.3658 -0.3892
  973SOL    HW114555   0.896   0.029   5.668  1.0186  0.6745 -0.1001
  973SOL    HW214556   0.833   4.632   5.696 -1.6583  2.2153 -1.0714
  974SOL     OW14557   4.211   1.941   2.196  0.1790  0.3710 -0.3498
  974SOL    HW114558   4.222   1.858   2.149 -2.1442  0.5997 -1.2938
  974SOL    HW214559   4.301   1.973   2.191  0.8326 -1.1966  1.5048
  975SOL     OW14560   2.192   4.266   2.711  0.3169  0.4004 -0.3627
  975SOL    HW114561   2.130   4.304   2.773 -0.7664 -2.5084  0.3274
  975SOL    HW214562   2.178   4.318   2.631 -1.8157 -0.1340 -0.3373
  976SOL     OW14563   3.320   0.056   3.446  0.2821 -0.1270 -0.3051
  976SOL    HW114564   3.241   0.003   3.434  1.4559 -1.7097 -1.1250
  976SOL    HW214565   3.379   4.728   3.487 -1.1469 -0.7427  0.7721
  977SOL     OW14566   1.339   0.864   7.742  0.3204  0.0759 -0.0133
  977SOL    HW114567   1.313   0.773   7.757 -4.4466  1.4615  0.2860
  977SOL    HW214568   1.433   0.854   7.727  0.2047 -0.1405 -0.5696
  978SOL     OW14569   0.931   0.441   0.702  0.6924 -0.1807  0.0859
  978SOL    HW114570   0.996   0.439   0.632  0.6875 -1.6459  0.1053
  978SOL    HW214571   0.916   0.534   0.718 -1.2406 -0.5941  0.6450
  979SOL     OW14572   3.331   2.556   7.475  0.0934  0.4183 -0.0654
  979SOL    HW114573   3.367   2.612   7.545  1.3843 -1.0908  0.4628
  979SOL    HW214574   3.381   2.598   7.405  0.6306  0.2894  0.2400
  980SOL     OW14575   1.242   3.637   4.988  0.6248 -0.1177 -0.7799
  980SOL    HW114576   1.303   3.705   5.017  2.3742 -2.2271  0.5155
  980SOL    HW214577   1.171   3.693   4.958  1.1315  0.5698 -0.7085
  981SOL     OW14578   1.485   4.729   1.731  0.0070  0.3295  0.0513
  981SOL    HW114579   1.419   4.662   1.714 -0.6491  0.9602  0.1257
  981SOL    HW214580   1.505   0.025   1.643 -1.4194 -0.5556 -0.5852
  982SOL     OW14581   4.666   3.824   7.011  0.5840 -0.0222  0.1823
  982SOL    HW114582   4.625   3.866   7.086 -1.4546 -0.3705 -0.7288
  982SOL    HW214583   4.651   3.890   6.942 -0.6122 -0.7467 -0.2550
  983SOL     OW14584   2.643   3.467   7.299 -0.5023  0.3139 -0.2589
  983SOL    HW114585   2.691   3.547   7.320 -0.1238 -0.0315  0.1971
  983SOL    HW214586   2.715   3.407   7.278 -1.2010 -0.4668 -0.4052
  984SOL     OW14587   1.231   2.560   2.429  0.3477 -0.1981 -0.6066
  984SOL    HW114588   1.247   2.652   2.451 -1.7627 -0.2486  1.1601
  984SOL    HW214589   1.155   2.567   2.372  1.0506  0.7438 -1.4252
  985SOL     OW14590   4.288   0.521   6.887  0.6806  0.0937 -0.0236
  985SOL    HW114591   4.365   0.578   6.894  0.0113  0.6475  2.5567
  985SOL    HW214592   4.293   0.487   6.797 -1.8555 -3.1514  1.0605
  986SOL     OW14593   1.840   3.978  11.223 -0.1445  0.0381  0.2623
  986SOL    HW114594   1.904   4.049  11.227  0.9259 -0.8937 -0.2635
  986SOL    HW214595   1.776   4.013  11.285 -2.3910 -1.8239 -0.9954
  987SOL     OW14596   4.379   0.441   5.720  0.0117  0.4403 -0.1412
  987SOL    HW114597   4.469   0.443   5.752 -0.2483  1.5291  0.4893
  987SOL    HW214598   4.393   0.383   5.645 -0.7034  1.8941 -1.3788
  988SOL     OW14599   1.418   2.504   4.423  0.9108  0.3753 -0.6095
  988SOL    HW114600   1.375   2.491   4.339  2.5591 -1.7712 -1.1106
  988SOL    HW214601   1.430   2.413   4.448 -2.7727  0.5590  1.9313
  989SOL     OW14602   2.651   3.153  11.752 -0.3795 -0.4204 -0.0619
  989SOL    HW114603   2.699   3.235  11.739  1.3676 -1.0588  2.3266
  989SOL    HW214604   2.721   3.100  11.790 -0.5632 -0.3455  0.3863
  990SOL     OW14605   3.238   1.884   2.550 -0.0174 -0.2689  0.1694
  990SOL    HW114606   3.294   1.811   2.577 -0.6857 -0.2487  1.5918
  990SOL    HW214607   3.269   1.883   2.459 -2.9373  0.6057 -0.8388
  991SOL     OW14608   2.153   3.800   7.106  0.6176 -0.6914  0.4146
  991SOL    HW114609   2.113   3.880   7.141 -2.0438 -1.4970 -0.7388
  991SOL    HW214610   2.123   3.734   7.169  0.2456 -0.9495 -0.0313
  992SOL     OW14611   0.951   1.379   6.570 -0.0840 -0.2616 -0.3455
  992SOL    HW114612   0.890   1.424   6.512  0.7596  0.9081 -0.3443
  992SOL    HW214613   0.897   1.303   6.589 -0.0807 -0.6512 -1.9201
  993SOL     OW14614   3.981   4.567  12.868  0.1080  0.1694 -0.2351
  993SOL    HW114615   4.072   4.572  12.896  0.2553 -0.7525 -0.5556
  993SOL    HW214616   3.937   4.637  12.916  1.7982  0.0364  1.4779
  994SOL     OW14617   3.873   0.341  10.566 -0.2952 -0.4780 -0.7630
  994SOL    HW114618   3.924   0.403  10.515  0.9784 -1.1017 -0.2383
  994SOL    HW214619   3.902   0.366  10.654 -2.6003 -0.1552 -0.0979
  995SOL     OW14620   0.688   0.394   9.663 -0.1211  0.0747  0.0446
  995SOL    HW114621   0.645   0.480   9.659 -0.3640 -0.0609 -0.1893
  995SOL    HW214622   0.676   0.364   9.573  0.8045 -0.8348  0.2239
  996SOL     OW14623   1.476   1.001   0.162 -0.5338  0.6528 -0.3736
  996SOL    HW114624   1.401   1.026   0.216 -0.5719  2.5140 -1.3045
  996SOL    HW214625   1.462   0.908   0.147  1.6169  0.4190 -0.9322
  997SOL     OW14626   1.495   3.819   5.348 -0.4734  0.1236 -0.0117
  997SOL    HW114627   1.493   3.803   5.442  1.3341 -1.0676 -0.1805
  997SOL    HW214628   1.535   3.737   5.320  0.2673 -0.3784  2.5786
  998SOL     OW14629   2.926   1.369   0.813  0.1982 -0.2590 -0.0044
  998SOL    HW114630   3.013   1.370   0.773  0.9473 -0.8744  1.5702
  998SOL    HW214631   2.881   1.374   0.729  2.6560  0.4779 -1.2782
  999SOL     OW14632   1.868   2.590   2.285 -0.5840  0.0787 -0.2040
  999SOL    HW114633   1.829   2.511   2.323  0.7402 -0.0548  0.8857
  999SOL    HW214634   1.839   2.583   2.194 -0.8917  3.2406 -0.3448
 1000SOL     OW14635   0.901   2.422  11.528  0.5899  0.3133  0.5067
 1000SOL    HW114636   0.912   2.420  11.433 -0.4373  1.6923  0.3534
 1000SOL    HW214637   0.861   2.335  11.531  1.0762  0.1222  1.3161
 1001SOL     OW14638   2.665   0.394   4.271 -0.3204 -0.2514 -0.4816
 1001SOL    HW114639   2.760   0.402   4.281 -0.2435 -3.3351  1.3434
 1001SOL    HW214640   2.635   0.474   4.314  1.4307  0.0254  0.2414
 1002SOL     OW14641   4.680   2.463  12.345  0.2474 -0.7486  0.4568
 1002SOL    HW114642   4.611   2.403  12.372  1.0068 -0.5321  2.9034
 1002SOL    HW214643   4.669   2.542  12.399  1.1468  1.1128 -2.0607
 1003SOL     OW14644   0.787   1.438   4.215  0.2563  0.0383 -0.1142
 1003SOL    HW114645   0.876   1.404   4.211  0.4276  0.7127 -1.7419
 1003SOL    HW214646   0.737   1.359   4.193  0.9478 -0.7322  1.0883
 1004SOL     OW14647   2.269   4.182   0.717  0.0988 -0.3388  0.3864
 1004SOL    HW114648   2.352   4.206   0.676 -1.2957  1.8696 -1.1559
 1004SOL    HW214649   2.297   4.165   0.807 -2.2044 -1.6409  0.8421
 1005SOL     OW14650   3.882   1.009   2.182  0.0102 -0.3646  0.1083
 1005SOL    HW114651   3.801   0.959   2.177  0.4474 -1.0145 -0.6223
 1005SOL    HW214652   3.843   1.092   2.208  0.1933  0.0304 -0.8633
 1006SOL     OW14653   4.251   2.424   8.372  0.2499 -0.0057  0.0688
 1006SOL    HW114654   4.316   2.460   8.431 -0.6822  1.6629  0.0902
 1006SOL    HW214655   4.289   2.340   8.347  0.9351  0.1686  0.5520
 1007SOL     OW14656   0.784   2.701   7.035 -0.6210  0.2308 -0.0951
 1007SOL    HW114657   0.784   2.753   6.955  1.1599 -2.6326 -1.9458
 1007SOL    HW214658   0.700   2.730   7.069 -1.2876 -0.4195 -1.2026
 1008SOL     OW14659   4.318   2.343   5.470 -0.4215  0.2429 -0.0779
 1008SOL    HW114660   4.296   2.311   5.557  0.2216  2.1172  0.7900
 1008SOL    HW214661   4.246   2.316   5.413 -1.1699  0.0156  0.9783
 1009SOL     OW14662   0.070   3.993   4.122 -0.3531  0.3518 -0.2365
 1009SOL    HW114663   0.037   4.059   4.061  0.5805  3.4148  2.5799
 1009SOL    HW214664   0.164   4.009   4.123 -0.1057 -1.0382 -1.0553
 1010SOL     OW14665   1.297   4.502   0.061 -0.2244 -0.0793  0.4691
 1010SOL    HW114666   1.304   4.406   0.058  2.1687  0.0101  3.6906
 1010SOL    HW214667   1.274   4.525  17.714 -2.4855  1.1657  1.3717
 1011SOL     OW14668   0.715   2.915   0.019  0.1465 -0.3285  0.4158
 1011SOL    HW114669   0.650   2.858   0.059 -0.1401 -1.2853 -1.4027
 1011SOL    HW214670   0.757   2.962   0.091  1.1473 -0.1927 -0.2475
 1012SOL     OW14671   1.908   3.151  10.695  0.4580  0.1645 -0.0649
 1012SOL    HW114672   1.872   3.226  10.744  1.7972  0.0490  1.1079
 1012SOL    HW214673   1.992   3.146  10.741 -0.7552 -0.4609  2.0799
 1013SOL     OW14674   4.281   0.203   4.010  0.5610 -0.0434  0.1903
 1013SOL    HW114675   4.277   0.250   4.094 -5.3663  0.7868 -0.5618
 1013SOL    HW214676   4.341   0.262   3.964  0.8528  0.8129  1.6391
 1014SOL     OW14677   4.609   3.486   9.181  0.3360  0.5052  0.7640
 1014SOL    HW114678   4.632   3.400   9.215  2.8705  0.3908 -1.2623
 1014SOL    HW214679   4.515   3.481   9.167  0.2326  0.8966  1.2807
 1015SOL     OW14680   2.741   1.604   2.923 -0.4110 -0.0414  0.6280
 1015SOL    HW114681   2.708   1.587   3.011 -0.4493  0.6247  0.7438
 1015SOL    HW214682   2.824   1.644   2.949  0.2538 -0.4128 -0.9724
 1016SOL     OW14683   0.354   3.222   5.595  0.0730 -0.3005  0.2205
 1016SOL    HW114684   0.331   3.141   5.641  0.7800 -0.6622 -0.0672
 1016SOL    HW214685   0.280   3.235   5.537  0.7202 -1.5414 -0.8769
 1017SOL     OW14686   2.887   1.743   5.806  0.4553 -0.0274 -0.0855
 1017SOL    HW114687   2.798   1.755   5.773  0.3211 -0.9238 -0.0700
 1017SOL    HW214688   2.892   1.647   5.799  1.1046 -0.1205  1.5834
 1018SOL     OW14689   3.223   3.511  14.856  0.6398  0.9230  0.3741
 1018SOL    HW114690   3.230   3.469  14.770 -3.2750 -1.7920  1.3975
 1018SOL    HW214691   3.250   3.435  14.907  0.1973 -0.8076 -1.9223
 1019SOL     OW14692   4.685   4.298   3.095  0.2236 -0.1985 -0.7998
 1019SOL    HW114693   0.020   4.300   3.158 -1.3544  0.3596  0.9490
 1019SOL    HW214694   4.628   4.358   3.143  0.0350 -1.2282  0.2520
 1020SOL     OW14695   1.448   4.058   5.196  0.4114  0.9227 -0.0622
 1020SOL    HW114696   1.442   3.974   5.241 -1.5411  1.2646  0.3142
 1020SOL    HW214697   1.533   4.091   5.226  0.0541  0.3751  1.5433
 1021SOL     OW14698   2.037   1.378   5.101  0.0587 -0.2110 -0.0148
 1021SOL    HW114699   2.086   1.355   5.022  1.4306  0.1102  0.7461
 1021SOL    HW214700   1.986   1.452   5.068 -2.6903 -1.8945  0.5051
 1022SOL     OW14701   3.755   4.577   7.250  0.2220  0.3533  0.3741
 1022SOL    HW114702   3.671   4.566   7.293 -0.5038  1.6028 -0.7233
 1022SOL    HW214703   3.745   4.670   7.228  4.5638  1.0371  1.2336
 1023SOL     OW14704   1.195   4.124  16.331 -0.7045 -0.0890  0.5587
 1023SOL    HW114705   1.224   4.127  16.422 -0.5960  0.9341  0.4949
 1023SOL    HW214706   1.237   4.043  16.302  0.8008  0.9700 -0.2532
 1024SOL     OW14707   1.362   0.724  15.289 -0.2185 -0.0372 -0.3345
 1024SOL    HW114708   1.274   0.729  15.328  0.3787 -0.6424  1.0836
 1024SOL    HW214709   1.340   0.665  15.217 -1.2008 -1.4152  1.0756
 1025SOL     OW14710   2.039   1.805  16.433 -0.1778  0.2246 -0.1649
 1025SOL    HW114711   2.064   1.719  16.399 -0.5178  0.1303 -0.1704
 1025SOL    HW214712   2.095   1.801  16.510 -0.4268 -1.6107 -0.0695
 1026SOL     OW14713   3.466   4.426   2.184  0.3741  0.1989 -0.0963
 1026SOL    HW114714   3.492   4.516   2.201 -2.4610  0.7700  1.1416
 1026SOL    HW214715   3.486   4.389   2.270 -0.4127 -2.1709 -0.9163
 1027SOL     OW14716   0.694   0.326   5.907  0.2230 -0.0852  0.1688
 1027SOL    HW114717   0.613   0.275   5.906 -1.1058  2.0418 -1.1434
 1027SOL    HW214718   0.755   0.253   5.918  0.9054  0.8107  2.2406
 1028SOL     OW14719   1.857   1.258   2.556  0.1908 -0.1655 -0.3405
 1028SOL    HW114720   1.946   1.267   2.524  0.5835 -3.0938 -0.1247
 1028SOL    HW214721   1.816   1.341   2.531  1.6305  1.4805  2.7901
 1029SOL     OW14722   1.319   1.076   6.844  0.6741 -0.2231  0.1781
 1029SOL    HW114723   1.251   1.018   6.877  0.3315 -0.2702 -0.6279
 1029SOL    HW214724   1.336   1.131   6.921 -1.7743  2.2324 -1.0389
 1030SOL     OW14725   2.523   1.383   3.101 -0.2602  0.2508  0.3778
 1030SOL    HW114726   2.437   1.409   3.069  0.1154  0.0776 -0.7570
 1030SOL    HW214727   2.511   1.295   3.136  0.4292  0.5434  1.3525
 1031SOL     OW14728   3.043   0.946   9.764 -0.0743 -0.4373 -0.5002
 1031SOL    HW114729   3.072   0.858   9.738 -0.0852 -1.0250  1.4644
 1031SOL    HW214730   3.082   1.000   9.695 -2.5605  2.5332  0.4244
 1032SOL     OW14731   0.563   2.608  13.810  0.6024 -0.3525  0.2552
 1032SOL    HW114732   0.629   2.640  13.872 -0.1065  1.5453  0.0258
 1032SOL    HW214733   0.587   2.516  13.809 -0.8820 -0.7414  0.5533
 1033SOL     OW14734   0.160   1.819  10.873  0.3494  0.0412 -0.6527
 1033SOL    HW114735   0.081   1.788  10.830  0.3204  0.4697 -0.9093
 1033SOL    HW214736   0.205   1.853  10.796  1.3063  0.5340  0.1194
 1034SOL     OW14737   1.447   3.803  17.453  0.4276  0.3017 -0.4117
 1034SOL    HW114738   1.389   3.737  17.490  1.9671 -0.8138  0.0286
 1034SOL    HW214739   1.531   3.779  17.491 -0.2366 -0.9553  0.2196
 1035SOL     OW14740   3.842   1.150   5.012  0.0859 -0.4850  0.2798
 1035SOL    HW114741   3.780   1.190   5.074  0.5663  0.2393  0.3007
 1035SOL    HW214742   3.816   1.190   4.929 -0.9193  0.2102  0.9099
 1036SOL     OW14743   1.903   0.883   5.725 -0.5218  0.3931  0.2360
 1036SOL    HW114744   1.906   0.793   5.757  1.7438  0.2322 -0.4042
 1036SOL    HW214745   1.984   0.895   5.675 -1.5210  0.2211 -1.4085
 1037SOL     OW14746   4.075   3.266  14.881  0.0796  0.2191 -0.2656
 1037SOL    HW114747   4.059   3.259  14.976  0.0520 -0.4003 -0.3110
 1037SOL    HW214748   4.024   3.188  14.858  1.5642 -0.4655 -1.2120
 1038SOL     OW14749   2.281   2.540   5.319 -0.3099  0.2496 -0.3059
 1038SOL    HW114750   2.342   2.612   5.335 -0.3598  0.2568 -0.1516
 1038SOL    HW214751   2.326   2.486   5.253 -0.1232 -0.1964  0.1850
 1039SOL     OW14752   2.043   2.849   0.927 -0.3654  0.0096 -0.0287
 1039SOL    HW114753   2.076   2.905   0.998 -0.7093  0.6114 -0.3423
 1039SOL    HW214754   2.120   2.845   0.870 -1.2421 -0.7733 -1.1574
 1040SOL     OW14755   2.242   1.696   6.036 -0.6587 -0.5539  0.4079
 1040SOL    HW114756   2.300   1.638   5.987 -2.8704 -0.5079 -2.2685
 1040SOL    HW214757   2.296   1.718   6.112 -0.7177  0.1864  0.2311
 1041SOL     OW14758   2.088   1.573   3.279 -0.0192 -0.2506  0.7242
 1041SOL    HW114759   2.049   1.628   3.347 -2.9430 -1.6854  0.1993
 1041SOL    HW214760   2.176   1.555   3.314  0.1837 -1.1381 -0.2480
 1042SOL     OW14761   1.519   0.328   8.076  0.1316 -0.7935 -0.4354
 1042SOL    HW114762   1.429   0.305   8.098  0.3096  0.4084  1.5519
 1042SOL    HW214763   1.498   0.324   7.983  1.4702 -0.7718 -0.7286
 1043SOL     OW14764   3.843   1.931   4.503 -0.4649 -0.0369 -0.6975
 1043SOL    HW114765   3.773   1.869   4.522  0.5857 -1.0137  0.0301
 1043SOL    HW214766   3.913   1.867   4.486  0.6893  1.2081 -0.6819
 1044SOL     OW14767   2.257   1.286   8.654  0.3754  0.1921 -0.0278
 1044SOL    HW114768   2.216   1.368   8.683 -1.1994 -0.9179  0.8818
 1044SOL    HW214769   2.237   1.220   8.721 -0.1385 -0.4913 -0.8546
 1045SOL     OW14770   2.206   0.499   5.924 -0.4240 -0.3634  0.2285
 1045SOL    HW114771   2.246   0.419   5.958 -1.7102 -1.1805 -0.1872
 1045SOL    HW214772   2.217   0.480   5.831 -2.1366 -1.3145  0.2300
 1046SOL     OW14773   3.781   0.889   2.769  0.0092 -0.0876  0.2239
 1046SOL    HW114774   3.859   0.839   2.743 -0.5924  0.4090 -2.4678
 1046SOL    HW214775   3.808   0.979   2.755  0.7086 -0.2912  0.2697
 1047SOL     OW14776   3.136   2.234   6.424 -0.1350 -0.1346 -0.2712
 1047SOL    HW114777   3.131   2.196   6.337  0.2811 -1.9147  0.4891
 1047SOL    HW214778   3.044   2.259   6.440 -0.0708 -0.1388  0.1182
 1048SOL     OW14779   3.752   2.269   2.493 -0.2373 -0.0807 -0.4541
 1048SOL    HW114780   3.657   2.267   2.481 -0.4940 -1.4420  1.6244
 1048SOL    HW214781   3.758   2.253   2.587  0.7895  0.7582 -0.3772
 1049SOL     OW14782   2.337   1.985   1.620  0.5097  0.5518  0.2219
 1049SOL    HW114783   2.345   2.047   1.693  0.3361  0.2258  0.5173
 1049SOL    HW214784   2.313   2.050   1.554  1.1584 -0.3719 -0.9326
 1050SOL     OW14785   1.890   4.424   9.296 -0.1923 -0.4837 -0.0779
 1050SOL    HW114786   1.835   4.440   9.373 -1.1805 -0.8767 -0.7033
 1050SOL    HW214787   1.822   4.391   9.237 -1.1730 -0.8485  1.2457
 1051SOL     OW14788   1.078   1.562   9.006 -0.0883 -0.2263 -0.1920
 1051SOL    HW114789   1.146   1.603   9.060  1.2449 -1.8665 -0.5990
 1051SOL    HW214790   1.003   1.582   9.062 -0.0300 -0.2065 -0.1213
 1052SOL     OW14791   0.898   4.129  15.083 -0.1141 -0.3130  0.6036
 1052SOL    HW114792   0.931   4.218  15.099  0.9142 -0.4568 -0.7823
 1052SOL    HW214793   0.814   4.129  15.129 -0.8986 -2.4563 -0.8713
 1053SOL     OW14794   0.424   2.335   7.547 -0.5023 -0.1173 -0.2177
 1053SOL    HW114795   0.362   2.383   7.492 -1.3610 -0.9696  0.0177
 1053SOL    HW214796   0.370   2.260   7.571 -2.3104  1.0706 -0.5570
 1054SOL     OW14797   2.430   4.253   5.889  0.3517 -0.0922 -0.3025
 1054SOL    HW114798   2.390   4.323   5.839 -1.9566 -1.1366  0.0643
 1054SOL    HW214799   2.464   4.300   5.966  1.1337  1.4309 -1.5917
 1055SOL     OW14800   0.451   2.203   7.276 -0.0521 -0.5271 -0.2879
 1055SOL    HW114801   0.408   2.210   7.361 -0.8501 -0.0346 -0.7300
 1055SOL    HW214802   0.464   2.108   7.276 -2.0670 -0.8096 -0.1036
 1056SOL     OW14803   1.536   2.150   4.687 -0.6000  0.1385 -0.4275
 1056SOL    HW114804   1.576   2.236   4.681  0.9655 -0.7922 -3.1195
 1056SOL    HW214805   1.557   2.111   4.602  1.4666  0.8891 -0.2482
 1057SOL     OW14806   1.357   0.710   2.849  0.0363  0.1026  0.2353
 1057SOL    HW114807   1.387   0.663   2.771 -0.6907 -1.1704  0.7188
 1057SOL    HW214808   1.402   0.794   2.846  1.8448 -0.9091 -0.6115
 1058SOL     OW14809   0.819   1.417   5.641 -0.6110 -0.0871 -0.4660
 1058SOL    HW114810   0.762   1.382   5.573 -0.4664 -1.8999  0.3404
 1058SOL    HW214811   0.889   1.432   5.578 -0.1641 -0.2404 -0.0082
 1059SOL     OW14812   3.521   4.277  15.528  0.5601 -0.3253 -0.2882
 1059SOL    HW114813   3.454   4.319  15.474  2.2083  2.3072 -0.2812
 1059SOL    HW214814   3.477   4.274  15.612 -0.5175  0.8086 -0.8126
 1060SOL     OW14815   4.315   0.707  16.559  0.3864  0.1511  0.3547
 1060SOL    HW114816   4.285   0.788  16.601  0.7712  0.7065 -0.4450
 1060SOL    HW214817   4.372   0.661  16.620  1.6071  1.2075  0.0143
 1061SOL     OW14818   3.386   1.788   9.648  0.1846 -0.0151 -0.1115
 1061SOL    HW114819   3.412   1.711   9.598  0.0170  0.3386 -0.7587
 1061SOL    HW214820   3.463   1.795   9.704  2.3688  1.2453 -3.2186
 1062SOL     OW14821   1.672   3.737  17.596 -0.7939 -0.1705  0.2393
 1062SOL    HW114822   1.662   3.741  17.691  2.4153  1.1677  0.5340
 1062SOL    HW214823   1.767   3.752  17.597 -0.6154 -1.3740  1.0284
 1063SOL     OW14824   1.331   1.285   3.948 -0.6112 -0.1185  0.0562
 1063SOL    HW114825   1.283   1.337   4.011  0.6866  0.7045  0.3723
 1063SOL    HW214826   1.416   1.282   3.992 -0.1387  0.1080 -0.8355
 1064SOL     OW14827   0.123   1.071   7.698  0.6633  0.0598 -0.6574
 1064SOL    HW114828   0.077   0.995   7.663  1.2347 -0.6376  0.0865
 1064SOL    HW214829   0.214   1.041   7.708  0.9981  0.9413 -1.0291
 1065SOL     OW14830   4.149   3.959   2.346 -0.1819  0.1835  0.2292
 1065SOL    HW114831   4.111   4.040   2.377 -0.0294  1.0378 -1.8518
 1065SOL    HW214832   4.207   3.997   2.280 -0.8629 -0.5140 -0.7749
 1066SOL     OW14833   0.571   1.152   0.949  0.3326 -0.0176 -0.1787
 1066SOL    HW114834   0.507   1.209   0.907  0.1843 -1.1985 -1.5461
 1066SOL    HW214835   0.518   1.148   1.029  1.2202 -1.6028  0.3414
 1067SOL     OW14836   4.128   3.605   6.104  0.0498 -0.4159  0.1644
 1067SOL    HW114837   4.086   3.631   6.186  2.4923  2.0552  0.6617
 1067SOL    HW214838   4.217   3.582   6.130  0.3620  1.6481  0.9110
 1068SOL     OW14839   1.110   0.497   0.486  0.1772 -0.3634 -0.3426
 1068SOL    HW114840   1.123   0.552   0.409  0.0432 -1.8533 -1.4348
 1068SOL    HW214841   1.093   0.413   0.443  0.5241  0.0189 -1.2086
 1069SOL     OW14842   1.894   1.139  15.990 -0.6079  0.2557  0.4200
 1069SOL    HW114843   1.932   1.080  15.925 -0.5003 -0.2529  0.9417
 1069SOL    HW214844   1.867   1.212  15.934  0.8792 -0.4942 -1.2844
 1070SOL     OW14845   2.249   1.744   2.528  0.2473  0.0653 -0.7699
 1070SOL    HW114846   2.237   1.821   2.473 -0.1817  0.7251  0.2526
 1070SOL    HW214847   2.333   1.758   2.572  0.5215 -0.8800 -0.9912
 1071SOL     OW14848   4.707   0.516   5.314  0.0840 -0.6101 -0.2117
 1071SOL    HW114849   4.631   0.486   5.265  0.7673 -1.1946 -0.9081
 1071SOL    HW214850   4.666   0.555   5.392  1.7684 -1.2189  0.9771
 1072SOL     OW14851   2.632   2.939  11.579  0.1232  0.3215  0.7010
 1072SOL    HW114852   2.607   2.872  11.642  1.1876  1.0913  1.9457
 1072SOL    HW214853   2.624   3.023  11.625 -0.5687  0.1066  0.9728
 1073SOL     OW14854   4.335   1.049  16.039  0.3257  0.3141 -0.0040
 1073SOL    HW114855   4.295   0.962  16.045  2.3583 -0.6448 -0.3236
 1073SOL    HW214856   4.427   1.023  16.045  0.2547 -0.1121 -0.7333
 1074SOL     OW14857   3.829   0.634  13.991 -0.9035  0.2311  0.2304
 1074SOL    HW114858   3.842   0.717  14.038 -3.1883  2.1706 -2.5329
 1074SOL    HW214859   3.922   0.615  13.979 -0.6245  0.8142  1.3858
 1075SOL     OW14860   0.742   4.661  14.943 -1.1446 -0.2577  0.0732
 1075SOL    HW114861   0.678   4.693  14.880  0.4101  2.0872 -0.2978
 1075SOL    HW214862   0.821   4.703  14.908 -0.3266 -0.2372  1.9612
 1076SOL     OW14863   2.845   3.011   8.838 -0.1495  0.2918 -0.0853
 1076SOL    HW114864   2.925   3.001   8.890  0.5844 -1.9610 -1.6307
 1076SOL    HW214865   2.776   3.010   8.905  0.8477  0.6875  0.9568
 1077SOL     OW14866   2.451   2.587   6.566  0.7222  0.6342 -0.2637
 1077SOL    HW114867   2.405   2.619   6.644 -0.7712 -1.7423 -0.1946
 1077SOL    HW214868   2.413   2.639   6.495  1.1114 -0.1897 -1.0717
 1078SOL     OW14869   1.792   0.457  13.185  0.1797  0.0266 -0.1999
 1078SOL    HW114870   1.712   0.481  13.139  0.8105 -1.6021 -2.1442
 1078SOL    HW214871   1.842   0.535  13.161  1.2494 -1.3231 -2.4269
 1079SOL     OW14872   4.605   4.033  10.936 -0.3227  0.2745  0.4451
 1079SOL    HW114873   4.621   4.114  10.888 -0.7339  0.4070  0.5296
 1079SOL    HW214874   4.595   4.063  11.026  0.8086 -1.2087  1.0648
 1080SOL     OW14875   0.994   1.494   5.430 -0.0277  0.1021 -0.4467
 1080SOL    HW114876   1.063   1.523   5.371  1.1911 -2.5336 -0.2683
 1080SOL    HW214877   0.968   1.413   5.387 -3.0638  1.6565 -1.5614
 1081SOL     OW14878   1.723   2.955   3.354  0.3732 -0.3054 -0.2154
 1081SOL    HW114879   1.650   2.998   3.399  0.4223  0.6568 -1.0638
 1081SOL    HW214880   1.797   3.009   3.381 -0.4946  0.9165 -0.2989
 1082SOL     OW14881   2.680   2.437  17.074 -0.7408  0.8158  0.3137
 1082SOL    HW114882   2.693   2.364  17.134  2.5607 -0.2363 -1.6323
 1082SOL    HW214883   2.619   2.498  17.116 -0.1830  1.0058  0.8584
 1083SOL     OW14884   2.543   3.736   3.693 -0.4833 -0.5074  0.1329
 1083SOL    HW114885   2.634   3.707   3.686  0.0200  0.8762  0.8247
 1083SOL    HW214886   2.511   3.727   3.603  0.3856 -0.0589 -0.2202
 1084SOL     OW14887   1.342   0.443   9.378  0.8656  0.1781 -0.1616
 1084SOL    HW114888   1.349   0.443   9.474 -2.2155  0.3754  0.0686
 1084SOL    HW214889   1.247   0.446   9.365  0.8787 -1.6806 -0.6985
 1085SOL     OW14890   2.585   0.350   2.693 -0.0390  0.3142 -0.3268
 1085SOL    HW114891   2.502   0.387   2.665 -0.0471  1.4056  1.1358
 1085SOL    HW214892   2.630   0.329   2.611  0.8221  0.1402  0.1798
 1086SOL     OW14893   1.858   1.013  14.762 -0.3957  0.2214  0.0308
 1086SOL    HW114894   1.857   1.004  14.857  0.5011  0.4735  0.0644
 1086SOL    HW214895   1.777   1.062  14.747 -2.2595 -2.2899  2.0589
 1087SOL     OW14896   4.248   1.581  11.376  0.0449  0.3923 -0.1685
 1087SOL    HW114897   4.262   1.487  11.387  2.2120  0.4744 -2.3083
 1087SOL    HW214898   4.310   1.601  11.305  0.7960 -0.6241  0.2039
 1088SOL     OW14899   2.834   4.032   5.456 -0.4294 -0.0598  0.0375
 1088SOL    HW114900   2.761   4.092   5.441  1.0380  1.8345  0.6282
 1088SOL    HW214901   2.802   3.957   5.406  1.6700 -0.2390 -1.0313
 1089SOL     OW14902   2.364   1.562   8.466  0.1877 -0.4030 -0.3244
 1089SOL    HW114903   2.414   1.485   8.439  1.0602  0.0273  0.0582
 1089SOL    HW214904   2.429   1.628   8.440  1.2711 -0.4259  2.2865
 1090SOL     OW14905   3.460   3.938   4.353 -0.6606  0.0330  0.2891
 1090SOL    HW114906   3.466   3.865   4.414 -0.2094  0.8116  1.1550
 1090SOL    HW214907   3.551   3.964   4.343 -0.5274  0.2664  2.1560
 1091SOL     OW14908   3.780   3.951   6.703  0.3216 -0.1151  0.2611
 1091SOL    HW114909   3.762   3.983   6.615  0.5183  0.2359  0.3492
 1091SOL    HW214910   3.703   3.978   6.752 -0.7946 -1.0177 -0.9920
 1092SOL     OW14911   2.223   0.537   5.641 -0.0297 -0.1712  0.4040
 1092SOL    HW114912   2.257   0.623   5.668  0.7224  0.1482 -1.5533
 1092SOL    HW214913   2.249   0.532   5.549  1.7615  1.3015  0.8169
 1093SOL     OW14914   2.035   0.727   9.242 -0.5047  0.3889  0.2908
 1093SOL    HW114915   2.000   0.776   9.168 -2.4648 -0.6543  0.5363
 1093SOL    HW214916   1.958   0.695   9.289 -0.3938  3.2864  2.4284
 1094SOL     OW14917   2.631   0.955   7.454  0.4595 -0.2296 -0.2245
 1094SOL    HW114918   2.599   0.893   7.389 -0.1654 -0.6998  0.5426
 1094SOL    HW214919   2.723   0.929   7.462  0.4763  0.0348  0.4218
 1095SOL     OW14920   2.103   3.786  16.355  0.1677  0.8786 -0.6888
 1095SOL    HW114921   2.079   3.698  16.325  1.5948 -0.2625  1.5522
 1095SOL    HW214922   2.020   3.834  16.350 -0.4317 -0.0742  0.2417
 1096SOL     OW14923   3.497   3.732   6.706  0.4601  0.2505 -0.0480
 1096SOL    HW114924   3.574   3.739   6.649  1.2015 -1.3776  0.7763
 1096SOL    HW214925   3.469   3.643   6.686  2.5375 -0.5705  0.6578
 1097SOL     OW14926   0.921   2.678   5.192 -0.3269  0.1829 -0.0086
 1097SOL    HW114927   0.972   2.602   5.163 -0.7603  0.3959 -1.3260
 1097SOL    HW214928   0.837   2.647   5.161  0.2567 -1.7354  0.3316
 1098SOL     OW14929   4.727   3.181   1.777  0.8023  0.2802 -0.3628
 1098SOL    HW114930   0.010   3.175   1.871 -1.0473  1.4417  0.0985
 1098SOL    HW214931   0.057   3.118   1.749  2.4984  0.4858  3.0981
 1099SOL     OW14932   3.056   2.371  16.890 -0.2358  0.3313  0.0622
 1099SOL    HW114933   2.997   2.444  16.871 -0.2575  0.3004  0.0092
 1099SOL    HW214934   3.135   2.380  16.838  0.5315  1.3333  1.4169
 1100SOL     OW14935   4.168   2.825  12.727 -0.6495  0.5179  0.2766
 1100SOL    HW114936   4.110   2.750  12.741  0.7928 -0.2676  2.0551
 1100SOL    HW214937   4.216   2.804  12.647  0.3201 -0.7016  1.1912
 1101SOL     OW14938   2.599   1.022   6.017 -0.0166 -0.2166 -0.2271
 1101SOL    HW114939   2.598   1.107   6.062  2.1820  0.0465 -0.6689
 1101SOL    HW214940   2.597   0.971   6.098  0.2932 -2.6583 -1.7609
 1102SOL     OW14941   3.249   3.572   1.725  0.1785 -1.0691  0.0132
 1102SOL    HW114942   3.266   3.659   1.760 -1.3142 -0.3879 -0.9341
 1102SOL    HW214943   3.326   3.549   1.674 -0.3832  0.8579 -1.6954
 1103SOL     OW14944   0.484   0.874   4.642  0.7220 -0.0052 -0.1641
 1103SOL    HW114945   0.484   0.822   4.562 -2.1901  0.3285 -0.3684
 1103SOL    HW214946   0.428   0.824   4.702 -0.9581 -0.8431 -2.4532
 1104SOL     OW14947   1.346   2.540   3.499 -0.5219 -0.1487  0.2002
 1104SOL    HW114948   1.374   2.612   3.556 -0.8525 -0.1031  0.3009
 1104SOL    HW214949   1.334   2.569   3.409 -2.3948 -1.2436  0.1008
 1105SOL     OW14950   2.138   3.527   2.579  0.7150  0.1040 -0.6113
 1105SOL    HW114951   2.215   3.578   2.602  2.5963 -3.1638  0.4323
 1105SOL    HW214952   2.149   3.444   2.626 -1.1092 -1.0858 -2.2880
 1106SOL     OW14953   3.473   3.641  11.854  0.3165  0.0929 -0.0349
 1106SOL    HW114954   3.469   3.620  11.761 -3.9585  1.3174 -0.1257
 1106SOL    HW214955   3.436   3.729  11.849  2.6460  1.0358 -0.9281
 1107SOL     OW14956   2.385   1.483   8.967 -0.0611 -0.2695  0.2003
 1107SOL    HW114957   2.372   1.426   9.042  0.8130  0.7700  1.1498
 1107SOL    HW214958   2.467   1.518   9.001 -0.4636 -0.7188  1.6265
 1108SOL     OW14959   3.013   1.953   2.259  0.0720  0.4302  0.0513
 1108SOL    HW114960   2.936   2.011   2.258 -1.2723 -1.3665  0.3812
 1108SOL    HW214961   3.057   1.960   2.343 -0.6183 -0.9055  0.5117
 1109SOL     OW14962   0.318   1.162   7.980  0.0259  0.3566  0.2995
 1109SOL    HW114963   0.326   1.096   8.049  0.1311 -2.0247 -2.0085
 1109SOL    HW214964   0.349   1.107   7.909 -1.5274  1.7554 -1.4548
 1110SOL     OW14965   0.207   3.744   6.969  0.5102 -0.4065 -0.2323
 1110SOL    HW114966   0.120   3.784   6.969  1.8527  2.5308 -0.9881
 1110SOL    HW214967   0.210   3.718   7.061  3.4222 -1.5222 -0.6168
 1111SOL     OW14968   3.598   0.687   0.106 -0.4028 -0.0632  0.2981
 1111SOL    HW114969   3.633   0.679   0.194  0.1977  1.2463  0.1770
 1111SOL    HW214970   3.596   0.783   0.111  1.2538  0.0579 -1.1969
 1112SOL     OW14971   1.346   3.970   2.695 -0.2007 -0.6481 -0.2725
 1112SOL    HW114972   1.339   3.965   2.791  0.9233 -0.8434 -0.1935
 1112SOL    HW214973   1.266   4.018   2.679  1.6903  2.3100 -0.7896
 1113SOL     OW14974   4.003   0.535   2.219 -0.0710 -0.4407  0.2497
 1113SOL    HW114975   3.980   0.576   2.136  2.0311  2.1253  0.9338
 1113SOL    HW214976   4.078   0.482   2.194 -1.0862 -2.1464  0.8236
 1114SOL     OW14977   2.008   2.393   4.050  0.4941 -0.6852 -0.3958
 1114SOL    HW114978   1.941   2.359   3.990  1.7751 -0.6425 -1.8394
 1114SOL    HW214979   1.965   2.404   4.135 -1.5402  0.1607 -1.5445
 1115SOL     OW14980   0.657   1.070   0.339  0.1663  0.0586  0.0024
 1115SOL    HW114981   0.599   1.082   0.414 -1.8664 -0.8799 -1.4287
 1115SOL    HW214982   0.636   1.143   0.281 -1.7942 -2.1795 -2.1152
 1116SOL     OW14983   3.454   0.545  12.143 -0.0496 -0.2079  0.5098
 1116SOL    HW114984   3.530   0.505  12.185 -0.1719 -0.8491  0.1187
 1116SOL    HW214985   3.405   0.463  12.136 -0.9942  0.0365  4.1265
 1117SOL     OW14986   4.377   0.754   5.342 -0.4191  0.1142  0.6066
 1117SOL    HW114987   4.468   0.757   5.311 -0.6556  0.3876 -0.0605
 1117SOL    HW214988   4.331   0.788   5.265  1.0655  0.7841  0.0102
 1118SOL     OW14989   3.856   2.725   3.404 -0.3080  0.1440  0.6843
 1118SOL    HW114990   3.786   2.685   3.456  0.3230 -1.9922 -0.0966
 1118SOL    HW214991   3.931   2.699   3.457 -0.7325  0.1541  1.2856
 1119SOL     OW14992   3.482   0.975   3.908  0.4072 -0.1494  0.2104
 1119SOL    HW114993   3.551   0.951   3.847 -0.1490 -4.0163  1.1109
 1119SOL    HW214994   3.519   1.046   3.961  0.7915 -0.8291  0.8627
 1120SOL     OW14995   3.605   2.529   6.570  0.1041  0.0955  0.3871
 1120SOL    HW114996   3.653   2.600   6.526 -2.6296  0.2311 -2.4152
 1120SOL    HW214997   3.546   2.581   6.624 -1.6421 -1.9782  0.4357
 1121SOL     OW14998   4.379   2.784  16.857 -0.2946 -0.4104 -0.1331
 1121SOL    HW114999   4.301   2.768  16.805 -1.3120 -2.8100  2.1776
 1121SOL    HW215000   4.440   2.836  16.803 -0.1308 -0.8508 -0.3739
 1122SOL     OW15001   2.486   2.890   2.364 -0.0437 -0.5646  0.0380
 1122SOL    HW115002   2.561   2.937   2.326 -1.6220  1.9464  0.0504
 1122SOL    HW215003   2.520   2.887   2.453  1.3524  2.3441 -0.3919
 1123SOL     OW15004   1.503   4.269  12.345 -0.2774  0.5671 -0.7821
 1123SOL    HW115005   1.457   4.333  12.290 -0.3888 -1.3516 -2.9358
 1123SOL    HW215006   1.584   4.320  12.338 -0.7022  1.4627  1.0561
 1124SOL     OW15007   3.140   0.411   7.555  0.1755 -0.3757 -0.4964
 1124SOL    HW115008   3.058   0.459   7.563  1.1352  0.8629  1.9155
 1124SOL    HW215009   3.188   0.488   7.526  0.6751 -0.3761  0.3180
 1125SOL     OW15010   1.595   2.690   9.790 -0.4259 -0.0841 -0.6993
 1125SOL    HW115011   1.594   2.604   9.832  0.7360  0.2994  0.1182
 1125SOL    HW215012   1.559   2.748   9.857  1.6300  0.4119 -0.0154
 1126SOL     OW15013   0.368   3.356  10.349  0.1876 -0.3745 -0.0628
 1126SOL    HW115014   0.391   3.301  10.424  1.4633  0.4825  0.1836
 1126SOL    HW215015   0.430   3.428  10.342  1.4648 -1.3561  1.2032
 1127SOL     OW15016   1.301   0.184  10.758 -0.9385 -0.0665 -0.4189
 1127SOL    HW115017   1.270   0.152  10.842 -0.7955 -0.4361 -0.5075
 1127SOL    HW215018   1.214   0.210  10.727 -1.4305 -2.2841 -0.9417
 1128SOL     OW15019   2.356   3.883  15.638  0.5129  0.1389 -0.0024
 1128SOL    HW115020   2.415   3.904  15.566 -0.8529 -0.5440 -1.3352
 1128SOL    HW215021   2.322   3.797  15.613 -0.0548  0.5825 -0.7691
 1129SOL     OW15022   3.480   4.554  10.421  0.1992  0.4796 -0.1448
 1129SOL    HW115023   3.475   4.504  10.503 -1.8021  1.4432  0.3065
 1129SOL    HW215024   3.574   4.552  10.405  0.2691 -1.7553  0.5326
 1130SOL     OW15025   0.752   3.977   1.971 -0.1716 -0.0133 -0.3767
 1130SOL    HW115026   0.741   3.940   2.059 -1.7216 -0.6938 -0.8631
 1130SOL    HW215027   0.746   3.895   1.921  2.1283 -0.2403 -0.2956
 1131SOL     OW15028   1.240   2.133   5.041 -0.1296 -0.1484 -0.1837
 1131SOL    HW115029   1.330   2.110   5.063 -0.4848 -1.5327 -0.1497
 1131SOL    HW215030   1.208   2.118   5.130  2.1513 -0.6250  0.5636
 1132SOL     OW15031   2.471   1.062   5.286  0.0682  0.6204 -0.5530
 1132SOL    HW115032   2.398   1.115   5.255 -1.0205  0.8421  2.4123
 1132SOL    HW215033   2.532   1.135   5.292  0.0962  0.6900 -1.6537
 1133SOL     OW15034   0.118   3.551   2.462 -0.0366  0.5536  0.4300
 1133SOL    HW115035   0.074   3.515   2.385 -2.6996  0.9433  1.7677
 1133SOL    HW215036   0.099   3.644   2.450  0.5163  0.9339  2.5354
 1134SOL     OW15037   0.507   3.154   6.212 -0.4461 -0.2304 -0.1652
 1134SOL    HW115038   0.539   3.164   6.301 -0.0114 -1.0416 -0.2384
 1134SOL    HW215039   0.591   3.139   6.168 -0.3591  0.7493 -0.3345
 1135SOL     OW15040   0.553   3.609  12.210  0.5450 -0.0131  0.0722
 1135SOL    HW115041   0.493   3.636  12.280 -2.6462 -2.9791 -1.5323
 1135SOL    HW215042   0.530   3.517  12.196  0.7237 -0.3420  1.8963
 1136SOL     OW15043   3.306   2.985   7.546  0.1507  0.0279  0.5826
 1136SOL    HW115044   3.232   2.984   7.607 -0.8568  5.8092 -0.5757
 1136SOL    HW215045   3.345   2.902   7.574 -0.6258  0.2944  2.4748
 1137SOL     OW15046   0.929   4.469   5.946 -0.2903  0.2730  0.3624
 1137SOL    HW115047   0.923   4.385   5.901 -1.6442  0.9781 -0.7853
 1137SOL    HW215048   1.015   4.502   5.919 -1.5787  2.9465 -0.5096
 1138SOL     OW15049   0.660   0.149   2.737  0.4707  0.3085 -0.6213
 1138SOL    HW115050   0.736   0.118   2.786  1.3970  1.3660 -1.3963
 1138SOL    HW215051   0.607   0.070   2.749  0.1824  0.5903 -0.0404
 1139SOL     OW15052   2.014   3.635   7.287 -0.1598  0.3016  0.5085
 1139SOL    HW115053   2.068   3.563   7.318 -0.9761 -0.0099  1.1863
 1139SOL    HW215054   1.935   3.624   7.340 -1.7856  1.7936 -1.6000
 1140SOL     OW15055   3.123   0.193   8.613 -0.8489  0.9404  0.1354
 1140SOL    HW115056   3.058   0.264   8.621 -2.0392  0.0111 -1.3567
 1140SOL    HW215057   3.117   0.200   8.518  0.8552  0.3074 -0.0225
 1141SOL     OW15058   4.127   0.744   3.077 -0.8297 -0.3718  0.2878
 1141SOL    HW115059   4.162   0.752   3.166  0.7315  1.8634 -0.5090
 1141SOL    HW215060   4.039   0.714   3.098 -0.8194 -1.3498 -1.1214
 1142SOL     OW15061   3.156   0.658  11.646 -0.0091  0.1706  0.2069
 1142SOL    HW115062   3.091   0.713  11.602  0.2526 -0.7841 -1.3620
 1142SOL    HW215063   3.105   0.594  11.695 -0.9687  1.1347  0.4733
 1143SOL     OW15064   1.396   0.260  17.655 -0.3536 -0.3735 -0.7514
 1143SOL    HW115065   1.427   0.178  17.616  0.0098  0.6218 -2.5905
 1143SOL    HW215066   1.381   0.324  17.585  1.2148  0.6785 -0.1380
 1144SOL     OW15067   4.062   0.197  17.507  0.3099  0.4354 -0.0288
 1144SOL    HW115068   3.974   0.231  17.497  0.8623  1.5777 -1.0153
 1144SOL    HW215069   4.108   0.281  17.504  2.3934 -0.7008  0.0080
 1145SOL     OW15070   2.486   4.611   7.337  0.4792 -0.1067 -0.8333
 1145SOL    HW115071   2.434   4.534   7.313 -3.0978  1.5064  1.6742
 1145SOL    HW215072   2.418   4.676   7.354 -2.1498 -2.7809 -1.1596
 1146SOL     OW15073   4.499   4.107  11.188 -0.3554 -0.3168  0.4991
 1146SOL    HW115074   4.504   4.199  11.215 -1.3768 -0.1161  0.0216
 1146SOL    HW215075   4.501   4.067  11.275  0.2143 -2.6003 -0.5714
 1147SOL     OW15076   2.606   0.598   8.177 -0.4859 -0.7062 -0.2448
 1147SOL    HW115077   2.684   0.650   8.156 -0.8729  0.9304  2.3387
 1147SOL    HW215078   2.548   0.619   8.103 -0.6086  2.6842  0.7938
 1148SOL     OW15079   2.703   1.521  12.566 -0.3870 -0.5552 -0.0200
 1148SOL    HW115080   2.761   1.446  12.576  0.2247 -0.2404 -1.1399
 1148SOL    HW215081   2.630   1.488  12.514  0.0874  0.9268 -1.6281
 1149SOL     OW15082   4.224   3.495   7.816  0.4689 -0.4139  0.7678
 1149SOL    HW115083   4.144   3.500   7.763 -1.0252  1.3529  3.1633
 1149SOL    HW215084   4.229   3.401   7.832 -2.8748 -0.6954  0.2968
 1150SOL     OW15085   4.043   4.064   8.323  0.0452 -0.2172  0.6160
 1150SOL    HW115086   4.129   4.107   8.319 -0.4678  0.9012  1.3665
 1150SOL    HW215087   3.994   4.129   8.374  1.2840  0.8642  0.4417
 1151SOL     OW15088   2.107   0.284   7.488  0.4705  0.1734 -0.2068
 1151SOL    HW115089   2.090   0.254   7.577 -0.3729 -2.5996 -1.2691
 1151SOL    HW215090   2.063   0.369   7.495 -0.6248 -0.5698  1.9959
 1152SOL     OW15091   0.057   1.213   0.245  0.4193 -0.1691  0.3729
 1152SOL    HW115092   0.009   1.275   0.300 -0.4215  1.1677 -1.8214
 1152SOL    HW215093   4.722   1.175   0.194  1.2997 -0.2504 -0.7916
 1153SOL     OW15094   2.660   1.787  11.855  0.2880  0.4523 -0.1050
 1153SOL    HW115095   2.626   1.808  11.769  1.6948 -0.7303 -0.9483
 1153SOL    HW215096   2.614   1.855  11.904  0.3927  1.5944 -1.6238
 1154SOL     OW15097   1.960   4.614   7.719 -0.3566  0.0675  0.5267
 1154SOL    HW115098   1.955   4.545   7.785  0.7407 -1.1679 -0.6788
 1154SOL    HW215099   2.053   4.616   7.700 -0.4848  0.7867 -0.0326
 1155SOL     OW15100   3.774   4.532  10.476 -0.7309  0.0162  0.1726
 1155SOL    HW115101   3.832   4.484  10.417  0.4845  1.0034  0.5733
 1155SOL    HW215102   3.786   4.627  10.473 -0.8124 -0.0387 -2.0754
 1156SOL     OW15103   4.696   2.734  10.013 -0.1153  0.6059  0.2796
 1156SOL    HW115104   4.706   2.687  10.096 -2.3113 -0.6353 -0.1556
 1156SOL    HW215105   0.016   2.685   9.953  3.5284  0.6336  3.6278
 1157SOL     OW15106   0.802   4.415   1.871  0.2304  0.0802  0.1917
 1157SOL    HW115107   0.771   4.384   1.786 -1.9333 -0.5987  1.2340
 1157SOL    HW215108   0.850   4.342   1.911  0.4830  0.3711  0.4192
 1158SOL     OW15109   4.063   2.222   2.820 -0.1140  0.1113 -0.2521
 1158SOL    HW115110   4.140   2.268   2.785  0.1014 -0.7103 -0.8563
 1158SOL    HW215111   4.094   2.132   2.828  0.0849  0.2531  0.5834
 1159SOL     OW15112   1.534   0.603   4.870  0.2931  0.3102 -0.1301
 1159SOL    HW115113   1.524   0.540   4.942 -0.5243 -0.8965 -1.2897
 1159SOL    HW215114   1.508   0.673   4.929  0.6485 -0.8486  1.4000
 1160SOL     OW15115   0.589   1.013  11.400  0.2539  0.2674  0.2998
 1160SOL    HW115116   0.529   0.974  11.463 -1.6066  0.0109 -1.6162
 1160SOL    HW215117   0.673   1.017  11.445  0.8423  2.7492 -1.0075
 1161SOL     OW15118   0.213   4.018   8.129 -0.7701  0.3790 -1.0639
 1161SOL    HW115119   0.263   4.040   8.208 -0.8162  1.2349 -1.2766
 1161SOL    HW215120   0.207   3.923   8.132 -0.3624  0.3683 -0.6185
 1162SOL     OW15121   3.894   3.423  10.731 -0.1507 -0.0471 -0.5340
 1162SOL    HW115122   3.802   3.430  10.757  0.4320  2.0361  0.9032
 1162SOL    HW215123   3.891   3.453  10.640  1.6761  1.8111  0.0346
 1163SOL     OW15124   4.623   3.428  14.567  0.1449 -0.2094 -0.0386
 1163SOL    HW115125   4.661   3.511  14.596 -1.9273  0.5854  0.3619
 1163SOL    HW215126   4.690   3.366  14.597 -0.2020 -0.2002  0.7296
 1164SOL     OW15127   4.628   0.881   3.817  0.2496  0.3450 -0.0010
 1164SOL    HW115128   4.673   0.940   3.877  1.1996 -1.4235  1.0271
 1164SOL    HW215129   4.541   0.900   3.853 -0.4259 -5.6224  1.5616
 1165SOL     OW15130   0.709   0.508   8.082 -0.1852 -0.3815  0.4794
 1165SOL    HW115131   0.626   0.477   8.047 -1.1295 -0.0459  2.4528
 1165SOL    HW215132   0.762   0.430   8.062 -2.1950 -1.7025  0.3522
 1166SOL     OW15133   3.781   2.744  16.877 -0.5515  0.3343 -0.1013
 1166SOL    HW115134   3.806   2.816  16.935  2.0655  1.5494 -2.7523
 1166SOL    HW215135   3.837   2.669  16.899 -0.0967  0.0362 -2.3238
 1167SOL     OW15136   3.555   3.906   6.293  0.0617 -0.3176 -0.0041
 1167SOL    HW115137   3.572   3.931   6.203  2.4043 -0.2187  0.4867
 1167SOL    HW215138   3.496   3.977   6.319  1.0342 -0.7629  3.4880
 1168SOL     OW15139   2.603   0.545  16.417  0.2333  0.1603  0.3728
 1168SOL    HW115140   2.617   0.621  16.473  0.0806  0.2785  0.2495
 1168SOL    HW215141   2.683   0.546  16.363  0.1529 -0.3502  0.2392
 1169SOL     OW15142   2.006   0.624   1.700 -0.9061 -0.1564  0.3753
 1169SOL    HW115143   1.917   0.611   1.667 -0.7661 -3.2480  1.2081
 1169SOL    HW215144   2.058   0.621   1.620 -0.1796 -0.5768  0.8700
 1170SOL     OW15145   3.365   1.601   1.995 -0.0488  0.6011  0.3414
 1170SOL    HW115146   3.371   1.530   1.931 -1.3141  1.6492 -0.9561
 1170SOL    HW215147   3.311   1.671   1.958 -0.0539  0.3237 -0.1731
 1171SOL     OW15148   1.083   0.177  11.531  0.3743 -0.4072 -0.0135
 1171SOL    HW115149   1.057   0.245  11.469  1.0704 -1.3500 -1.3376
 1171SOL    HW215150   1.032   0.100  11.505 -0.9734  0.8746 -1.2031
 1172SOL     OW15151   4.584   3.459   2.364  0.1892 -0.1485  0.5484
 1172SOL    HW115152   4.575   3.491   2.454 -0.6054  3.2879 -0.7524
 1172SOL    HW215153   4.595   3.364   2.371  1.3561 -0.0252  0.2801
 1173SOL     OW15154   0.468   2.945  16.822 -0.0028  0.1472 -0.5030
 1173SOL    HW115155   0.419   2.915  16.898 -0.2050 -1.2226 -1.1747
 1173SOL    HW215156   0.527   2.873  16.801  0.5260  0.2550  0.6399
 1174SOL     OW15157   1.414   3.414   3.776 -0.1501 -0.0314  0.1719
 1174SOL    HW115158   1.425   3.477   3.847 -2.0671  0.5710 -0.0563
 1174SOL    HW215159   1.344   3.460   3.730  0.9765  0.1003 -1.4163
 1175SOL     OW15160   3.327   2.057   5.515  0.1153 -0.8376  0.1902
 1175SOL    HW115161   3.301   2.074   5.425 -5.7854 -0.2456  1.9782
 1175SOL    HW215162   3.238   2.045   5.550 -1.2015 -1.3071 -3.3226
 1176SOL     OW15163   3.537   2.895   9.523 -0.0594 -0.5023 -0.0897
 1176SOL    HW115164   3.547   2.971   9.466 -0.0690 -0.1393  0.3882
 1176SOL    HW215165   3.441   2.890   9.523 -0.1997  2.6374 -0.2123
 1177SOL     OW15166   0.741   2.532   4.427  0.0162  0.3670 -0.0326
 1177SOL    HW115167   0.690   2.491   4.496 -1.6344  1.5421 -0.5520
 1177SOL    HW215168   0.693   2.516   4.346 -0.5760  1.4216  0.1068
 1178SOL     OW15169   3.316   4.727  10.306  0.5210 -0.3541  0.4271
 1178SOL    HW115170   3.229   4.692  10.326 -0.1946  2.0400  1.5469
 1178SOL    HW215171   3.377   4.661  10.337 -0.9286 -1.0751  1.7896
 1179SOL     OW15172   1.866   0.780  14.400  0.0987 -0.4690  0.4699
 1179SOL    HW115173   1.802   0.805  14.333  1.6217 -0.2323 -0.8893
 1179SOL    HW215174   1.944   0.806  14.351  0.4842 -2.1008  0.2256
 1180SOL     OW15175   4.272   3.128  15.665  0.6558 -0.5397  0.2045
 1180SOL    HW115176   4.266   3.190  15.738  0.5180 -1.9153  1.3754
 1180SOL    HW215177   4.351   3.083  15.696 -0.4374 -1.3771  1.7572
 1181SOL     OW15178   2.333   3.326  17.378  0.5311  0.2598  0.3461
 1181SOL    HW115179   2.245   3.347  17.408  0.7163  0.9778  0.3744
 1181SOL    HW215180   2.366   3.415  17.374  0.9439  0.1555  1.3726
 1182SOL     OW15181   3.817   1.269  12.397  0.3330  0.2944  0.4720
 1182SOL    HW115182   3.804   1.208  12.324 -0.1105 -1.0545  1.6935
 1182SOL    HW215183   3.883   1.221  12.448 -0.4383 -0.2543  0.9447
 1183SOL     OW15184   2.705   0.788   9.960  0.1736  0.3575 -0.5314
 1183SOL    HW115185   2.787   0.751   9.994 -0.2148  0.0899  0.1011
 1183SOL    HW215186   2.740   0.872   9.929 -0.9494  1.1030  0.2241
 1184SOL     OW15187   1.200   2.899   9.620  0.0981 -0.1810  0.4223
 1184SOL    HW115188   1.121   2.954   9.622  0.0948 -0.1592 -0.5687
 1184SOL    HW215189   1.206   2.881   9.714 -3.8223  0.4150  0.7881
 1185SOL     OW15190   0.099   0.960   5.514  0.1771  0.2857  0.6817
 1185SOL    HW115191   0.012   0.983   5.547 -0.0209  0.8916 -0.2885
 1185SOL    HW215192   0.109   1.033   5.454 -2.2539  0.6428  0.7035
 1186SOL     OW15193   0.081   1.847  13.694 -0.1141 -0.5804  0.0167
 1186SOL    HW115194   0.058   1.839  13.601  1.7901  1.1345 -0.6036
 1186SOL    HW215195   0.087   1.942  13.706 -1.7860 -0.5738  0.8487
 1187SOL     OW15196   1.787   1.373   3.270 -0.4556  0.3694  0.3843
 1187SOL    HW115197   1.793   1.431   3.346  1.1740  1.5084 -0.6130
 1187SOL    HW215198   1.722   1.418   3.216  1.1298  1.1283 -0.8901
 1188SOL     OW15199   4.693   2.980   3.448  0.1676  0.6913  0.0952
 1188SOL    HW115200   4.652   3.047   3.393  0.9538  0.1029 -1.2063
 1188SOL    HW215201   0.009   3.025   3.515  0.4789  1.4010 -0.6214
 1189SOL     OW15202   2.466   0.769   2.953  0.1923  0.5293  0.2717
 1189SOL    HW115203   2.389   0.712   2.956 -0.2356  1.0083 -1.6121
 1189SOL    HW215204   2.462   0.802   2.863 -0.8174 -1.1282 -0.3068
 1190SOL     OW15205   4.719   1.092   1.133  0.4496  0.6369 -0.1206
 1190SOL    HW115206   0.020   1.020   1.082  2.7824 -1.4049  4.5109
 1190SOL    HW215207   4.630   1.106   1.101  0.9510  1.6162 -1.0887
 1191SOL     OW15208   1.215   0.927   7.486 -0.1289  0.2249 -0.1436
 1191SOL    HW115209   1.231   0.898   7.575  0.3934 -1.1918 -0.6964
 1191SOL    HW215210   1.121   0.917   7.472 -0.2174 -1.5595  1.7734
 1192SOL     OW15211   1.494   0.554   3.048 -0.2720  0.2259  0.1247
 1192SOL    HW115212   1.452   0.591   2.971 -1.3315 -0.3664  0.4303
 1192SOL    HW215213   1.455   0.607   3.117  0.3679  0.6599  0.1559
 1193SOL     OW15214   3.085   2.624   3.918  0.3894 -0.7110  0.1966
 1193SOL    HW115215   3.164   2.642   3.867  0.7030  0.2373  1.0253
 1193SOL    HW215216   3.024   2.694   3.893  0.1225 -0.4890  1.4459
 1194SOL     OW15217   4.489   2.165  12.716  0.3007 -0.0810 -0.3079
 1194SOL    HW115218   4.564   2.149  12.774 -0.7734 -0.9604  0.8394
 1194SOL    HW215219   4.437   2.234  12.758  0.9949 -0.6169  1.4584
 1195SOL     OW15220   3.556   2.184   6.025 -0.1291  1.0489 -0.3425
 1195SOL    HW115221   3.605   2.174   5.944  2.3885  0.6833  1.2501
 1195SOL    HW215222   3.579   2.269   6.064  1.6188  1.1254 -1.5442
 1196SOL     OW15223   3.363   0.187  14.816  0.0553 -0.7210  0.5306
 1196SOL    HW115224   3.444   0.235  14.832 -2.1582  2.8795  0.8384
 1196SOL    HW215225   3.374   0.122  14.886 -0.3770 -1.5543 -0.1797
 1197SOL     OW15226   1.901   2.967  17.360  0.0673  0.0183  0.0835
 1197SOL    HW115227   1.844   3.041  17.341 -1.2590 -1.4812 -1.7231
 1197SOL    HW215228   1.827   2.914  17.390 -1.0382  0.4729 -1.8108
 1198SOL     OW15229   0.687   2.045   4.511  0.1028  0.1007 -0.2294
 1198SOL    HW115230   0.686   1.961   4.558  2.0452 -0.0214 -0.4089
 1198SOL    HW215231   0.612   2.037   4.451  1.4478 -0.2993 -1.8532
 1199SOL     OW15232   1.430   0.671  13.239  0.2132  0.5905 -0.8956
 1199SOL    HW115233   1.369   0.598  13.228 -0.4714  0.8767  0.9082
 1199SOL    HW215234   1.500   0.642  13.297 -0.4804  0.0370 -0.3279
 1200SOL     OW15235   2.750   1.620   8.774 -0.4308  0.4250 -0.3807
 1200SOL    HW115236   2.779   1.703   8.811 -0.2843  0.1808  0.0443
 1200SOL    HW215237   2.654   1.628   8.780 -0.6008 -0.7566 -1.4108
 1201SOL     OW15238   1.154   3.987   5.857  0.1251 -0.3692  0.6741
 1201SOL    HW115239   1.197   3.980   5.943  0.7278 -0.2651  0.3832
 1201SOL    HW215240   1.103   3.907   5.867 -0.3767 -0.1305  0.0010
 1202SOL     OW15241   0.289   2.945   7.171 -0.2659  0.0406 -0.2283
 1202SOL    HW115242   0.262   3.016   7.113 -2.7844  1.2358  2.4248
 1202SOL    HW215243   0.205   2.903   7.185 -0.2929  0.3130  0.4268
 1203SOL     OW15244   3.614   1.174   1.991  0.1853  0.3795  0.0413
 1203SOL    HW115245   3.554   1.196   1.920  2.7537  0.8414 -2.0163
 1203SOL    HW215246   3.577   1.096   2.032  1.3114  0.0698  0.4669
 1204SOL     OW15247   3.148   3.978   6.518 -0.0681  0.3624  0.3822
 1204SOL    HW115248   3.057   3.948   6.517 -0.0192  0.2752 -1.6215
 1204SOL    HW215249   3.174   3.981   6.610  0.3897 -1.1000  0.3021
 1205SOL     OW15250   3.276   1.079  14.898 -0.3165 -0.4732  0.0145
 1205SOL    HW115251   3.288   1.159  14.846 -1.4312 -0.2162  0.1428
 1205SOL    HW215252   3.270   1.008  14.835  1.1657  1.1768 -1.9907
 1206SOL     OW15253   3.112   0.790   8.102  0.1449 -0.3047  0.2175
 1206SOL    HW115254   3.137   0.872   8.059  0.7672 -0.5873  0.0474
 1206SOL    HW215255   3.200   0.755   8.085  1.5232  0.9358  4.9447
 1207SOL     OW15256   2.805   3.419   6.696  0.3584 -0.2554  0.1990
 1207SOL    HW115257   2.814   3.507   6.732 -0.8335 -0.7241  1.6544
 1207SOL    HW215258   2.889   3.393   6.660  0.5369  0.7815 -0.1228
 1208SOL     OW15259   1.471   1.876   0.823 -0.4550  0.8337 -0.2421
 1208SOL    HW115260   1.378   1.898   0.828 -0.8224 -0.9474  0.6249
 1208SOL    HW215261   1.500   1.893   0.913 -0.4203  1.8070 -0.4405
 1209SOL     OW15262   0.233   2.812  13.124 -0.7189  0.3833  0.0087
 1209SOL    HW115263   0.289   2.756  13.179 -0.5211 -0.4702 -1.0428
 1209SOL    HW215264   0.254   2.903  13.143 -1.3319  0.3320  0.9148
 1210SOL     OW15265   2.453   0.347  11.350  0.2224  0.3471 -0.1907
 1210SOL    HW115266   2.526   0.332  11.411  0.8432 -3.9330 -1.9316
 1210SOL    HW215267   2.387   0.400  11.393  1.0557 -0.5909  2.2325
 1211SOL     OW15268   2.168   1.730   4.710  0.2485 -0.3745 -0.3520
 1211SOL    HW115269   2.107   1.756   4.778  0.1092  0.2250 -0.7082
 1211SOL    HW215270   2.235   1.698   4.770  1.3883 -0.6700 -1.7825
 1212SOL     OW15271   0.696   0.356   0.533 -0.2935 -0.0640 -0.6831
 1212SOL    HW115272   0.719   0.294   0.465 -1.2021 -1.7547  0.5428
 1212SOL    HW215273   0.782   0.375   0.571 -0.2761  0.1385 -0.8248
 1213SOL     OW15274   3.442   0.384   7.547 -0.2971 -0.3497 -0.4673
 1213SOL    HW115275   3.428   0.417   7.459 -0.2083 -0.6185 -0.5817
 1213SOL    HW215276   3.357   0.343   7.564  0.4695 -1.1304  1.5967
 1214SOL     OW15277   1.844   0.815   9.977  0.3273  0.0483 -0.2389
 1214SOL    HW115278   1.823   0.760   9.902  2.4342  0.0533 -0.8386
 1214SOL    HW215279   1.938   0.831   9.971  0.3267  0.0254 -0.3073
 1215SOL     OW15280   0.515   0.855  14.222  0.0678 -0.1738 -0.4650
 1215SOL    HW115281   0.500   0.950  14.227  1.8647  0.1143 -0.5764
 1215SOL    HW215282   0.427   0.824  14.242  0.4461  0.4897  2.2601
 1216SOL     OW15283   1.507   0.041  14.184 -0.0779  0.3119  0.2018
 1216SOL    HW115284   1.476   0.124  14.220  2.2266  1.2606  0.0047
 1216SOL    HW215285   1.595   0.060  14.153  0.3867 -0.5465  0.9933
 1217SOL     OW15286   2.093   4.433   4.324 -0.4996  0.2264  0.8265
 1217SOL    HW115287   2.005   4.470   4.310 -1.0416 -1.2122  0.4620
 1217SOL    HW215288   2.143   4.494   4.269 -1.2640  0.5735  0.5044
 1218SOL     OW15289   3.650   0.862   4.139  0.2251 -0.0195 -0.3571
 1218SOL    HW115290   3.739   0.859   4.102  1.1460 -0.0759  1.8460
 1218SOL    HW215291   3.609   0.939   4.098 -1.5993 -0.9727 -0.3098
 1219SOL     OW15292   3.324   4.065   2.757  0.3689  1.2220  0.1501
 1219SOL    HW115293   3.261   4.123   2.799 -4.1000 -1.9077 -2.1572
 1219SOL    HW215294   3.295   4.053   2.666  1.5718 -0.7746  0.0136
 1220SOL     OW15295   3.850   3.607   8.216 -0.1703 -0.2841 -0.2584
 1220SOL    HW115296   3.834   3.680   8.157  0.0491  1.0695  1.3476
 1220SOL    HW215297   3.826   3.655   8.295 -0.5429 -2.7951  1.1769
 1221SOL     OW15298   3.084   2.958   7.688 -0.1532 -0.1879 -0.5861
 1221SOL    HW115299   3.096   2.955   7.783  2.1576  0.3371 -0.8456
 1221SOL    HW215300   3.007   3.010   7.665 -1.4106 -0.5834  2.8028
 1222SOL     OW15301   0.120   2.807   2.388  0.2951  0.2252 -0.3613
 1222SOL    HW115302   0.060   2.732   2.381  0.1440  0.4000 -1.0064
 1222SOL    HW215303   0.100   2.839   2.300  0.1551  1.5841  0.1688
 1223SOL     OW15304   4.468   0.973   6.140  0.2543  0.0906  0.5325
 1223SOL    HW115305   4.390   0.950   6.090 -0.8265  1.3647  1.6303
 1223SOL    HW215306   4.523   1.009   6.071 -0.6635 -0.2431 -0.3575
 1224SOL     OW15307   2.091   2.504   2.450  0.1231  0.4078  0.2052
 1224SOL    HW115308   2.028   2.521   2.380 -0.4537  0.5564  0.7626
 1224SOL    HW215309   2.073   2.579   2.507 -0.3950  1.5807 -1.4784
 1225SOL     OW15310   2.265   1.936   6.812  0.7046  0.3706  0.2806
 1225SOL    HW115311   2.193   1.998   6.828  0.4128  0.2498 -0.5857
 1225SOL    HW215312   2.257   1.918   6.719  4.2434 -3.2520  0.7058
 1226SOL     OW15313   2.686   2.275   8.031 -0.2403 -0.4077 -0.7907
 1226SOL    HW115314   2.598   2.311   8.023 -0.4662 -0.4009  1.6945
 1226SOL    HW215315   2.680   2.203   8.094  0.3500 -0.1697 -0.4619
 1227SOL     OW15316   3.540   1.400  12.072 -0.0087 -0.0070 -0.0686
 1227SOL    HW115317   3.578   1.319  12.105  0.2937  0.8142  1.6258
 1227SOL    HW215318   3.446   1.385  12.081 -0.8851  3.2998 -3.5363
 1228SOL     OW15319   3.324   4.155   7.805  0.4832  0.1158 -0.4282
 1228SOL    HW115320   3.317   4.249   7.822  0.3744  0.1024 -0.4009
 1228SOL    HW215321   3.274   4.128   7.882 -0.0450  0.5257 -0.6262
 1229SOL     OW15322   4.496   2.781   3.566  0.3381  0.1721 -0.3449
 1229SOL    HW115323   4.579   2.818   3.534 -0.9614  1.9548 -1.6549
 1229SOL    HW215324   4.441   2.781   3.488  0.5721 -3.2936 -0.5094
 1230SOL     OW15325   1.052   0.779   6.877  0.1287  0.1115  0.0915
 1230SOL    HW115326   1.078   0.828   6.955 -3.2920  0.1765  1.2213
 1230SOL    HW215327   1.071   0.846   6.811  1.1102  0.3561  0.6304
 1231SOL     OW15328   1.666   2.001  11.636 -0.5282  0.0671 -0.2693
 1231SOL    HW115329   1.589   2.042  11.596 -0.4858  1.4597  1.0718
 1231SOL    HW215330   1.682   2.050  11.717 -0.6788 -1.4048  0.6477
 1232SOL     OW15331   3.116   2.882   6.213 -0.0441 -0.0074 -0.4954
 1232SOL    HW115332   3.051   2.948   6.187  0.4065  0.0789 -1.4096
 1232SOL    HW215333   3.175   2.891   6.137 -0.1833  0.3851 -0.5598
 1233SOL     OW15334   0.857   0.400   2.875  0.1047  0.1460  0.3284
 1233SOL    HW115335   0.864   0.307   2.896 -0.2569  0.7778  3.2034
 1233SOL    HW215336   0.918   0.437   2.939  2.9849 -1.8063 -1.2787
 1234SOL     OW15337   2.462   3.072   8.885  0.3838  0.3808  0.4696
 1234SOL    HW115338   2.397   3.105   8.946 -1.5222 -1.1063 -0.7386
 1234SOL    HW215339   2.428   2.983   8.872  0.4464  0.3886  0.2542
 1235SOL     OW15340   4.604   2.485   5.994 -0.0885 -0.5150 -0.0986
 1235SOL    HW115341   4.542   2.466   5.922 -0.2231  0.1890 -0.1741
 1235SOL    HW215342   4.681   2.431   5.979 -0.2016 -0.2634 -1.6298
 1236SOL     OW15343   2.021   3.566  16.233  0.1477  0.6529 -0.1471
 1236SOL    HW115344   2.076   3.488  16.221 -0.3392  0.2928 -0.0416
 1236SOL    HW215345   1.945   3.539  16.183 -0.2515  0.5000  0.5403
 1237SOL     OW15346   1.522   4.660   4.997  0.5885 -0.2497  0.2754
 1237SOL    HW115347   1.526   4.633   5.089 -0.2314  1.1737  0.7337
 1237SOL    HW215348   1.540   0.017   5.011  1.0223 -0.1679 -0.8184
 1238SOL     OW15349   3.373   2.842   5.525  0.1532  0.8407  0.4559
 1238SOL    HW115350   3.451   2.787   5.529 -0.6592 -0.1776  2.3036
 1238SOL    HW215351   3.313   2.770   5.504  1.1553  0.7196 -1.9960
 1239SOL     OW15352   3.446   0.602   4.650  0.8318  0.3131 -0.7221
 1239SOL    HW115353   3.515   0.543   4.620  0.9173  0.5214 -0.9256
 1239SOL    HW215354   3.373   0.554   4.610  1.1017  1.4696 -2.5974
 1240SOL     OW15355   0.500   2.300   3.465  0.6869 -0.2587 -0.3644
 1240SOL    HW115356   0.506   2.242   3.541 -1.5172 -0.0826 -0.0785
 1240SOL    HW215357   0.590   2.331   3.454  0.2395  0.8287 -0.9292
 1241SOL     OW15358   2.006   1.888   5.485 -1.0646  0.1134 -0.3425
 1241SOL    HW115359   2.002   1.807   5.536  0.6834 -0.2437 -0.7903
 1241SOL    HW215360   2.083   1.877   5.430 -1.0148  1.6028 -0.5627
 1242SOL     OW15361   3.677   3.749   8.946 -0.3614 -0.0055 -0.3611
 1242SOL    HW115362   3.720   3.742   9.031 -0.6254 -1.3043 -0.3228
 1242SOL    HW215363   3.615   3.678   8.965  1.4437 -1.4431  0.2473
 1243SOL     OW15364   0.445   1.535   9.866  0.2317 -0.3536  0.6355
 1243SOL    HW115365   0.360   1.498   9.892 -0.2498 -0.0167 -0.4428
 1243SOL    HW215366   0.497   1.455   9.859  2.2763  1.1421 -1.2816
 1244SOL     OW15367   1.578   4.655  14.798 -0.2141 -0.2909  0.1526
 1244SOL    HW115368   1.651   4.604  14.831  0.4121 -0.5687 -1.6631
 1244SOL    HW215369   1.617   4.703  14.725  2.0536  0.5004  1.8901
 1245SOL     OW15370   2.619   0.654  10.844 -0.1235 -0.0290  0.3013
 1245SOL    HW115371   2.596   0.716  10.912  1.4832 -1.0206  1.7283
 1245SOL    HW215372   2.624   0.709  10.766 -2.5950 -0.8940 -0.4849
 1246SOL     OW15373   3.327   3.889   3.815 -0.4146 -0.2675 -0.0125
 1246SOL    HW115374   3.327   3.896   3.911  0.5283  1.0467 -0.1087
 1246SOL    HW215375   3.417   3.890   3.783 -0.9112 -1.5784 -1.4154
 1247SOL     OW15376   3.517   1.560   4.374 -0.0875  0.6661  0.5938
 1247SOL    HW115377   3.440   1.617   4.383 -1.3747 -0.5935 -2.6336
 1247SOL    HW215378   3.491   1.495   4.439  1.5652  0.5155  1.0998
 1248SOL     OW15379   0.689   0.391   9.379  0.1119  0.0417  0.8733
 1248SOL    HW115380   0.700   0.486   9.387  0.3266  0.1021 -0.1746
 1248SOL    HW215381   0.772   0.355   9.348 -0.2211 -0.1048  0.1642
 1249SOL     OW15382   3.532   4.103  12.546 -0.1809  0.7473  0.1845
 1249SOL    HW115383   3.549   4.090  12.640  1.2742  1.5926  0.0295
 1249SOL    HW215384   3.618   4.083  12.509 -0.5061 -1.8293  0.7978
 1250SOL     OW15385   4.674   0.814   9.905  0.0469 -0.3068  0.5762
 1250SOL    HW115386   4.655   0.829   9.997  3.3019 -0.7912  1.3294
 1250SOL    HW215387   4.595   0.846   9.862  0.0309  1.6765  2.0560
 1251SOL     OW15388   1.089   2.594   6.042 -0.0835  0.3831  0.2654
 1251SOL    HW115389   1.020   2.556   5.988 -1.0616 -0.3129  2.0043
 1251SOL    HW215390   1.037   2.599   6.122  0.6765  1.8075  0.6662
 1252SOL     OW15391   2.695   2.205   1.436  0.1862 -0.3020 -0.0370
 1252SOL    HW115392   2.672   2.120   1.399  2.5481 -1.3706  0.9461
 1252SOL    HW215393   2.723   2.184   1.525 -1.6495  0.5586  0.7343
 1253SOL     OW15394   0.756   2.802   5.957 -0.6809  0.0518 -0.0075
 1253SOL    HW115395   0.702   2.878   5.937  1.0014  0.9637 -1.0909
 1253SOL    HW215396   0.785   2.765   5.874 -0.1369  1.0492 -0.2616
 1254SOL     OW15397   0.447   1.610   1.791  0.0681  0.0524  0.7044
 1254SOL    HW115398   0.471   1.690   1.836 -3.6623  1.4515  0.1834
 1254SOL    HW215399   0.356   1.602   1.820 -0.7004  0.6323 -1.5755
 1255SOL     OW15400   0.736   0.673   2.550  0.2653  0.2317 -0.1630
 1255SOL    HW115401   0.748   0.733   2.477  0.8348  1.1339  0.6691
 1255SOL    HW215402   0.723   0.589   2.505  0.3151  0.5703 -0.7993
 1256SOL     OW15403   3.675   2.882   6.855  0.0536  0.4758  0.6469
 1256SOL    HW115404   3.641   2.914   6.771  0.2094 -1.6538 -0.2396
 1256SOL    HW215405   3.638   2.794   6.850  0.9188  0.2698 -1.9976
 1257SOL     OW15406   2.400   1.006   7.158 -0.7505  0.4255 -0.0053
 1257SOL    HW115407   2.405   0.937   7.092 -1.4284  0.4071 -0.0378
 1257SOL    HW215408   2.490   1.004   7.192 -0.8483 -1.7225  0.1389
 1258SOL     OW15409   2.996   0.634   1.876  0.2840  0.0686  0.2382
 1258SOL    HW115410   2.905   0.616   1.898  0.0034  1.1196 -0.0680
 1258SOL    HW215411   3.010   0.549   1.835  0.9773 -0.0629  0.7380
 1259SOL     OW15412   2.115   2.272   1.961 -0.0944  0.7660 -0.0277
 1259SOL    HW115413   2.088   2.354   1.921 -1.7886 -0.9315 -2.3060
 1259SOL    HW215414   2.035   2.245   2.005  1.1687 -1.5659  0.8028
 1260SOL     OW15415   4.193   3.247   3.958  0.0390 -0.6693 -0.2285
 1260SOL    HW115416   4.286   3.268   3.956 -0.2697  0.5701 -1.4273
 1260SOL    HW215417   4.182   3.227   3.865 -0.1100 -1.1112 -0.1174
 1261SOL     OW15418   4.311   4.732   0.582 -0.4423  0.0660  0.1028
 1261SOL    HW115419   4.275   4.690   0.660  1.1916  0.0425  0.8290
 1261SOL    HW215420   4.363   0.061   0.629 -0.4002  1.0512 -1.2852
 1262SOL     OW15421   1.188   2.237  16.527  0.5656 -0.0031  0.2112
 1262SOL    HW115422   1.249   2.163  16.535 -0.1433 -0.4495  1.4009
 1262SOL    HW215423   1.108   2.188  16.510  1.5169 -1.0041 -1.4070
 1263SOL     OW15424   3.403   3.349   8.147  0.4388 -0.6105 -0.2509
 1263SOL    HW115425   3.362   3.337   8.062 -0.4328 -0.3115  0.1214
 1263SOL    HW215426   3.491   3.315   8.129  2.1715  2.9066  1.6047
 1264SOL     OW15427   0.589   2.033  13.535 -0.8043 -0.2243 -0.1823
 1264SOL    HW115428   0.510   2.074  13.568 -0.1667  1.6022 -0.9039
 1264SOL    HW215429   0.556   2.032  13.445  2.5916 -1.7909 -1.4135
 1265SOL     OW15430   3.944   4.554   3.389 -0.0844 -0.1383  0.0054
 1265SOL    HW115431   3.849   4.548   3.385 -0.0921 -1.1376  2.1194
 1265SOL    HW215432   3.976   4.496   3.457  0.5152  0.1141 -0.0537
 1266SOL     OW15433   1.098   2.426   7.806 -0.4295  0.0800 -0.1454
 1266SOL    HW115434   1.170   2.488   7.800 -0.5378  0.3389  1.4308
 1266SOL    HW215435   1.031   2.462   7.748  0.3791  1.1247 -0.4309
 1267SOL     OW15436   3.760   4.426  17.092  0.2979 -0.0759  0.6213
 1267SOL    HW115437   3.710   4.346  17.108 -1.1439  0.4940 -0.9961
 1267SOL    HW215438   3.767   4.463  17.180 -2.5743 -0.0470  0.8373
 1268SOL     OW15439   2.573   1.113   3.390 -0.4860 -0.6207 -0.8121
 1268SOL    HW115440   2.630   1.188   3.376  1.1909 -1.5261  1.1996
 1268SOL    HW215441   2.492   1.156   3.418 -2.0680 -3.9988 -0.0704
 1269SOL     OW15442   0.730   4.287   7.986  0.2315 -0.0714 -0.1046
 1269SOL    HW115443   0.807   4.238   7.957  0.1343  0.6788 -1.6177
 1269SOL    HW215444   0.669   4.264   7.915 -0.6059 -0.6612  0.7939
 1270SOL     OW15445   2.159   0.472   9.098 -0.1780  0.2008 -0.4353
 1270SOL    HW115446   2.098   0.527   9.147 -0.1105 -0.8737  0.8383
 1270SOL    HW215447   2.222   0.535   9.062 -0.1530 -0.7580 -2.0809
 1271SOL     OW15448   1.321   2.436   9.716  0.6617  0.7443  0.4360
 1271SOL    HW115449   1.292   2.462   9.629 -0.2139  0.4177  0.6331
 1271SOL    HW215450   1.248   2.382   9.745  0.6303  0.7452  0.3568
 1272SOL     OW15451   2.207   1.080   5.823 -0.0268 -0.1989 -0.0347
 1272SOL    HW115452   2.302   1.069   5.837  0.0640  0.4755 -0.1451
 1272SOL    HW215453   2.168   1.002   5.863  0.1070 -1.5681 -2.5411
 1273SOL     OW15454   2.032   0.151   8.125 -0.0799 -0.3893  0.1437
 1273SOL    HW115455   2.021   0.225   8.185  1.8490  2.0794 -2.5517
 1273SOL    HW215456   1.959   0.155   8.063 -0.0117  2.3567  0.2592
 1274SOL     OW15457   3.149   3.753   5.603 -0.0445 -0.1524  0.1466
 1274SOL    HW115458   3.093   3.827   5.626  0.5608  0.5700 -0.7519
 1274SOL    HW215459   3.213   3.791   5.544 -1.6223  0.3291 -1.2808
 1275SOL     OW15460   1.031   1.869  11.760  0.4529  0.5551 -0.2901
 1275SOL    HW115461   0.956   1.884  11.817  0.1884  2.0126 -1.0128
 1275SOL    HW215462   1.087   1.813  11.814  0.0059 -0.8591 -1.2836
 1276SOL     OW15463   2.405   0.038   1.919 -0.1253 -0.1648 -0.0995
 1276SOL    HW115464   2.315   0.064   1.900  0.0038 -0.3113 -0.9335
 1276SOL    HW215465   2.433   4.732   1.838  0.9080 -0.9555  0.6649
 1277SOL     OW15466   4.650   2.441  14.088  0.0104 -0.4897 -0.2181
 1277SOL    HW115467   4.621   2.377  14.153  0.4771  0.2505  0.7177
 1277SOL    HW215468   4.724   2.489  14.125 -0.8305  0.5243  0.1376
 1278SOL     OW15469   3.918   2.314  13.114  0.1427 -0.2752  0.0956
 1278SOL    HW115470   4.006   2.277  13.101 -0.1671 -1.6275  1.9622
 1278SOL    HW215471   3.858   2.271  13.053 -0.2181 -2.3456  1.8842
 1279SOL     OW15472   0.339   2.941   7.477 -0.0460  0.4422  0.3854
 1279SOL    HW115473   0.328   3.033   7.452 -0.4562  0.0076 -1.0276
 1279SOL    HW215474   0.328   2.895   7.394 -0.5373  2.4841 -0.6734
 1280SOL     OW15475   0.452   0.001  10.235 -0.2949  0.1266 -0.0463
 1280SOL    HW115476   0.367   0.007  10.192  0.7799 -0.0307 -2.1626
 1280SOL    HW215477   0.488   0.087  10.213  0.6289  0.2629  1.9072
 1281SOL     OW15478   2.316   3.538   6.570 -0.4524  0.0164  0.5972
 1281SOL    HW115479   2.329   3.479   6.644  1.8748  1.6130  1.4787
 1281SOL    HW215480   2.222   3.539   6.584 -0.4336  0.5088  0.6787
 1282SOL     OW15481   1.150   4.237  16.094 -0.1731  0.1788 -0.2107
 1282SOL    HW115482   1.194   4.203  16.172  0.0434 -0.5032 -0.6349
 1282SOL    HW215483   1.175   4.329  16.094 -2.7803  0.9131 -1.4458
 1283SOL     OW15484   0.956   1.745   3.022  0.3852  0.0395  0.7101
 1283SOL    HW115485   0.927   1.824   2.977 -0.8972 -2.2401 -2.4742
 1283SOL    HW215486   0.930   1.676   2.962 -1.1610  1.0914  0.1668
 1284SOL     OW15487   2.807   3.945   6.781 -0.3737  0.5998 -0.1862
 1284SOL    HW115488   2.830   3.923   6.691  1.4528 -1.2790  0.7436
 1284SOL    HW215489   2.896   3.944   6.817 -0.9043  0.0602  1.1006
 1285SOL     OW15490   2.690   1.329  15.169  0.0994  0.6821 -0.4203
 1285SOL    HW115491   2.601   1.296  15.156 -0.4790  1.4395  1.5543
 1285SOL    HW215492   2.716   1.350  15.079  0.7449  0.1552 -0.3605
 1286SOL     OW15493   4.344   1.507   6.850 -0.0865 -0.4324 -0.2002
 1286SOL    HW115494   4.377   1.419   6.866 -0.1494 -0.5055 -0.4599
 1286SOL    HW215495   4.304   1.502   6.762  2.6596  0.8731 -1.5086
 1287SOL     OW15496   2.611   3.944   5.056 -0.3522 -0.3491 -0.3832
 1287SOL    HW115497   2.553   3.915   5.127  1.9357 -3.0160  0.4438
 1287SOL    HW215498   2.662   4.017   5.092 -0.7653 -0.7149  0.9678
 1288SOL     OW15499   1.076   2.175   4.626 -0.2558 -0.1961  0.3888
 1288SOL    HW115500   1.156   2.190   4.676 -0.1024  0.9256 -0.1794
 1288SOL    HW215501   1.071   2.264   4.589 -2.5847 -0.2831  0.5035
 1289SOL     OW15502   4.225   0.692   5.582 -0.1408  0.1708  0.0012
 1289SOL    HW115503   4.261   0.615   5.625  0.4620  0.3533 -0.1748
 1289SOL    HW215504   4.262   0.698   5.494 -0.1281  0.6342  0.0336
 1290SOL     OW15505   4.176   3.752  14.657 -0.3968 -0.1396  0.1966
 1290SOL    HW115506   4.271   3.742  14.657 -0.6778 -2.8722 -2.3462
 1290SOL    HW215507   4.151   3.669  14.697  1.6093 -0.9102 -0.1335
 1291SOL     OW15508   3.212   4.014   4.740 -0.1954 -0.1103 -0.3147
 1291SOL    HW115509   3.235   3.924   4.760 -0.0532 -0.3662 -1.6066
 1291SOL    HW215510   3.120   3.999   4.717 -0.4391  2.1615 -0.8110
 1292SOL     OW15511   2.974   2.572   7.023  0.1102  0.0827 -0.5085
 1292SOL    HW115512   3.031   2.540   7.093 -0.8624 -1.8167 -0.5868
 1292SOL    HW215513   2.954   2.663   7.043  0.4744  0.5055 -2.0329
 1293SOL     OW15514   1.927   4.090   2.079  0.5894 -0.0020  0.1531
 1293SOL    HW115515   1.931   4.126   1.990 -0.8139 -0.2637 -0.0199
 1293SOL    HW215516   1.970   4.006   2.062 -0.3805 -0.4637  0.0202
 1294SOL     OW15517   4.489   3.437   1.913  0.4384 -0.3435 -0.2917
 1294SOL    HW115518   4.461   3.352   1.948  0.8476 -0.7629 -0.9894
 1294SOL    HW215519   4.565   3.460   1.967  0.3901  3.2567 -1.7671
 1295SOL     OW15520   0.745   3.112   5.546  0.3467  0.1054  0.1404
 1295SOL    HW115521   0.836   3.090   5.527  0.0516 -0.0705 -1.0919
 1295SOL    HW215522   0.700   3.046   5.494  1.3401 -0.1068 -0.4464
 1296SOL     OW15523   3.545   3.994  15.793  0.3599 -0.0526  0.8210
 1296SOL    HW115524   3.454   3.965  15.797 -0.5202  2.3630 -1.8616
 1296SOL    HW215525   3.546   4.078  15.839 -0.5799  0.0569  0.6382
 1297SOL     OW15526   4.490   1.489   8.821  0.1466 -0.0940  0.5657
 1297SOL    HW115527   4.478   1.478   8.915  1.0795  2.8016  1.0181
 1297SOL    HW215528   4.561   1.427   8.802  1.1792  1.0079  0.7993
 1298SOL     OW15529   1.971   3.777   4.936 -0.1922  0.6696  0.2328
 1298SOL    HW115530   1.922   3.820   4.866  1.9529  1.8430 -0.5684
 1298SOL    HW215531   1.962   3.834   5.013  0.0311  1.0619 -0.0281
 1299SOL     OW15532   2.755   2.332  11.036  0.1923 -0.0553  0.0510
 1299SOL    HW115533   2.826   2.388  11.006 -0.7348  1.0319 -0.1318
 1299SOL    HW215534   2.693   2.399  11.064 -1.9313 -1.9673  0.0174
 1300SOL     OW15535   4.524   0.461   6.122 -0.0697  0.3983 -0.4703
 1300SOL    HW115536   4.499   0.493   6.209  1.7574  3.1602 -0.9808
 1300SOL    HW215537   4.564   0.380   6.153  1.3556  1.4140  0.3387
 1301SOL     OW15538   0.983   1.343  10.268  0.0154 -0.4242  0.1160
 1301SOL    HW115539   1.040   1.320  10.342  0.5684  0.3512 -0.0680
 1301SOL    HW215540   0.902   1.293  10.279 -2.2805  3.0733 -1.2529
 1302SOL     OW15541   2.233   0.447   4.776  0.3394  0.6019 -0.2048
 1302SOL    HW115542   2.195   0.362   4.754 -0.1590  1.0795 -1.1856
 1302SOL    HW215543   2.263   0.414   4.861  0.9943 -0.5175 -0.8713
 1303SOL     OW15544   2.677   3.934   3.341  0.1925 -0.3651 -0.9969
 1303SOL    HW115545   2.738   3.953   3.413 -0.7589  1.6761 -0.7223
 1303SOL    HW215546   2.603   3.986   3.372  1.8070  1.2386  0.1665
 1304SOL     OW15547   1.138   3.147   7.961  0.6677  0.6278 -0.3338
 1304SOL    HW115548   1.159   3.235   7.990  3.6871 -0.0916 -0.2960
 1304SOL    HW215549   1.084   3.115   8.033  0.6179 -1.6621 -1.3801
 1305SOL     OW15550   4.340   2.879   4.492  0.6081 -0.5851  0.2399
 1305SOL    HW115551   4.326   2.902   4.400  0.9023  1.4447  0.7110
 1305SOL    HW215552   4.433   2.903   4.495  0.4012  0.3273 -0.7406
 1306SOL     OW15553   4.459   4.347   8.696  0.0874  0.0583 -0.4844
 1306SOL    HW115554   4.369   4.313   8.694  0.4240 -0.9148  0.7680
 1306SOL    HW215555   4.476   4.385   8.610 -0.8554  1.3167 -0.1207
 1307SOL     OW15556   1.309   3.823  10.451  0.6171 -0.0793 -0.1672
 1307SOL    HW115557   1.384   3.823  10.391  1.3299 -1.7487  0.7272
 1307SOL    HW215558   1.288   3.730  10.462 -0.8308  0.1957 -0.6930
 1308SOL     OW15559   3.839   2.393   7.294 -0.3378 -0.1133  0.0163
 1308SOL    HW115560   3.892   2.385   7.215 -1.9461  0.5879 -1.1267
 1308SOL    HW215561   3.755   2.353   7.272 -0.2706 -0.5335  0.5293
 1309SOL     OW15562   4.276   4.567  15.406 -0.1928 -0.1003 -0.0171
 1309SOL    HW115563   4.358   4.583  15.453 -0.8424  2.3249  0.3310
 1309SOL    HW215564   4.309   4.551  15.318 -2.5786  2.5289 -1.4006
 1310SOL     OW15565   0.179   3.579   4.392 -0.0546 -0.0519 -0.8209
 1310SOL    HW115566   0.232   3.617   4.323 -0.5011 -1.8050 -2.1460
 1310SOL    HW215567   0.102   3.636   4.387 -1.1742 -1.5806 -1.0528
 1311SOL     OW15568   0.553   2.911   3.471  0.1003  0.2877 -0.2412
 1311SOL    HW115569   0.638   2.901   3.429 -0.3044  1.3821 -1.3164
 1311SOL    HW215570   0.571   2.887   3.562  0.6970  0.9484 -0.1771
 1312SOL     OW15571   3.416   4.373  17.236 -0.4376  0.2849 -0.3218
 1312SOL    HW115572   3.468   4.336  17.165  1.5341  1.0738  0.6948
 1312SOL    HW215573   3.346   4.309  17.242 -1.3785  1.5182  2.0428
 1313SOL     OW15574   4.515   1.319   6.386  0.5682 -0.2459 -0.3867
 1313SOL    HW115575   4.477   1.406   6.402  0.4618 -0.5192  0.8271
 1313SOL    HW215576   4.607   1.344   6.383  0.9543 -1.6460  0.0263
 1314SOL     OW15577   3.047   3.429  14.220  0.0325  1.1092  0.2882
 1314SOL    HW115578   3.033   3.381  14.139 -0.1030  3.2104 -0.9252
 1314SOL    HW215579   3.045   3.521  14.193  0.4532  0.3253 -2.3961
 1315SOL     OW15580   4.663   1.734   6.168 -0.2234 -0.3234  0.3308
 1315SOL    HW115581   4.589   1.757   6.112  0.0674  0.8333  0.4205
 1315SOL    HW215582   4.702   1.666   6.114 -0.1415  1.5935 -2.0308
 1316SOL     OW15583   0.408   0.059   4.267  0.6967  0.2125 -0.6458
 1316SOL    HW115584   0.342   0.122   4.237 -0.1117 -0.2010  0.2876
 1316SOL    HW215585   0.396   4.723   4.205  1.3063 -0.5868  0.1645
 1317SOL     OW15586   0.393   0.948  10.548 -0.3689  0.5254 -0.0125
 1317SOL    HW115587   0.360   1.018  10.604 -4.0665  0.4418 -2.0751
 1317SOL    HW215588   0.320   0.949  10.487 -0.1481 -0.9844 -0.3068
 1318SOL     OW15589   2.471   3.487   6.350  0.2770  0.1387  0.6177
 1318SOL    HW115590   2.438   3.544   6.419 -3.2509 -1.2031  0.0542
 1318SOL    HW215591   2.386   3.457   6.315  1.5303  0.8180 -3.0038
 1319SOL     OW15592   2.193   0.202  16.421  0.1825 -0.0294 -0.3228
 1319SOL    HW115593   2.180   0.277  16.363  2.6641  1.3270  0.9197
 1319SOL    HW215594   2.264   0.235  16.475 -1.2014  2.9805 -0.3634
 1320SOL     OW15595   4.487   0.172   0.676  0.1881 -0.0258  0.4664
 1320SOL    HW115596   4.496   0.178   0.771 -1.1367 -1.8453  0.7248
 1320SOL    HW215597   4.453   0.259   0.657 -0.5486 -0.0171  1.7960
 1321SOL     OW15598   2.790   1.795   7.638 -0.1462  0.0123  0.6279
 1321SOL    HW115599   2.723   1.762   7.578 -1.1656  0.6186  1.4323
 1321SOL    HW215600   2.861   1.734   7.621 -0.8407 -0.6777  0.1593
 1322SOL     OW15601   1.899   1.188  12.200 -0.1549 -0.0948 -0.6991
 1322SOL    HW115602   1.988   1.197  12.165 -0.3768  0.8002 -1.0142
 1322SOL    HW215603   1.862   1.175  12.113 -0.6461 -1.4389 -0.2885
 1323SOL     OW15604   3.565   3.071   9.292 -0.0908  0.2807 -0.2245
 1323SOL    HW115605   3.648   3.113   9.269  0.3361 -0.8371 -0.7129
 1323SOL    HW215606   3.571   3.012   9.217 -0.5229 -0.3886  0.2663
 1324SOL     OW15607   4.697   2.945   2.207  0.2121  0.0914 -0.2477
 1324SOL    HW115608   4.610   2.924   2.243 -0.1689 -0.3780 -1.4192
 1324SOL    HW215609   4.682   2.892   2.129  2.2503  0.5295 -0.9307
 1325SOL     OW15610   2.658   2.352   5.559  0.0518 -0.2636  0.0481
 1325SOL    HW115611   2.656   2.289   5.631 -0.5966  1.0552  1.1952
 1325SOL    HW215612   2.745   2.330   5.524  0.6374 -0.1145  1.3986
 1326SOL     OW15613   1.681   1.324  11.263 -0.1257 -0.2613 -0.4241
 1326SOL    HW115614   1.686   1.354  11.172 -0.3950  0.6404 -0.1379
 1326SOL    HW215615   1.686   1.409  11.306  0.3334 -0.3581 -0.2782
 1327SOL     OW15616   3.585   2.132  13.741  0.4914 -0.4218 -0.3266
 1327SOL    HW115617   3.657   2.180  13.699 -1.3792  2.4338 -0.2904
 1327SOL    HW215618   3.630   2.113  13.824  1.1814 -0.6456 -0.7544
 1328SOL     OW15619   3.624   0.778   8.054 -0.1005 -0.1629  0.3781
 1328SOL    HW115620   3.708   0.748   8.020  0.0034 -2.4897  2.6178
 1328SOL    HW215621   3.642   0.871   8.062 -2.0956  0.3686 -1.2259
 1329SOL     OW15622   2.207   3.082   3.360  0.0816  0.0837  0.1323
 1329SOL    HW115623   2.161   3.042   3.286 -1.8179 -0.2407  1.4926
 1329SOL    HW215624   2.249   3.002   3.392 -0.0269 -0.0024  0.0593
 1330SOL     OW15625   1.842   3.488   2.668 -0.1469 -0.6539 -0.6023
 1330SOL    HW115626   1.895   3.527   2.738 -0.5861  1.4049 -1.3982
 1330SOL    HW215627   1.863   3.395   2.671 -0.5946 -0.7463 -0.4459
 1331SOL     OW15628   2.070   2.136   5.302 -0.2900  0.4926 -0.8058
 1331SOL    HW115629   2.068   2.051   5.258  2.6754 -0.1656  0.2972
 1331SOL    HW215630   2.117   2.189   5.237  1.1659 -0.5231 -0.5727
 1332SOL     OW15631   4.311   3.289   5.255  0.0394 -0.3119  0.0119
 1332SOL    HW115632   4.312   3.366   5.198  0.2507  0.2966  0.8488
 1332SOL    HW215633   4.273   3.226   5.193 -0.7804 -1.1908  1.4277
 1333SOL     OW15634   2.496   2.343   6.436 -0.0905  0.1230 -0.0362
 1333SOL    HW115635   2.489   2.282   6.509  2.0565 -1.6585 -1.2979
 1333SOL    HW215636   2.482   2.427   6.480  2.1570  1.0513 -1.1208
 1334SOL     OW15637   4.164   2.361   0.005 -0.5877 -0.1701  0.8377
 1334SOL    HW115638   4.167   2.279   0.055  2.4167 -0.1743  0.6234
 1334SOL    HW215639   4.187   2.428   0.070 -1.0096  1.4280 -0.6600
 1335SOL     OW15640   2.618   2.000   3.271  0.2020 -0.4893 -0.2066
 1335SOL    HW115641   2.604   1.924   3.215  0.4084 -0.7930  0.1492
 1335SOL    HW215642   2.714   2.000   3.275  0.2650  1.2914 -1.8895
 1336SOL     OW15643   0.862   2.351   4.786  0.2129  0.5078 -0.1373
 1336SOL    HW115644   0.896   2.279   4.839 -0.7696 -0.5937 -1.0006
 1336SOL    HW215645   0.924   2.424   4.788 -2.8086  3.1078 -1.6539
 1337SOL     OW15646   4.405   1.804   1.828 -0.2767 -0.8509  0.5289
 1337SOL    HW115647   4.409   1.742   1.901  1.6252  0.2595  1.3939
 1337SOL    HW215648   4.419   1.737   1.762  1.9747 -0.5115  0.6431
 1338SOL     OW15649   2.148   0.741   4.837 -0.2445 -0.0928 -0.0119
 1338SOL    HW115650   2.238   0.729   4.868  0.2493  1.4168 -0.8940
 1338SOL    HW215651   2.157   0.698   4.752  0.7515 -0.9463  0.5278
 1339SOL     OW15652   0.368   0.685  11.467 -0.3034 -0.2146 -0.6264
 1339SOL    HW115653   0.377   0.778  11.450  0.4026  0.0463  1.1424
 1339SOL    HW215654   0.311   0.661  11.394 -0.5417  2.0501 -1.1832
 1340SOL     OW15655   4.657   4.130   4.997  0.1945 -0.0035  0.2978
 1340SOL    HW115656   4.673   4.038   4.980 -2.3108 -0.2049 -1.0290
 1340SOL    HW215657   4.681   4.134   5.090  0.4353 -0.4354  0.2508
 1341SOL     OW15658   4.432   4.445   6.263 -0.0678 -0.7977  0.5712
 1341SOL    HW115659   4.513   4.399   6.242  0.7846  0.3158  1.4490
 1341SOL    HW215660   4.452   4.533   6.229 -0.1954 -1.0625 -0.2013
 1342SOL     OW15661   0.821   4.277   5.469  0.3396 -0.2960  0.0857
 1342SOL    HW115662   0.741   4.224   5.467  1.0641 -1.4344  1.3091
 1342SOL    HW215663   0.786   4.343   5.408 -1.4675 -0.0231  1.4341
 1343SOL     OW15664   2.517   2.925   8.597  0.1783  0.2961 -0.2596
 1343SOL    HW115665   2.585   2.886   8.652 -2.2316 -2.6213  0.6367
 1343SOL    HW215666   2.440   2.899   8.647  0.6739  1.2676  1.0176
 1344SOL     OW15667   2.244   2.542   3.994  0.3505 -0.1749  0.1315
 1344SOL    HW115668   2.293   2.550   4.076  1.9869 -0.2500 -0.8430
 1344SOL    HW215669   2.173   2.484   4.019 -1.3440  1.4035 -1.0250
 1345SOL     OW15670   0.621   2.596   2.163 -0.5399  0.0033  0.3654
 1345SOL    HW115671   0.575   2.594   2.079  0.7713  0.5961 -0.3746
 1345SOL    HW215672   0.558   2.656   2.204  3.3386  3.7650  0.8331
 1346SOL     OW15673   4.112   4.676  17.615 -0.0852 -0.1771  0.1347
 1346SOL    HW115674   4.141   4.639  17.532 -1.4175 -1.2909  0.1420
 1346SOL    HW215675   4.084   0.029  17.596  2.7985 -0.1147 -3.7740
 1347SOL     OW15676   3.314   4.631   3.932  0.4571  0.1292  0.4172
 1347SOL    HW115677   3.282   4.548   3.965  3.9342 -2.1572 -1.9029
 1347SOL    HW215678   3.409   4.629   3.946  0.7049 -0.6928 -1.4453
 1348SOL     OW15679   2.605   2.334   8.545  0.3646  0.3341  0.3152
 1348SOL    HW115680   2.547   2.360   8.617  1.6663 -0.9891  1.8327
 1348SOL    HW215681   2.625   2.247   8.580 -0.6730 -1.0732 -2.5615
 1349SOL     OW15682   1.101   3.565   7.849  0.3317  0.2699 -0.6044
 1349SOL    HW115683   1.118   3.483   7.894 -1.2829  0.4421  0.3018
 1349SOL    HW215684   1.172   3.566   7.784 -0.9942  0.1727 -2.0410
 1350SOL     OW15685   1.410   3.963  16.770  0.1257 -0.2372  0.6012
 1350SOL    HW115686   1.479   3.898  16.781 -0.5108 -1.5693 -3.4380
 1350SOL    HW215687   1.436   4.019  16.844 -0.9479 -1.1941  1.6935
 1351SOL     OW15688   0.751   0.881   0.513 -0.1776  0.6018 -0.0878
 1351SOL    HW115689   0.730   0.945   0.445 -0.6678  0.3987 -0.1265
 1351SOL    HW215690   0.847   0.881   0.515 -0.1631  0.7300 -0.7818
 1352SOL     OW15691   2.459   3.918  11.885  0.0185 -0.0383 -0.3315
 1352SOL    HW115692   2.536   3.929  11.828  0.2980  0.1301  0.0780
 1352SOL    HW215693   2.426   3.839  11.841 -1.6118  0.7800 -0.5702
 1353SOL     OW15694   1.447   2.162  11.128 -0.5038  0.2031 -0.1116
 1353SOL    HW115695   1.391   2.207  11.192  1.5875 -0.1448  1.9417
 1353SOL    HW215696   1.386   2.097  11.093  1.7763 -0.7898 -2.1889
 1354SOL     OW15697   0.942   3.958   4.219  0.1565 -0.2036  0.4377
 1354SOL    HW115698   1.017   3.957   4.160  0.0118 -1.8173  0.3001
 1354SOL    HW215699   0.907   3.876   4.185 -1.3097  0.3729  0.5423
 1355SOL     OW15700   3.640   1.772   4.530 -0.4885 -0.0911  0.4362
 1355SOL    HW115701   3.563   1.773   4.586 -0.6872  0.8906  0.1417
 1355SOL    HW215702   3.640   1.682   4.497 -0.4616  0.3701 -0.8294
 1356SOL     OW15703   0.223   1.446  11.961 -0.3605  0.0645 -0.5554
 1356SOL    HW115704   0.171   1.510  11.913  1.5790  0.6295 -1.8945
 1356SOL    HW215705   0.169   1.437  12.040 -1.9117  0.4590 -1.5709
 1357SOL     OW15706   3.149   0.746   3.205 -1.1788 -0.5592  0.7223
 1357SOL    HW115707   3.141   0.665   3.256  1.2195 -1.1267  0.2177
 1357SOL    HW215708   3.062   0.782   3.219 -0.5171 -0.1975  3.8742
 1358SOL     OW15709   2.339   1.966   8.952 -0.3054  0.3556 -0.3587
 1358SOL    HW115710   2.410   1.946   8.891  1.3023 -0.5562  1.8448
 1358SOL    HW215711   2.342   2.059   8.972 -0.3972  0.1022  0.7984
 1359SOL     OW15712   0.415   1.922   7.329  0.2205 -0.0285 -0.0663
 1359SOL    HW115713   0.479   1.894   7.264 -1.1772  1.7743 -2.2219
 1359SOL    HW215714   0.443   1.881   7.411 -0.8778  0.6970  0.6840
 1360SOL     OW15715   2.780   3.495   7.744  0.1209 -0.6359  0.2411
 1360SOL    HW115716   2.791   3.581   7.785  0.1024 -1.2777  1.5701
 1360SOL    HW215717   2.854   3.503   7.683  0.8958  0.2358  1.2837
 1361SOL     OW15718   3.049   3.040  14.470 -0.1909 -0.3272 -0.2068
 1361SOL    HW115719   2.994   3.117  14.458  1.6983  0.9963 -0.3568
 1361SOL    HW215720   3.012   3.007  14.552 -1.5080 -1.1885 -1.1403
 1362SOL     OW15721   0.525   0.195   2.029 -0.3300 -0.1204 -0.0068
 1362SOL    HW115722   0.619   0.191   2.013 -0.2070 -0.2884  0.7788
 1362SOL    HW215723   0.518   0.268   2.091  0.6239  0.2843 -0.3824
 1363SOL     OW15724   0.070   3.981  12.508 -0.2875 -0.0489  0.0224
 1363SOL    HW115725   0.133   4.001  12.439 -1.7063  0.7442 -1.0131
 1363SOL    HW215726   4.733   4.040  12.489  0.4890  1.2706  1.1035
 1364SOL     OW15727   3.374   4.734   1.421  0.3178 -0.2850  0.0404
 1364SOL    HW115728   3.325   4.653   1.437  0.0291 -0.3861 -1.3784
 1364SOL    HW215729   3.311   0.042   1.363  0.0518  1.1715  1.4427
 1365SOL     OW15730   3.645   1.272   4.835  0.1020 -0.1310  0.5831
 1365SOL    HW115731   3.557   1.235   4.832  0.5465 -1.2424  1.2105
 1365SOL    HW215732   3.686   1.239   4.755 -1.1224 -0.6045  0.1582
 1366SOL     OW15733   1.057   3.420   2.671 -0.1260 -0.4304  0.0477
 1366SOL    HW115734   1.128   3.405   2.608  1.2346 -1.3960  1.7950
 1366SOL    HW215735   1.037   3.333   2.704 -0.9126 -0.0929  0.4537
 1367SOL     OW15736   0.437   2.682   1.696 -0.7192 -0.1280  0.7641
 1367SOL    HW115737   0.405   2.719   1.613 -2.8921  0.5608  1.9109
 1367SOL    HW215738   0.518   2.655   1.654 -0.4616  1.7021  0.0433
 1368SOL     OW15739   3.286   0.638   7.488 -0.4640  0.0082 -0.0769
 1368SOL    HW115740   3.289   0.726   7.450 -2.1602 -0.2827 -0.8664
 1368SOL    HW215741   3.381   0.626   7.483 -0.2484  1.7808 -0.2974
 1369SOL     OW15742   1.729   3.853   8.399  0.4812  0.7189 -0.0746
 1369SOL    HW115743   1.750   3.946   8.411  0.6680  0.8858 -1.7864
 1369SOL    HW215744   1.771   3.811   8.474  0.8228  2.7873  0.9199
 1370SOL     OW15745   0.989   0.865   3.518  0.3916  0.3852 -0.4757
 1370SOL    HW115746   1.042   0.860   3.598  0.3554  1.9919 -0.3557
 1370SOL    HW215747   0.972   0.959   3.515  1.0692  0.5632  0.8977
 1371SOL     OW15748   4.711   2.415   4.325 -0.5869 -0.5839  0.3220
 1371SOL    HW115749   4.647   2.361   4.370 -0.0669  0.7475  2.6499
 1371SOL    HW215750   4.673   2.437   4.240 -2.0457  0.5849  1.2879
 1372SOL     OW15751   0.067   1.383   5.661  0.1194  0.2424 -0.3988
 1372SOL    HW115752   0.120   1.425   5.594 -0.3218  1.5898  0.1000
 1372SOL    HW215753   0.032   1.308   5.613 -0.5754 -0.6853  1.5310
 1373SOL     OW15754   3.221   0.215   8.865  0.0226  0.2752  0.3726
 1373SOL    HW115755   3.187   0.194   8.778  0.7771  0.0065  0.1467
 1373SOL    HW215756   3.168   0.168   8.930  0.0090  0.8433  0.7699
 1374SOL     OW15757   1.077   3.066   1.635 -0.1017 -0.6172 -0.4554
 1374SOL    HW115758   1.090   2.983   1.589  0.0181 -0.7535 -0.1761
 1374SOL    HW215759   1.069   3.030   1.724  1.6514  0.6755  0.2235
 1375SOL     OW15760   0.464   0.927   5.393 -0.3818  0.6569 -0.1776
 1375SOL    HW115761   0.384   0.902   5.347  0.7585 -0.5747 -1.4858
 1375SOL    HW215762   0.535   0.880   5.350  0.9791  2.0395  0.5946
 1376SOL     OW15763   0.738   0.443  11.432 -0.7439  0.4194  0.4561
 1376SOL    HW115764   0.731   0.524  11.381  0.7382  0.9287  1.0377
 1376SOL    HW215765   0.767   0.487  11.512 -0.9607 -2.8027  2.2845
 1377SOL     OW15766   0.668   4.304   3.740 -0.2207 -0.4550  0.0594
 1377SOL    HW115767   0.694   4.387   3.780  1.7472 -0.7319 -0.6530
 1377SOL    HW215768   0.599   4.331   3.679 -0.7722  0.0794  0.9184
 1378SOL     OW15769   3.118   1.863   9.047 -0.6124 -0.1401 -0.2970
 1378SOL    HW115770   3.198   1.893   9.090  0.5511 -2.2733 -0.9919
 1378SOL    HW215771   3.046   1.896   9.101 -2.4565 -0.8009 -2.3514
 1379SOL     OW15772   2.667   2.130  16.723 -0.3889 -0.5217  0.9214
 1379SOL    HW115773   2.624   2.063  16.670 -2.1842  0.6107  0.9433
 1379SOL    HW215774   2.757   2.099  16.736 -0.4653 -1.2939 -0.3267
 1380SOL     OW15775   0.206   3.215   9.884 -0.0471  0.1531 -0.2406
 1380SOL    HW115776   0.221   3.281   9.818  0.2757  0.9917  0.6709
 1380SOL    HW215777   0.294   3.200   9.918  0.0562  1.3098 -0.0248
 1381SOL     OW15778   1.047   2.021   2.628 -0.0665 -0.1204  0.0908
 1381SOL    HW115779   1.107   1.962   2.674 -1.5112 -1.7175 -0.0582
 1381SOL    HW215780   1.012   1.962   2.561  1.4562 -1.1126  0.1787
 1382SOL     OW15781   0.842   2.690   3.510  1.0874 -0.2267  0.2332
 1382SOL    HW115782   0.858   2.618   3.570  0.1338 -1.1152 -0.5846
 1382SOL    HW215783   0.887   2.761   3.557 -1.4469  1.9542 -0.6097
 1383SOL     OW15784   1.466   0.203   8.432  0.1826 -0.3039 -0.0367
 1383SOL    HW115785   1.491   0.291   8.402 -1.5267 -0.4395 -1.8676
 1383SOL    HW215786   1.439   0.231   8.519 -1.8928  0.2748 -0.8746
 1384SOL     OW15787   0.826   3.701  16.205 -0.3274 -0.0531  0.0312
 1384SOL    HW115788   0.751   3.706  16.145  0.3728  1.5782 -0.6943
 1384SOL    HW215789   0.895   3.723  16.143 -1.8385  0.1227 -1.5911
 1385SOL     OW15790   1.364   3.248   5.050  0.7964  0.1187 -0.0900
 1385SOL    HW115791   1.372   3.275   5.142  0.6983  0.4465 -0.1781
 1385SOL    HW215792   1.294   3.183   5.047  1.7851 -0.8634 -1.6542
 1386SOL     OW15793   2.520   3.172   7.919 -0.2372  0.6620  0.2301
 1386SOL    HW115794   2.425   3.169   7.926 -0.3695 -0.2362 -2.0220
 1386SOL    HW215795   2.527   3.226   7.840 -1.8910  0.9644  0.3017
 1387SOL     OW15796   2.974   0.161   5.925  0.9071 -0.2130  0.2671
 1387SOL    HW115797   2.953   0.132   5.836 -0.1302  0.6137  0.2381
 1387SOL    HW215798   2.941   0.251   5.931  2.4794  0.3113  1.0761
 1388SOL     OW15799   0.009   3.666  10.496 -0.7065 -0.1850 -0.3292
 1388SOL    HW115800   4.659   3.685  10.459 -0.6532 -0.1934 -0.4568
 1388SOL    HW215801   4.728   3.693  10.586  0.4314  0.7122 -0.3896
 1389SOL     OW15802   1.676   4.282  17.503 -0.0425  0.3178  0.3893
 1389SOL    HW115803   1.721   4.364  17.527 -2.7908  1.6892  0.7751
 1389SOL    HW215804   1.649   4.249  17.589  0.7150 -0.5933  0.2771
 1390SOL     OW15805   1.466   0.060   0.672 -0.0541  0.2423  0.2003
 1390SOL    HW115806   1.466   4.728   0.604 -0.4774 -2.2865  2.7060
 1390SOL    HW215807   1.559   0.082   0.672 -0.4008  1.7019  0.0155
 1391SOL     OW15808   4.566   2.361   9.065  0.0663  0.0532  0.5287
 1391SOL    HW115809   4.588   2.426   8.998 -1.0606  0.1140  0.2206
 1391SOL    HW215810   4.512   2.421   9.117  1.0461  0.5335  0.9910
 1392SOL     OW15811   0.205   3.026   8.689 -0.1040  0.3324 -0.0583
 1392SOL    HW115812   0.165   3.087   8.627 -0.9890  1.2863  1.4795
 1392SOL    HW215813   0.177   2.939   8.659  0.4080  0.5623 -1.1939
 1393SOL     OW15814   2.177   0.836   8.870 -0.5461  0.6627  0.7510
 1393SOL    HW115815   2.270   0.839   8.846 -0.0580  0.3845  2.5959
 1393SOL    HW215816   2.138   0.858   8.786 -2.1090 -1.2303  0.9721
 1394SOL     OW15817   2.762   4.611  14.000 -0.2576 -0.1383 -0.1400
 1394SOL    HW115818   2.720   4.576  14.079 -0.5967  0.7129  0.0545
 1394SOL    HW215819   2.733   4.548  13.934  0.8646 -0.3232 -0.4553
 1395SOL     OW15820   4.617   2.901   7.280 -0.1212  0.1241 -0.3920
 1395SOL    HW115821   4.643   2.978   7.229 -1.9706 -0.8426 -2.7874
 1395SOL    HW215822   4.696   2.847   7.273 -0.4273 -0.3803  0.1076
 1396SOL     OW15823   0.947   1.388   8.830  0.1761 -0.0712 -0.5901
 1396SOL    HW115824   0.994   1.442   8.895 -1.7012  0.4834  0.2934
 1396SOL    HW215825   0.988   1.304   8.850  0.9246  0.2358 -0.7927
 1397SOL     OW15826   1.040   0.957   9.892 -0.3579  0.4903 -0.3520
 1397SOL    HW115827   1.018   0.866   9.876  0.8483  0.3309 -1.0433
 1397SOL    HW215828   1.017   1.003   9.811  0.3229 -0.0467 -0.8364
 1398SOL     OW15829   3.068   1.632   0.823 -0.0459 -0.1174 -0.1454
 1398SOL    HW115830   3.016   1.629   0.902 -0.3260  0.0719 -0.3239
 1398SOL    HW215831   3.130   1.705   0.833 -0.4210  0.5484 -2.5446
 1399SOL     OW15832   4.487   3.373   7.313 -0.2431  0.3943  0.3505
 1399SOL    HW115833   4.400   3.404   7.338 -0.2264  1.2831 -0.6988
 1399SOL    HW215834   4.503   3.297   7.369  0.2311  0.4494  0.2877
 1400SOL     OW15835   1.009   1.536  10.938 -0.2015  0.1966 -0.2893
 1400SOL    HW115836   1.023   1.442  10.932  1.9765  0.4953  0.1366
 1400SOL    HW215837   0.996   1.542  11.033 -0.2677  0.4992 -0.3173
 1401SOL     OW15838   0.725   4.244   1.264  0.0918 -0.4999  0.1958
 1401SOL    HW115839   0.808   4.283   1.291 -0.0148  0.7139 -1.2005
 1401SOL    HW215840   0.752   4.181   1.197  3.3038 -0.9326  1.8920
 1402SOL     OW15841   1.090   1.199   7.045  0.2169 -0.6121  0.1477
 1402SOL    HW115842   1.007   1.230   7.082  1.0616  1.4725  0.3185
 1402SOL    HW215843   1.093   1.233   6.955 -2.1659  0.4462  0.4685
 1403SOL     OW15844   2.539   1.760  11.332  0.5175  0.6431 -0.4103
 1403SOL    HW115845   2.547   1.770  11.427  1.1370 -2.4617 -0.1218
 1403SOL    HW215846   2.625   1.720  11.318 -0.0256  0.0165 -2.0203
 1404SOL     OW15847   4.436   0.961   3.104  0.2288  0.1715  0.6492
 1404SOL    HW115848   4.522   0.924   3.124 -0.4858 -2.2331 -0.7220
 1404SOL    HW215849   4.376   0.916   3.163  1.1810 -1.4147  0.4275
 1405SOL     OW15850   2.827   1.284  12.542 -0.5526  0.2551 -0.3605
 1405SOL    HW115851   2.909   1.269  12.591  0.3181  1.0139 -1.5969
 1405SOL    HW215852   2.789   1.199  12.566 -0.3239  0.2421 -0.0357
 1406SOL     OW15853   4.121   2.475  14.355  0.0297 -0.7909 -0.4987
 1406SOL    HW115854   4.135   2.514  14.269 -1.5200 -0.4163 -0.5682
 1406SOL    HW215855   4.037   2.518  14.369  0.1744 -0.2612 -1.2671
 1407SOL     OW15856   1.653   2.202  13.844  0.7817 -0.3954 -0.8775
 1407SOL    HW115857   1.617   2.120  13.878 -3.4280  1.5694 -0.6300
 1407SOL    HW215858   1.587   2.265  13.870 -0.0401 -1.9030  0.7287
 1408SOL     OW15859   1.159   0.400  14.644 -0.2610 -0.1820 -0.3872
 1408SOL    HW115860   1.099   0.446  14.703 -2.4085 -0.8618 -2.0743
 1408SOL    HW215861   1.192   0.475  14.594  0.3070 -0.3771 -0.3018
 1409SOL     OW15862   2.116   1.092   6.156 -0.2951  0.1984 -0.3675
 1409SOL    HW115863   2.060   1.016   6.137 -1.0594  0.9322 -1.0225
 1409SOL    HW215864   2.184   1.040   6.200  0.4749  0.5618 -1.1307
 1410SOL     OW15865   0.485   4.108   2.759 -0.0538  0.2240  0.3990
 1410SOL    HW115866   0.450   4.026   2.793 -1.9826  1.0522  0.3764
 1410SOL    HW215867   0.561   4.073   2.711  0.0689 -1.9444  2.2160
 1411SOL     OW15868   2.842   4.443   0.262 -0.1075  0.1417 -0.2622
 1411SOL    HW115869   2.893   4.470   0.186  0.0945 -1.1694 -0.5848
 1411SOL    HW215870   2.890   4.475   0.339  0.5911 -0.3313 -0.5045
 1412SOL     OW15871   4.633   2.513   9.544  0.0210  0.1267  0.4237
 1412SOL    HW115872   4.701   2.476   9.488  0.9267  0.2218  1.4606
 1412SOL    HW215873   4.596   2.581   9.488  1.5339  0.0155 -0.7043
 1413SOL     OW15874   2.556   2.728   6.987  0.2407  0.2837 -0.5450
 1413SOL    HW115875   2.577   2.653   6.931 -0.8918 -1.9744  2.0112
 1413SOL    HW215876   2.491   2.770   6.932 -1.3184 -2.0055 -0.4547
 1414SOL     OW15877   3.112   3.662  16.712 -0.7768  0.0806  0.0153
 1414SOL    HW115878   3.183   3.602  16.690 -0.7938  0.1199 -0.1467
 1414SOL    HW215879   3.120   3.716  16.633 -2.4398 -0.1821 -0.3265
 1415SOL     OW15880   4.288   3.368   1.682  0.1511  0.2788 -0.4466
 1415SOL    HW115881   4.371   3.361   1.635 -0.5862 -0.6688 -1.6171
 1415SOL    HW215882   4.273   3.276   1.703  0.1203  0.7962  1.8394
 1416SOL     OW15883   4.105   2.754   7.328 -0.2447 -0.2420  0.4356
 1416SOL    HW115884   4.041   2.821   7.351  1.3655  2.2924 -2.4759
 1416SOL    HW215885   4.147   2.790   7.250 -0.1436 -2.9840 -0.7901
 1417SOL     OW15886   2.679   0.321   8.242 -0.5425 -0.0647 -0.2293
 1417SOL    HW115887   2.680   0.417   8.244  1.1217 -0.0817 -0.3081
 1417SOL    HW215888   2.670   0.305   8.148 -1.4054  0.0620 -0.1706
 1418SOL     OW15889   2.843   0.844   6.182  0.5810  0.0442 -0.1841
 1418SOL    HW115890   2.756   0.854   6.220 -0.2770 -1.7962 -1.6481
 1418SOL    HW215891   2.849   0.938   6.168 -0.1568  0.0081 -0.7370
 1419SOL     OW15892   0.337   2.333   7.960  0.2659  0.0129  0.3978
 1419SOL    HW115893   0.278   2.342   7.885 -1.4596  1.3623  1.9360
 1419SOL    HW215894   0.296   2.255   7.999 -1.8153  0.1740 -1.4589
 1420SOL     OW15895   1.041   0.691   7.305  0.2613 -0.5644 -0.7104
 1420SOL    HW115896   1.060   0.657   7.392 -3.0399  1.4976  0.8308
 1420SOL    HW215897   0.983   0.763   7.332  1.2073 -0.5848  1.3595
 1421SOL     OW15898   1.519   1.050   4.800 -0.6958 -0.3533  0.2375
 1421SOL    HW115899   1.587   0.987   4.824 -1.1597 -0.7305  0.5747
 1421SOL    HW215900   1.484   1.065   4.888 -1.5111  0.8690 -0.2968
 1422SOL     OW15901   4.293   3.541  10.538 -0.4058  0.1936  0.0669
 1422SOL    HW115902   4.258   3.468  10.589 -0.9249 -0.5652 -1.3723
 1422SOL    HW215903   4.353   3.577  10.602  0.0490 -0.8862  0.2504
 1423SOL     OW15904   1.995   4.546   7.300 -0.0956 -0.4798 -0.4240
 1423SOL    HW115905   2.057   4.618   7.310 -0.5253 -0.3254  1.1105
 1423SOL    HW215906   1.916   4.598   7.313 -0.2050 -0.8675  0.4752
 1424SOL     OW15907   2.353   2.172   1.825  0.1484 -0.1459  0.1500
 1424SOL    HW115908   2.399   2.255   1.819  0.5427 -0.3730  0.0439
 1424SOL    HW215909   2.282   2.192   1.886 -0.4817  0.1218 -0.6706
 1425SOL     OW15910   0.670   4.580   7.012  0.5543  0.6445 -0.0318
 1425SOL    HW115911   0.702   4.666   7.041 -0.5379  0.9811  0.1655
 1425SOL    HW215912   0.619   4.545   7.084 -0.3548 -2.2537 -2.1041
 1426SOL     OW15913   3.406   1.403   8.130  0.6665  0.1800  0.0101
 1426SOL    HW115914   3.481   1.432   8.078  0.3693 -0.4376 -0.7615
 1426SOL    HW215915   3.422   1.443   8.215 -0.9080 -1.7241  1.2023
 1427SOL     OW15916   1.054   2.634   3.963  0.5476 -0.4387 -0.0495
 1427SOL    HW115917   1.015   2.698   4.021  0.6334  0.0383 -0.5206
 1427SOL    HW215918   0.991   2.562   3.970  1.0707 -0.7777  1.2415
 1428SOL     OW15919   0.377   1.660   2.241  0.0735  0.0655  0.2403
 1428SOL    HW115920   0.286   1.651   2.268  0.8359 -1.5060  2.2599
 1428SOL    HW215921   0.384   1.574   2.200 -0.0250 -0.5447  1.5167
 1429SOL     OW15922   3.230   1.187   6.688  0.1228  0.2609  0.7718
 1429SOL    HW115923   3.162   1.245   6.724 -0.5201 -0.6007  0.9674
 1429SOL    HW215924   3.307   1.243   6.689 -0.1508  0.6330  1.0183
 1430SOL     OW15925   1.545   2.159   6.630  0.4639  0.8611 -0.2467
 1430SOL    HW115926   1.561   2.228   6.695  1.4841 -0.7146  1.1722
 1430SOL    HW215927   1.629   2.176   6.587  0.5937 -0.2847 -0.4487
 1431SOL     OW15928   0.767   0.990   9.966 -0.1809 -0.2165  0.1800
 1431SOL    HW115929   0.732   1.044   9.896 -1.8436 -0.3224  0.9234
 1431SOL    HW215930   0.863   0.995   9.960 -0.0043 -0.3484  2.7028
 1432SOL     OW15931   0.760   3.413   5.823  0.3528  0.6028  0.7474
 1432SOL    HW115932   0.707   3.399   5.744 -0.1825  0.0596  1.2033
 1432SOL    HW215933   0.819   3.474   5.779  0.1120  1.3490  1.4513
 1433SOL     OW15934   0.558   2.003   1.877  0.2333  0.2790 -0.3163
 1433SOL    HW115935   0.630   1.964   1.827  0.4827  0.7976 -0.3559
 1433SOL    HW215936   0.525   1.918   1.908  1.1381  0.2531  0.5577
 1434SOL     OW15937   1.552   3.571   7.899 -0.5086 -0.3679 -0.0762
 1434SOL    HW115938   1.483   3.520   7.941  0.6453 -1.0007  1.0588
 1434SOL    HW215939   1.546   3.647   7.957 -0.2985 -0.0019 -0.5380
 1435SOL     OW15940   0.857   1.938   5.345  0.9001 -0.2020  0.0199
 1435SOL    HW115941   0.846   1.862   5.403 -0.7051 -0.3321 -0.4451
 1435SOL    HW215942   0.783   1.922   5.286  0.3635  0.7808  0.4223
 1436SOL     OW15943   4.484   3.732   0.158 -0.2045  0.4534  0.0610
 1436SOL    HW115944   4.483   3.659   0.220 -0.0791  1.0405  0.7517
 1436SOL    HW215945   4.451   3.696   0.075 -0.7370  2.6718 -0.6790
 1437SOL     OW15946   0.695   0.780   6.205  0.2813  0.7128 -0.3786
 1437SOL    HW115947   0.697   0.734   6.121  2.1468  0.6577 -0.3039
 1437SOL    HW215948   0.692   0.708   6.268 -0.6908  1.9068  0.9247
 1438SOL     OW15949   0.565   3.363   7.337 -0.1376 -0.0369  0.6479
 1438SOL    HW115950   0.489   3.326   7.381  0.3413 -1.1734  0.5147
 1438SOL    HW215951   0.562   3.452   7.371  0.7604  1.1732 -2.4187
 1439SOL     OW15952   4.289   3.191   4.238 -0.3629 -0.6212  0.1013
 1439SOL    HW115953   4.383   3.210   4.245 -0.8310  2.0165 -0.5777
 1439SOL    HW215954   4.270   3.140   4.160 -2.6334  1.2760 -0.5747
 1440SOL     OW15955   1.884   4.426   9.837  0.3215 -0.1709 -0.1995
 1440SOL    HW115956   1.891   4.509   9.884  1.5840  0.1288 -0.9020
 1440SOL    HW215957   1.799   4.430   9.793  0.1031 -1.0795  0.1417
 1441SOL     OW15958   1.617   4.323   8.486  0.5078 -0.5756 -0.1550
 1441SOL    HW115959   1.631   4.416   8.466 -0.1574 -0.2861  0.7356
 1441SOL    HW215960   1.522   4.324   8.482  0.4716  0.2630  1.0918
 1442SOL     OW15961   3.497   2.999   2.984  0.6058 -0.2583  0.3296
 1442SOL    HW115962   3.499   3.030   3.074 -0.8796 -0.7040  0.5182
 1442SOL    HW215963   3.585   3.023   2.955 -0.3549  0.5627 -1.9141
 1443SOL     OW15964   2.540   2.619  12.342  0.0774 -0.3943 -0.1016
 1443SOL    HW115965   2.498   2.533  12.337  0.6205 -0.5311 -2.3068
 1443SOL    HW215966   2.603   2.619  12.415 -2.4280 -1.3179  2.0516
 1444SOL     OW15967   1.988   4.239   4.763  0.5317 -0.3002  0.0802
 1444SOL    HW115968   2.043   4.303   4.717 -0.1116 -0.2440 -0.6079
 1444SOL    HW215969   1.954   4.189   4.689  0.6071 -1.7195  0.9939
 1445SOL     OW15970   0.798   1.422  13.117  0.6283  0.1088  0.0269
 1445SOL    HW115971   0.842   1.337  13.110  1.6515  0.6612 -0.3459
 1445SOL    HW215972   0.716   1.409  13.164 -0.7997  1.3778 -2.0668
 1446SOL     OW15973   0.667   3.151   3.237  0.2413  0.3432  0.3968
 1446SOL    HW115974   0.693   3.240   3.259 -0.4805  0.3188  1.3237
 1446SOL    HW215975   0.749   3.102   3.238 -0.3936 -0.6999  0.8013
 1447SOL     OW15976   2.015   2.175   2.228 -0.4885 -0.1187 -0.7330
 1447SOL    HW115977   2.089   2.229   2.201 -1.7257  1.3175 -1.2193
 1447SOL    HW215978   2.020   2.093   2.179 -0.2096  0.1493 -1.1472
 1448SOL     OW15979   3.960   4.619  11.838 -0.2061 -0.4051 -0.4467
 1448SOL    HW115980   3.910   4.700  11.851 -0.3624 -0.5554 -0.1115
 1448SOL    HW215981   3.963   4.599  11.932 -0.6241 -1.6332 -0.6968
 1449SOL     OW15982   1.675   3.196  10.222  0.3054 -0.2771 -0.0098
 1449SOL    HW115983   1.717   3.151  10.296  0.4907  0.2729  0.2169
 1449SOL    HW215984   1.745   3.234  10.169 -0.3388  0.2307 -0.4860
 1450SOL     OW15985   4.731   2.923   0.631 -0.0061  0.4928 -0.3906
 1450SOL    HW115986   4.708   2.891   0.719 -1.8711 -1.1444 -1.4621
 1450SOL    HW215987   4.652   2.974   0.612  0.3082  1.7820  1.7350
 1451SOL     OW15988   2.083   1.147   8.144  0.2883  0.0192  0.3495
 1451SOL    HW115989   2.101   1.164   8.051 -1.0239  0.8531  0.2518
 1451SOL    HW215990   2.044   1.231   8.167 -0.3774  0.5106 -2.6020
 1452SOL     OW15991   1.692   2.809  14.837 -0.2998  0.1233 -0.8614
 1452SOL    HW115992   1.759   2.807  14.770 -0.3536 -0.0149 -0.9106
 1452SOL    HW215993   1.671   2.716  14.847 -2.5465  0.8345  1.2086
 1453SOL     OW15994   3.947   1.531   5.786  0.1042  0.5993  0.7087
 1453SOL    HW115995   3.939   1.568   5.698  2.3743 -0.2352  0.1585
 1453SOL    HW215996   3.994   1.598   5.835  0.4520  0.8025  0.1003
 1454SOL     OW15997   2.141   4.442  17.247  0.6914  0.3225 -0.3388
 1454SOL    HW115998   2.208   4.384  17.281  0.7905  0.6200 -0.0230
 1454SOL    HW215999   2.189   4.477  17.172  1.4506 -1.0197 -0.4609
 1455SOL     OW16000   0.716   4.018  17.563  0.3686 -0.2611  0.5225
 1455SOL    HW116001   0.720   4.112  17.543  0.5774 -0.5613 -0.8419
 1455SOL    HW216002   0.686   4.019  17.654 -2.8571  0.6115 -0.5595
 1456SOL     OW16003   4.062   2.036   8.093  0.3660  0.8933  0.0262
 1456SOL    HW116004   4.087   2.115   8.045  0.1411  0.8047 -0.2372
 1456SOL    HW216005   3.983   2.008   8.047  0.5317 -0.4551  0.5793
 1457SOL     OW16006   4.735   3.452   6.641 -0.4838  0.2337  0.1787
 1457SOL    HW116007   4.688   3.390   6.585 -2.5523  2.3215 -0.3942
 1457SOL    HW216008   4.705   3.541   6.620 -2.3045 -1.1119 -2.8920
 1458SOL     OW16009   1.764   2.420   5.621 -0.1848  0.4334  0.3498
 1458SOL    HW116010   1.814   2.384   5.548  1.7661  0.8216  1.5085
 1458SOL    HW216011   1.818   2.395   5.697 -0.1850  0.8068  0.4694
 1459SOL     OW16012   1.048   0.011   5.242  0.3584 -0.0452 -0.3920
 1459SOL    HW116013   1.015   4.697   5.316 -1.4316  2.1029  0.2539
 1459SOL    HW216014   1.074   4.681   5.179  1.6153 -0.2478  0.3396
 1460SOL     OW16015   2.528   4.579   5.052 -0.3185 -0.1922  0.6708
 1460SOL    HW116016   2.486   4.631   4.984 -1.9095 -1.0048  1.0420
 1460SOL    HW216017   2.579   4.648   5.093  0.7541  1.5319 -3.5380
 1461SOL     OW16018   3.068   1.231   2.680  0.4582  0.2780  0.3920
 1461SOL    HW116019   3.162   1.214   2.682  0.5818  1.0461  1.5154
 1461SOL    HW216020   3.041   1.259   2.768 -1.6254  0.9154 -0.4463
 1462SOL     OW16021   3.717   3.075   1.709 -0.5131 -0.0932  0.5957
 1462SOL    HW116022   3.805   3.110   1.691 -0.5775  0.1507  0.7507
 1462SOL    HW216023   3.701   2.997   1.657  1.2610  0.2385 -0.4499
 1463SOL     OW16024   1.801   0.647  11.276  0.0841  0.1444 -0.1648
 1463SOL    HW116025   1.796   0.553  11.261  2.0570 -0.3805  2.3816
 1463SOL    HW216026   1.760   0.659  11.362  1.5405 -3.9529  1.0911
 1464SOL     OW16027   2.932   2.368   8.327 -0.1812  0.1975  0.3032
 1464SOL    HW116028   2.862   2.415   8.281 -1.3274 -2.2287 -0.4319
 1464SOL    HW216029   3.008   2.411   8.288 -0.7539  1.5701  0.6911
 1465SOL     OW16030   3.506   0.223   5.995 -0.3299  0.2333  0.1435
 1465SOL    HW116031   3.472   0.239   6.083  1.0291 -3.6656  1.3713
 1465SOL    HW216032   3.436   0.260   5.941  1.1853 -0.0630 -2.0594
 1466SOL     OW16033   1.052   3.970   5.099  0.0313  0.4573 -0.5565
 1466SOL    HW116034   1.088   3.915   5.168 -1.2267  0.0944 -0.1991
 1466SOL    HW216035   0.968   3.928   5.081  0.2315 -0.3885  0.4863
 1467SOL     OW16036   0.911   2.519   2.676  0.8941 -1.0165 -0.3372
 1467SOL    HW116037   0.880   2.538   2.764  1.6224  0.7324 -0.4611
 1467SOL    HW216038   0.858   2.442   2.659 -2.0463  1.2124 -1.3775
 1468SOL     OW16039   2.970   1.594   5.271 -0.6640  0.7913  0.1447
 1468SOL    HW116040   2.940   1.681   5.245  2.0887  1.6817 -0.0670
 1468SOL    HW216041   2.975   1.605   5.366 -0.7680  0.8687  0.1408
 1469SOL     OW16042   3.805   4.134   2.377 -0.3328 -0.8040 -0.3589
 1469SOL    HW116043   3.885   4.186   2.374 -0.6030 -0.3488  0.3804
 1469SOL    HW216044   3.831   4.062   2.434 -0.8497 -1.2271 -0.6562
 1470SOL     OW16045   4.527   3.162   6.894  0.3835 -0.0395 -0.0201
 1470SOL    HW116046   4.551   3.154   6.802  0.1269  1.8084 -0.2372
 1470SOL    HW216047   4.572   3.246   6.906  2.3480 -0.9474 -1.0286
 1471SOL     OW16048   1.756   4.729  15.419 -0.1096  0.3726  0.6833
 1471SOL    HW116049   1.746   4.692  15.507  0.9412  3.1937  1.9626
 1471SOL    HW216050   1.792   0.077  15.444 -1.2009  1.2862 -0.8210
 1472SOL     OW16051   3.915   0.866  15.202 -0.0942  0.1487 -0.3458
 1472SOL    HW116052   3.930   0.913  15.284 -1.8518 -2.3321  1.4055
 1472SOL    HW216053   3.914   0.942  15.143  2.9714  1.7787  1.6964
 1473SOL     OW16054   3.034   2.103  13.332 -0.7383  0.2062  0.2855
 1473SOL    HW116055   3.002   2.188  13.361  1.9805  1.7380 -1.1616
 1473SOL    HW216056   2.955   2.060  13.297 -0.1710 -1.1610  0.6969
 1474SOL     OW16057   4.236   2.459   7.701 -0.4302  0.9137  0.0589
 1474SOL    HW116058   4.235   2.404   7.623 -0.4848 -1.2077  1.5505
 1474SOL    HW216059   4.183   2.535   7.678 -0.9946  0.4505 -0.1470
 1475SOL     OW16060   1.524   2.944  12.935 -0.7049  0.3456  0.0095
 1475SOL    HW116061   1.528   3.035  12.965  0.2462  1.3607 -3.2987
 1475SOL    HW216062   1.458   2.953  12.866  0.4366  0.6429 -1.0254
 1476SOL     OW16063   1.575   2.829   0.512 -0.0967  0.0182  0.2524
 1476SOL    HW116064   1.526   2.779   0.577  0.7481 -0.8899  0.2023
 1476SOL    HW216065   1.580   2.755   0.452  2.5316  1.6078 -1.4709
 1477SOL     OW16066   1.886   3.836  13.513  0.0880 -0.8455 -0.3066
 1477SOL    HW116067   1.896   3.741  13.514 -0.7971 -0.9539 -2.7960
 1477SOL    HW216068   1.798   3.850  13.550  0.2956 -2.8960  0.9587
 1478SOL     OW16069   1.532   4.645  10.099 -0.1411 -0.2383  0.3221
 1478SOL    HW116070   1.612   4.684  10.135 -1.3170  2.1891  0.2630
 1478SOL    HW216071   1.550   4.679  10.011  0.9521  0.6430  0.8872
 1479SOL     OW16072   2.601   4.525   8.528 -0.1313  0.4080  0.0355
 1479SOL    HW116073   2.598   4.435   8.560 -0.5528  0.4769  0.1835
 1479SOL    HW216074   2.518   4.563   8.556  0.0728  0.0660  1.1047
 1480SOL     OW16075   0.542   3.734   6.293 -0.0058  0.7371 -0.1613
 1480SOL    HW116076   0.458   3.689   6.288  0.4048 -0.1449  1.2679
 1480SOL    HW216077   0.599   3.688   6.231 -1.1861 -2.5471  1.2232
 1481SOL     OW16078   0.179   1.635   8.280 -0.3584  0.4514 -0.0671
 1481SOL    HW116079   0.131   1.664   8.358 -0.6433  0.6938 -0.3299
 1481SOL    HW216080   0.181   1.542   8.304 -1.9923  0.5724  0.5136
 1482SOL     OW16081   2.957   0.938   0.620 -0.5242 -0.2725 -0.0265
 1482SOL    HW116082   3.025   0.877   0.647  1.0014  1.1129 -0.7448
 1482SOL    HW216083   2.967   0.997   0.695 -1.1482 -0.1217 -0.0642
 1483SOL     OW16084   2.014   2.210   3.742  0.0884  0.3722 -0.0616
 1483SOL    HW116085   1.955   2.262   3.796 -1.4998 -2.0311  0.5275
 1483SOL    HW216086   2.022   2.270   3.668 -1.0815 -0.9538 -1.2659
 1484SOL     OW16087   1.722   0.551   5.309  0.1576 -0.1164 -0.2288
 1484SOL    HW116088   1.761   0.505   5.384  1.6239 -0.2128 -1.0538
 1484SOL    HW216089   1.799   0.604   5.289  1.8755 -2.3788  0.2990
 1485SOL     OW16090   1.614   0.754   1.771 -0.5543 -0.6073  0.1937
 1485SOL    HW116091   1.699   0.799   1.768 -0.8741  0.0387  0.6534
 1485SOL    HW216092   1.619   0.697   1.694  1.2022 -0.6035  0.3077
 1486SOL     OW16093   3.995   1.688   2.955  0.1028 -0.1799 -0.2012
 1486SOL    HW116094   4.069   1.747   2.969 -0.1976  0.0866  0.2638
 1486SOL    HW216095   4.034   1.601   2.944 -0.6304 -0.8411  2.5032
 1487SOL     OW16096   2.527   1.948   7.090  0.3515  0.0076  0.3976
 1487SOL    HW116097   2.600   1.944   7.152 -0.7091 -1.5247  1.5753
 1487SOL    HW216098   2.522   2.040   7.065  0.8402  0.2425  1.1938
 1488SOL     OW16099   0.964   0.335   4.696  0.9084 -0.1230 -0.2871
 1488SOL    HW116100   0.879   0.359   4.659  0.7711 -2.0331 -1.2285
 1488SOL    HW216101   1.021   0.347   4.620 -1.2688 -2.5138 -2.3084
 1489SOL     OW16102   1.437   0.808   8.863 -0.5538  0.3290  0.4597
 1489SOL    HW116103   1.358   0.861   8.856 -1.8609 -1.9910 -2.0858
 1489SOL    HW216104   1.407   0.724   8.829  1.3824  0.2223 -1.0114
 1490SOL     OW16105   0.299   4.517   5.302 -0.4632 -0.2676  0.2330
 1490SOL    HW116106   0.304   4.601   5.257  1.8438 -1.0893 -1.0341
 1490SOL    HW216107   0.241   4.529   5.378  0.3826 -3.3892  1.4039
 1491SOL     OW16108   1.585   0.482   8.925 -0.1904  0.3729 -0.1800
 1491SOL    HW116109   1.504   0.436   8.946  0.3439  0.5166  2.1284
 1491SOL    HW216110   1.564   0.516   8.838 -1.4668 -2.0782 -0.8175
 1492SOL     OW16111   0.610   4.435  13.720  0.0744 -0.9175 -0.5585
 1492SOL    HW116112   0.527   4.441  13.767  0.2235  1.5232 -0.6246
 1492SOL    HW216113   0.648   4.349  13.739  1.4579  0.4364  2.6206
 1493SOL     OW16114   4.062   4.041   8.650  0.3453 -0.1027  0.5516
 1493SOL    HW116115   3.985   3.988   8.668  2.6391 -3.3045  1.0431
 1493SOL    HW216116   4.135   3.982   8.671  2.9416  2.0754 -2.2552
 1494SOL     OW16117   4.640   0.811   5.264 -0.3426  0.4963  0.1015
 1494SOL    HW116118   4.617   0.898   5.298 -1.8496  0.0540  0.2165
 1494SOL    HW216119   4.724   0.818   5.220  0.0426  0.3013  0.8007
 1495SOL     OW16120   1.152   4.247   6.629  0.0329 -0.9806 -0.2717
 1495SOL    HW116121   1.127   4.252   6.721 -0.0700 -0.4357 -0.3281
 1495SOL    HW216122   1.132   4.337   6.605 -0.5350 -1.3082 -1.0172
 1496SOL     OW16123   0.633   2.507  17.010 -0.1659 -0.3283  0.8823
 1496SOL    HW116124   0.610   2.598  17.029 -1.9100 -0.6273  0.2492
 1496SOL    HW216125   0.670   2.510  16.922  2.9936 -0.9089  2.1896
 1497SOL     OW16126   2.005   1.791   7.800 -0.0190 -0.1815  0.2260
 1497SOL    HW116127   1.926   1.758   7.842 -0.6020 -2.6306 -2.8017
 1497SOL    HW216128   1.964   1.857   7.745 -0.0346  0.0022  0.4598
 1498SOL     OW16129   2.594   4.547   7.574  0.1355  0.9099  0.1278
 1498SOL    HW116130   2.584   4.453   7.587  0.9410  0.6716 -0.9592
 1498SOL    HW216131   2.581   4.562   7.480 -4.3913 -0.6853  0.5018
 1499SOL     OW16132   3.563   0.008   3.560 -0.2020 -0.3879 -0.3392
 1499SOL    HW116133   3.605   0.061   3.492 -0.3346  1.4810  1.0130
 1499SOL    HW216134   3.522   0.067   3.623 -0.0375  0.3715 -0.9418
 1500SOL     OW16135   3.034   0.969   0.003 -0.0806  0.1439 -0.3654
 1500SOL    HW116136   3.082   0.891  17.718  0.0088 -0.1255  0.5568
 1500SOL    HW216137   3.092   0.993   0.076  1.8757 -2.1869 -1.1345
 1501SOL     OW16138   4.299   2.070   6.434  0.1706  0.4977  0.4720
 1501SOL    HW116139   4.229   2.095   6.494 -0.2793 -2.9416  1.3534
 1501SOL    HW216140   4.325   2.158   6.406  0.0723  0.3826  0.0238
 1502SOL     OW16141   3.866   0.599  15.085 -0.0698  0.3442  0.0069
 1502SOL    HW116142   3.874   0.678  15.139 -0.0792  0.3630 -0.0190
 1502SOL    HW216143   3.938   0.606  15.021 -1.2612 -1.9239 -1.5885
 1503SOL     OW16144   1.563   3.871   7.979 -0.2938  0.1645  0.0514
 1503SOL    HW116145   1.527   3.953   8.011  0.3965 -0.2152  1.8066
 1503SOL    HW216146   1.656   3.894   7.985 -0.5647  1.3576 -0.3763
 1504SOL     OW16147   1.147   2.473   0.184 -0.4384 -0.1964 -0.0682
 1504SOL    HW116148   1.162   2.566   0.204 -0.0915  0.0122 -1.3197
 1504SOL    HW216149   1.069   2.453   0.236 -1.4424 -0.7752 -1.8098
 1505SOL     OW16150   2.850   2.705   8.948 -0.0739 -0.2711  0.5174
 1505SOL    HW116151   2.818   2.717   9.037 -0.0155  1.5411  0.3023
 1505SOL    HW216152   2.918   2.641   8.968  0.8167  0.1763 -1.0452
 1506SOL     OW16153   1.621   2.794   9.077  0.5288  0.3697  0.0843
 1506SOL    HW116154   1.626   2.709   9.122  2.7216  1.8882  2.7518
 1506SOL    HW216155   1.649   2.773   8.988 -0.4180  0.8685 -0.3178
 1507SOL     OW16156   0.249   4.659   1.410 -0.4090  0.3720 -0.0119
 1507SOL    HW116157   0.261   4.630   1.500  0.6392 -0.6440 -0.4860
 1507SOL    HW216158   0.338   4.652   1.374 -0.4928 -0.0943 -0.1281
 1508SOL     OW16159   0.085   4.154   6.135 -0.1594 -0.0067  0.1284
 1508SOL    HW116160   0.070   4.102   6.055 -0.0476  1.0447 -0.5713
 1508SOL    HW216161   0.090   4.080   6.196 -2.9574 -0.5596 -0.3062
 1509SOL     OW16162   1.721   1.324   9.308 -0.7376 -0.3581 -0.8040
 1509SOL    HW116163   1.768   1.275   9.376  2.6619 -1.6913 -4.1515
 1509SOL    HW216164   1.785   1.394   9.293  0.2366 -1.6545 -2.6411
 1510SOL     OW16165   3.134   3.027   2.757  0.5049 -0.0903  0.2276
 1510SOL    HW116166   3.157   2.940   2.791 -0.3411  0.7135  2.8352
 1510SOL    HW216167   3.221   3.063   2.739  0.5579  0.0545  0.7768
 1511SOL     OW16168   2.460   3.690  12.361 -0.5748 -0.0828  0.4578
 1511SOL    HW116169   2.536   3.697  12.304 -1.0017 -0.1181 -0.1128
 1511SOL    HW216170   2.503   3.644  12.433 -0.7644  3.2672  2.7643
 1512SOL     OW16171   2.492   2.429   9.355  0.8751  0.3379  0.5702
 1512SOL    HW116172   2.492   2.494   9.425  0.7226 -0.2815  1.1456
 1512SOL    HW216173   2.405   2.390   9.351  1.5590 -1.0274 -0.9104
 1513SOL     OW16174   4.595   0.784   2.526 -0.2034  0.2623 -0.9429
 1513SOL    HW116175   4.507   0.751   2.506 -0.9069  1.1983  0.6114
 1513SOL    HW216176   4.645   0.727   2.467 -0.5456 -1.5631  0.5252
 1514SOL     OW16177   2.495   3.255   1.946 -0.1915  0.2517 -0.7981
 1514SOL    HW116178   2.462   3.171   1.978  0.4611  0.6330  0.8728
 1514SOL    HW216179   2.523   3.282   2.033 -1.1746  0.5707 -0.5864
 1515SOL     OW16180   2.221   0.503   4.486  0.3242 -0.0317  0.2173
 1515SOL    HW116181   2.240   0.483   4.577  0.7878  0.2701  0.1900
 1515SOL    HW216182   2.290   0.569   4.477  1.7634 -1.4600  0.6287
 1516SOL     OW16183   3.821   1.803   0.426  0.5677  0.0600 -0.2575
 1516SOL    HW116184   3.817   1.737   0.358  1.2916 -3.1043  2.7754
 1516SOL    HW216185   3.729   1.828   0.432  0.0633 -2.5350  2.7460
 1517SOL     OW16186   3.716   3.785  15.844  0.2748  0.6823  0.6841
 1517SOL    HW116187   3.659   3.862  15.834  0.7675  1.3100  2.6665
 1517SOL    HW216188   3.791   3.832  15.881 -0.3538  2.2700 -0.0330
 1518SOL     OW16189   4.233   0.626   8.056  0.3506  0.4140  0.3357
 1518SOL    HW116190   4.205   0.537   8.075  2.0837 -0.0467  0.7092
 1518SOL    HW216191   4.229   0.667   8.143 -2.3237  1.3288 -0.2086
 1519SOL     OW16192   4.090   2.994  15.537  0.1035  0.8902 -0.2447
 1519SOL    HW116193   4.148   3.050  15.587  1.8160 -1.0835 -0.0188
 1519SOL    HW216194   4.146   2.959  15.468 -1.9790 -0.0162 -1.5069
 1520SOL     OW16195   2.440   2.824   6.091 -0.1122  0.0945 -0.0773
 1520SOL    HW116196   2.361   2.876   6.075 -1.3987 -2.1977 -1.0810
 1520SOL    HW216197   2.499   2.889   6.050  1.8106 -2.8693 -2.0429
 1521SOL     OW16198   1.955   4.503  14.643 -0.8918 -0.0160  0.2201
 1521SOL    HW116199   1.982   4.585  14.600 -0.8920 -0.8234 -1.3321
 1521SOL    HW216200   1.937   4.533  14.732 -0.8178  1.2930 -0.2048
 1522SOL     OW16201   1.159   4.602   4.718 -0.2276 -0.3191  0.1522
 1522SOL    HW116202   1.204   4.568   4.795  1.8403 -0.4442 -1.0996
 1522SOL    HW216203   1.098   4.668   4.751  0.3622  0.9276 -1.2290
 1523SOL     OW16204   3.215   3.274   1.708  0.2155  0.0241 -0.5614
 1523SOL    HW116205   3.227   3.182   1.684  2.1341  0.4258 -1.1448
 1523SOL    HW216206   3.225   3.315   1.622 -0.2755 -0.2968 -0.7718
 1524SOL     OW16207   3.881   1.677   4.139 -0.3220  0.1017 -0.1909
 1524SOL    HW116208   3.821   1.751   4.152 -0.1036  0.4122 -0.9516
 1524SOL    HW216209   3.964   1.725   4.131 -0.2273 -0.4231 -2.3668
 1525SOL     OW16210   4.452   2.557   7.470  0.1513 -0.8202 -0.7915
 1525SOL    HW116211   4.364   2.521   7.464  0.1349 -0.7714 -0.8383
 1525SOL    HW216212   4.444   2.613   7.393 -1.3864 -0.3630 -0.2838
 1526SOL     OW16213   4.013   3.972   9.985 -0.0857  0.0675 -0.5487
 1526SOL    HW116214   4.092   4.024   9.971 -0.2695  0.5118  0.0714
 1526SOL    HW216215   4.044   3.886  10.013  1.2185  0.6138 -0.3158
 1527SOL     OW16216   1.962   0.610   4.969 -0.1951  0.1959  0.3532
 1527SOL    HW116217   1.942   0.686   5.024 -1.9928  0.8986 -1.2853
 1527SOL    HW216218   2.047   0.640   4.938 -0.2677 -2.1661 -2.1183
 1528SOL     OW16219   2.906   2.483  14.125 -0.0187  0.3898 -0.1344
 1528SOL    HW116220   2.960   2.507  14.050 -2.1731 -0.0941 -1.8136
 1528SOL    HW216221   2.843   2.554  14.121 -0.7231 -0.1317  1.4662
 1529SOL     OW16222   4.373   1.001   5.685 -0.5130 -0.3587 -0.0296
 1529SOL    HW116223   4.290   1.031   5.646  0.6603 -0.5976 -2.7367
 1529SOL    HW216224   4.408   1.085   5.713 -0.6443 -0.5145  0.6066
 1530SOL     OW16225   1.716   0.351   6.545  0.9922 -0.9589 -0.2510
 1530SOL    HW116226   1.721   0.321   6.636  0.2228 -2.0206 -0.5720
 1530SOL    HW216227   1.727   0.446   6.552  1.5606 -1.0273 -0.2117
 1531SOL     OW16228   1.837   2.643   4.642  0.2299  0.2783  0.2995
 1531SOL    HW116229   1.903   2.576   4.626  1.2277  1.3701 -0.1759
 1531SOL    HW216230   1.757   2.591   4.654  1.6037 -2.3837 -2.0881
 1532SOL     OW16231   3.265   4.440   1.081  0.0677  0.4125 -0.1187
 1532SOL    HW116232   3.353   4.457   1.048  0.0500 -0.6300 -0.7315
 1532SOL    HW216233   3.276   4.375   1.150 -1.7810  0.8020  0.5238
 1533SOL     OW16234   0.311   4.486  12.324 -0.2624 -0.0720 -0.3272
 1533SOL    HW116235   0.272   4.510  12.408  0.7179 -3.2101  1.0017
 1533SOL    HW216236   0.257   4.409  12.305 -3.4963  2.1342 -0.1279
 1534SOL     OW16237   1.910   2.859   2.430 -0.0157  0.2623  0.3013
 1534SOL    HW116238   2.005   2.860   2.445  0.1225  0.9209 -0.6257
 1534SOL    HW216239   1.891   2.786   2.371  1.0164 -0.8641  1.3569
 1535SOL     OW16240   1.311   3.591  12.509 -0.3975  0.5345  0.4111
 1535SOL    HW116241   1.312   3.531  12.584 -2.8545  2.1798  1.7774
 1535SOL    HW216242   1.246   3.658  12.527 -1.7862 -0.3257 -1.4107
 1536SOL     OW16243   3.914   0.305   7.961 -0.0020 -0.2985  0.6537
 1536SOL    HW116244   3.865   0.387   7.973  0.9303  0.3484  0.0737
 1536SOL    HW216245   3.900   0.294   7.867  0.5811 -1.1079  0.6588
 1537SOL     OW16246   3.296   2.266   6.938 -0.1272 -0.0878  0.0334
 1537SOL    HW116247   3.251   2.348   6.917 -1.4117 -0.1632  2.5404
 1537SOL    HW216248   3.239   2.215   6.995 -0.8812 -1.5315 -2.0056
 1538SOL     OW16249   3.215   4.335  11.900 -0.0066 -0.4662  0.0970
 1538SOL    HW116250   3.170   4.285  11.967 -0.1228 -1.4799 -0.7404
 1538SOL    HW216251   3.146   4.347  11.836 -0.4285 -1.0127  0.4516
 1539SOL     OW16252   3.346   1.667   4.969 -0.2824 -1.3775  0.1055
 1539SOL    HW116253   3.384   1.600   5.026  1.1002  0.6297  1.5801
 1539SOL    HW216254   3.409   1.739   4.981  0.3189 -1.3813 -2.9362
 1540SOL     OW16255   1.472   0.206  11.287  0.1751 -0.5728  0.1939
 1540SOL    HW116256   1.432   0.193  11.373 -0.1225 -0.3489  0.0896
 1540SOL    HW216257   1.451   0.121  11.248 -1.1193 -0.3719  0.4347
 1541SOL     OW16258   4.475   3.169  13.393 -0.4767 -0.0861  0.0451
 1541SOL    HW116259   4.445   3.133  13.477 -2.0762  0.1908 -0.3971
 1541SOL    HW216260   4.570   3.163  13.402 -0.4844  0.4481  0.4876
 1542SOL     OW16261   1.900   4.275   5.503  0.3765 -0.0229  0.0282
 1542SOL    HW116262   1.880   4.326   5.582  1.2778  0.4071 -0.0242
 1542SOL    HW216263   1.853   4.193   5.517 -1.3619  0.6305 -2.1012
 1543SOL     OW16264   3.123   4.036   7.340 -0.0812 -0.2975  0.1941
 1543SOL    HW116265   3.198   3.977   7.346  0.2994 -0.0366 -1.8558
 1543SOL    HW216266   3.167   4.115   7.374  0.3202 -0.5873  0.3448
 1544SOL     OW16267   4.235   1.678   5.581  0.5049 -0.3916  0.4877
 1544SOL    HW116268   4.306   1.639   5.632  1.4499 -1.4118 -1.6155
 1544SOL    HW216269   4.187   1.723   5.651  0.3410  0.3913 -0.1305
 1545SOL     OW16270   3.893   1.790   0.019  0.2687 -0.2735  0.4930
 1545SOL    HW116271   3.835   1.723  17.724  1.2775 -0.5299 -0.5767
 1545SOL    HW216272   3.940   1.737   0.084  0.1191 -1.1466 -0.1076
 1546SOL     OW16273   4.201   3.696   4.737 -0.1329 -0.0089 -0.4079
 1546SOL    HW116274   4.261   3.756   4.783 -0.9225 -0.0294  0.6487
 1546SOL    HW216275   4.121   3.701   4.790  0.0466  0.4619 -0.1731
 1547SOL     OW16276   3.004   0.763   5.051 -0.0508 -0.0895  0.0211
 1547SOL    HW116277   3.059   0.685   5.053  0.4533  0.2118 -1.9084
 1547SOL    HW216278   2.925   0.716   5.022  0.3538 -0.2818 -0.7794
 1548SOL     OW16279   2.430   4.432   0.621 -0.3880  0.2941  0.1386
 1548SOL    HW116280   2.501   4.478   0.577 -0.2614 -0.8741 -0.8846
 1548SOL    HW216281   2.381   4.498   0.672  0.2476  0.7899  0.1045
 1549SOL     OW16282   1.674   2.799  12.580  0.5915  0.0235 -0.3215
 1549SOL    HW116283   1.762   2.824  12.552  1.0516 -1.1437  0.0934
 1549SOL    HW216284   1.694   2.745  12.656 -0.0575 -1.5091 -1.2480
 1550SOL     OW16285   1.351   0.535  12.828 -0.0715  0.6710 -0.8231
 1550SOL    HW116286   1.259   0.523  12.849  0.1491 -0.8211 -0.6944
 1550SOL    HW216287   1.371   0.478  12.754 -0.5247  0.1223 -0.5155
 1551SOL     OW16288   2.833   0.864   1.663 -0.2354 -0.1347 -0.2563
 1551SOL    HW116289   2.790   0.779   1.658 -0.0146 -0.3338  1.4916
 1551SOL    HW216290   2.908   0.851   1.605  0.3985  2.3428 -0.0002
 1552SOL     OW16291   3.030   3.188   4.068  0.3233  0.3288  0.5133
 1552SOL    HW116292   3.118   3.210   4.095 -0.2624  0.4822  2.2811
 1552SOL    HW216293   2.977   3.255   4.111 -1.5983 -1.7648  1.4360
 1553SOL     OW16294   3.809   2.112   5.822  0.5472  0.2074 -0.9808
 1553SOL    HW116295   3.901   2.090   5.831  0.4006 -0.8496 -2.0410
 1553SOL    HW216296   3.798   2.198   5.864 -0.4478  0.7398 -2.3266
 1554SOL     OW16297   0.349   0.209   9.682  0.6233  0.3608 -0.0967
 1554SOL    HW116298   0.379   0.213   9.591 -1.1145 -0.8310 -0.7222
 1554SOL    HW216299   0.268   0.158   9.673  1.1049 -0.7049  1.7647
 1555SOL     OW16300   3.728   1.120   4.628  0.4115 -0.1718  0.4580
 1555SOL    HW116301   3.789   1.060   4.586 -0.4851 -1.0795  0.4455
 1555SOL    HW216302   3.717   1.188   4.562  0.8427  1.5955  2.1892
 1556SOL     OW16303   1.341   0.749   6.011 -0.1012  0.0735  0.1286
 1556SOL    HW116304   1.412   0.686   5.999 -0.6778 -0.6983  0.7740
 1556SOL    HW216305   1.331   0.780   5.921  1.8509 -2.3446 -0.9217
 1557SOL     OW16306   2.632   3.770   3.133 -1.1985 -0.1517 -0.1935
 1557SOL    HW116307   2.662   3.798   3.220  1.1444  1.3036 -1.4849
 1557SOL    HW216308   2.626   3.857   3.094 -0.0449 -0.6627 -1.4650
 1558SOL     OW16309   0.969   3.748   2.994  0.6386 -0.5133 -0.2558
 1558SOL    HW116310   1.047   3.706   2.957 -0.1699 -0.9782 -1.4111
 1558SOL    HW216311   1.003   3.822   3.044  0.5170 -1.0811  0.6664
 1559SOL     OW16312   0.499   1.619   8.347  0.3317 -0.1439  0.1265
 1559SOL    HW116313   0.471   1.550   8.407  0.0428  0.8527  1.1221
 1559SOL    HW216314   0.445   1.692   8.376  1.4329  0.3310  0.9751
 1560SOL     OW16315   2.048   2.699   1.264 -0.1496  0.2330 -0.0296
 1560SOL    HW116316   2.138   2.686   1.237 -0.2865 -0.3284 -0.2134
 1560SOL    HW216317   2.051   2.779   1.317  0.8651  0.1814 -0.0164
 1561SOL     OW16318   4.207   4.319   5.824 -0.0608 -0.1780  0.5087
 1561SOL    HW116319   4.245   4.347   5.907  0.0309 -1.4085  0.8902
 1561SOL    HW216320   4.127   4.371   5.830  0.4988  0.6524  0.6838
 1562SOL     OW16321   0.734   2.294   0.826 -0.1557 -0.2010 -0.2778
 1562SOL    HW116322   0.652   2.340   0.806 -0.6709 -1.1170 -0.2925
 1562SOL    HW216323   0.693   2.217   0.865  0.1886 -0.3307 -0.1748
 1563SOL     OW16324   3.119   2.443   9.621  0.5898  0.3426 -0.3038
 1563SOL    HW116325   3.167   2.398   9.551 -0.7075 -0.8206 -0.4354
 1563SOL    HW216326   3.133   2.390   9.699 -0.6379  0.0844 -0.2573
 1564SOL     OW16327   4.478   3.546  11.627 -0.2037 -0.1423  0.1718
 1564SOL    HW116328   4.554   3.495  11.655  0.5483 -0.6713 -2.7932
 1564SOL    HW216329   4.470   3.520  11.535 -2.2366  0.5851  0.1419
 1565SOL     OW16330   3.033   2.289   3.347 -0.2306  0.7580 -0.2852
 1565SOL    HW116331   3.071   2.261   3.264 -1.4329  1.2730 -1.0201
 1565SOL    HW216332   3.098   2.262   3.412 -0.5989  0.5784  0.0159
 1566SOL     OW16333   3.289   0.398   0.110  0.4268 -0.3072  0.0983
 1566SOL    HW116334   3.373   0.375   0.149 -0.1885 -0.6203  1.2306
 1566SOL    HW216335   3.311   0.444   0.029  1.0328  1.2081  1.1105
 1567SOL     OW16336   4.034   1.863   6.507 -0.4837 -0.0391 -0.2060
 1567SOL    HW116337   3.952   1.837   6.465 -1.1881 -1.4800  2.0703
 1567SOL    HW216338   4.030   1.958   6.495  2.3049 -0.1809 -2.1958
 1568SOL     OW16339   2.045   3.001   1.927  0.0050 -0.0423  0.1080
 1568SOL    HW116340   2.099   2.952   1.989 -1.5950 -0.5964  1.0562
 1568SOL    HW216341   2.050   2.939   1.855  0.0512 -0.0414  0.1103
 1569SOL     OW16342   2.802   1.617   1.839 -0.2542  0.0531  0.2041
 1569SOL    HW116343   2.747   1.695   1.851  0.3966  0.5162  0.1340
 1569SOL    HW216344   2.734   1.552   1.819  0.6154 -0.9841  0.5775
 1570SOL     OW16345   2.232   2.466   7.046 -0.4632 -0.4149 -0.0822
 1570SOL    HW116346   2.138   2.480   7.056 -0.1624  0.8755  0.8667
 1570SOL    HW216347   2.269   2.515   7.119  3.8709 -0.0365 -2.5260
 1571SOL     OW16348   1.704   3.377   3.700 -0.3320  0.6899 -0.0747
 1571SOL    HW116349   1.625   3.409   3.743 -0.7868  1.6359 -1.5922
 1571SOL    HW216350   1.662   3.300   3.662  0.5550  0.5707 -0.8045
 1572SOL     OW16351   3.583   1.525   5.394 -0.3117  0.4686  0.1208
 1572SOL    HW116352   3.530   1.593   5.437 -0.3176  1.6244 -1.7000
 1572SOL    HW216353   3.675   1.544   5.416 -0.6502  0.4041  1.6119
 1573SOL     OW16354   3.648   3.382   0.585  0.3629 -0.5188 -0.5189
 1573SOL    HW116355   3.593   3.445   0.632 -0.4415  0.4452 -2.7448
 1573SOL    HW216356   3.733   3.404   0.622  0.6702 -0.3662 -1.3088
 1574SOL     OW16357   0.784   4.556   5.055 -0.0081  0.4617 -0.2899
 1574SOL    HW116358   0.869   4.583   5.091  0.3197 -0.6190 -0.2593
 1574SOL    HW216359   0.806   4.496   4.985 -1.5688 -0.4219 -0.0301
 1575SOL     OW16360   0.980   1.154   2.744  0.0651  0.0169  0.4082
 1575SOL    HW116361   0.906   1.182   2.797 -0.8193  2.0188 -1.9145
 1575SOL    HW216362   0.948   1.140   2.654  2.1996  0.2368 -0.3875
 1576SOL     OW16363   0.902   0.550   3.399 -0.4150 -0.4046  0.0475
 1576SOL    HW116364   0.967   0.597   3.346 -0.6983  3.2702  2.9465
 1576SOL    HW216365   0.823   0.573   3.350 -0.5800  2.7996  1.8200
 1577SOL     OW16366   0.791   3.324   1.769 -0.5011 -0.1433 -0.5904
 1577SOL    HW116367   0.716   3.267   1.754 -1.5888  1.3703 -0.9301
 1577SOL    HW216368   0.742   3.402   1.797 -0.7822 -1.1060  1.5966
 1578SOL     OW16369   0.938   0.377   8.880 -0.7169  0.0484 -0.6527
 1578SOL    HW116370   0.981   0.373   8.965 -0.6649  1.2307 -0.6298
 1578SOL    HW216371   1.014   0.375   8.822 -0.0123 -0.5110  0.3022
 1579SOL     OW16372   0.432   2.684  11.134  0.0866  0.0869 -0.0488
 1579SOL    HW116373   0.417   2.626  11.209  3.6579 -0.2454  0.4268
 1579SOL    HW216374   0.358   2.662  11.077  0.2275 -0.6630  0.0614
 1580SOL     OW16375   0.561   2.723  15.324  0.1219 -0.3829  0.0450
 1580SOL    HW116376   0.644   2.761  15.293 -1.1765  1.9503 -0.5901
 1580SOL    HW216377   0.542   2.658  15.256 -0.0156 -0.5470  0.2414
 1581SOL     OW16378   1.368   2.785  17.434 -0.1855  0.1071  0.3498
 1581SOL    HW116379   1.287   2.749  17.398 -0.7629 -0.5512  2.2755
 1581SOL    HW216380   1.355   2.774  17.529  0.3657 -1.3133  0.2659
 1582SOL     OW16381   2.347   0.370   2.392  0.0580  0.3204  0.1937
 1582SOL    HW116382   2.258   0.383   2.359  0.6459  3.1801 -0.2443
 1582SOL    HW216383   2.373   0.281   2.366  1.1805  1.2414 -1.8816
 1583SOL     OW16384   4.688   1.135   4.933  0.2599  0.3130 -0.0260
 1583SOL    HW116385   0.033   1.184   4.918  0.0383  1.0529  1.1932
 1583SOL    HW216386   4.678   1.173   5.020 -0.4445  1.5638 -0.6634
 1584SOL     OW16387   2.449   1.616   8.732  0.0773  0.3991  0.2607
 1584SOL    HW116388   2.380   1.601   8.796  0.8897  2.7050  1.6609
 1584SOL    HW216389   2.406   1.621   8.646 -2.4091  0.4203  1.5076
 1585SOL     OW16390   3.234   3.832   3.428  0.1065 -0.0969  0.0215
 1585SOL    HW116391   3.153   3.780   3.425 -0.4158  0.5064  3.0294
 1585SOL    HW216392   3.292   3.764   3.395 -1.1850 -0.8546 -0.6711
 1586SOL     OW16393   0.898   4.003   8.915 -0.0381 -0.6317  0.0176
 1586SOL    HW116394   0.933   4.035   8.998  1.8985 -2.3532 -0.1108
 1586SOL    HW216395   0.974   4.008   8.856 -0.5211 -0.1639 -0.5580
 1587SOL     OW16396   3.236   1.643   4.371 -0.2409 -0.1198  0.6475
 1587SOL    HW116397   3.203   1.729   4.345 -0.0160 -0.2315 -0.0247
 1587SOL    HW216398   3.186   1.583   4.315 -0.6375 -1.7048  2.6858
 1588SOL     OW16399   3.011   0.941   1.847 -0.4720  0.1795  0.4958
 1588SOL    HW116400   2.932   0.913   1.800  0.0411 -0.9514  0.3122
 1588SOL    HW216401   3.043   0.853   1.865 -0.4141  0.4168  1.5205
 1589SOL     OW16402   2.813   2.300   6.704  0.0771 -0.1927  0.3789
 1589SOL    HW116403   2.821   2.368   6.637  1.2321 -1.1398 -0.4351
 1589SOL    HW216404   2.798   2.225   6.647 -1.5722 -0.2498  0.8976
 1590SOL     OW16405   1.707   0.904   0.703  0.2560  0.5008 -0.5223
 1590SOL    HW116406   1.732   0.979   0.757  0.4731 -0.2614  0.4549
 1590SOL    HW216407   1.782   0.848   0.725  0.5610  0.5596 -1.4060
 1591SOL     OW16408   4.102   4.194   5.423 -0.1708 -0.2497  0.4879
 1591SOL    HW116409   4.039   4.163   5.488  1.4690 -2.1901  1.1590
 1591SOL    HW216410   4.141   4.111   5.395 -0.6912 -0.1849 -0.4051
 1592SOL     OW16411   3.544   1.158   7.483  0.1093 -0.2867 -0.2850
 1592SOL    HW116412   3.618   1.133   7.428 -0.0442  0.5094 -0.8420
 1592SOL    HW216413   3.474   1.175   7.420  0.3746 -2.3411 -1.1354
 1593SOL     OW16414   0.840   3.698   3.207  0.2884  0.4420 -0.5942
 1593SOL    HW116415   0.773   3.652   3.156  0.9777 -1.0385 -0.1630
 1593SOL    HW216416   0.903   3.700   3.135  0.2474 -1.1949 -0.6913
 1594SOL     OW16417   4.144   3.729   2.095  0.3113 -0.0730  0.6160
 1594SOL    HW116418   4.144   3.728   2.191 -0.7021 -1.3687  0.6054
 1594SOL    HW216419   4.191   3.651   2.066 -0.0169 -0.1820  0.3804
 1595SOL     OW16420   2.911   1.282   5.980  0.2365  0.1530 -0.0520
 1595SOL    HW116421   2.984   1.262   6.039  0.4655 -0.2015 -0.4529
 1595SOL    HW216422   2.879   1.192   5.986 -0.3620  0.4774  1.6848
 1596SOL     OW16423   3.116   2.861   9.967  0.6986  0.0827 -0.6708
 1596SOL    HW116424   3.037   2.836   9.920  0.4831  0.5672 -0.5651
 1596SOL    HW216425   3.094   2.933  10.027  1.1808  0.9784 -1.5626
 1597SOL     OW16426   3.802   3.670  15.627 -0.2346  0.2249 -0.1924
 1597SOL    HW116427   3.758   3.689  15.710  0.0143  1.7605 -0.4250
 1597SOL    HW216428   3.883   3.629  15.657 -0.2192  1.2166  1.1455
 1598SOL     OW16429   4.636   3.108  10.692  0.4360 -0.0673  0.3873
 1598SOL    HW116430   4.573   3.054  10.645  1.7044 -1.3535  0.1366
 1598SOL    HW216431   4.711   3.110  10.632 -1.1996 -0.9347 -1.6770
 1599SOL     OW16432   3.566   2.675   3.238  0.3238  0.3873  0.4564
 1599SOL    HW116433   3.483   2.701   3.278  0.0835  1.0665 -0.4744
 1599SOL    HW216434   3.598   2.621   3.310 -0.3946 -1.6375 -0.7470
 1600SOL     OW16435   4.257   2.995   6.880 -0.2179  0.0905 -0.1867
 1600SOL    HW116436   4.329   3.047   6.915  0.4977  0.3312 -2.0270
 1600SOL    HW216437   4.190   3.063   6.873  1.2496  1.3226 -2.1079
 1601SOL     OW16438   4.051   3.167   4.433 -0.7274  0.1428  0.2322
 1601SOL    HW116439   4.041   3.246   4.380  0.9164 -1.5437 -2.5846
 1601SOL    HW216440   4.139   3.135   4.412 -0.0301  2.3101 -0.1812
 1602SOL     OW16441   1.010   4.375   8.271 -0.0791  0.6155 -0.1501
 1602SOL    HW116442   0.972   4.330   8.346 -0.5013  0.8753 -0.2087
 1602SOL    HW216443   1.048   4.456   8.307  1.0826  0.4788 -1.0359
 1603SOL     OW16444   3.745   1.897   4.120 -0.2119  0.5851 -0.0275
 1603SOL    HW116445   3.713   1.881   4.031 -2.3410  0.6968  0.7014
 1603SOL    HW216446   3.660   1.927   4.153 -1.3727 -1.2638 -1.3406
 1604SOL     OW16447   2.874   1.564   9.770  0.4167 -0.7830 -0.0686
 1604SOL    HW116448   2.907   1.587   9.857 -0.4427  1.1864 -0.2473
 1604SOL    HW216449   2.927   1.624   9.717  0.1004 -0.7357 -0.3378
 1605SOL     OW16450   1.308   4.349   6.225  0.1148 -0.4096 -0.1035
 1605SOL    HW116451   1.345   4.427   6.267  1.2656 -0.6393 -0.6956
 1605SOL    HW216452   1.216   4.375   6.232  0.0464 -1.4262  3.0153
 1606SOL     OW16453   3.084   0.653  16.684  0.6780  0.0821  0.1262
 1606SOL    HW116454   2.993   0.646  16.711  1.0784 -1.7452  0.9710
 1606SOL    HW216455   3.096   0.744  16.656  0.7313  0.2402  0.6690
 1607SOL     OW16456   1.990   3.333  11.105 -0.1258 -0.0710 -0.0525
 1607SOL    HW116457   2.029   3.340  11.018 -0.6365  2.8346 -0.0701
 1607SOL    HW216458   2.041   3.263  11.146 -1.4721 -1.4423 -0.7162
 1608SOL     OW16459   0.720   1.602   8.220  0.6327 -0.1478 -0.0198
 1608SOL    HW116460   0.649   1.603   8.284  0.7554  0.4466  0.1055
 1608SOL    HW216461   0.669   1.588   8.140  0.2166 -0.0183  0.2249
 1609SOL     OW16462   4.258   3.913   2.935  0.0771 -0.0775 -0.0062
 1609SOL    HW116463   4.171   3.934   2.902 -0.1672  0.4890  0.9853
 1609SOL    HW216464   4.314   3.981   2.897 -1.1279  0.8770 -0.0989
 1610SOL     OW16465   1.372   2.512   1.515 -0.2862  0.3729 -0.0311
 1610SOL    HW116466   1.398   2.474   1.599  0.1035  2.2922  0.7410
 1610SOL    HW216467   1.286   2.552   1.530 -0.6347 -0.3542 -0.1088
 1611SOL     OW16468   3.456   3.595  14.313 -0.3092 -0.0850  0.1401
 1611SOL    HW116469   3.460   3.585  14.408  0.1100 -1.2314  0.0085
 1611SOL    HW216470   3.414   3.514  14.282 -1.7652  0.4901  0.6225
 1612SOL     OW16471   1.615   0.289   9.565 -0.3189  0.0987  0.0849
 1612SOL    HW116472   1.688   0.310   9.623 -1.5058  2.0953  0.8528
 1612SOL    HW216473   1.540   0.335   9.601  0.7028  0.4131  1.8013
 1613SOL     OW16474   2.446   3.199   5.374  0.0939  0.3091 -0.1044
 1613SOL    HW116475   2.383   3.272   5.372 -0.0086  0.2377  0.5329
 1613SOL    HW216476   2.418   3.140   5.304 -0.3673 -1.6320  1.7132
 1614SOL     OW16477   4.101   2.958   2.362 -0.3731 -0.0968  0.1097
 1614SOL    HW116478   4.103   2.890   2.296  3.4214  0.0187  0.1320
 1614SOL    HW216479   4.075   3.032   2.307  0.8663  0.2108 -0.0569
 1615SOL     OW16480   3.367   3.922   1.538 -0.0429 -0.1215 -0.3201
 1615SOL    HW116481   3.444   3.979   1.529 -0.9628  1.0567 -0.6051
 1615SOL    HW216482   3.359   3.920   1.633  0.1008 -0.3422 -0.3114
 1616SOL     OW16483   1.942   0.206   7.020  0.1609 -0.2206  0.3106
 1616SOL    HW116484   1.922   0.126   6.971 -1.8501 -1.0893  2.5763
 1616SOL    HW216485   1.925   0.172   7.108  0.0023 -1.2828 -0.1375
 1617SOL     OW16486   1.855   1.729   8.385  0.4396 -0.2017  0.1344
 1617SOL    HW116487   1.867   1.822   8.365  0.1209 -0.2347 -0.2091
 1617SOL    HW216488   1.945   1.700   8.403  0.4190 -1.9383 -2.5651
 1618SOL     OW16489   1.905   0.595   6.807  0.8908 -0.4802  0.2662
 1618SOL    HW116490   1.884   0.684   6.835  3.2912  0.6407 -1.4563
 1618SOL    HW216491   1.907   0.551   6.892  1.1831  0.0348  0.5198
 1619SOL     OW16492   1.383   0.113   3.179 -0.0540 -0.4804 -0.2132
 1619SOL    HW116493   1.375   0.087   3.271  0.2741 -0.6634 -0.2359
 1619SOL    HW216494   1.292   0.108   3.149  0.2204  0.6353 -1.2377
 1620SOL     OW16495   3.701   2.771   7.095 -0.2704  0.0296  0.1104
 1620SOL    HW116496   3.668   2.826   7.023 -1.9744  0.4268  1.1825
 1620SOL    HW216497   3.792   2.763   7.067  0.0236 -0.4271  1.1985
 1621SOL     OW16498   4.336   0.172   2.531  0.4292 -0.5615  0.4517
 1621SOL    HW116499   4.288   0.116   2.592  1.0859  0.0151  1.4736
 1621SOL    HW216500   4.373   0.238   2.589  0.4908 -0.3938  0.2223
 1622SOL     OW16501   3.720   1.291  13.345  0.5689  0.4022 -0.7054
 1622SOL    HW116502   3.726   1.380  13.379 -3.0266  1.1118 -1.9011
 1622SOL    HW216503   3.679   1.296  13.259  1.7479 -0.1508 -1.2866
 1623SOL     OW16504   4.112   1.632   1.869  0.2499  0.2949  0.6857
 1623SOL    HW116505   4.098   1.727   1.877 -1.4803  0.2451 -1.9400
 1623SOL    HW216506   4.136   1.635   1.777  0.4479  2.1688  0.7971
 1624SOL     OW16507   3.862   0.096   2.705  0.0902 -0.3226 -0.0521
 1624SOL    HW116508   3.853   0.012   2.751 -1.3434  0.2006  0.6198
 1624SOL    HW216509   3.956   0.107   2.696 -0.0594 -0.2460 -1.4720
 1625SOL     OW16510   0.188   3.787   5.730 -0.3992  0.3151 -0.3930
 1625SOL    HW116511   0.193   3.764   5.822  4.1114  1.4481 -0.3997
 1625SOL    HW216512   0.194   3.700   5.690  0.0493 -0.1561  0.7320
 1626SOL     OW16513   1.734   0.553  11.890 -0.0204 -0.4326  0.2348
 1626SOL    HW116514   1.679   0.482  11.855  1.4941  0.2719 -3.5819
 1626SOL    HW216515   1.798   0.508  11.945  2.1743  0.6033 -1.4668
 1627SOL     OW16516   0.171   3.306   7.985  0.2484 -0.3810  0.3193
 1627SOL    HW116517   0.262   3.275   7.983  0.7017  1.0635 -1.1992
 1627SOL    HW216518   0.158   3.298   8.080 -1.0341  1.1673  0.2704
 1628SOL     OW16519   0.341   4.219   1.614 -0.2671 -0.2944  0.2505
 1628SOL    HW116520   0.357   4.125   1.627 -1.0504 -0.6912 -1.5678
 1628SOL    HW216521   0.382   4.237   1.529  0.4907  0.0981  0.7074
 1629SOL     OW16522   0.042   4.579   8.693  0.0718 -0.2139  0.0253
 1629SOL    HW116523   4.699   4.623   8.662  0.3437 -1.6786 -2.7349
 1629SOL    HW216524   0.106   4.628   8.642 -0.7109  1.6068  0.7997
 1630SOL     OW16525   2.991   4.368   3.336 -0.1081 -0.5830  0.3533
 1630SOL    HW116526   3.028   4.295   3.286  0.7842  0.0683  0.0414
 1630SOL    HW216527   2.980   4.321   3.419 -2.3674  0.3181  0.5536
 1631SOL     OW16528   1.176   2.630  15.158  0.0099  0.4596 -1.0135
 1631SOL    HW116529   1.084   2.624  15.182 -0.4502 -2.8054 -3.6437
 1631SOL    HW216530   1.168   2.673  15.073 -1.3540  0.3452 -0.9395
 1632SOL     OW16531   4.113   2.252  14.910 -0.0055  0.5126  0.3203
 1632SOL    HW116532   4.110   2.289  14.998 -0.7984 -1.1124  0.9823
 1632SOL    HW216533   4.024   2.220  14.893 -0.0438  1.2200 -0.7779
 1633SOL     OW16534   0.431   0.488   5.957  0.3741  0.1056 -0.2688
 1633SOL    HW116535   0.483   0.566   5.974  0.1161  0.1607  0.2765
 1633SOL    HW216536   0.502   0.435   5.921  0.3408 -0.0270 -0.1401
 1634SOL     OW16537   4.376   3.491   6.155  0.0503  0.2592  0.6183
 1634SOL    HW116538   4.393   3.430   6.227 -1.0650 -0.1300  0.5521
 1634SOL    HW216539   4.420   3.444   6.084 -0.4123  0.4048  0.2297
 1635SOL     OW16540   0.350   2.353   6.393  0.1164  0.3832 -0.0687
 1635SOL    HW116541   0.269   2.331   6.438 -0.8212  1.1367 -1.3894
 1635SOL    HW216542   0.313   2.343   6.305 -0.1136 -1.6760  0.2612
 1636SOL     OW16543   2.303   3.566   1.082 -0.2649  0.1532 -0.1943
 1636SOL    HW116544   2.249   3.497   1.121 -1.6592  1.2711 -0.1600
 1636SOL    HW216545   2.245   3.642   1.083  0.1138  0.4409 -0.0137
 1637SOL     OW16546   2.558   0.417   5.255 -0.2162 -0.0775 -0.5098
 1637SOL    HW116547   2.590   0.469   5.182 -0.6955 -0.1764 -0.7898
 1637SOL    HW216548   2.626   0.436   5.319 -0.4891  0.2719 -0.3271
 1638SOL     OW16549   0.646   1.648   8.906  0.2529  0.1525  0.1934
 1638SOL    HW116550   0.700   1.638   8.828  1.0234 -1.6476  0.9487
 1638SOL    HW216551   0.599   1.565   8.911 -1.0178  0.9831  1.9547
 1639SOL     OW16552   2.304   1.709   3.661 -0.1767  0.4553  0.6976
 1639SOL    HW116553   2.229   1.686   3.715  0.6847 -1.9638  0.9035
 1639SOL    HW216554   2.284   1.798   3.631  0.5985  1.0468  1.9692
 1640SOL     OW16555   3.205   1.842   0.436  0.3297 -0.1113  0.0377
 1640SOL    HW116556   3.143   1.886   0.379 -1.2607 -1.6296  0.6027
 1640SOL    HW216557   3.150   1.770   0.467 -0.5723  0.3267 -0.5415
 1641SOL     OW16558   1.467   0.852   8.309  0.4196 -0.0659 -0.5099
 1641SOL    HW116559   1.399   0.849   8.243 -0.9267  0.3071  0.8510
 1641SOL    HW216560   1.532   0.795   8.268  0.0233 -1.4852  0.8424
 1642SOL     OW16561   0.290   1.590   4.650  0.0615 -0.1684 -0.0904
 1642SOL    HW116562   0.259   1.653   4.715  1.9550  0.4691  0.2151
 1642SOL    HW216563   0.214   1.584   4.592  1.5135  0.2151 -2.0665
 1643SOL     OW16564   3.991   2.400   0.888 -0.3410 -0.5511  0.2517
 1643SOL    HW116565   3.974   2.312   0.922  0.0407 -0.3477  0.9628
 1643SOL    HW216566   4.014   2.385   0.796 -0.6343  1.2894 -0.1050
 1644SOL     OW16567   4.344   2.365   9.819  0.3385 -0.7561  0.0078
 1644SOL    HW116568   4.356   2.319   9.736 -2.5926 -0.7661 -0.4324
 1644SOL    HW216569   4.296   2.441   9.786  0.9932  0.0307  0.8772
 1645SOL     OW16570   3.878   2.845  12.626 -0.4848 -0.0491  0.2324
 1645SOL    HW116571   3.818   2.774  12.602  0.5999 -1.0353  0.4501
 1645SOL    HW216572   3.848   2.866  12.714 -0.5983 -1.7249  0.6001
 1646SOL     OW16573   4.668   2.705   5.817 -0.1066  0.3294  0.1931
 1646SOL    HW116574   4.641   2.622   5.855  1.0757 -0.6576 -1.1337
 1646SOL    HW216575   0.025   2.691   5.802 -1.3314 -4.5591 -2.7943
 1647SOL     OW16576   0.758   4.222   3.449  0.2588  0.3947  0.0906
 1647SOL    HW116577   0.675   4.254   3.483 -0.4517 -0.7932 -0.5193
 1647SOL    HW216578   0.753   4.128   3.469 -2.5184 -0.0203 -2.5016
 1648SOL     OW16579   1.986   0.809   4.189 -0.0442  0.3451  0.2504
 1648SOL    HW116580   1.901   0.774   4.162 -0.0732  0.0747  0.7017
 1648SOL    HW216581   2.016   0.761   4.266 -1.2198 -0.3222  0.2810
 1649SOL     OW16582   0.959   3.384  13.683 -0.8741  0.1573 -0.0643
 1649SOL    HW116583   0.870   3.406  13.712 -1.1254 -3.3386  1.7136
 1649SOL    HW216584   0.956   3.431  13.599 -2.7932 -0.6925 -0.4670
 1650SOL     OW16585   2.847   2.837   3.424  0.5441  0.2610  0.3408
 1650SOL    HW116586   2.840   2.901   3.353 -0.0185  2.3412  2.2823
 1650SOL    HW216587   2.779   2.777   3.394 -0.3145  1.5026 -0.1811
 1651SOL     OW16588   1.251   1.126   7.833 -0.2683 -0.1965  0.0370
 1651SOL    HW116589   1.157   1.112   7.844 -0.4182  0.7441 -0.0436
 1651SOL    HW216590   1.281   1.038   7.812  1.5601 -0.1165  2.2752
 1652SOL     OW16591   3.203   2.997   1.949 -0.0742 -0.6273 -0.3370
 1652SOL    HW116592   3.250   2.946   2.014 -0.9333 -0.5770  0.3184
 1652SOL    HW216593   3.216   2.943   1.871 -0.1983 -0.1574 -0.6887
 1653SOL     OW16594   3.753   2.854  11.537  0.4865 -0.1273 -0.5791
 1653SOL    HW116595   3.722   2.802  11.463  0.8104  1.9912 -2.1881
 1653SOL    HW216596   3.715   2.796  11.603 -0.0114 -0.2337 -0.9660
 1654SOL     OW16597   1.328   2.202   3.296 -0.6708 -0.5723  0.0499
 1654SOL    HW116598   1.338   2.123   3.241 -0.5231 -1.1290  0.8786
 1654SOL    HW216599   1.338   2.268   3.227 -2.5727  2.2591  2.4910
 1655SOL     OW16600   2.776   0.589   1.550 -0.0088 -0.0866 -0.2135
 1655SOL    HW116601   2.702   0.586   1.490  0.9611  0.8980 -1.4663
 1655SOL    HW216602   2.735   0.572   1.635  1.7425 -1.2063  0.4171
 1656SOL     OW16603   3.419   0.262   2.144  0.0066 -0.4208  0.1890
 1656SOL    HW116604   3.391   0.177   2.179 -1.1287 -1.3096 -2.8701
 1656SOL    HW216605   3.439   0.318   2.218  1.1061  0.3160 -0.6691
 1657SOL     OW16606   2.463   1.506  13.381 -0.3398 -0.6366  0.5531
 1657SOL    HW116607   2.451   1.490  13.288  0.1925 -0.8204  0.5147
 1657SOL    HW216608   2.377   1.478  13.412 -0.6151 -0.3585  0.0399
 1658SOL     OW16609   0.437   3.473  13.145 -0.1216 -0.2594  0.0046
 1658SOL    HW116610   0.524   3.506  13.124  1.2307 -2.5944  2.0069
 1658SOL    HW216611   0.460   3.383  13.169 -0.5787 -0.1423  0.8803
 1659SOL     OW16612   1.989   1.443   3.070 -0.4210 -0.1671 -0.2500
 1659SOL    HW116613   1.895   1.452   3.081 -0.0816  1.8450  1.1212
 1659SOL    HW216614   2.015   1.484   3.153  0.5898  2.1500 -1.7117
 1660SOL     OW16615   3.887   0.006   5.299  0.1252 -0.6112 -0.0339
 1660SOL    HW116616   3.961   0.065   5.287  0.0524 -0.1740  1.6266
 1660SOL    HW216617   3.919   4.664   5.343 -3.3387 -1.6198  0.7435
 1661SOL     OW16618   3.144   1.170   9.619  0.1784 -0.0751  0.4476
 1661SOL    HW116619   3.234   1.197   9.605 -0.1044  1.4411  1.6093
 1661SOL    HW216620   3.090   1.247   9.600  2.3345  1.3159  0.0059
 1662SOL     OW16621   3.209   0.774   0.484 -0.1450  0.2476  0.5328
 1662SOL    HW116622   3.217   0.797   0.576  0.8392  0.4674  0.3931
 1662SOL    HW216623   3.302   0.761   0.465 -0.3398 -0.7161  0.2224
 1663SOL     OW16624   4.407   1.543   1.667  0.0377 -0.1956 -0.1413
 1663SOL    HW116625   4.314   1.560   1.650  0.5794  1.0764 -1.8554
 1663SOL    HW216626   4.404   1.460   1.714  0.8005 -0.5537 -0.7165
 1664SOL     OW16627   4.496   2.031  17.076 -0.7410 -0.4020  0.6173
 1664SOL    HW116628   4.586   2.049  17.102  0.1308 -0.2472 -2.4434
 1664SOL    HW216629   4.496   1.942  17.042  0.3955  0.3924 -1.4708
 1665SOL     OW16630   0.904   1.381   8.095 -0.3933  0.0939 -0.6220
 1665SOL    HW116631   0.843   1.406   8.164  0.0813  0.6873 -0.4210
 1665SOL    HW216632   0.976   1.408   8.152 -0.6948 -0.1829 -0.1043
 1666SOL     OW16633   4.046   2.655   2.538 -0.4160 -0.0873 -0.6450
 1666SOL    HW116634   4.026   2.569   2.501 -1.3835 -0.3389  0.4708
 1666SOL    HW216635   4.042   2.709   2.458  0.4831 -0.5929 -1.0370
 1667SOL     OW16636   3.476   0.383  13.698 -0.3627 -0.0614  0.3714
 1667SOL    HW116637   3.541   0.335  13.749  1.0026  0.5164 -0.8284
 1667SOL    HW216638   3.437   0.449  13.755  1.1735  0.2343  1.0610
 1668SOL     OW16639   0.777   3.740   7.441 -0.3189 -0.2290  0.0187
 1668SOL    HW116640   0.858   3.759   7.392 -0.9074 -0.6105 -1.1171
 1668SOL    HW216641   0.816   3.702   7.520 -1.8683 -0.7311  0.5317
 1669SOL     OW16642   1.416   0.596   6.900  0.0608  0.3786  0.1555
 1669SOL    HW116643   1.341   0.613   6.956 -0.8418  0.5713 -1.1142
 1669SOL    HW216644   1.408   0.663   6.832 -1.4611  0.5035  0.4586
 1670SOL     OW16645   3.461   1.785  15.761  0.5210 -0.4280 -0.1852
 1670SOL    HW116646   3.416   1.701  15.759 -0.9078  0.3017  0.9800
 1670SOL    HW216647   3.428   1.822  15.679  2.1007 -0.2016 -0.7258
 1671SOL     OW16648   1.970   0.943   4.757 -0.3459  0.3658 -0.0099
 1671SOL    HW116649   1.994   1.002   4.829  1.6112 -0.6629  0.1604
 1671SOL    HW216650   2.005   0.858   4.785 -1.0878 -0.2459 -0.9505
 1672SOL     OW16651   2.743   1.608   6.775 -0.1459  0.5871  0.5558
 1672SOL    HW116652   2.745   1.692   6.821  4.2469  1.1736 -0.7420
 1672SOL    HW216653   2.804   1.560   6.830 -0.6718 -0.1477  0.4856
 1673SOL     OW16654   4.329   4.128  15.411  0.7212 -0.0133 -0.2822
 1673SOL    HW116655   4.290   4.158  15.493  1.1691  0.0086 -0.0769
 1673SOL    HW216656   4.258   4.081  15.368 -0.4484 -0.3718  2.0300
 1674SOL     OW16657   3.800   1.436   7.469  0.3049 -0.2756  0.5446
 1674SOL    HW116658   3.834   1.402   7.552  0.2768  1.5856  1.3199
 1674SOL    HW216659   3.848   1.385   7.403 -0.4967  0.1564 -0.3623
 1675SOL     OW16660   3.336   2.238   7.226  0.1224  0.1337 -0.0685
 1675SOL    HW116661   3.306   2.311   7.281  0.3951  0.0671  0.1662
 1675SOL    HW216662   3.285   2.163   7.254  2.4549 -1.3762  0.1618
 1676SOL     OW16663   4.204   1.103   0.747  0.7528 -0.1436 -0.1223
 1676SOL    HW116664   4.218   1.077   0.838 -1.4053  0.9630  0.5322
 1676SOL    HW216665   4.294   1.108   0.714  0.4255  2.3282 -0.6433
 1677SOL     OW16666   4.372   2.883  12.928 -0.0835 -0.0626 -0.5211
 1677SOL    HW116667   4.384   2.961  12.983 -1.4153  0.8186 -1.4947
 1677SOL    HW216668   4.358   2.919  12.841  1.1681  0.8346 -0.3531
 1678SOL     OW16669   3.290   4.183  11.294  0.4376 -0.1818  0.0712
 1678SOL    HW116670   3.343   4.221  11.224 -0.1883  2.7309  1.1952
 1678SOL    HW216671   3.327   4.095  11.283 -2.0501 -0.9933 -1.7525
 1679SOL     OW16672   2.166   4.346  14.824  0.2911  0.1509 -0.2080
 1679SOL    HW116673   2.073   4.333  14.808  0.5264 -1.7929  0.0017
 1679SOL    HW216674   2.207   4.266  14.791 -0.9786 -1.1947  1.4550
 1680SOL     OW16675   4.113   0.053   6.980  0.5392  0.3992  0.2808
 1680SOL    HW116676   4.114   0.033   7.073  0.7964  0.1733  0.2276
 1680SOL    HW216677   4.057   4.722   6.941  1.7206 -0.3751 -0.0882
 1681SOL     OW16678   0.891   3.336   5.036  0.6370  0.3140 -0.0189
 1681SOL    HW116679   0.961   3.358   4.975  0.7301  1.3899  0.4802
 1681SOL    HW216680   0.816   3.345   4.976  1.1891 -1.5942 -0.9908
 1682SOL     OW16681   2.229   1.068   9.553  0.0140 -0.4452 -0.0473
 1682SOL    HW116682   2.316   1.029   9.558  0.1951  0.0766  0.8666
 1682SOL    HW216683   2.222   1.093   9.460  0.0102 -1.3849 -0.2994
 1683SOL     OW16684   1.672   1.644   9.232  0.3319  0.3714 -0.1728
 1683SOL    HW116685   1.756   1.621   9.272 -0.7334  1.8592  2.8798
 1683SOL    HW216686   1.613   1.659   9.305  0.9104 -0.9021  0.5638
 1684SOL     OW16687   2.399   3.113  11.801  0.1208 -0.0195 -0.4375
 1684SOL    HW116688   2.487   3.148  11.786 -0.2762  1.8576  1.5381
 1684SOL    HW216689   2.416   3.020  11.790 -1.1105 -0.3418  0.4138
 1685SOL     OW16690   4.177   2.953   3.770  0.0464  0.5555 -0.2631
 1685SOL    HW116691   4.163   3.021   3.704  0.8763 -1.2397 -2.3118
 1685SOL    HW216692   4.253   2.912   3.728  1.3129  0.7373  1.8890
 1686SOL     OW16693   3.620   0.767   8.782 -0.1298  0.1606  0.2648
 1686SOL    HW116694   3.531   0.736   8.799 -0.3208  0.2319 -0.6219
 1686SOL    HW216695   3.665   0.692   8.745 -1.2569 -0.2710 -0.2452
 1687SOL     OW16696   0.723   1.982   2.416  0.3744  0.1442 -0.4825
 1687SOL    HW116697   0.775   1.928   2.356 -1.5325 -1.8396 -0.3775
 1687SOL    HW216698   0.652   2.001   2.355 -0.7099  0.5685  0.9020
 1688SOL     OW16699   3.177   3.220   5.722 -0.3365 -0.0047 -0.4711
 1688SOL    HW116700   3.229   3.187   5.649  0.2111 -1.2139  0.4511
 1688SOL    HW216701   3.098   3.168   5.705 -1.6341  2.0729 -0.7360
 1689SOL     OW16702   0.349   0.889   3.431  0.0321 -0.3506  0.5395
 1689SOL    HW116703   0.284   0.959   3.441 -0.6955 -1.1299  1.2944
 1689SOL    HW216704   0.325   0.834   3.356  1.2018  1.5151 -1.1984
 1690SOL     OW16705   3.383   3.549  10.943 -0.2430  0.1993  0.2975
 1690SOL    HW116706   3.420   3.494  10.874  2.0884  1.5203  0.5347
 1690SOL    HW216707   3.347   3.477  10.996 -0.3268  1.1910  1.6030
 1691SOL     OW16708   2.912   1.768   0.237 -0.1480  0.1571 -0.5271
 1691SOL    HW116709   2.951   1.838   0.185 -2.0361  1.0800 -0.6924
 1691SOL    HW216710   2.968   1.762   0.314 -1.5653 -0.2402  0.4555
 1692SOL     OW16711   4.679   1.684   9.546  0.1426  0.3351  0.5080
 1692SOL    HW116712   4.608   1.695   9.483  0.1926 -3.0025 -0.1176
 1692SOL    HW216713   4.660   1.756   9.607  0.6514  0.9766 -0.0892
 1693SOL     OW16714   1.494   2.802   5.050  0.6271 -0.6562  0.2859
 1693SOL    HW116715   1.561   2.734   5.054 -1.1110 -2.3535  0.5809
 1693SOL    HW216716   1.538   2.868   4.997  0.0837 -1.3341 -0.9994
 1694SOL     OW16717   1.068   1.353   3.495 -0.0344 -0.5163 -0.3299
 1694SOL    HW116718   1.098   1.294   3.564  2.0386  0.2499 -0.5783
 1694SOL    HW216719   1.072   1.287   3.427 -0.8859  0.6219 -1.4847
 1695SOL     OW16720   1.708   2.961   2.559  0.3623 -0.3312 -0.0510
 1695SOL    HW116721   1.783   2.935   2.506 -0.7494 -0.1583 -1.6939
 1695SOL    HW216722   1.655   2.881   2.567  0.0844  0.1000  2.3170
 1696SOL     OW16723   0.040   3.512   3.419 -0.2279 -0.3629 -0.5855
 1696SOL    HW116724   0.134   3.506   3.431 -0.7592 -0.6785  3.3429
 1696SOL    HW216725   0.011   3.433   3.465  1.6551  0.0413  1.2596
 1697SOL     OW16726   4.033   4.419  15.374 -0.5501 -0.0723 -0.8558
 1697SOL    HW116727   4.097   4.474  15.420 -0.2482 -1.6146  0.5624
 1697SOL    HW216728   3.963   4.422  15.439 -1.6522  1.5340 -2.1063
 1698SOL     OW16729   0.660   3.766   4.005  0.3748  0.4354 -0.1522
 1698SOL    HW116730   0.754   3.748   3.999  0.1329 -0.3280 -1.5754
 1698SOL    HW216731   0.650   3.802   4.093  0.4417 -2.0230  0.8385
 1699SOL     OW16732   3.989   4.243   6.361  0.1385  0.4477  0.0201
 1699SOL    HW116733   4.024   4.329   6.337 -0.3064  0.4735 -0.5432
 1699SOL    HW216734   3.942   4.232   6.279  1.1300  3.6428 -1.0025
 1700SOL     OW16735   1.781   3.109   8.396  0.3040 -0.3562 -0.2432
 1700SOL    HW116736   1.760   3.084   8.486 -0.4167 -2.0598 -0.8892
 1700SOL    HW216737   1.866   3.065   8.387  1.4070  1.6033  0.4877
 1701SOL     OW16738   2.987   0.584   0.551  0.1088  0.4074  0.1742
 1701SOL    HW116739   3.045   0.660   0.545  1.0260 -0.3295 -0.2911
 1701SOL    HW216740   2.898   0.617   0.546 -0.2332 -0.5388  0.0995
 1702SOL     OW16741   0.137   4.092   8.833  0.5195 -0.0372 -0.1387
 1702SOL    HW116742   0.106   4.028   8.769  0.6346 -1.0383  0.8091
 1702SOL    HW216743   0.125   4.167   8.775  1.9856 -0.0285 -0.4366
 1703SOL     OW16744   1.250   1.735   5.405 -0.3123  0.1027 -0.0710
 1703SOL    HW116745   1.213   1.696   5.326 -3.2635 -0.3871  1.5950
 1703SOL    HW216746   1.313   1.789   5.356  0.9662 -0.2244  1.2102
 1704SOL     OW16747   0.692   0.181   0.298 -0.4381  0.0850 -0.2984
 1704SOL    HW116748   0.617   0.227   0.261 -0.5574 -0.1208 -0.3148
 1704SOL    HW216749   0.691   0.107   0.238  3.5508 -0.8019  0.6937
 1705SOL     OW16750   0.393   4.323   0.784  0.5737 -0.4213  0.7002
 1705SOL    HW116751   0.422   4.409   0.813  2.3101 -0.9437  0.5242
 1705SOL    HW216752   0.378   4.340   0.691 -0.9310  0.4439  1.1069
 1706SOL     OW16753   4.412   1.131   9.739  0.5929  0.2957 -0.2756
 1706SOL    HW116754   4.504   1.138   9.763 -0.1870 -2.0254  3.3620
 1706SOL    HW216755   4.410   1.066   9.669 -0.1919  0.8793 -0.7961
 1707SOL     OW16756   3.756   4.215   1.614 -0.0731 -0.0264  0.2284
 1707SOL    HW116757   3.708   4.297   1.615  0.5376  0.3334  0.0686
 1707SOL    HW216758   3.749   4.192   1.707  0.1493 -0.3453  0.1699
 1708SOL     OW16759   0.721   1.218   2.866 -0.5078  0.1714 -0.1789
 1708SOL    HW116760   0.682   1.131   2.857 -1.8574  0.6968  0.5853
 1708SOL    HW216761   0.765   1.204   2.950 -1.2444 -1.2189 -0.0114
 1709SOL     OW16762   1.473   4.502   7.987  0.0354 -0.2185  0.2646
 1709SOL    HW116763   1.451   4.455   8.068  1.5888  0.7593  1.2624
 1709SOL    HW216764   1.566   4.520   7.994  0.1140 -0.9863  1.1661
 1710SOL     OW16765   3.489   2.409  11.426  0.3035 -0.2283 -0.3462
 1710SOL    HW116766   3.409   2.460  11.430 -0.9500 -2.2107  0.0085
 1710SOL    HW216767   3.535   2.452  11.498  1.9710 -1.8712 -0.4206
 1711SOL     OW16768   2.695   1.722   4.016  0.0305 -0.2313 -0.3978
 1711SOL    HW116769   2.640   1.797   4.040  1.4606  0.2247  1.5003
 1711SOL    HW216770   2.682   1.726   3.922 -0.1368  0.6565 -0.3434
 1712SOL     OW16771   3.970   2.079   3.160 -0.0238  0.1133 -0.0734
 1712SOL    HW116772   4.065   2.085   3.170  0.0020  0.9266 -0.8480
 1712SOL    HW216773   3.955   2.164   3.118 -0.1579  0.5524  0.8644
 1713SOL     OW16774   0.523   2.500  13.247 -0.1459  0.0487  0.3884
 1713SOL    HW116775   0.608   2.459  13.233 -0.7088 -0.4664 -1.4378
 1713SOL    HW216776   0.490   2.492  13.158 -0.8343 -1.9599  0.8199
 1714SOL     OW16777   0.190   2.515   4.645  0.1591 -0.2067 -1.0482
 1714SOL    HW116778   0.221   2.565   4.570 -1.5718 -1.5006 -2.6424
 1714SOL    HW216779   0.274   2.488   4.682  0.0681 -0.5679 -1.1015
 1715SOL     OW16780   3.675   4.575   7.692  0.4574  0.4840  0.8399
 1715SOL    HW116781   3.686   4.647   7.630  0.7440 -0.8989 -0.7295
 1715SOL    HW216782   3.754   4.521   7.686 -0.1181 -0.3361  0.5807
 1716SOL     OW16783   3.114   1.956   7.125 -0.1047 -0.0918  0.5703
 1716SOL    HW116784   3.052   1.912   7.184 -1.1077  0.4491 -0.0683
 1716SOL    HW216785   3.074   2.043   7.114 -0.7588 -0.3272  1.0538
 1717SOL     OW16786   2.096   3.262   8.418  0.6234  0.5234 -0.0590
 1717SOL    HW116787   2.045   3.316   8.358  1.9141  0.7793 -0.9228
 1717SOL    HW216788   2.056   3.177   8.399 -1.2108  1.1636  0.9874
 1718SOL     OW16789   1.041   4.499   6.272  0.5460  0.0824 -0.2933
 1718SOL    HW116790   0.992   4.568   6.315 -1.3519 -0.3920 -1.6980
 1718SOL    HW216791   0.972   4.432   6.273  0.6811 -0.0178  1.7495
 1719SOL     OW16792   2.673   1.788   9.349 -0.4071  0.1147  0.1010
 1719SOL    HW116793   2.580   1.788   9.327 -0.2695  3.5805 -0.4064
 1719SOL    HW216794   2.667   1.826   9.437  0.7391 -1.1217  0.7160
 1720SOL     OW16795   3.199   1.313   8.372  0.5264 -0.1240  0.1931
 1720SOL    HW116796   3.171   1.326   8.282  2.2153  1.0310 -0.1659
 1720SOL    HW216797   3.176   1.221   8.386  0.5111 -0.3805 -1.5792
 1721SOL     OW16798   2.052   3.955   5.151  0.1950 -0.0334 -0.1110
 1721SOL    HW116799   2.041   4.033   5.205  1.9355 -0.3039  0.6371
 1721SOL    HW216800   2.096   3.993   5.075 -0.5231 -1.2001 -1.1034
 1722SOL     OW16801   4.096   4.203   4.693 -0.0120  0.1738 -0.5205
 1722SOL    HW116802   4.180   4.158   4.685  0.6579  1.0806  1.4271
 1722SOL    HW216803   4.126   4.292   4.711  2.2704 -0.9040  1.0158
 1723SOL     OW16804   1.338   2.130  13.667  0.0338  0.2466 -0.0826
 1723SOL    HW116805   1.318   2.038  13.649 -2.8249  0.8883 -0.2755
 1723SOL    HW216806   1.334   2.123  13.763 -0.6474  0.7672 -0.0740
 1724SOL     OW16807   3.900   0.718   0.050  0.2628 -0.0502  0.5609
 1724SOL    HW116808   3.838   0.783   0.084 -0.3977 -0.4466  0.1300
 1724SOL    HW216809   3.845   0.647   0.017 -3.0462  2.4497  0.6483
 1725SOL     OW16810   3.841   1.575   6.659  0.3089 -0.3671  0.8799
 1725SOL    HW116811   3.924   1.585   6.705  1.5741  0.8861 -1.6816
 1725SOL    HW216812   3.777   1.600   6.726 -0.5681 -1.7376  0.5678
 1726SOL     OW16813   4.178   2.682  12.473  0.2134  0.1642  0.3802
 1726SOL    HW116814   4.261   2.635  12.467  0.4027  0.5122  0.2681
 1726SOL    HW216815   4.121   2.606  12.463 -0.8330  1.1695 -1.1795
 1727SOL     OW16816   2.079   1.477   7.080 -0.3580 -0.3369  0.0854
 1727SOL    HW116817   2.038   1.396   7.051 -0.1280 -1.3349  2.5961
 1727SOL    HW216818   2.119   1.443   7.160  0.6617 -0.0860 -0.3111
 1728SOL     OW16819   3.282   2.563  15.720 -0.2100  0.4641 -0.1069
 1728SOL    HW116820   3.247   2.490  15.772  0.9460 -1.7622 -2.4928
 1728SOL    HW216821   3.370   2.580  15.752 -0.4989  0.4322  0.7269
 1729SOL     OW16822   1.729   2.802  14.428  0.1718 -0.2894 -0.1867
 1729SOL    HW116823   1.662   2.870  14.433 -0.8459 -1.2336 -0.9508
 1729SOL    HW216824   1.695   2.749  14.356  2.4359 -0.1720 -1.3408
 1730SOL     OW16825   1.568   1.460   2.359  0.3426  0.8201  0.2019
 1730SOL    HW116826   1.534   1.518   2.291  0.6748  1.1442  0.3143
 1730SOL    HW216827   1.658   1.489   2.371  0.4346  0.3185  0.7583
 1731SOL     OW16828   4.250   4.294   6.776  0.2619  0.8798 -0.5978
 1731SOL    HW116829   4.298   4.306   6.694  0.0930  3.7255 -0.2842
 1731SOL    HW216830   4.160   4.296   6.744  0.8610  1.0387 -2.2512
 1732SOL     OW16831   4.680   0.119   8.177  0.0840 -0.4049  0.2431
 1732SOL    HW116832   4.644   0.208   8.174  0.1783 -0.3976 -0.9384
 1732SOL    HW216833   4.715   0.128   8.265  1.2627  1.9281 -0.4610
 1733SOL     OW16834   4.721   0.509   6.592  0.4086 -0.3390 -0.1028
 1733SOL    HW116835   0.071   0.534   6.627 -0.5383 -0.3928  2.2446
 1733SOL    HW216836   0.008   0.468   6.509  0.9928  0.4419 -0.3317
 1734SOL     OW16837   0.113   1.562   3.068 -0.1591  0.0618  0.2033
 1734SOL    HW116838   0.026   1.577   3.031 -0.1293  3.0750  1.3220
 1734SOL    HW216839   0.136   1.480   3.024 -0.2544  1.1904 -1.9206
 1735SOL     OW16840   3.641   1.002   3.433 -0.2287 -0.1814  0.3489
 1735SOL    HW116841   3.605   0.938   3.494  0.0579  0.6689  1.4239
 1735SOL    HW216842   3.594   0.990   3.351  0.7002 -3.5210  0.2989
 1736SOL     OW16843   1.654   1.595   7.632 -0.5301  0.6528  0.3406
 1736SOL    HW116844   1.568   1.556   7.617 -0.2794  1.1335 -2.4258
 1736SOL    HW216845   1.721   1.529   7.617  0.5740  2.1250 -1.2964
 1737SOL     OW16846   0.270   0.258  13.532  0.1283  0.1853  0.1034
 1737SOL    HW116847   0.267   0.264  13.627 -2.9918  1.0812 -0.0728
 1737SOL    HW216848   0.350   0.206  13.520 -0.3401 -1.2416  3.1057
 1738SOL     OW16849   0.914   1.985   2.897 -0.2853 -0.3968  0.4263
 1738SOL    HW116850   0.930   1.998   2.803 -1.6842  0.3790  0.2976
 1738SOL    HW216851   0.964   2.054   2.940 -0.4617  0.0451 -0.0682
 1739SOL     OW16852   4.427   3.938   4.502 -0.7819 -0.7177 -0.2222
 1739SOL    HW116853   4.464   3.858   4.463  4.0453  0.3756  2.1238
 1739SOL    HW216854   4.335   3.926   4.479 -0.8942  0.4164 -0.3719
 1740SOL     OW16855   4.335   1.376  16.836 -0.6244  0.3165  0.0769
 1740SOL    HW116856   4.388   1.392  16.914  0.5151  0.2698 -0.7027
 1740SOL    HW216857   4.365   1.442  16.773  0.3919  0.2466  0.4885
 1741SOL     OW16858   1.064   3.953   6.248 -0.7793 -0.3548 -0.4294
 1741SOL    HW116859   1.015   3.909   6.317 -0.5100  1.3269  0.8318
 1741SOL    HW216860   1.119   4.004   6.308 -0.9371 -1.4977  0.6671
 1742SOL     OW16861   3.718   2.261  16.409  0.0227 -0.0128 -0.0859
 1742SOL    HW116862   3.787   2.297  16.465  0.0760  1.4010 -1.0512
 1742SOL    HW216863   3.656   2.223  16.471  1.2753  1.1106  1.8525
 1743SOL     OW16864   3.001   4.557  10.354  0.1026 -0.1058  0.1433
 1743SOL    HW116865   2.968   4.580  10.267 -1.1532 -0.1651  0.6079
 1743SOL    HW216866   2.994   4.462  10.348  0.2513 -0.2040  1.6072
 1744SOL     OW16867   0.373   4.204   6.217  0.5346  0.9029  0.3825
 1744SOL    HW116868   0.286   4.188   6.181  1.5495 -0.3707 -1.5439
 1744SOL    HW216869   0.427   4.197   6.139  0.7290 -0.8348  0.6799
 1745SOL     OW16870   0.500   1.182  13.427  0.0679  0.2602 -0.1738
 1745SOL    HW116871   0.572   1.161  13.368  0.3829  0.9449 -0.0334
 1745SOL    HW216872   0.434   1.116  13.407 -0.9388  0.3652  2.7118
 1746SOL     OW16873   1.403   4.354   7.405  0.3663  0.4155  0.0706
 1746SOL    HW116874   1.473   4.326   7.346  0.2657 -1.1644  0.7024
 1746SOL    HW216875   1.320   4.315   7.377 -0.2727  1.7670  0.1215
 1747SOL     OW16876   2.037   2.268   1.658 -0.2911 -0.0155  0.0148
 1747SOL    HW116877   2.073   2.243   1.572 -1.6673 -0.4652 -0.4322
 1747SOL    HW216878   2.118   2.293   1.704  0.7284 -0.3779 -1.5526
 1748SOL     OW16879   1.743   4.102   2.537  0.1025  0.3085  0.2050
 1748SOL    HW116880   1.741   4.014   2.574  1.3841  0.5574  0.8818
 1748SOL    HW216881   1.755   4.072   2.447  0.8839  0.1180  0.3629
 1749SOL     OW16882   2.425   4.124   1.664  0.2308  0.1653 -0.0665
 1749SOL    HW116883   2.344   4.156   1.705  1.5893  0.2787  2.5330
 1749SOL    HW216884   2.417   4.029   1.662  0.7889  0.1152 -0.0191
 1750SOL     OW16885   4.731   3.885   8.698  1.3331  0.1690 -0.2427
 1750SOL    HW116886   4.707   3.865   8.608 -0.7147  0.5802  0.2298
 1750SOL    HW216887   4.648   3.923   8.725  0.5677  0.4144 -2.9374
 1751SOL     OW16888   3.616   0.542  14.568 -1.1901  0.0263 -0.1316
 1751SOL    HW116889   3.576   0.582  14.646  2.2067 -0.8330  2.0602
 1751SOL    HW216890   3.554   0.472  14.549  0.4489 -1.0305 -1.6117
 1752SOL     OW16891   0.335   4.570   3.586  0.3786 -0.1950 -0.1107
 1752SOL    HW116892   0.363   4.479   3.595  0.6122 -0.3176 -2.0972
 1752SOL    HW216893   0.254   4.556   3.538 -0.1464 -0.0682  0.7544
 1753SOL     OW16894   0.939   2.645  13.828  0.0990  0.7281 -0.3561
 1753SOL    HW116895   1.000   2.716  13.848  0.5049  0.4283 -0.5285
 1753SOL    HW216896   0.894   2.627  13.910 -0.4423  1.5436 -0.4744
 1754SOL     OW16897   3.537   0.830   1.766 -0.2177 -0.3074  0.9781
 1754SOL    HW116898   3.525   0.860   1.856 -3.1195 -0.7407  0.7117
 1754SOL    HW216899   3.471   0.886   1.725  0.1539  0.2140  1.0848
 1755SOL     OW16900   3.146   2.363   4.007 -0.2157  0.6527 -0.3300
 1755SOL    HW116901   3.118   2.447   3.969 -0.2271  0.5272 -0.5952
 1755SOL    HW216902   3.142   2.379   4.101  0.1383 -0.2961 -0.1629
 1756SOL     OW16903   1.444   0.222   1.114 -0.1437 -0.0925  0.4191
 1756SOL    HW116904   1.449   0.316   1.134 -1.9931 -0.0943  0.8777
 1756SOL    HW216905   1.386   0.223   1.038 -1.2343 -0.1406  1.2473
 1757SOL     OW16906   2.429   1.197   8.002  0.1434  0.0990 -0.1340
 1757SOL    HW116907   2.476   1.115   8.015  0.8141  0.7671  1.5738
 1757SOL    HW216908   2.483   1.229   7.929 -0.0570 -0.9155 -0.7328
 1758SOL     OW16909   0.609   1.287   5.546 -0.8748  0.7216  0.5240
 1758SOL    HW116910   0.568   1.235   5.615 -1.1738 -0.1099 -0.2744
 1758SOL    HW216911   0.645   1.218   5.490  1.2971  0.3629  2.3773
 1759SOL     OW16912   1.992   3.127   9.498  0.5682 -0.2612  0.6352
 1759SOL    HW116913   1.988   3.164   9.410 -0.5355 -0.3005  0.6741
 1759SOL    HW216914   2.020   3.047   9.453  0.5691 -0.3959  0.8797
 1760SOL     OW16915   2.025   2.329   7.689 -0.4211  0.0081 -0.4943
 1760SOL    HW116916   1.959   2.273   7.648 -0.8833 -1.6668  2.5434
 1760SOL    HW216917   1.957   2.368   7.744  0.4089 -1.9585  1.9553
 1761SOL     OW16918   4.272   2.359   3.398  0.4422 -0.3252 -0.0066
 1761SOL    HW116919   4.310   2.412   3.468 -0.4313 -0.4848  0.5861
 1761SOL    HW216920   4.202   2.416   3.366 -0.3966 -0.8556  0.8675
 1762SOL     OW16921   0.623   0.351   2.333  0.2876  0.0654  0.5646
 1762SOL    HW116922   0.672   0.295   2.393 -0.4622 -1.9499 -0.7248
 1762SOL    HW216923   0.684   0.370   2.262 -0.6267 -0.2069 -0.2935
 1763SOL     OW16924   0.772   3.658   4.332  0.4192 -0.0228 -0.1190
 1763SOL    HW116925   0.716   3.725   4.371  0.4223 -1.3140  2.0617
 1763SOL    HW216926   0.856   3.670   4.377 -2.4370  1.9125  4.6294
 1764SOL     OW16927   1.323   3.315  14.409  0.0743 -0.4477 -0.4880
 1764SOL    HW116928   1.358   3.248  14.351 -1.1063 -1.1030 -0.4694
 1764SOL    HW216929   1.352   3.281  14.494 -0.8067  1.2645  0.4984
 1765SOL     OW16930   4.633   2.837   7.914 -0.3217  0.2455  0.3494
 1765SOL    HW116931   4.685   2.886   7.978 -0.8329  0.1220  0.8621
 1765SOL    HW216932   4.693   2.766   7.892  2.0957  1.7428  2.0986
 1766SOL     OW16933   0.576   1.092   8.969  0.3546  0.6201  0.2319
 1766SOL    HW116934   0.641   1.153   9.005  2.4328 -1.4661  0.0168
 1766SOL    HW216935   0.492   1.106   9.013 -0.1730 -1.1780 -0.2166
 1767SOL     OW16936   4.027   0.086   0.495  0.0607  0.2164 -0.4531
 1767SOL    HW116937   3.972   0.019   0.535 -0.3350  0.3898 -0.7088
 1767SOL    HW216938   4.090   0.030   0.449  1.2168  1.7535 -0.7370
 1768SOL     OW16939   0.984   1.580  11.194 -0.2816  0.4551 -0.4762
 1768SOL    HW116940   0.923   1.646  11.162  3.7639  3.5358 -1.7529
 1768SOL    HW216941   0.960   1.588  11.286 -0.2954 -1.9700 -0.2560
 1769SOL     OW16942   0.463   1.879   9.399  0.3767 -0.8252 -0.2569
 1769SOL    HW116943   0.406   1.920   9.333  0.3166 -0.7831 -0.1787
 1769SOL    HW216944   0.409   1.841   9.468 -0.6432  0.1407 -0.4962
 1770SOL     OW16945   4.579   2.848   2.885  0.4763  0.5561  0.5021
 1770SOL    HW116946   4.641   2.827   2.955 -2.0186 -0.4058  2.4553
 1770SOL    HW216947   4.609   2.788   2.817  0.1704 -0.5442  1.3178
 1771SOL     OW16948   2.667   2.201   5.777  0.2115 -0.2997 -0.2502
 1771SOL    HW116949   2.737   2.179   5.838  1.0599  1.4579 -0.5899
 1771SOL    HW216950   2.620   2.120   5.797  1.5971 -1.1407 -0.3796
 1772SOL     OW16951   2.560   4.117   0.097 -0.3997  0.0551  0.7444
 1772SOL    HW116952   2.501   4.044   0.119 -1.1543  0.2364 -0.6757
 1772SOL    HW216953   2.626   4.116   0.165  1.6031  0.5297 -1.2004
 1773SOL     OW16954   2.849   1.705  12.024  0.4335 -0.9944 -0.3287
 1773SOL    HW116955   2.900   1.786  12.024  0.6994 -1.1330  3.7786
 1773SOL    HW216956   2.779   1.734  11.966 -0.6180 -0.3084  1.2649
 1774SOL     OW16957   2.081   0.953  12.381  0.3213  0.1868  0.0301
 1774SOL    HW116958   2.039   0.870  12.360 -1.1607  0.9142  0.0991
 1774SOL    HW216959   2.006   1.012  12.396 -1.2442 -2.1998  1.5617
 1775SOL     OW16960   1.421   2.233   3.973 -0.0519 -0.0498 -0.0338
 1775SOL    HW116961   1.329   2.233   3.998 -0.5668  0.0644 -1.9459
 1775SOL    HW216962   1.413   2.304   3.910  0.2474  0.4246  0.4669
 1776SOL     OW16963   3.263   3.354  11.056  0.4299 -0.1642 -0.9825
 1776SOL    HW116964   3.251   3.341  11.150 -0.3314  0.9374 -0.9179
 1776SOL    HW216965   3.192   3.301  11.021 -0.1399  0.7806 -1.2723
 1777SOL     OW16966   3.261   3.153  17.205 -0.1503 -0.5110 -0.2633
 1777SOL    HW116967   3.173   3.180  17.178  0.5762 -1.3305 -3.3847
 1777SOL    HW216968   3.300   3.236  17.233  0.1453 -0.4255 -0.9389
 1778SOL     OW16969   0.523   2.545   4.225  0.6067  0.8797 -0.5436
 1778SOL    HW116970   0.545   2.546   4.131 -1.7045 -0.3267 -1.1044
 1778SOL    HW216971   0.467   2.467   4.224  0.3084  1.0919 -0.0156
 1779SOL     OW16972   3.935   3.397   6.099 -0.2343 -0.9877  0.1184
 1779SOL    HW116973   3.866   3.436   6.044  2.8201  1.7760 -1.7585
 1779SOL    HW216974   4.007   3.460   6.096  0.6351 -2.0024  0.2138
 1780SOL     OW16975   3.556   1.150   2.510  0.2270 -0.2533  0.2852
 1780SOL    HW116976   3.486   1.199   2.466  2.0119 -0.6445 -3.0296
 1780SOL    HW216977   3.500   1.095   2.565 -2.6412  1.3101 -1.0505
 1781SOL     OW16978   0.566   1.799   7.929 -1.2464 -0.5496  0.0707
 1781SOL    HW116979   0.618   1.849   7.992 -0.8588 -0.6853 -0.1402
 1781SOL    HW216980   0.629   1.740   7.886 -1.1501 -1.9585  2.1557
 1782SOL     OW16981   4.156   0.020  15.254  0.3939 -0.9969 -0.3455
 1782SOL    HW116982   4.172   4.695  15.326  0.5230 -0.6780 -0.1059
 1782SOL    HW216983   4.082   0.075  15.280  0.2712 -1.9968  1.4140
 1783SOL     OW16984   2.685   3.725  12.185 -0.1690 -0.1148  0.1131
 1783SOL    HW116985   2.719   3.751  12.099  3.2083 -0.5578  1.3447
 1783SOL    HW216986   2.705   3.632  12.173  0.2368 -0.1967  1.4294
 1784SOL     OW16987   1.868   1.094  17.335 -0.0303  0.0123  0.1032
 1784SOL    HW116988   1.825   1.104  17.420  0.6466  0.5681  0.3871
 1784SOL    HW216989   1.827   1.170  17.294 -1.1592 -1.1033 -0.8149
 1785SOL     OW16990   4.631   0.230   7.105  0.4203 -0.4655  0.1282
 1785SOL    HW116991   4.626   0.283   7.025 -1.1167  2.0553  1.9050
 1785SOL    HW216992   4.542   0.221   7.137  0.0750 -1.0546 -0.9881
 1786SOL     OW16993   0.083   1.889   7.678 -0.1532 -0.2953  0.2151
 1786SOL    HW116994   0.159   1.838   7.707  0.5928  1.4396  1.2792
 1786SOL    HW216995   0.078   1.863   7.586 -3.7680  1.3179 -0.0331
 1787SOL     OW16996   4.612   2.370   6.495  0.4812 -0.0667 -0.5986
 1787SOL    HW116997   4.700   2.372   6.532 -0.4291  1.5848  1.5298
 1787SOL    HW216998   4.571   2.434   6.554 -2.4437 -2.9831  0.5611
 1788SOL     OW16999   2.238   4.563   6.006  0.5078  0.1893  0.1937
 1788SOL    HW117000   2.292   4.590   5.932  1.7393 -0.7697  0.7527
 1788SOL    HW217001   2.315   4.548   6.061 -0.3723  1.1341  1.7009
 1789SOL     OW17002   2.706   0.550   6.846  0.2564  0.7791  0.2461
 1789SOL    HW117003   2.742   0.468   6.880  2.3617  1.3236 -0.6481
 1789SOL    HW217004   2.787   0.601   6.842  0.3448  0.5701 -0.5763
 1790SOL     OW17005   1.173   0.878   8.833  0.2053 -0.3640 -0.0410
 1790SOL    HW117006   1.101   0.881   8.770  0.8738  2.7265 -0.6762
 1790SOL    HW217007   1.157   0.800   8.885  0.5391 -0.6371 -0.3440
 1791SOL     OW17008   4.018   1.658   6.854 -0.2352 -0.6800  0.3294
 1791SOL    HW117009   4.114   1.666   6.855 -0.4634  1.8027  1.6875
 1791SOL    HW217010   3.980   1.709   6.926 -1.0840 -2.9363  1.4903
 1792SOL     OW17011   4.222   0.621   6.452  0.0928  0.1601 -0.7230
 1792SOL    HW117012   4.258   0.694   6.402  0.3033  2.1934  2.4382
 1792SOL    HW217013   4.295   0.559   6.453  0.4668  0.5835 -1.9334
 1793SOL     OW17014   3.736   0.392   3.034  0.0371 -0.0739 -0.4554
 1793SOL    HW117015   3.670   0.334   3.072 -0.5232  0.8576  0.0079
 1793SOL    HW217016   3.821   0.356   3.056  0.7179  3.1597  2.2182
 1794SOL     OW17017   0.910   1.983   7.803 -0.7272 -0.3079 -0.3023
 1794SOL    HW117018   0.845   1.966   7.735 -1.3165  0.9571 -0.0545
 1794SOL    HW217019   0.926   2.074   7.777 -1.7963 -0.0610 -0.0989
 1795SOL     OW17020   4.321   3.418   6.449  0.0886 -0.0822  0.1126
 1795SOL    HW117021   4.267   3.473   6.505  2.9631 -0.3254  3.1531
 1795SOL    HW217022   4.332   3.348   6.514  1.8787  0.5286  0.4706
 1796SOL     OW17023   1.661   4.382   9.168 -0.0865 -0.4885 -0.4474
 1796SOL    HW117024   1.612   4.463   9.155 -0.9830 -0.5576  2.5512
 1796SOL    HW217025   1.648   4.338   9.084  1.5293 -0.1067 -0.8915
 1797SOL     OW17026   1.376   1.320   6.988 -0.2340 -0.5080 -0.0672
 1797SOL    HW117027   1.376   1.307   7.083  1.5060 -0.6395 -0.0833
 1797SOL    HW217028   1.314   1.391   6.970 -0.0603 -0.0255  1.2807
 1798SOL     OW17029   1.064   0.489   6.434  0.2326  0.3596  0.5080
 1798SOL    HW117030   1.066   0.488   6.529  0.5583  0.1843  0.4989
 1798SOL    HW217031   1.024   0.576   6.426 -0.5760  0.0693  1.3851
 1799SOL     OW17032   1.312   2.554   7.530  0.0000  0.2163  0.3778
 1799SOL    HW117033   1.338   2.516   7.613 -0.7857 -1.8163 -0.3165
 1799SOL    HW217034   1.396   2.575   7.489  1.1029  1.8331  3.4431
 1800SOL     OW17035   2.454   0.248   8.427 -0.0456  0.1092 -0.6218
 1800SOL    HW117036   2.549   0.252   8.415  0.1561  0.2517  1.0188
 1800SOL    HW217037   2.435   0.342   8.434 -2.6940 -0.4733 -0.0304
 1801SOL     OW17038   3.153   0.596   2.109  0.0405  0.3653 -0.4064
 1801SOL    HW117039   3.091   0.524   2.124  3.1005 -1.9610  1.0664
 1801SOL    HW217040   3.124   0.628   2.024 -1.7926  0.1929  0.1484
 1802SOL     OW17041   1.862   3.015  12.876 -0.1399 -0.4600  0.2917
 1802SOL    HW117042   1.828   3.042  12.790 -1.6876  0.3489  1.1706
 1802SOL    HW217043   1.936   2.962  12.844  1.4140  1.7372  0.2657
 1803SOL     OW17044   2.869   2.367   8.875 -0.2612  0.2137  0.2515
 1803SOL    HW117045   2.874   2.281   8.833 -1.4100 -0.4041  1.3830
 1803SOL    HW217046   2.879   2.423   8.798 -0.0124 -1.4915 -0.9633
 1804SOL     OW17047   2.450   2.477   8.715 -0.1643 -0.5998 -0.3587
 1804SOL    HW117048   2.458   2.551   8.775  0.2412 -1.9281  1.2172
 1804SOL    HW217049   2.371   2.433   8.747 -0.5198  1.0384  1.0326
 1805SOL     OW17050   4.370   3.942  15.111 -0.2675 -0.2654  0.1511
 1805SOL    HW117051   4.317   3.931  15.190 -1.3823  0.5047 -0.4892
 1805SOL    HW217052   4.455   3.965  15.149  1.0211  0.6683 -3.3122
 1806SOL     OW17053   2.145   4.409   5.733  0.1924  0.0943  0.8438
 1806SOL    HW117054   2.154   4.316   5.715  0.4034  0.5512 -1.4535
 1806SOL    HW217055   2.050   4.405   5.749 -0.2251 -1.1011 -1.9084
 1807SOL     OW17056   0.150   0.994  16.361  0.0335 -0.2735 -0.0603
 1807SOL    HW117057   0.197   1.075  16.382 -2.4630 -0.1671  4.9859
 1807SOL    HW217058   0.174   1.001  16.268  0.0311  0.8977  0.0175
 1808SOL     OW17059   4.173   4.355   7.217 -0.3621  0.2940 -0.1063
 1808SOL    HW117060   4.099   4.301   7.192 -0.6141 -0.3679  2.0397
 1808SOL    HW217061   4.143   4.439   7.180 -0.9888  0.5290  0.9330
 1809SOL     OW17062   2.115   4.142   2.424  0.6204 -0.5158 -0.0953
 1809SOL    HW117063   2.150   4.054   2.434  2.1746  0.0455 -0.5581
 1809SOL    HW217064   2.191   4.177   2.377  0.2290 -0.5540 -0.7526
 1810SOL     OW17065   1.583   0.524  13.039 -0.2573 -0.0515  0.0143
 1810SOL    HW117066   1.536   0.506  12.958  0.4746  0.8304 -0.6088
 1810SOL    HW217067   1.564   0.618  13.036  0.9590  0.1682 -0.9476
 1811SOL     OW17068   3.057   2.142   6.196 -0.6559  0.6736  0.0726
 1811SOL    HW117069   3.132   2.167   6.141 -0.1589 -0.8487  0.0618
 1811SOL    HW217070   2.994   2.206   6.163 -2.5174 -1.5920 -0.7983
 1812SOL     OW17071   3.173   2.843   9.584 -0.5680  0.0317 -0.2221
 1812SOL    HW117072   3.171   2.810   9.494 -0.0671  2.5250 -1.1455
 1812SOL    HW217073   3.081   2.864   9.603 -0.0291  1.1441  1.1118
 1813SOL     OW17074   1.686   1.629   5.600 -0.3732  0.0235  0.4383
 1813SOL    HW117075   1.643   1.713   5.584  3.3674  1.7480 -0.6064
 1813SOL    HW217076   1.662   1.615   5.691 -0.8147 -0.1623  0.2932
 1814SOL     OW17077   3.085   2.601   9.854  0.1125 -0.4056 -0.2093
 1814SOL    HW117078   3.063   2.552   9.775 -1.9084 -2.2311  1.4823
 1814SOL    HW217079   3.126   2.674   9.808 -0.3321 -0.9425 -1.4559
 1815SOL     OW17080   0.182   0.400   5.833 -0.7163 -0.4351 -0.5804
 1815SOL    HW117081   0.272   0.396   5.866 -1.0605 -2.4454  0.1028
 1815SOL    HW217082   0.196   0.461   5.760  2.6019 -0.3061  0.1616
 1816SOL     OW17083   4.080   0.573  16.030 -0.3508  0.0221 -0.0525
 1816SOL    HW117084   4.003   0.562  15.974 -0.6887 -0.6148  0.5265
 1816SOL    HW217085   4.059   0.500  16.089 -0.0914  0.4719  0.5953
 1817SOL     OW17086   2.858   0.898   8.635 -0.9236 -0.0931 -0.3226
 1817SOL    HW117087   2.867   0.892   8.540  1.6076 -1.5534  0.0081
 1817SOL    HW217088   2.776   0.947   8.642 -1.7217 -1.6545  1.3464
 1818SOL     OW17089   1.520   4.599   5.957  0.7719  0.1811 -0.4179
 1818SOL    HW117090   1.435   4.560   5.937  1.4649 -1.1394 -0.7365
 1818SOL    HW217091   1.485   4.684   5.985 -1.4218 -1.0121  0.3861
 1819SOL     OW17092   4.108   2.129  13.767  0.3597 -0.6736  0.4112
 1819SOL    HW117093   4.163   2.193  13.722 -1.8221 -1.6667 -3.7201
 1819SOL    HW217094   4.129   2.147  13.858  3.0697  0.5237 -0.4503
 1820SOL     OW17095   1.669   1.654   8.936 -0.0037 -0.1741 -0.2550
 1820SOL    HW117096   1.681   1.561   8.957 -0.3057 -0.2952 -0.6183
 1820SOL    HW217097   1.650   1.696   9.020 -2.2946  0.5296 -1.1161
 1821SOL     OW17098   1.434   0.486   2.705 -0.1919 -0.5719  1.1199
 1821SOL    HW117099   1.379   0.450   2.775 -0.5089 -0.2100  1.0582
 1821SOL    HW217100   1.370   0.500   2.635 -1.3219 -0.8684  2.0835
 1822SOL     OW17101   2.569   2.318   3.245  0.0515 -0.5614 -0.5931
 1822SOL    HW117102   2.576   2.362   3.330 -0.9849 -0.6722 -0.4492
 1822SOL    HW217103   2.574   2.227   3.276 -0.0273 -0.2058  0.4875
 1823SOL     OW17104   4.320   0.604  16.156  0.3030  0.0162  0.0065
 1823SOL    HW117105   4.289   0.688  16.189  1.9889  0.2169  1.0942
 1823SOL    HW217106   4.252   0.578  16.094  0.8245  2.4758 -1.5724
 1824SOL     OW17107   2.172   0.160   8.808  0.1957 -0.0008 -0.1458
 1824SOL    HW117108   2.190   0.143   8.715  0.1875 -0.2221 -0.1058
 1824SOL    HW217109   2.226   0.237   8.823 -0.1309 -0.0705  1.3578
 1825SOL     OW17110   3.227   4.032   3.621  0.1129 -0.4182 -0.0508
 1825SOL    HW117111   3.258   3.999   3.705  1.7445 -2.2335 -1.3740
 1825SOL    HW217112   3.228   3.956   3.563 -0.3346  0.1056 -0.7567
 1826SOL     OW17113   1.317   3.822  13.599 -0.2189 -0.5898 -0.0416
 1826SOL    HW117114   1.244   3.794  13.544 -0.7876 -0.5327  0.6880
 1826SOL    HW217115   1.305   3.748  13.659  0.0283 -1.0920 -0.6100
 1827SOL     OW17116   2.152   3.197   3.079  0.1841  0.0207  0.2009
 1827SOL    HW117117   2.235   3.163   3.044  1.6996  4.3652 -0.4137
 1827SOL    HW217118   2.172   3.290   3.090 -1.6185  0.4031  0.1507
 1828SOL     OW17119   3.228   0.498   8.528 -0.2903 -0.1971 -0.0098
 1828SOL    HW117120   3.143   0.469   8.494 -1.4415  2.0040  0.9436
 1828SOL    HW217121   3.284   0.469   8.456 -0.5700 -0.7812  0.0067
 1829SOL     OW17122   3.470   2.984  16.781 -0.0389 -0.1719 -0.4419
 1829SOL    HW117123   3.466   2.961  16.874  1.1692 -0.7207 -0.5154
 1829SOL    HW217124   3.557   2.948  16.761  0.3198 -0.3584  1.4247
 1830SOL     OW17125   1.583   2.932   1.195  0.2078  0.5132 -0.8639
 1830SOL    HW117126   1.564   2.848   1.237  0.0437  0.5974 -0.7702
 1830SOL    HW217127   1.664   2.895   1.160  0.4004  0.9511 -0.8822
 1831SOL     OW17128   3.802   3.224   6.629  0.1003  0.5966  0.4589
 1831SOL    HW117129   3.791   3.284   6.702 -1.7710  0.8985 -0.0788
 1831SOL    HW217130   3.856   3.284   6.578 -1.2098  0.1902 -1.4237
 1832SOL     OW17131   0.434   2.383  13.479 -0.0883 -0.0050 -0.6227
 1832SOL    HW117132   0.393   2.305  13.443 -1.5252 -0.0454  1.0665
 1832SOL    HW217133   0.478   2.428  13.407 -0.6103  3.0520  0.9554
 1833SOL     OW17134   4.241   2.384   7.414  0.4469  0.2183 -0.1617
 1833SOL    HW117135   4.248   2.383   7.319 -0.8166 -0.9368 -0.2391
 1833SOL    HW217136   4.227   2.291   7.432 -0.7076  0.5234  0.5488
 1834SOL     OW17137   4.661   1.865   4.591 -0.2086 -0.4729  0.3270
 1834SOL    HW117138   4.687   1.778   4.561  0.4828 -0.7359  1.6946
 1834SOL    HW217139   4.589   1.842   4.649 -1.0832 -1.0383 -0.9923
 1835SOL     OW17140   4.354   3.300  11.523 -0.1095 -0.1510  0.3797
 1835SOL    HW117141   4.296   3.224  11.524 -1.3671  0.8693  3.2143
 1835SOL    HW217142   4.307   3.381  11.539 -0.5038 -0.7628  2.3501
 1836SOL     OW17143   1.451   0.170  14.822  0.3850 -0.1560 -0.4816
 1836SOL    HW117144   1.534   0.190  14.779 -0.2121 -1.7458 -2.3157
 1836SOL    HW217145   1.485   0.087  14.856 -0.4465  0.5970  2.1972
 1837SOL     OW17146   3.268   0.188   2.700  0.3507 -0.2030 -0.0718
 1837SOL    HW117147   3.268   0.121   2.769  0.9887 -0.0701  0.0537
 1837SOL    HW217148   3.360   0.211   2.708  0.4696 -0.0795 -1.7184
 1838SOL     OW17149   4.135   1.100  10.359 -0.0257 -0.3405 -0.1431
 1838SOL    HW117150   4.130   1.093  10.264  0.4446  0.1966 -0.2046
 1838SOL    HW217151   4.083   1.023  10.381 -0.2208 -0.3762 -0.7444
 1839SOL     OW17152   3.952   4.363  13.134  0.1702  0.3249 -0.1173
 1839SOL    HW117153   3.937   4.316  13.052 -0.2025 -2.0858  1.3281
 1839SOL    HW217154   4.043   4.388  13.120  1.0837 -2.7605  0.4317
 1840SOL     OW17155   3.056   4.034  11.755 -0.6954  0.0245  0.3745
 1840SOL    HW117156   3.090   4.115  11.718  0.6579  0.0659  1.7633
 1840SOL    HW217157   3.077   4.041  11.848 -1.5926 -3.2297  0.8267
 1841SOL     OW17158   3.311   2.594   9.360 -0.0092  0.3544  0.1359
 1841SOL    HW117159   3.311   2.519   9.419 -1.2330  0.1367 -0.1246
 1841SOL    HW217160   3.405   2.607   9.356 -0.1027  1.4309  1.4485
 1842SOL     OW17161   4.046   4.633   1.848  0.1014 -0.0918 -0.6903
 1842SOL    HW117162   3.952   4.627   1.866  0.1440 -0.7822 -0.6893
 1842SOL    HW217163   4.065   4.553   1.897  1.5500  0.4875 -0.3034
 1843SOL     OW17164   2.295   0.871  13.902 -0.4063  0.0861  0.1125
 1843SOL    HW117165   2.356   0.922  13.848 -0.3703 -1.4266 -1.2605
 1843SOL    HW217166   2.349   0.793  13.916 -0.4365  0.3269  1.4912
 1844SOL     OW17167   2.703   1.643  12.243 -0.0223  0.6933 -0.3013
 1844SOL    HW117168   2.767   1.663  12.174 -0.4738  0.1211 -0.8861
 1844SOL    HW217169   2.685   1.552  12.219  1.9845  0.2897 -0.2804
 1845SOL     OW17170   2.879   4.107  17.009 -0.2490 -0.4219 -0.0274
 1845SOL    HW117171   2.902   4.075  16.922  0.2371  1.2277 -0.5049
 1845SOL    HW217172   2.963   4.111  17.055 -1.4086 -0.2412  2.0774
 1846SOL     OW17173   1.081   4.131   8.418  0.4094 -0.2664 -0.1642
 1846SOL    HW117174   1.005   4.098   8.372  1.3967  0.8537 -2.6008
 1846SOL    HW217175   1.151   4.094   8.364 -0.5785 -1.0577 -0.8703
 1847SOL     OW17176   1.315   0.580   2.102  0.7500  0.4240 -0.3510
 1847SOL    HW117177   1.337   0.660   2.149  0.4562  0.8226 -0.8929
 1847SOL    HW217178   1.319   0.618   2.014 -1.4233 -0.9378 -1.0547
 1848SOL     OW17179   0.249   0.804  13.481 -0.0988  0.2469  0.3301
 1848SOL    HW117180   0.249   0.715  13.445  1.6715  0.8974 -1.2742
 1848SOL    HW217181   0.280   0.784  13.569  1.5072 -0.0984 -0.3263
 1849SOL     OW17182   2.569   1.913   2.386  0.3761  0.2588 -0.5208
 1849SOL    HW117183   2.580   1.931   2.479 -0.4587  0.1178 -0.3976
 1849SOL    HW217184   2.644   1.855   2.373  1.3759  1.2459  0.8309
 1850SOL     OW17185   4.222   2.184   3.188  0.8355 -0.2075 -0.1234
 1850SOL    HW117186   4.248   2.228   3.269  0.3477  0.2235 -0.2082
 1850SOL    HW217187   4.252   2.249   3.124 -1.7203  0.8637 -0.2393
 1851SOL     OW17188   4.404   0.559  15.731  0.5903  0.3435 -0.1213
 1851SOL    HW117189   4.419   0.541  15.638 -0.5333 -1.2674  0.0051
 1851SOL    HW217190   4.308   0.569  15.735  0.4802 -0.2389 -1.1826
 1852SOL     OW17191   3.274   4.679   7.498  0.5399 -0.4114 -0.2395
 1852SOL    HW117192   3.199   4.620   7.512  1.7645 -1.3974  2.2585
 1852SOL    HW217193   3.219   0.018   7.477  0.4282 -0.1096  1.1272
 1853SOL     OW17194   3.155   1.178   4.254  0.1973  0.4870  0.0565
 1853SOL    HW117195   3.181   1.233   4.180  0.4039  1.4615  0.8598
 1853SOL    HW217196   3.235   1.126   4.265 -0.8540 -0.4735  3.1477
 1854SOL     OW17197   0.343   0.430  13.212  0.0385 -0.0022 -0.3932
 1854SOL    HW117198   0.366   0.364  13.147 -2.1324  2.0005 -3.1639
 1854SOL    HW217199   0.324   0.503  13.154 -2.2519 -0.4236 -0.1871
 1855SOL     OW17200   0.470   1.777   7.542 -0.0530 -0.2558 -0.1475
 1855SOL    HW117201   0.433   1.795   7.629 -3.4976  0.1571 -1.6827
 1855SOL    HW217202   0.495   1.684   7.544  0.7109 -0.0293  0.9581
 1856SOL     OW17203   4.227   2.580   4.493  0.3723 -0.8594 -0.3744
 1856SOL    HW117204   4.246   2.673   4.482 -1.5037 -0.2593  1.3394
 1856SOL    HW217205   4.132   2.593   4.493  0.5148  0.2177  1.0330
 1857SOL     OW17206   2.794   2.694  16.073  0.0939 -0.2247 -0.3242
 1857SOL    HW117207   2.737   2.707  15.998  1.2783  0.1722 -1.1682
 1857SOL    HW217208   2.755   2.751  16.139  2.6002  0.8495  0.2620
 1858SOL     OW17209   0.544   4.424   7.193  0.0267 -0.4050 -0.8925
 1858SOL    HW117210   0.494   4.480   7.251 -0.6092 -0.8505 -1.0152
 1858SOL    HW217211   0.569   4.351   7.251 -0.5446 -0.0732 -0.2357
 1859SOL     OW17212   1.335   0.600   7.819 -0.1307 -0.4897  0.2865
 1859SOL    HW117213   1.368   0.554   7.742 -0.2445 -1.7511  0.9721
 1859SOL    HW217214   1.283   0.524   7.848  0.1198 -0.1789  1.5822
 1860SOL     OW17215   0.853   2.633   0.743  0.3959  0.5014 -0.6136
 1860SOL    HW117216   0.879   2.637   0.835 -1.3947  0.7708 -0.1218
 1860SOL    HW217217   0.809   2.717   0.729 -0.7797  0.2558  1.5823
 1861SOL     OW17218   3.656   3.063   8.197 -0.0644  0.6136  0.3690
 1861SOL    HW117219   3.632   3.155   8.208  1.4344  1.3002 -1.9774
 1861SOL    HW217220   3.578   3.021   8.233 -0.5127 -0.6518 -2.1311
 1862SOL     OW17221   3.588   3.349   9.260  0.1978  0.2377 -0.3133
 1862SOL    HW117222   3.622   3.382   9.344 -2.1307  0.8777  0.3599
 1862SOL    HW217223   3.525   3.285   9.294  0.9462 -1.1532 -1.5368
 1863SOL     OW17224   4.203   2.905   5.048 -0.4775 -0.5405  0.0238
 1863SOL    HW117225   4.152   2.863   4.979 -2.4858  0.2219  1.0262
 1863SOL    HW217226   4.157   2.989   5.052 -0.1807 -0.3550 -0.6241
 1864SOL     OW17227   0.875   4.472   3.523  0.3159  0.2888  0.1011
 1864SOL    HW117228   0.827   4.399   3.483  1.5881 -0.6664  0.3026
 1864SOL    HW217229   0.852   4.463   3.615  0.8541  0.9985  0.3057
 1865SOL     OW17230   4.175   2.592   6.866 -0.0048  0.0319  0.2773
 1865SOL    HW117231   4.261   2.635   6.874  0.2585 -0.4436 -0.0012
 1865SOL    HW217232   4.170   2.562   6.775 -0.5220 -1.3340  0.7675
 1866SOL     OW17233   4.564   3.965   2.492  0.4086 -0.0833 -0.2773
 1866SOL    HW117234   4.566   4.052   2.453  0.7568  0.6485  1.3622
 1866SOL    HW217235   4.622   3.982   2.567 -1.8831  0.9441  1.2488
 1867SOL     OW17236   4.344   2.103  11.238  0.5559 -0.6809  1.1515
 1867SOL    HW117237   4.359   2.037  11.306 -0.3963 -0.4957  1.5402
 1867SOL    HW217238   4.357   2.185  11.285  0.4631  0.3531 -0.6471
 1868SOL     OW17239   3.035   2.488   9.052  0.2432 -0.8343 -0.5078
 1868SOL    HW117240   2.977   2.439   8.994 -0.3573  2.1591 -2.3961
 1868SOL    HW217241   3.084   2.419   9.097 -0.2993 -0.4294  0.7261
 1869SOL     OW17242   0.307   4.419   0.550  0.6591  0.5149 -0.2138
 1869SOL    HW117243   0.358   4.498   0.529  2.0281 -0.6600 -1.3524
 1869SOL    HW217244   0.219   4.455   0.543  0.7617  1.1253  1.5716
 1870SOL     OW17245   1.723   0.061   8.997 -0.6644  0.1722 -0.3329
 1870SOL    HW117246   1.760   0.118   9.064 -0.0478  0.0644 -0.5863
 1870SOL    HW217247   1.686   4.723   9.045  1.9460 -2.4909 -2.4110
 1871SOL     OW17248   0.893   0.464  11.129  0.2558 -0.4735 -0.1783
 1871SOL    HW117249   0.857   0.479  11.041 -1.2351  2.2381  0.9051
 1871SOL    HW217250   0.857   0.531  11.187 -2.6499 -0.2055 -2.3111
 1872SOL     OW17251   4.620   4.407   7.409 -0.6699 -0.1616  0.3954
 1872SOL    HW117252   4.567   4.357   7.346 -2.3814  2.1682 -0.0245
 1872SOL    HW217253   4.586   4.363   7.487  0.2545  1.3560  1.6500
 1873SOL     OW17254   0.172   4.671  13.011 -0.9444  0.1050  0.6267
 1873SOL    HW117255   0.192   4.592  12.960 -0.8235  1.9082 -2.1614
 1873SOL    HW217256   0.090   4.701  12.971 -0.7325 -1.4138 -0.9274
 1874SOL     OW17257   1.960   3.364   7.639  0.2627 -0.6512  0.6000
 1874SOL    HW117258   2.036   3.396   7.688 -0.0441 -0.3749  0.8964
 1874SOL    HW217259   1.889   3.423   7.663 -1.0691 -0.9759 -2.5218
 1875SOL     OW17260   2.973   0.895   2.554  0.7799 -0.1675  0.2512
 1875SOL    HW117261   2.922   0.969   2.587  1.8758 -0.3161  2.2215
 1875SOL    HW217262   2.925   0.830   2.606  0.0071 -0.4595 -0.8102
 1876SOL     OW17263   0.291   3.375   9.695  0.1020  0.2084  1.0054
 1876SOL    HW117264   0.221   3.417   9.644  0.3542 -0.6429 -0.0472
 1876SOL    HW217265   0.366   3.431   9.679 -1.9720  1.9196 -2.9364
 1877SOL     OW17266   4.246   2.889   4.243  0.1465  0.1537  0.5881
 1877SOL    HW117267   4.158   2.883   4.207  0.9116 -1.7515 -0.9553
 1877SOL    HW217268   4.286   2.932   4.168 -1.1318 -2.5416 -1.6268
 1878SOL     OW17269   2.699   4.375  15.037  0.0844 -0.0701  0.2395
 1878SOL    HW117270   2.632   4.407  14.976 -0.4295 -0.7397  0.4425
 1878SOL    HW217271   2.703   4.436  15.110  1.9388 -1.3257  1.1888
 1879SOL     OW17272   2.437   2.757   5.396 -0.5382 -0.2135 -0.2130
 1879SOL    HW117273   2.422   2.847   5.366  0.4040  0.0747  0.1826
 1879SOL    HW217274   2.443   2.766   5.491  0.3060  0.4261 -0.3332
 1880SOL     OW17275   2.564   2.527  11.093 -0.0655  0.3091  0.2956
 1880SOL    HW117276   2.529   2.529  11.182  0.2999  0.3621  0.4388
 1880SOL    HW217277   2.557   2.623  11.094 -2.8782  0.0990  1.0008
 1881SOL     OW17278   4.602   3.747   9.101 -0.2718  0.0455  0.0864
 1881SOL    HW117279   4.617   3.670   9.154 -4.5119 -1.3565 -0.6924
 1881SOL    HW217280   4.631   3.820   9.156  0.1285  0.1542 -0.2726
 1882SOL     OW17281   4.696   3.059   7.719  0.4588  0.3339  0.0336
 1882SOL    HW117282   4.695   2.995   7.791  0.6058 -0.6769 -0.8702
 1882SOL    HW217283   4.631   3.023   7.659  0.9787  0.4032 -0.5674
 1883SOL     OW17284   2.036   2.215   8.980  0.4611 -0.1122 -0.0309
 1883SOL    HW117285   2.025   2.257   9.065  1.4349 -0.0725  0.0798
 1883SOL    HW217286   2.132   2.212   8.978  0.4149 -1.1230 -0.7160
 1884SOL     OW17287   0.019   0.439   4.890 -0.2904 -0.1698 -0.1993
 1884SOL    HW117288   0.073   0.456   4.968  0.2981 -1.9680 -0.1985
 1884SOL    HW217289   0.084   0.413   4.824  0.2990  2.3114 -0.5792
 1885SOL     OW17290   0.796   2.551   7.995  0.7109  0.3772  0.0922
 1885SOL    HW117291   0.757   2.624   7.948  0.6537  0.1093 -0.2794
 1885SOL    HW217292   0.888   2.569   7.974  0.9430 -0.5417  0.3041
 1886SOL     OW17293   2.593   1.358  10.752  0.1549 -0.2345  0.3919
 1886SOL    HW117294   2.647   1.306  10.811 -0.0892 -0.4314  0.4365
 1886SOL    HW217295   2.573   1.431  10.811 -0.7667 -1.1025  1.1328
 1887SOL     OW17296   2.214   4.628   6.487  0.1024  0.0276  0.2262
 1887SOL    HW117297   2.231   4.691   6.417  0.1937  1.6419  1.6869
 1887SOL    HW217298   2.260   4.677   6.555  0.2659  1.7516 -1.1195
 1888SOL     OW17299   2.913   3.531  16.830 -0.3816 -0.0134 -0.1031
 1888SOL    HW117300   2.975   3.570  16.769 -0.0760  0.2263  0.3571
 1888SOL    HW217301   2.977   3.515  16.899  0.2124 -0.0955 -0.6734
 1889SOL     OW17302   2.495   3.175   1.013 -0.3324 -0.4966  0.1622
 1889SOL    HW117303   2.404   3.153   1.033 -0.9082  0.9090 -0.8868
 1889SOL    HW217304   2.517   3.210   1.099 -0.1144 -1.6841  0.5910
 1890SOL     OW17305   1.559   1.117   5.494  0.2967  0.2436 -0.2537
 1890SOL    HW117306   1.645   1.099   5.455  1.2250  0.6823  1.5943
 1890SOL    HW217307   1.583   1.097   5.585  0.0169 -2.1247 -0.7005
 1891SOL     OW17308   1.915   0.181  10.051 -0.2624  0.1466  0.2792
 1891SOL    HW117309   1.930   0.087  10.036 -1.2659  0.3047 -1.6979
 1891SOL    HW217310   1.821   0.175  10.071 -0.2456  2.4703  1.0366
 1892SOL     OW17311   1.938   2.063  17.025  0.5079 -0.6154 -0.4071
 1892SOL    HW117312   1.921   1.983  17.076  1.8187 -1.1927 -0.8907
 1892SOL    HW217313   1.905   2.121  17.094  1.1304  0.2490 -0.8320
 1893SOL     OW17314   4.229   3.888   8.064  0.3307 -0.0204  0.6270
 1893SOL    HW117315   4.246   3.795   8.048 -3.7244 -0.3777 -1.6157
 1893SOL    HW217316   4.135   3.899   8.075  0.2637 -0.3610  0.4069
 1894SOL     OW17317   4.598   0.885   2.771 -0.6905 -0.1717  0.3385
 1894SOL    HW117318   4.678   0.936   2.777 -0.7081 -0.0416 -0.5936
 1894SOL    HW217319   4.600   0.838   2.687  1.9403 -1.2972  1.0467
 1895SOL     OW17320   1.156   2.140  16.844  0.0509 -0.2680  0.1938
 1895SOL    HW117321   1.213   2.100  16.909 -3.6511 -4.3418  0.9047
 1895SOL    HW217322   1.136   2.073  16.778  0.6131 -0.8992  0.6748
 1896SOL     OW17323   3.940   1.462   4.601 -0.1305  0.3602 -0.1844
 1896SOL    HW117324   3.872   1.487   4.538  1.4449  0.0900 -2.0089
 1896SOL    HW217325   3.983   1.396   4.546 -1.2373  0.5312 -1.2528
 1897SOL     OW17326   3.230   3.463   9.222  0.2534 -0.2547  0.0126
 1897SOL    HW117327   3.173   3.491   9.151  1.5851 -2.0224 -1.7449
 1897SOL    HW217328   3.193   3.518   9.291 -0.0074  1.1470 -1.2610
 1898SOL     OW17329   0.886   2.627   6.215 -0.0838  0.2459 -1.0693
 1898SOL    HW117330   0.831   2.595   6.286 -0.1457  0.9738 -0.7866
 1898SOL    HW217331   0.818   2.632   6.148 -1.4045 -0.2798  0.2261
 1899SOL     OW17332   0.806   1.650   8.693  0.3681  0.2269  0.2995
 1899SOL    HW117333   0.895   1.626   8.718  0.8470  0.4074 -1.2501
 1899SOL    HW217334   0.815   1.708   8.618 -0.9976  0.0702  0.0113
 1900SOL     OW17335   2.787   3.271   7.486  0.0328 -0.6380 -0.3467
 1900SOL    HW117336   2.721   3.340   7.472 -0.1077 -0.6385  0.3476
 1900SOL    HW217337   2.742   3.197   7.447 -2.0221  1.3286 -1.7058
 1901SOL     OW17338   3.329   2.447   5.990  0.1917  1.0791  0.8864
 1901SOL    HW117339   3.310   2.475   6.080  1.0791  2.4471  0.6448
 1901SOL    HW217340   3.282   2.506   5.932  0.7494  0.4247 -0.2206
 1902SOL     OW17341   1.364   2.269   8.739 -0.2014  0.4495  0.4548
 1902SOL    HW117342   1.290   2.291   8.797 -1.7551 -0.2583 -1.2476
 1902SOL    HW217343   1.421   2.338   8.771 -1.7646  1.5256  0.8993
 1903SOL     OW17344   2.264   3.161   8.180 -0.3526 -0.2623 -0.0786
 1903SOL    HW117345   2.265   3.088   8.119  0.9931 -0.1861 -0.1489
 1903SOL    HW217346   2.296   3.117   8.258  1.7881  0.6886 -0.4032
 1904SOL     OW17347   1.458   3.106  14.236  0.2658 -0.1824 -0.2954
 1904SOL    HW117348   1.386   3.133  14.179  0.2988 -1.6577 -1.0228
 1904SOL    HW217349   1.530   3.095  14.174  0.1028 -0.6036 -0.4077
 1905SOL     OW17350   2.936   4.657   6.993  0.6701  0.3746  0.1933
 1905SOL    HW117351   2.882   4.655   6.915 -2.3493 -0.3908  2.3013
 1905SOL    HW217352   2.874   4.668   7.065  0.7412  2.6984 -0.1033
 1906SOL     OW17353   1.481   0.325   6.895  0.0079 -0.2480  0.0183
 1906SOL    HW117354   1.396   0.292   6.866 -0.2310  0.5822 -0.2206
 1906SOL    HW217355   1.483   0.419   6.878  0.8608 -0.5688 -1.6595
 1907SOL     OW17356   4.515   1.605   7.724 -0.0642  0.0857 -0.0771
 1907SOL    HW117357   4.422   1.606   7.745 -0.5070  0.2624 -2.0431
 1907SOL    HW217358   4.515   1.692   7.683  1.7830 -0.6971 -1.7079
 1908SOL     OW17359   4.437   1.399   5.034  0.2238  0.0962  0.0189
 1908SOL    HW117360   4.414   1.364   4.948  1.6868 -1.2802  0.2032
 1908SOL    HW217361   4.356   1.448   5.048 -1.6006 -2.8335 -0.3894
 1909SOL     OW17362   1.531   2.057   5.204  0.1748 -0.0487 -0.2072
 1909SOL    HW117363   1.590   2.087   5.134 -1.5212 -0.4618 -1.8287
 1909SOL    HW217364   1.503   2.140   5.243 -2.8575 -1.7291  1.2179
 1910SOL     OW17365   2.532   0.414  11.892  0.7594  0.3447  0.2632
 1910SOL    HW117366   2.556   0.328  11.859 -0.5305 -0.4725  1.4696
 1910SOL    HW217367   2.603   0.440  11.951  1.8547 -0.0640 -0.8788
 1911SOL     OW17368   2.842   0.130   8.383  0.2759 -0.4830 -0.6954
 1911SOL    HW117369   2.921   0.182   8.401  1.5149 -2.8697  0.8426
 1911SOL    HW217370   2.776   0.188   8.344  0.1364 -0.4242 -0.3741
 1912SOL     OW17371   1.429   3.159   3.922 -0.2691 -0.4497  0.5928
 1912SOL    HW117372   1.368   3.125   3.988 -2.8870  1.4851 -0.8267
 1912SOL    HW217373   1.395   3.247   3.909 -0.3636 -0.8141 -1.6553
 1913SOL     OW17374   3.021   4.480   2.783 -0.2082 -0.9235 -0.1740
 1913SOL    HW117375   3.039   4.520   2.868 -0.9123 -1.3578  0.1848
 1913SOL    HW217376   3.027   4.551   2.720  1.4003 -1.6688 -0.8570
 1914SOL     OW17377   3.965   2.953  10.864  0.0887 -0.0674 -0.4456
 1914SOL    HW117378   3.932   3.042  10.858 -2.4298 -1.0674 -1.3886
 1914SOL    HW217379   3.965   2.937  10.958 -1.0944  1.4954 -0.1754
 1915SOL     OW17380   4.347   4.117   8.016  0.6116 -0.0823  0.0264
 1915SOL    HW117381   4.330   4.030   7.980 -0.7790  0.4597 -0.6324
 1915SOL    HW217382   4.296   4.172   7.957 -1.6792 -2.1610  0.0535
 1916SOL     OW17383   1.767   0.867   2.045 -0.3268 -0.2753 -0.4999
 1916SOL    HW117384   1.832   0.913   2.098 -2.1675  2.0561 -0.2749
 1916SOL    HW217385   1.766   0.788   2.099 -1.1750  0.3561  0.4011
 1917SOL     OW17386   0.856   3.573   7.706 -0.2890  0.4411  0.0643
 1917SOL    HW117387   0.871   3.479   7.692  0.7999  0.4229  1.3067
 1917SOL    HW217388   0.945   3.606   7.715 -0.0419  0.1020 -1.1071
 1918SOL     OW17389   3.524   4.284  16.402 -0.1724 -0.1206 -0.1658
 1918SOL    HW117390   3.489   4.199  16.376 -0.0187  0.4524 -2.2285
 1918SOL    HW217391   3.504   4.329  16.320  1.2656  0.6792 -0.0916
 1919SOL     OW17392   3.270   2.782  12.104 -0.2727  0.5719 -0.0764
 1919SOL    HW117393   3.339   2.846  12.085 -1.1741  0.9826 -1.9556
 1919SOL    HW217394   3.254   2.799  12.197 -1.6089 -1.7061  0.0985
 1920SOL     OW17395   3.191   2.128   6.701 -0.5275 -0.5312  0.8493
 1920SOL    HW117396   3.173   2.166   6.615  1.6245 -2.1457 -0.3234
 1920SOL    HW217397   3.285   2.142   6.709 -0.1505 -0.9268 -2.7221
 1921SOL     OW17398   2.972   2.549  12.752  0.1980  0.2090 -0.2619
 1921SOL    HW117399   3.009   2.481  12.809 -2.1016 -1.0157 -0.2008
 1921SOL    HW217400   3.053   2.582  12.714  0.5344  0.5180  0.7148
 1922SOL     OW17401   0.888   3.604  11.710  0.0722  0.0876 -0.5483
 1922SOL    HW117402   0.968   3.552  11.716  0.0566  0.1076 -0.1631
 1922SOL    HW217403   0.828   3.552  11.763  0.0570  1.9863  1.2959
 1923SOL     OW17404   4.252   1.427   6.590 -0.4314 -0.2011  0.0323
 1923SOL    HW117405   4.317   1.484   6.548 -0.4537  0.7426  1.2483
 1923SOL    HW217406   4.207   1.380   6.521  1.2444 -0.9369 -0.5505
 1924SOL     OW17407   2.957   3.479   2.991  0.7529  0.5385  0.5455
 1924SOL    HW117408   2.986   3.566   3.020  0.2525  1.5802 -2.1095
 1924SOL    HW217409   3.037   3.435   2.962  1.5849  2.2892  0.1860
 1925SOL     OW17410   3.379   3.893  13.984 -0.5075 -0.4087 -0.5466
 1925SOL    HW117411   3.380   3.925  14.074  2.5142  2.8800 -1.7884
 1925SOL    HW217412   3.443   3.823  13.997  0.1959 -0.0296 -2.0487
 1926SOL     OW17413   0.432   2.335   0.039 -0.0188  0.4806 -0.1894
 1926SOL    HW117414   0.356   2.308   0.091 -1.2229  0.3805 -2.0369
 1926SOL    HW217415   0.411   2.297  17.697  0.7068 -1.0869  0.3300
 1927SOL     OW17416   1.798   1.930   2.530 -0.5402 -0.5804 -0.0221
 1927SOL    HW117417   1.748   1.970   2.458 -0.6348 -0.1033  0.3100
 1927SOL    HW217418   1.844   2.004   2.569  0.8824 -1.3546 -0.2632
 1928SOL     OW17419   0.814   0.888   7.658  0.4197  0.0539  0.0214
 1928SOL    HW117420   0.754   0.941   7.710 -1.1070 -1.0226 -0.6438
 1928SOL    HW217421   0.783   0.797   7.666 -1.5343  0.9113  2.0833
 1929SOL     OW17422   3.822   0.423   2.753  0.0226  0.5647 -0.2559
 1929SOL    HW117423   3.844   0.330   2.752  0.3501  0.6547 -2.0129
 1929SOL    HW217424   3.799   0.437   2.844 -1.8620 -0.4924 -0.5530
 1930SOL     OW17425   2.916   3.544   7.519 -0.0845  0.3930 -0.2415
 1930SOL    HW117426   2.929   3.534   7.424  1.2015 -0.6275  0.0458
 1930SOL    HW217427   2.863   3.624   7.521  1.9490  1.6231  2.7404
 1931SOL     OW17428   3.171   3.155  15.745  0.1122  0.8467  0.3537
 1931SOL    HW117429   3.143   3.237  15.787  0.4277  2.0492 -1.7734
 1931SOL    HW217430   3.093   3.101  15.760  0.4547  0.4227  0.6090
 1932SOL     OW17431   1.088   0.080  17.553  0.2875 -0.5483 -0.0460
 1932SOL    HW117432   1.048   0.023  17.487 -1.4633  0.9430 -0.2910
 1932SOL    HW217433   1.021   0.064  17.619 -0.5408  0.9269 -0.5405
 1933SOL     OW17434   2.062   2.648   4.902  0.2804  0.4136  0.6714
 1933SOL    HW117435   2.026   2.689   4.981 -0.8561 -0.8525  0.8083
 1933SOL    HW217436   2.041   2.555   4.897  0.0770  0.4368  1.1136
 1934SOL     OW17437   2.385   1.369   4.380 -0.0663  0.3261  0.6197
 1934SOL    HW117438   2.404   1.457   4.349 -0.7942 -0.1467 -1.2137
 1934SOL    HW217439   2.354   1.331   4.297 -0.6685  0.8671  0.5961
 1935SOL     OW17440   1.092   2.584   1.607 -0.4540  0.0258  0.3619
 1935SOL    HW117441   1.104   2.581   1.702 -1.6666 -0.4704  0.4937
 1935SOL    HW217442   1.032   2.511   1.591 -2.1431  1.3221  0.8811
 1936SOL     OW17443   3.210   0.917   2.701 -0.3946  0.4696 -0.2565
 1936SOL    HW117444   3.196   0.848   2.766  2.0863 -0.3502 -0.5791
 1936SOL    HW217445   3.130   0.914   2.649 -0.7085  1.5006  0.1733
 1937SOL     OW17446   1.465   2.309   6.285  0.1846 -0.1967 -0.4019
 1937SOL    HW117447   1.549   2.354   6.271  0.9368 -1.5373 -0.1726
 1937SOL    HW217448   1.471   2.250   6.210 -0.8734 -0.7612 -0.0407
 1938SOL     OW17449   0.386   2.569   7.001  0.4347  0.4273  0.2873
 1938SOL    HW117450   0.458   2.513   7.030 -2.0860 -1.5578  2.8008
 1938SOL    HW217451   0.417   2.658   7.012  0.9651  0.0191  2.1153
 1939SOL     OW17452   1.630   4.601   7.000  0.1736 -0.3394 -0.2022
 1939SOL    HW117453   1.591   4.593   7.088  0.6984 -0.2525  0.0348
 1939SOL    HW217454   1.558   4.646   6.956  0.0294  2.2790  2.7094
 1940SOL     OW17455   2.673   3.846   8.471 -0.9045 -0.1197 -0.0513
 1940SOL    HW117456   2.723   3.917   8.430 -0.7554 -0.8381 -1.1228
 1940SOL    HW217457   2.643   3.806   8.389 -1.7434  1.3771 -0.4677
 1941SOL     OW17458   4.180   0.563   3.653  0.3708  0.2011  0.3794
 1941SOL    HW117459   4.185   0.470   3.673  0.0870  0.2374  0.6029
 1941SOL    HW217460   4.274   0.584   3.657  0.1645  1.4518 -1.2995
 1942SOL     OW17461   4.056   2.383   5.963  0.5174 -0.1476  0.0030
 1942SOL    HW117462   4.010   2.354   6.041 -0.1188  0.4168 -0.1585
 1942SOL    HW217463   4.135   2.409   6.011  1.1540  0.8432 -1.5542
 1943SOL     OW17464   4.491   1.997   7.463 -0.2478 -0.3247  0.1726
 1943SOL    HW117465   4.463   1.925   7.406 -2.3885  1.6537 -1.3307
 1943SOL    HW217466   4.541   2.042   7.395 -1.5151  0.5246 -0.2173
 1944SOL     OW17467   1.360   3.966   5.692  0.4351 -0.3961  0.8142
 1944SOL    HW117468   1.399   3.880   5.673  0.4898  0.1493 -1.5267
 1944SOL    HW217469   1.298   3.960   5.764  1.2447 -0.3662  1.5181
 1945SOL     OW17470   4.400   0.171   7.189  0.0470 -0.2029  0.1025
 1945SOL    HW117471   4.376   0.109   7.257  3.8671 -0.7835  0.8809
 1945SOL    HW217472   4.324   0.230   7.182  0.6078  0.5361  0.2914
 1946SOL     OW17473   3.681   3.688   2.755 -0.4723 -0.5495  0.0599
 1946SOL    HW117474   3.716   3.733   2.678  0.9049 -0.7019  0.5964
 1946SOL    HW217475   3.593   3.726   2.751  0.4474  1.6480  0.6868
 1947SOL     OW17476   4.434   2.602  14.362  0.3085  0.3680 -0.1563
 1947SOL    HW117477   4.484   2.521  14.357  0.1655  0.4069 -2.2180
 1947SOL    HW217478   4.507   2.663  14.345  1.2207 -0.5099  0.6313
 1948SOL     OW17479   4.268   3.158   9.328 -0.2903 -0.0895 -0.0815
 1948SOL    HW117480   4.320   3.078   9.339  1.1220  0.2537 -4.1821
 1948SOL    HW217481   4.187   3.137   9.375 -0.2826  0.3067  0.1039
 1949SOL     OW17482   2.587   4.162  15.135 -0.1505  0.1003  0.4563
 1949SOL    HW117483   2.671   4.119  15.122  0.0559  0.4304  0.7095
 1949SOL    HW217484   2.602   4.247  15.092 -0.1128  0.0111  0.2919
 1950SOL     OW17485   1.641   1.130   7.867 -0.3219 -0.1784  0.3677
 1950SOL    HW117486   1.610   1.111   7.779  1.5556  0.5243 -0.4262
 1950SOL    HW217487   1.596   1.208   7.901 -2.4907 -0.6462 -1.4303
 1951SOL     OW17488   0.479   3.799   7.016  0.1295 -0.5585  0.1840
 1951SOL    HW117489   0.386   3.812   6.997 -0.1470 -2.5377  0.2273
 1951SOL    HW217490   0.484   3.705   7.003  0.7775 -0.7159  1.5388
 1952SOL     OW17491   1.714   0.217  14.847 -0.4052  0.5599  0.5286
 1952SOL    HW117492   1.733   0.139  14.900 -0.1783 -0.5391 -1.1519
 1952SOL    HW217493   1.752   0.284  14.903  1.8805  0.6673 -1.1243
 1953SOL     OW17494   4.405   1.248   6.857  0.1181 -0.6313  0.4226
 1953SOL    HW117495   4.445   1.199   6.786  1.1834  0.6312  0.1459
 1953SOL    HW217496   4.408   1.181   6.925  3.3988 -0.7069  0.2163
 1954SOL     OW17497   0.148   3.506   8.744 -0.1439  0.1259  0.6183
 1954SOL    HW117498   0.217   3.572   8.748 -1.3850  1.3851  0.8625
 1954SOL    HW217499   0.087   3.548   8.805 -1.9255 -2.4485  0.6370
 1955SOL     OW17500   1.993   4.206   9.156 -0.5958 -0.2278 -0.4736
 1955SOL    HW117501   1.989   4.264   9.231 -1.6349  1.5769 -1.9262
 1955SOL    HW217502   2.000   4.276   9.091 -1.9345 -0.1424 -0.5343
 1956SOL     OW17503   2.476   3.975   7.272 -0.3718 -0.4570  0.6859
 1956SOL    HW117504   2.501   4.023   7.352  0.9876 -0.2279  0.1202
 1956SOL    HW217505   2.417   4.038   7.231  0.7160 -0.1845 -0.4587
 1957SOL     OW17506   1.694   0.342   2.690  0.2390 -0.2858 -0.0806
 1957SOL    HW117507   1.619   0.291   2.658 -0.2960  1.0951 -1.0315
 1957SOL    HW217508   1.636   0.416   2.708 -0.5402 -0.3432 -2.3105
 1958SOL     OW17509   3.593   0.156  15.615  0.1061  0.0257 -0.3821
 1958SOL    HW117510   3.586   0.246  15.582  0.5218  0.2116  0.0415
 1958SOL    HW217511   3.577   0.172  15.708  1.0555  0.5661 -0.3119
 1959SOL     OW17512   2.141   2.726   7.520 -0.1484  0.3610  0.0379
 1959SOL    HW117513   2.133   2.631   7.509  1.3173  0.1568  0.6767
 1959SOL    HW217514   2.221   2.757   7.477 -1.5556 -0.4279 -3.0963
 1960SOL     OW17515   1.572   3.508   8.600  0.0249 -0.1961 -0.0170
 1960SOL    HW117516   1.549   3.426   8.642 -0.3876 -0.1886 -0.2231
 1960SOL    HW217517   1.655   3.524   8.644  0.2280 -1.2108 -0.0354
 1961SOL     OW17518   0.460   0.499   0.542  0.0863  0.5271 -0.2317
 1961SOL    HW117519   0.501   0.570   0.492  0.8064  1.0312  1.0564
 1961SOL    HW217520   0.533   0.437   0.548 -0.6140 -0.2591  0.1642
 1962SOL     OW17521   3.818   0.237   2.144  0.1093  0.2392 -0.6098
 1962SOL    HW117522   3.818   0.199   2.232 -0.1133  0.2023 -0.6265
 1962SOL    HW217523   3.904   0.207   2.113 -0.0824 -0.4821 -0.4473
 1963SOL     OW17524   1.289   0.038   2.864  0.0540 -0.1977 -0.2190
 1963SOL    HW117525   1.235   4.723   2.924  2.3927 -1.8133  0.5118
 1963SOL    HW217526   1.328   4.709   2.806  0.6893 -0.5114  0.5460
 1964SOL     OW17527   4.672   0.951  12.546  0.5076 -0.2364 -0.0338
 1964SOL    HW117528   4.656   0.892  12.619  1.9027 -1.1913 -0.4957
 1964SOL    HW217529   4.644   1.035  12.582 -0.6306 -0.0696 -1.3196
 1965SOL     OW17530   1.321   1.640   9.169 -0.1537 -0.0168  0.3435
 1965SOL    HW117531   1.320   1.692   9.089  0.4902 -2.7154 -1.4214
 1965SOL    HW217532   1.340   1.710   9.232  0.7742  3.2345 -3.5608
 1966SOL     OW17533   2.652   2.514   4.900 -0.0169 -0.1373  0.1010
 1966SOL    HW117534   2.650   2.419   4.896 -1.4526 -0.2028  2.6047
 1966SOL    HW217535   2.560   2.536   4.883 -0.5854 -2.7535 -0.1304
 1967SOL     OW17536   0.964   4.627   2.859  0.0663  0.1643 -0.2581
 1967SOL    HW117537   0.957   4.536   2.887 -0.3470  0.1794 -0.3185
 1967SOL    HW217538   1.046   4.624   2.809  0.2100  0.0669 -0.0147
 1968SOL     OW17539   1.623   0.546   2.459 -0.7415 -0.1393 -0.4536
 1968SOL    HW117540   1.591   0.510   2.542 -1.7697 -0.2062 -0.8710
 1968SOL    HW217541   1.552   0.600   2.424 -0.3024  0.5271 -0.3040
 1969SOL     OW17542   1.433   2.991   7.975  0.3298  0.1860  0.2662
 1969SOL    HW117543   1.411   2.912   8.025 -1.1889 -0.4213 -1.3936
 1969SOL    HW217544   1.396   3.053   8.037  1.2269  0.5637  0.4340
 1970SOL     OW17545   2.561   2.614   9.172 -0.2752  0.4832 -0.7121
 1970SOL    HW117546   2.539   2.550   9.240 -1.3550  0.5317 -1.0208
 1970SOL    HW217547   2.642   2.651   9.206 -0.4138  0.2262 -0.1005
 1971SOL     OW17548   2.137   3.829   1.565  0.5232  0.5803 -0.8027
 1971SOL    HW117549   2.153   3.924   1.565 -1.3759  0.9182 -0.7172
 1971SOL    HW217550   2.045   3.819   1.592  0.5453 -1.3792 -1.4825
 1972SOL     OW17551   4.678   3.031   5.188 -0.5294  0.2101 -0.4917
 1972SOL    HW117552   4.607   2.981   5.148 -0.1157 -0.8537  0.1015
 1972SOL    HW217553   4.635   3.100   5.239  0.1311 -1.8509  2.9073
 1973SOL     OW17554   3.883   4.254   5.697  0.0251 -0.4732  0.3292
 1973SOL    HW117555   3.812   4.192   5.717  0.3043 -1.4390 -1.6460
 1973SOL    HW217556   3.924   4.255   5.784  0.9598 -0.6144 -0.1057
 1974SOL     OW17557   2.494   0.090   3.554 -0.8463 -0.4146  0.0473
 1974SOL    HW117558   2.453   0.176   3.548  0.0741  0.2050  2.6555
 1974SOL    HW217559   2.437   0.030   3.505 -2.2419  2.8523 -2.3176
 1975SOL     OW17560   0.509   1.058  10.226 -0.4699 -0.3575 -0.8172
 1975SOL    HW117561   0.454   1.087  10.153 -1.5346 -2.7441 -0.9737
 1975SOL    HW217562   0.470   1.106  10.299  0.8264 -2.1141  1.0415
 1976SOL     OW17563   1.936   0.179   7.300  0.3402  0.0888  0.3076
 1976SOL    HW117564   1.997   0.229   7.353  0.9210 -1.5650  1.2108
 1976SOL    HW217565   1.890   0.126   7.365  0.4108  1.4892  1.4834
 1977SOL     OW17566   3.801   1.745   6.440 -0.3749  0.4966  0.0809
 1977SOL    HW117567   3.709   1.757   6.418 -0.9852 -1.9588  1.3255
 1977SOL    HW217568   3.787   1.673   6.502  0.6104  0.3002  0.0798
 1978SOL     OW17569   0.654   4.083   6.745 -0.3988 -0.7551 -0.7622
 1978SOL    HW117570   0.606   4.154   6.701 -0.9942  0.3682  1.7163
 1978SOL    HW217571   0.578   4.026   6.745 -0.5598 -0.5392 -0.8580
 1979SOL     OW17572   1.880   0.170   5.926  0.3466 -0.2627  0.2763
 1979SOL    HW117573   1.936   0.124   5.864  2.1899  2.2419  0.0702
 1979SOL    HW217574   1.913   0.122   6.003  2.4840  0.9203  0.1163
 1980SOL     OW17575   3.349   3.298   5.945  0.0106 -0.1969  0.0107
 1980SOL    HW117576   3.306   3.252   5.873  3.2297 -2.0973 -0.6716
 1980SOL    HW217577   3.276   3.339   5.991  0.8711 -0.5639  1.6795
 1981SOL     OW17578   2.037   3.528   9.354 -0.1905 -0.3501 -0.0772
 1981SOL    HW117579   2.112   3.545   9.297 -0.3022 -0.1253 -0.1578
 1981SOL    HW217580   2.071   3.569   9.434  1.9563 -0.5859 -0.8766
 1982SOL     OW17581   0.100   3.165   2.017  0.0639  0.4608 -0.9324
 1982SOL    HW117582   0.175   3.123   1.975 -0.4967 -1.4519 -0.0501
 1982SOL    HW217583   0.145   3.185   2.099 -1.6484  1.8125 -0.3210
 1983SOL     OW17584   3.034   3.280   6.538  1.0735 -0.0945  0.3785
 1983SOL    HW117585   3.062   3.258   6.627 -0.3154 -0.8985  0.6110
 1983SOL    HW217586   3.111   3.330   6.511  1.8796 -1.8039 -0.4682
 1984SOL     OW17587   4.630   3.792   8.462  0.4692  1.0281 -0.3307
 1984SOL    HW117588   4.535   3.794   8.450  0.3339 -1.4326  0.2716
 1984SOL    HW217589   4.666   3.738   8.391 -1.9508 -1.8337  0.6122
 1985SOL     OW17590   1.725   4.608   3.588  0.1661  0.1945  0.1290
 1985SOL    HW117591   1.653   4.547   3.570 -1.0185  2.3717 -2.5233
 1985SOL    HW217592   1.787   4.565   3.647 -1.0134 -1.8347 -0.1125
 1986SOL     OW17593   0.031   4.029  17.126 -0.3236 -0.1323 -0.0449
 1986SOL    HW117594   4.674   4.016  17.145 -0.3163 -2.7794 -1.7568
 1986SOL    HW217595   0.021   4.101  17.064 -0.3658 -1.3220 -1.4436
 1987SOL     OW17596   1.070   1.712   8.776  0.2341 -0.0457 -0.1011
 1987SOL    HW117597   1.132   1.651   8.737  1.7269  1.6651 -0.3925
 1987SOL    HW217598   1.070   1.673   8.864  0.2230  1.0787  0.3994
 1988SOL     OW17599   2.565   3.674   5.603 -0.3773  0.0003 -0.2513
 1988SOL    HW117600   2.541   3.666   5.695 -1.6466  2.8261 -0.3482
 1988SOL    HW217601   2.660   3.663   5.608  0.1144  3.9503 -1.2073
 1989SOL     OW17602   2.074   2.658   6.836 -0.5636 -0.6446  0.1459
 1989SOL    HW117603   2.053   2.715   6.762  0.7316  4.0418  3.3375
 1989SOL    HW217604   2.047   2.709   6.913  1.2585  0.6086 -0.0527
 1990SOL     OW17605   3.720   3.349   2.376 -0.4751 -0.6011  0.2290
 1990SOL    HW117606   3.717   3.337   2.281  1.0102 -3.4951  0.5265
 1990SOL    HW217607   3.769   3.270   2.402 -1.5880 -0.6906  2.0832
 1991SOL     OW17608   0.297   4.289   2.859 -0.0403 -0.1605 -0.2621
 1991SOL    HW117609   0.381   4.254   2.829  0.4988 -0.3671  1.4919
 1991SOL    HW217610   0.296   4.266   2.952 -0.6005 -1.1742 -0.5139
 1992SOL     OW17611   3.162   1.222  16.038 -0.6141 -0.4262 -0.1975
 1992SOL    HW117612   3.216   1.274  15.978 -1.5701  2.2949  1.3263
 1992SOL    HW217613   3.078   1.261  16.014 -1.3678 -2.2620 -0.5167
 1993SOL     OW17614   3.615   3.958   8.321 -0.3307 -0.2806  0.0925
 1993SOL    HW117615   3.558   3.928   8.392 -0.3238 -2.1382 -0.6798
 1993SOL    HW217616   3.699   3.924   8.351 -0.4124  0.8873  1.6605
 1994SOL     OW17617   4.300   1.060   4.918 -0.3537 -0.6834 -0.1205
 1994SOL    HW117618   4.272   1.119   4.988 -0.2393  0.7777 -1.3107
 1994SOL    HW217619   4.261   0.979   4.952  1.7930 -0.8658  1.8560
 1995SOL     OW17620   1.905   3.041   3.854  0.2864  0.5767  0.4204
 1995SOL    HW117621   1.848   3.103   3.898  2.3417  1.0543  2.4520
 1995SOL    HW217622   1.836   2.991   3.811 -1.4708  3.0270  0.4392
 1996SOL     OW17623   0.710   2.562   9.853  0.4497  0.1254 -0.3209
 1996SOL    HW117624   0.617   2.540   9.842  0.1965  1.5406 -1.0130
 1996SOL    HW217625   0.740   2.603   9.772 -0.8011  1.4447 -0.1199
 1997SOL     OW17626   0.238   1.150   8.877  0.4145  0.3137  0.7115
 1997SOL    HW117627   0.278   1.131   8.962  0.4550  1.4884  0.9596
 1997SOL    HW217628   0.206   1.239   8.890  0.8408  0.6118 -0.3075
 1998SOL     OW17629   2.138   0.019   9.058  0.1684 -0.0555  0.0354
 1998SOL    HW117630   2.046   0.019   9.087  0.3946  0.3433  0.7498
 1998SOL    HW217631   2.143   0.063   8.973  1.5668 -1.6042 -0.6998
 1999SOL     OW17632   0.541   2.873  13.075  0.8096  0.1588 -0.0233
 1999SOL    HW117633   0.509   2.960  13.051 -1.0680  0.0171  1.9349
 1999SOL    HW217634   0.524   2.853  13.167  1.2399  1.8187  0.4265
 2000SOL     OW17635   2.242   3.038   7.934 -0.0276  0.3191  0.8198
 2000SOL    HW117636   2.254   2.948   7.904  0.5858  0.1903  1.4428
 2000SOL    HW217637   2.148   3.045   7.947 -0.0358 -0.1866  1.0260
 2001SOL     OW17638   1.066   2.053   4.059  0.1259  0.2676  0.3918
 2001SOL    HW117639   1.046   2.025   3.970  0.8497 -0.6038  0.5022
 2001SOL    HW217640   0.994   2.014   4.109  1.6757 -1.3570  1.3600
 2002SOL     OW17641   4.023   4.214   0.471 -0.8816  0.0825 -0.1732
 2002SOL    HW117642   4.017   4.203   0.566 -2.3868 -1.3186 -0.4278
 2002SOL    HW217643   3.949   4.156   0.452 -1.8857  0.9188  1.1569
 2003SOL     OW17644   0.144   4.432   5.547 -0.3529  1.0217  0.1467
 2003SOL    HW117645   0.180   4.482   5.620 -1.2113  2.1401 -0.2062
 2003SOL    HW217646   0.060   4.397   5.577 -2.2233  3.3566 -2.4405
 2004SOL     OW17647   4.358   1.548   5.781  0.0576 -0.6878 -0.2719
 2004SOL    HW117648   4.326   1.458   5.781 -0.1709 -0.6083 -3.2186
 2004SOL    HW217649   4.364   1.578   5.872 -1.1459  1.3482 -0.8423
 2005SOL     OW17650   0.375   0.094   7.176 -0.2243  0.0397 -0.3270
 2005SOL    HW117651   0.433   0.159   7.214 -1.9444  0.3541  1.7915
 2005SOL    HW217652   0.413   0.013   7.212  0.2564  1.0872  1.5044
 2006SOL     OW17653   0.085   2.455   6.183  0.1012 -0.2081  0.4991
 2006SOL    HW117654   0.144   2.433   6.111  1.5449  0.3531  1.4952
 2006SOL    HW217655   0.050   2.541   6.157  1.7741  0.3647  0.1405
 2007SOL     OW17656   1.980   4.696   1.047 -0.1265  0.0230 -0.7682
 2007SOL    HW117657   1.959   0.036   0.992 -0.3449  1.2465  0.9957
 2007SOL    HW217658   2.018   4.639   0.980  1.7141 -0.0252  0.3311
 2008SOL     OW17659   3.813   0.460   4.007 -0.7574  0.1144  0.1741
 2008SOL    HW117660   3.906   0.482   4.015 -1.5183  3.3338  0.1246
 2008SOL    HW217661   3.817   0.392   3.940 -1.0426  0.9093 -0.6513
 2009SOL     OW17662   0.716   2.916   2.475 -0.0902 -0.0863  0.1230
 2009SOL    HW117663   0.767   2.835   2.470  0.5930  0.3356  0.1767
 2009SOL    HW217664   0.628   2.882   2.488  0.7212 -2.0796  0.3683
 2010SOL     OW17665   2.528   3.570   5.347  0.7224 -0.0613  0.1361
 2010SOL    HW117666   2.438   3.599   5.336  0.7948 -0.1561 -0.6900
 2010SOL    HW217667   2.539   3.587   5.440  0.8498 -1.0838  0.3030
 2011SOL     OW17668   4.542   4.040  17.262 -0.6313 -0.4643 -0.2816
 2011SOL    HW117669   4.484   4.022  17.336 -0.8187  0.5254 -0.1905
 2011SOL    HW217670   4.574   4.127  17.283 -1.6842 -0.4400  1.1852
 2012SOL     OW17671   2.634   4.594   3.321 -0.2755 -0.1557  0.3956
 2012SOL    HW117672   2.672   4.660   3.263 -0.3470 -2.3064 -2.1431
 2012SOL    HW217673   2.540   4.611   3.325 -0.4118 -0.1911 -2.5108
 2013SOL     OW17674   4.686   4.135   6.930  0.2153  0.2653 -0.2770
 2013SOL    HW117675   4.640   4.157   7.011  2.1651  0.4844  0.7627
 2013SOL    HW217676   0.021   4.199   6.930  0.6851 -0.2451  0.1960
 2014SOL     OW17677   1.770   1.893   7.018  0.4112 -0.3406 -0.0806
 2014SOL    HW117678   1.851   1.880   6.968 -0.0811  2.2649 -1.5428
 2014SOL    HW217679   1.806   1.915   7.104 -1.1940 -0.6103  0.6633
 2015SOL     OW17680   4.550   1.558   4.586 -0.2840 -0.1842  0.0693
 2015SOL    HW117681   4.551   1.554   4.681  1.0101 -2.1831 -0.0171
 2015SOL    HW217682   4.475   1.500   4.571 -0.8134  0.3662  0.6153
 2016SOL     OW17683   1.706   2.949   5.754 -0.1555 -0.2488  0.0341
 2016SOL    HW117684   1.700   2.856   5.774 -0.0365 -0.3418 -0.3475
 2016SOL    HW217685   1.618   2.964   5.720 -0.0618  3.0287  1.2494
 2017SOL     OW17686   1.582   4.363   6.822 -0.4158  0.4915  0.2504
 2017SOL    HW117687   1.540   4.352   6.907  0.4340 -0.1738  0.5794
 2017SOL    HW217688   1.621   4.446   6.850 -0.8455  0.7803 -0.0047
 2018SOL     OW17689   1.943   4.527   2.606  0.3991  0.6582  0.0959
 2018SOL    HW117690   1.959   4.461   2.539 -1.9249 -0.5485  0.7265
 2018SOL    HW217691   1.927   4.476   2.685  2.4516 -1.5204 -0.8783
 2019SOL     OW17692   3.674   4.136   1.862  0.7420  0.4433 -0.4403
 2019SOL    HW117693   3.690   4.072   1.931  1.8113  0.9870 -0.1826
 2019SOL    HW217694   3.683   4.215   1.914 -0.3755  0.3583 -0.1173
 2020SOL     OW17695   0.625   3.818   0.093  0.1150  0.2020 -0.1750
 2020SOL    HW117696   0.599   3.754   0.160 -1.9780  1.5436  0.2865
 2020SOL    HW217697   0.545   3.846   0.049 -0.4106 -2.9503 -1.2151
 2021SOL     OW17698   1.852   0.026   4.412  0.0007 -0.3544  0.5550
 2021SOL    HW117699   1.888   4.686   4.366 -1.7896  0.7891 -2.8157
 2021SOL    HW217700   1.853   4.718   4.496 -0.2491 -1.8790 -0.2415
 2022SOL     OW17701   3.194   0.073  17.103 -0.3209 -0.2520 -0.4337
 2022SOL    HW117702   3.215   4.717  17.087 -0.4319 -0.5469  1.0820
 2022SOL    HW217703   3.155   0.102  17.021 -0.4424  2.4045  0.5269
 2023SOL     OW17704   1.006   2.852   6.292  0.5765  0.1224 -0.4573
 2023SOL    HW117705   0.959   2.769   6.282 -0.1306  0.2885  1.4123
 2023SOL    HW217706   1.070   2.837   6.362 -0.4670  2.4618  1.0076
 2024SOL     OW17707   0.520   2.445  12.475 -0.0734 -0.2018  0.6572
 2024SOL    HW117708   0.603   2.488  12.495 -0.2475 -0.2515  1.4931
 2024SOL    HW217709   0.551   2.366  12.429 -0.7650 -1.0251  1.6061
 2025SOL     OW17710   1.081   0.553   6.698  0.5252 -0.0766 -0.0967
 2025SOL    HW117711   0.998   0.529   6.740 -0.6119  2.2874 -1.0000
 2025SOL    HW217712   1.103   0.631   6.749 -2.3809  0.8972 -0.3300
 2026SOL     OW17713   2.310   0.748  13.554 -0.6207  0.0501  0.0083
 2026SOL    HW117714   2.217   0.769  13.560 -0.8859 -1.4855  1.4053
 2026SOL    HW217715   2.345   0.813  13.494  0.6093 -0.1362  0.5359
 2027SOL     OW17716   3.635   0.910   4.761 -0.3802 -0.2951 -0.5779
 2027SOL    HW117717   3.593   0.897   4.676 -2.5287 -0.2434  0.4798
 2027SOL    HW217718   3.654   1.002   4.743  0.0036 -0.7575 -2.5759
 2028SOL     OW17719   1.710   3.097  10.479  0.0132 -0.1596 -0.0738
 2028SOL    HW117720   1.790   3.085  10.529  0.2076 -0.2673 -0.4078
 2028SOL    HW217721   1.651   3.079  10.552  0.9361 -0.7037  0.5376
 2029SOL     OW17722   3.535   2.049   5.697 -0.2378  0.7004 -0.9762
 2029SOL    HW117723   3.598   2.094   5.641  1.8753 -1.1847 -0.1215
 2029SOL    HW217724   3.451   2.068   5.656 -0.1490  1.8094 -0.6334
 2030SOL     OW17725   1.062   0.177  16.229  0.2515  0.6503 -0.1437
 2030SOL    HW117726   1.138   0.234  16.233 -0.2354  1.1814  1.3624
 2030SOL    HW217727   1.074   0.134  16.314  0.0368 -1.4606 -1.1712
 2031SOL     OW17728   2.940   2.476   5.638  0.0011 -0.2766  0.0312
 2031SOL    HW117729   2.876   2.520   5.694  2.8277  1.9987  1.4261
 2031SOL    HW217730   2.969   2.406   5.697  0.2423  0.0976  0.3496
 2032SOL     OW17731   1.133   3.139   6.530  0.5150 -0.0260  0.4664
 2032SOL    HW117732   1.148   3.232   6.545 -1.2369  0.1158  1.3976
 2032SOL    HW217733   1.038   3.128   6.526  0.3809  1.8383 -1.6606
 2033SOL     OW17734   2.959   1.111   0.854 -0.2488 -0.3467  0.6121
 2033SOL    HW117735   2.961   1.206   0.842 -1.2588 -0.2524  1.2113
 2033SOL    HW217736   2.944   1.100   0.948 -1.3583 -1.2475  0.3363
 2034SOL     OW17737   4.399   0.325   5.461  0.2252  0.3147 -0.2113
 2034SOL    HW117738   4.492   0.302   5.455  0.2337 -0.4427  2.8144
 2034SOL    HW217739   4.392   0.387   5.388  0.2842  0.7184  0.1249
 2035SOL     OW17740   0.774   1.243   9.837  0.6647 -0.3754  0.0188
 2035SOL    HW117741   0.849   1.240   9.895  0.2267 -0.4562  0.5853
 2035SOL    HW217742   0.707   1.271   9.900 -0.5767 -0.2126 -1.3660
 2036SOL     OW17743   1.189   0.386  16.077  0.3083  0.4980  0.0257
 2036SOL    HW117744   1.257   0.374  16.143 -0.3373  0.1478  0.6269
 2036SOL    HW217745   1.230   0.370  15.992  0.0292  0.2586 -0.0653
 2037SOL     OW17746   2.586   2.240   2.405  0.2829  0.0534  0.3848
 2037SOL    HW117747   2.527   2.250   2.480 -0.1496  3.9285 -0.4748
 2037SOL    HW217748   2.609   2.148   2.415 -1.6877 -0.3319  1.4852
 2038SOL     OW17749   3.840   0.658  12.871  0.2310  0.2521 -0.3906
 2038SOL    HW117750   3.787   0.579  12.878 -0.3774  0.7495  0.7003
 2038SOL    HW217751   3.814   0.705  12.950  1.7852  1.6060 -0.6587
 2039SOL     OW17752   0.511   0.051   5.140 -0.6316  0.0069  0.0247
 2039SOL    HW117753   0.574   0.109   5.097  0.4731  0.3804  2.1792
 2039SOL    HW217754   0.508   0.076   5.232  1.2958  0.6698 -0.0891
 2040SOL     OW17755   3.972   3.530   1.839 -0.5338 -0.2522 -0.1421
 2040SOL    HW117756   4.040   3.520   1.906  0.3688  2.2837 -0.6991
 2040SOL    HW217757   4.031   3.516   1.765  1.9750 -1.3632  2.0625
 2041SOL     OW17758   2.275   1.781  12.118 -0.8010  0.2454  0.0010
 2041SOL    HW117759   2.304   1.723  12.048 -2.7665 -0.3879 -0.2803
 2041SOL    HW217760   2.219   1.844  12.073  0.7524 -0.1869 -2.5112
 2042SOL     OW17761   3.657   0.765   5.232  0.0052  0.1925 -0.0215
 2042SOL    HW117762   3.707   0.717   5.167  0.3814  0.6858 -0.1012
 2042SOL    HW217763   3.616   0.833   5.178  2.4181  0.0871 -1.9815
 2043SOL     OW17764   2.204   4.306   3.030 -0.3571  0.1058 -0.7130
 2043SOL    HW117765   2.269   4.322   3.099 -1.2727 -0.6155  0.3320
 2043SOL    HW217766   2.136   4.370   3.051 -0.6711 -0.5807  0.3769
 2044SOL     OW17767   3.286   0.798   6.243  0.5170  0.3332  0.4343
 2044SOL    HW117768   3.298   0.730   6.308  1.4875 -0.3664 -0.4670
 2044SOL    HW217769   3.195   0.773   6.233 -0.2128  2.1919  2.3889
 2045SOL     OW17770   0.344   4.729   3.816  0.2657 -0.3486  0.3427
 2045SOL    HW117771   0.271   0.054   3.807 -0.3939 -1.0388  0.9799
 2045SOL    HW217772   0.325   4.674   3.741 -2.2543 -1.5967  1.9051
 2046SOL     OW17773   1.714   4.674  14.403 -0.3030 -0.0126  0.4450
 2046SOL    HW117774   1.684   4.600  14.455 -1.9940  0.3694  0.0364
 2046SOL    HW217775   1.663   4.667  14.322  0.3009  0.4075  0.0302
 2047SOL     OW17776   4.438   3.126   4.665  0.0147  0.0628 -0.3220
 2047SOL    HW117777   4.411   3.075   4.588 -1.2906  0.4220 -0.0954
 2047SOL    HW217778   4.533   3.139   4.665  0.0885 -0.4241 -1.5392
 2048SOL     OW17779   3.986   4.602   6.837 -0.0403  0.0303  0.0179
 2048SOL    HW117780   3.923   4.555   6.783 -1.1289 -0.9316  2.1037
 2048SOL    HW217781   4.064   4.595   6.782 -0.1026 -1.5569  0.1097
 2049SOL     OW17782   3.447   2.695  11.083  0.6291 -0.6558 -0.2110
 2049SOL    HW117783   3.400   2.678  11.001 -1.7015  2.5635  0.4702
 2049SOL    HW217784   3.479   2.605  11.096  0.6889 -0.3678  1.5905
 2050SOL     OW17785   2.635   2.065   1.971 -0.4263 -0.5233 -0.0970
 2050SOL    HW117786   2.571   2.099   2.035  0.6153  1.1953  0.0276
 2050SOL    HW217787   2.716   2.078   2.019  0.7567  0.8991 -2.5017
 2051SOL     OW17788   2.027   1.029   3.362 -0.2582 -0.6274  0.1153
 2051SOL    HW117789   1.935   1.053   3.353  0.4697  1.9974 -0.2709
 2051SOL    HW217790   2.064   1.110   3.330 -3.6123  1.6413  1.9812
 2052SOL     OW17791   3.579   3.880  10.864 -0.1149 -0.5388  0.0579
 2052SOL    HW117792   3.605   3.790  10.842 -1.4998 -1.5461  2.5182
 2052SOL    HW217793   3.493   3.857  10.899 -0.7893  1.6283 -0.1906
 2053SOL     OW17794   4.716   1.127  15.107 -0.1282 -0.4570 -0.0694
 2053SOL    HW117795   4.683   1.041  15.080  1.0445 -1.1609  0.7812
 2053SOL    HW217796   4.660   1.149  15.182  1.0037  0.9561  0.3591
 2054SOL     OW17797   1.811   3.355  11.984  0.0267  0.6168  0.1029
 2054SOL    HW117798   1.750   3.417  11.944 -0.4020  0.3099  0.2772
 2054SOL    HW217799   1.877   3.418  12.015  2.6172 -1.5857 -0.9108
 2055SOL     OW17800   1.595   0.118  14.550  0.0864 -0.7288 -0.5358
 2055SOL    HW117801   1.616   0.211  14.549 -0.7270 -0.5519 -0.9312
 2055SOL    HW217802   1.649   0.088  14.476  1.4812  1.7029 -0.4890
 2056SOL     OW17803   0.255   2.728  16.067  0.0726 -0.1031  0.2818
 2056SOL    HW117804   0.346   2.699  16.058 -0.0610 -1.2185  2.6484
 2056SOL    HW217805   0.245   2.771  15.982 -1.9768 -1.5751 -0.2269
 2057SOL     OW17806   0.707   0.441   7.408  0.3948 -0.9483  0.2038
 2057SOL    HW117807   0.646   0.513   7.393  0.4159 -1.2958 -1.5578
 2057SOL    HW217808   0.776   0.446   7.341 -0.8523 -1.3325 -1.0880
 2058SOL     OW17809   1.953   3.046   6.116 -0.2231 -0.5057 -0.3824
 2058SOL    HW117810   1.987   3.109   6.052 -0.5453 -0.1306 -0.1880
 2058SOL    HW217811   1.860   3.035   6.094  0.2486 -0.2451 -2.5299
 2059SOL     OW17812   3.105   1.599   8.045  0.1066 -0.5030 -0.0497
 2059SOL    HW117813   3.147   1.621   8.128 -2.2267 -1.2695  1.3304
 2059SOL    HW217814   3.083   1.684   8.006 -3.4938 -0.9905  0.9590
 2060SOL     OW17815   3.184   4.211   2.932  0.0032  0.2060 -0.0800
 2060SOL    HW117816   3.097   4.195   2.968  0.8368 -1.9273  0.9951
 2060SOL    HW217817   3.234   4.244   3.007  0.8339 -0.7694 -0.1959
 2061SOL     OW17818   3.950   3.937   5.024 -0.1637 -0.0401  0.4648
 2061SOL    HW117819   4.014   3.963   5.090  0.1799  1.5265 -0.4755
 2061SOL    HW217820   3.929   4.017   4.974  2.0451  0.8451  0.9527
 2062SOL     OW17821   3.687   0.682   7.764 -0.3688  0.6161  0.0926
 2062SOL    HW117822   3.628   0.736   7.713  1.5846  0.9189 -1.8244
 2062SOL    HW217823   3.755   0.747   7.783 -0.4375  1.0022 -1.0145
 2063SOL     OW17824   1.913   3.674   2.439 -0.3103  0.6152  0.0733
 2063SOL    HW117825   1.936   3.618   2.513  2.5789  1.3268 -0.2848
 2063SOL    HW217826   1.994   3.691   2.390 -0.3275  0.3998 -0.0308
 2064SOL     OW17827   3.851   0.279   3.636 -0.4182  0.4533 -0.0336
 2064SOL    HW117828   3.808   0.351   3.590 -1.4643  0.7747  1.4626
 2064SOL    HW217829   3.883   0.220   3.568  2.0169  0.2570  1.3085
 2065SOL     OW17830   3.156   2.941   3.107  0.1593 -0.0440  0.1705
 2065SOL    HW117831   3.163   2.874   3.174 -1.2701  0.9704  1.3363
 2065SOL    HW217832   3.202   2.907   3.030 -0.2815  0.9191 -0.5204
 2066SOL     OW17833   1.388   4.218   5.596  0.4756 -0.0328 -0.0867
 2066SOL    HW117834   1.314   4.258   5.640  1.0431  0.8358  0.0874
 2066SOL    HW217835   1.383   4.125   5.616  3.1549 -0.1221  0.2403
 2067SOL     OW17836   2.865   0.924   1.355 -0.7479  0.1629  0.3140
 2067SOL    HW117837   2.779   0.890   1.330 -0.8344  0.8585 -0.3520
 2067SOL    HW217838   2.840   1.017   1.364  0.0146  0.5401 -1.5046
 2068SOL     OW17839   2.668   0.625   0.482  0.0583  0.6654 -0.0547
 2068SOL    HW117840   2.687   0.575   0.403  1.7537  0.1284  0.7055
 2068SOL    HW217841   2.614   0.691   0.438 -2.5368 -1.0380  0.5134
 2069SOL     OW17842   4.643   1.173  15.916  0.0229  0.2208 -0.0320
 2069SOL    HW117843   4.650   1.256  15.964  0.7549  0.4242 -0.4870
 2069SOL    HW217844   4.663   1.195  15.825 -0.1454 -0.5788 -0.2604
 2070SOL     OW17845   4.426   2.745  10.217  0.8219  0.1983  0.3596
 2070SOL    HW117846   4.336   2.778  10.210  1.5459  1.6991 -1.7394
 2070SOL    HW217847   4.460   2.744  10.128  0.4383 -0.1005  0.2180
 2071SOL     OW17848   4.430   1.114   2.835  0.0703 -0.1800 -0.5097
 2071SOL    HW117849   4.351   1.059   2.830  0.4482 -0.6980 -0.6945
 2071SOL    HW217850   4.497   1.054   2.804 -2.2009 -2.1281 -1.6990
 2072SOL     OW17851   2.845   3.874   8.124  0.5042 -0.3346 -0.1093
 2072SOL    HW117852   2.902   3.835   8.190  3.6310  1.8333 -1.5473
 2072SOL    HW217853   2.762   3.826   8.135  0.4906  0.0319  1.3353
 2073SOL     OW17854   2.117   1.399   9.099 -0.3329 -0.1426  0.2045
 2073SOL    HW117855   2.104   1.490   9.127  1.3002  0.2309 -0.2549
 2073SOL    HW217856   2.188   1.369   9.155  0.1210  1.4427  0.4784
 2074SOL     OW17857   1.572   4.682   2.353 -0.3508  0.4537 -0.8608
 2074SOL    HW117858   1.612   4.698   2.438 -3.5410  0.5280  0.6455
 2074SOL    HW217859   1.640   4.631   2.308 -1.6002 -0.6932 -1.4538
 2075SOL     OW17860   1.839   2.778   0.737  0.1447 -0.2447 -0.4737
 2075SOL    HW117861   1.772   2.802   0.801  0.4049  0.3366 -0.4191
 2075SOL    HW217862   1.912   2.809   0.791 -1.1565 -0.1389  1.2119
 2076SOL     OW17863   3.598   0.161   2.702 -0.0855 -0.4045 -0.2492
 2076SOL    HW117864   3.589   0.073   2.666  1.8529 -0.5625 -0.3236
 2076SOL    HW217865   3.693   0.160   2.715  0.1132 -1.6678 -1.7879
 2077SOL     OW17866   4.603   4.258   4.344 -0.0525 -0.4546 -0.1635
 2077SOL    HW117867   4.657   4.288   4.271 -1.4071 -2.2644 -1.9015
 2077SOL    HW217868   4.646   4.307   4.415  0.1150 -1.1405  0.2017
 2078SOL     OW17869   4.069   3.452   8.123 -0.2219  0.5053  0.3252
 2078SOL    HW117870   4.097   3.526   8.070 -0.1243  0.3332  0.1371
 2078SOL    HW217871   3.992   3.491   8.165 -1.5246  0.9929 -2.4864
 2079SOL     OW17872   0.735   2.798  15.949  0.2028  0.5480  0.4255
 2079SOL    HW117873   0.682   2.857  15.896 -0.6746  1.0214  1.8268
 2079SOL    HW217874   0.799   2.855  15.992  1.1707 -0.3767  0.2152
 2080SOL     OW17875   1.534   3.833   6.962 -0.2082 -0.3674 -0.3397
 2080SOL    HW117876   1.564   3.907   7.014  0.8368 -1.0581  0.0329
 2080SOL    HW217877   1.523   3.870   6.874  1.0719  0.0273 -0.3350
 2081SOL     OW17878   2.618   0.070  12.813  0.1491 -0.0504 -0.8923
 2081SOL    HW117879   2.625   4.710  12.813 -1.2013 -0.1611  1.5569
 2081SOL    HW217880   2.632   0.095  12.904 -0.3788  0.5008 -0.9616
 2082SOL     OW17881   3.955   0.898  10.363  0.1600 -0.9223 -0.0599
 2082SOL    HW117882   3.918   0.817  10.400 -2.2303  0.0401 -0.3073
 2082SOL    HW217883   3.880   0.956  10.376  0.2757 -0.8356  0.2065
 2083SOL     OW17884   2.391   1.247   0.312 -0.2085 -0.3789  0.3929
 2083SOL    HW117885   2.416   1.158   0.288 -2.4480 -0.8971 -0.0629
 2083SOL    HW217886   2.296   1.234   0.305 -0.2981  1.0267 -1.0164
 2084SOL     OW17887   0.095   2.313   9.132  0.0735  0.0996 -0.4398
 2084SOL    HW117888   0.012   2.332   9.087 -0.0761 -0.7326 -0.5139
 2084SOL    HW217889   0.082   2.219   9.144  1.9038 -0.2536 -1.2346
 2085SOL     OW17890   2.447   4.260   2.639  0.0330 -0.7158 -0.1745
 2085SOL    HW117891   2.442   4.218   2.553  1.6089  0.6724 -0.9456
 2085SOL    HW217892   2.354   4.268   2.661 -0.2139 -1.3518 -0.9700
 2086SOL     OW17893   3.426   0.684   4.935  0.2430  0.0972 -0.0885
 2086SOL    HW117894   3.468   0.770   4.937  0.6061 -0.0253 -1.8963
 2086SOL    HW217895   3.429   0.665   4.841  0.5673 -0.8655  0.1123
 2087SOL     OW17896   0.473   0.781   7.608 -0.2664  0.1666  0.4584
 2087SOL    HW117897   0.441   0.695   7.637  0.8097 -0.3151  0.2090
 2087SOL    HW217898   0.529   0.767   7.532  1.2593  1.4891  1.3445
 2088SOL     OW17899   0.607   4.425   6.511 -0.0905 -0.6405 -0.4544
 2088SOL    HW117900   0.537   4.487   6.489 -0.3850 -0.1874  1.8289
 2088SOL    HW217901   0.676   4.475   6.554 -1.1627  1.7942 -1.5688
 2089SOL     OW17902   4.142   2.771  10.213  0.0200 -0.2185 -0.2320
 2089SOL    HW117903   4.114   2.796  10.301 -0.0596 -0.4707 -0.1860
 2089SOL    HW217904   4.055   2.752  10.178 -1.4830  0.3911  3.1676
 2090SOL     OW17905   4.189   3.109   2.081  0.5280  0.0990 -0.0458
 2090SOL    HW117906   4.114   3.161   2.051 -0.7946 -2.0967 -0.5036
 2090SOL    HW217907   4.212   3.175   2.147  2.6708 -1.9036  1.2053
 2091SOL     OW17908   1.799   4.318   7.932 -0.1315 -0.0474 -0.0218
 2091SOL    HW117909   1.792   4.238   7.982 -2.1147  1.5890  2.3237
 2091SOL    HW217910   1.893   4.314   7.919 -0.0803 -0.6096  0.5423
 2092SOL     OW17911   1.146   0.120   7.796  0.3893 -0.4647  0.6428
 2092SOL    HW117912   1.214   0.100   7.859  1.2337  0.2629 -0.0371
 2092SOL    HW217913   1.179   0.113   7.706  1.3177  1.5247  0.8163
 2093SOL     OW17914   2.999   2.260  10.651  0.6519  0.6202 -0.1817
 2093SOL    HW117915   3.064   2.320  10.614 -0.8876  2.4778  0.1471
 2093SOL    HW217916   2.990   2.195  10.581  1.8075  0.8053 -0.5173
 2094SOL     OW17917   0.712   0.039   0.786 -0.3081  0.7458 -0.0336
 2094SOL    HW117918   0.707   0.124   0.830  0.4729  0.9485 -0.3436
 2094SOL    HW217919   0.636   4.729   0.823 -0.6048  0.7224 -0.6783
 2095SOL     OW17920   0.754   3.800   5.336 -0.0665 -0.9345 -0.4808
 2095SOL    HW117921   0.777   3.774   5.247  2.0795 -0.8379  0.0595
 2095SOL    HW217922   0.730   3.893   5.340 -0.8753 -1.2152  1.0543
 2096SOL     OW17923   3.196   0.839  16.906 -0.0184  0.1632  0.1452
 2096SOL    HW117924   3.257   0.766  16.899  0.1474  0.1645  1.4665
 2096SOL    HW217925   3.109   0.804  16.886 -0.1895 -0.3935  1.9219
 2097SOL     OW17926   0.779   0.988   5.126  0.2719 -0.5493  0.3191
 2097SOL    HW117927   0.765   1.020   5.038  1.3342  1.7169  0.9929
 2097SOL    HW217928   0.875   0.984   5.128  0.3089 -0.4078 -1.3519
 2098SOL     OW17929   3.602   0.146  15.930  0.2700  0.5650 -0.0002
 2098SOL    HW117930   3.677   0.202  15.951  0.2375  0.8538 -0.6625
 2098SOL    HW217931   3.531   0.210  15.922 -2.4019 -2.6837 -2.4633
 2099SOL     OW17932   1.639   2.860   3.117 -0.0628  0.6527 -0.9557
 2099SOL    HW117933   1.678   2.864   3.205  2.7216 -0.7470 -2.1360
 2099SOL    HW217934   1.680   2.931   3.068  1.4572  0.2108 -0.3164
 2100SOL     OW17935   0.045   0.573  16.089  0.1173 -0.2364  0.9515
 2100SOL    HW117936   0.079   0.517  16.020 -2.7364 -1.3132  0.4755
 2100SOL    HW217937   4.698   0.607  16.058  0.4473  1.4645  1.8938
 2101SOL     OW17938   4.203   4.039  13.833  0.0037 -0.4677 -0.3298
 2101SOL    HW117939   4.261   3.980  13.881  0.8524  0.3326 -0.3694
 2101SOL    HW217940   4.138   4.056  13.901  1.0367 -1.2404  0.8468
 2102SOL     OW17941   4.236   0.551   9.225 -0.0203 -0.1725  0.5672
 2102SOL    HW117942   4.291   0.474   9.230  0.2828 -0.0317 -0.5799
 2102SOL    HW217943   4.209   0.557   9.316 -1.0761  0.4655  0.2159
 2103SOL     OW17944   1.515   4.605   1.076 -0.3803  0.2095  0.3079
 2103SOL    HW117945   1.435   4.644   1.040  0.7676  0.5700 -1.8353
 2103SOL    HW217946   1.497   4.599   1.170  0.3649 -0.0636  0.4293
 2104SOL     OW17947   4.402   2.784  15.571 -0.4071 -0.4533  0.5856
 2104SOL    HW117948   4.359   2.739  15.499  0.5778  0.5354 -0.6024
 2104SOL    HW217949   4.400   2.726  15.648  0.3997 -1.2524  0.0143
 2105SOL     OW17950   1.914   1.141   7.741 -0.1034 -0.9798 -0.3067
 2105SOL    HW117951   1.880   1.092   7.816  1.4747 -0.2099  0.9187
 2105SOL    HW217952   1.999   1.161   7.781 -0.8118  1.6017 -0.1124
 2106SOL     OW17953   1.038   1.981  16.646 -0.3268  0.1249  0.1759
 2106SOL    HW117954   1.014   1.908  16.704 -1.4069  0.2359 -0.1373
 2106SOL    HW217955   0.993   1.959  16.565 -1.9255 -2.7421  1.8259
 2107SOL     OW17956   1.193   1.954  14.332  0.4131 -0.0343  0.2981
 2107SOL    HW117957   1.154   2.040  14.346  2.7309  0.8666  1.3149
 2107SOL    HW217958   1.232   1.937  14.418  1.0931  1.8154  0.3442
 2108SOL     OW17959   0.188   2.276   6.866  0.8117  0.3167  0.7742
 2108SOL    HW117960   0.268   2.318   6.898  0.4738  0.9079  0.8352
 2108SOL    HW217961   0.216   2.185   6.875  0.3811 -0.0031 -1.1804
 2109SOL     OW17962   3.051   0.410   1.740  0.3957 -0.3637  0.3321
 2109SOL    HW117963   3.031   0.344   1.673  0.0331 -0.6218  0.6907
 2109SOL    HW217964   3.127   0.372   1.783 -1.4515 -0.6628  3.2961
 2110SOL     OW17965   3.391   1.735   5.483 -0.4574  0.2688  0.0008
 2110SOL    HW117966   3.377   1.663   5.543 -0.8051  0.3935  0.0701
 2110SOL    HW217967   3.331   1.802   5.517  1.0748  1.2425  0.7900
 2111SOL     OW17968   2.980   3.548   8.292 -0.0727 -0.5743 -0.4603
 2111SOL    HW117969   2.954   3.581   8.378  0.7218  2.7377 -1.4933
 2111SOL    HW217970   3.067   3.513   8.311 -1.1647 -1.7257  2.5422
 2112SOL     OW17971   1.934   0.332   8.297  0.2285 -0.0731  0.2954
 2112SOL    HW117972   1.921   0.289   8.382 -2.0338 -0.8183 -0.4376
 2112SOL    HW217973   1.933   0.425   8.321 -1.0610 -1.2192  4.7786
 2113SOL     OW17974   1.035   1.708   4.942  0.1579  0.1203 -0.1539
 2113SOL    HW117975   1.105   1.750   4.891  1.0662  0.5780  1.4591
 2113SOL    HW217976   0.995   1.658   4.871  2.4392 -2.4064  0.3406
 2114SOL     OW17977   0.527   0.590   2.091 -0.2425  0.1339  0.3348
 2114SOL    HW117978   0.563   0.537   2.019 -4.2898  1.4563 -2.6812
 2114SOL    HW217979   0.478   0.663   2.053  0.7034  0.4389 -0.2996
 2115SOL     OW17980   1.967   2.563  12.603 -0.2650  0.1608 -0.0190
 2115SOL    HW117981   2.059   2.553  12.577  0.1847  0.4021  1.4809
 2115SOL    HW217982   1.945   2.652  12.575 -2.3348 -0.5692 -0.6968
 2116SOL     OW17983   0.916   2.587   9.541 -0.4643  0.2742 -0.0984
 2116SOL    HW117984   0.854   2.660   9.540 -1.8155 -0.8570  0.3015
 2116SOL    HW217985   0.993   2.643   9.535  0.0981 -0.7587 -2.4960
 2117SOL     OW17986   1.579   4.354  14.290 -0.8359 -0.4531 -0.5838
 2117SOL    HW117987   1.538   4.270  14.313 -2.1023 -0.0687 -1.4255
 2117SOL    HW217988   1.623   4.375  14.372  0.5733 -0.7857 -1.2661
 2118SOL     OW17989   0.992   2.771  10.045 -0.4017  0.6933  0.2130
 2118SOL    HW117990   0.945   2.841  10.000 -1.4454 -0.3737 -0.3605
 2118SOL    HW217991   0.917   2.729  10.086 -0.8768 -0.7013 -2.0559
 2119SOL     OW17992   4.518   2.562   5.469 -0.0464 -0.5442  0.3446
 2119SOL    HW117993   4.448   2.503   5.444  0.5370 -1.3500  0.6075
 2119SOL    HW217994   4.547   2.593   5.384  0.3615 -2.5390 -0.2454
 2120SOL     OW17995   4.052   2.471  14.761  0.5548 -0.2644  0.2397
 2120SOL    HW117996   4.104   2.396  14.789  0.4535 -1.0514 -1.6205
 2120SOL    HW217997   3.971   2.421  14.768  1.1589 -1.3355 -0.3546
 2121SOL     OW17998   0.609   3.877   4.342  0.2173 -0.7831  0.4315
 2121SOL    HW117999   0.541   3.911   4.400 -0.8678 -1.0184 -0.7245
 2121SOL    HW218000   0.669   3.952   4.336  1.0210 -1.5882 -1.6635
 2122SOL     OW18001   1.823   1.331  16.340  0.1224  0.3013  0.4296
 2122SOL    HW118002   1.821   1.368  16.252  2.1452 -2.2094 -0.6771
 2122SOL    HW218003   1.732   1.329  16.370 -0.4503 -2.4404 -1.4979
 2123SOL     OW18004   1.011   0.355   4.162  0.0680  0.2109  0.3612
 2123SOL    HW118005   0.932   0.316   4.124  0.1245 -0.2498  0.7162
 2123SOL    HW218006   1.002   0.318   4.250 -1.4853  0.3395  0.2574
 2124SOL     OW18007   2.066   2.977   2.670 -0.6268 -0.2960  0.3370
 2124SOL    HW118008   2.031   2.890   2.690 -2.3205  1.0365  3.1950
 2124SOL    HW218009   2.036   3.026   2.746 -0.4679 -0.5328  0.5561
 2125SOL     OW18010   1.731   1.453   3.768  0.9090  0.0195 -0.0626
 2125SOL    HW118011   1.722   1.525   3.831 -0.8452 -0.2243 -0.0295
 2125SOL    HW218012   1.641   1.444   3.737  0.3007  0.8538  1.4416
 2126SOL     OW18013   0.251   1.924  13.221  0.2705 -0.2866  0.0239
 2126SOL    HW118014   0.323   1.987  13.229 -1.3900  1.8209 -1.5818
 2126SOL    HW218015   0.298   1.840  13.226 -0.1646 -0.6188 -1.2822
 2127SOL     OW18016   3.821   0.843  10.629 -0.4042 -0.2997  0.4732
 2127SOL    HW118017   3.824   0.927  10.676  0.4514  0.2113 -0.4814
 2127SOL    HW218018   3.729   0.831  10.606 -0.3259 -0.3181  0.1694
 2128SOL     OW18019   4.000   4.405   3.607 -0.0874  0.0900  0.0282
 2128SOL    HW118020   4.035   4.382   3.693  2.4402 -0.3701 -1.1095
 2128SOL    HW218021   3.907   4.396   3.628  0.8619 -2.2909  3.2564
 2129SOL     OW18022   3.063   3.225  13.248 -0.1623  0.0348 -0.0419
 2129SOL    HW118023   3.061   3.160  13.319 -2.7678  0.5177  0.3210
 2129SOL    HW218024   2.995   3.185  13.194  0.2964 -1.4579  0.4857
 2130SOL     OW18025   3.249   0.506  10.258 -0.4103 -0.3581 -0.0831
 2130SOL    HW118026   3.329   0.513  10.311  1.1428 -3.3187 -1.9879
 2130SOL    HW218027   3.247   0.413  10.233  2.3111 -0.6842  0.8482
 2131SOL     OW18028   4.092   1.298   6.811  0.3248 -0.0909  0.4749
 2131SOL    HW118029   4.136   1.349   6.742 -0.9228 -0.3243 -0.4867
 2131SOL    HW218030   4.166   1.276   6.868  1.0296 -1.6269 -1.0570
 2132SOL     OW18031   1.774   4.300  14.125 -0.7456  0.5822 -0.0199
 2132SOL    HW118032   1.707   4.301  14.193 -1.2250 -1.5325 -0.4684
 2132SOL    HW218033   1.756   4.382  14.080 -0.9344  0.2410 -0.5656
 2133SOL     OW18034   4.262   3.097   3.243  0.2033 -0.3856  0.0064
 2133SOL    HW118035   4.170   3.120   3.256  0.4595  0.6933 -0.1028
 2133SOL    HW218036   4.276   3.119   3.151  2.3979  0.7547  0.6108
 2134SOL     OW18037   2.452   4.139   0.432  0.2567  0.1414  0.0664
 2134SOL    HW118038   2.425   4.223   0.395  2.3192  0.2491 -1.1592
 2134SOL    HW218039   2.413   4.078   0.370 -1.1686  1.5092 -0.3891
 2135SOL     OW18040   2.665   1.205   6.514  0.4207 -0.1967 -0.1564
 2135SOL    HW118041   2.733   1.153   6.556  0.5692 -0.5044 -0.7764
 2135SOL    HW218042   2.700   1.292   6.497 -1.7880  0.1138 -3.1564
 2136SOL     OW18043   4.688   4.699   3.207 -0.3641  0.1700 -0.6375
 2136SOL    HW118044   0.010   4.667   3.138 -1.1629  0.7200 -1.5391
 2136SOL    HW218045   0.016   4.736   3.269  0.0602 -1.8999  0.1648
 2137SOL     OW18046   1.358   1.376   9.152  0.1704 -0.5218 -0.3544
 2137SOL    HW118047   1.390   1.360   9.064 -1.2388 -1.7743 -0.6320
 2137SOL    HW218048   1.343   1.470   9.144 -0.0443 -0.3290  2.2169
 2138SOL     OW18049   1.833   2.529   2.027 -0.1463 -0.6089  0.0976
 2138SOL    HW118050   1.802   2.440   2.013  0.3805 -0.4485 -2.0509
 2138SOL    HW218051   1.921   2.514   1.993  1.1196 -0.3604  3.2793
 2139SOL     OW18052   2.241   3.904   2.450  0.2540  0.0277 -0.0791
 2139SOL    HW118053   2.225   3.830   2.392  0.8305 -2.2196  2.6760
 2139SOL    HW218054   2.277   3.858   2.525 -1.2013  0.1851  0.7049
 2140SOL     OW18055   1.875   1.784  14.867 -0.6703  0.7088  0.5069
 2140SOL    HW118056   1.782   1.775  14.848 -0.3192  1.4106 -1.5975
 2140SOL    HW218057   1.875   1.870  14.911 -0.3092 -0.4452  2.7504
 2141SOL     OW18058   1.068   0.147   4.393  0.1776 -0.1594 -0.2283
 2141SOL    HW118059   1.063   0.224   4.449 -1.0509 -1.7504  1.8901
 2141SOL    HW218060   0.992   0.098   4.427 -2.0524  3.4032 -0.0818
 2142SOL     OW18061   2.599   4.101   4.081 -0.1364  0.6223 -0.8779
 2142SOL    HW118062   2.563   4.173   4.029 -1.4534  0.0383 -0.7754
 2142SOL    HW218063   2.645   4.146   4.152 -0.8721 -1.0562  0.6849
 2143SOL     OW18064   2.519   3.711   4.449  0.2499 -0.0668 -0.0437
 2143SOL    HW118065   2.546   3.786   4.397  0.8132 -0.6468 -0.5903
 2143SOL    HW218066   2.432   3.746   4.468  0.1602 -1.3407  1.9545
 2144SOL     OW18067   4.297   3.138   1.833  0.0573 -0.6522  0.7985
 2144SOL    HW118068   4.238   3.132   1.908 -0.6242  1.2582  0.4139
 2144SOL    HW218069   4.383   3.119   1.870  0.6815 -2.4149 -1.5492
 2145SOL     OW18070   3.391   0.989   6.621  0.3096 -0.1809 -0.1736
 2145SOL    HW118071   3.478   1.029   6.623 -0.9067  2.2303  2.9887
 2145SOL    HW218072   3.330   1.059   6.642  2.8469  1.6405  1.0442
 2146SOL     OW18073   4.438   1.857   3.183  0.2945  0.0892  0.0097
 2146SOL    HW118074   4.369   1.920   3.163  0.4456  0.8618  1.9310
 2146SOL    HW218075   4.393   1.777   3.213  1.0482 -0.4064 -0.1945
 2147SOL     OW18076   0.147   2.309   3.246 -0.4074 -0.1507  0.2504
 2147SOL    HW118077   0.053   2.291   3.243 -0.7760  2.1296 -1.8886
 2147SOL    HW218078   0.161   2.311   3.341  3.2934  0.3993 -0.3081
 2148SOL     OW18079   3.365   0.650   8.016  0.2096  0.3153  0.0850
 2148SOL    HW118080   3.442   0.706   8.032 -0.4706  0.4789  2.8039
 2148SOL    HW218081   3.366   0.582   8.084 -0.4510 -0.3372 -0.5624
 2149SOL     OW18082   1.372   1.722  15.712 -0.5634  0.0154  0.2002
 2149SOL    HW118083   1.425   1.772  15.775 -1.5319  3.0323 -1.3690
 2149SOL    HW218084   1.395   1.642  15.759 -1.4570 -0.1234  0.4105
 2150SOL     OW18085   4.219   1.902   4.848  0.0474  0.4576  0.3382
 2150SOL    HW118086   4.162   1.976   4.829 -0.4584 -0.2208 -0.7993
 2150SOL    HW218087   4.160   1.834   4.814  0.4253  0.1942  0.2083
 2151SOL     OW18088   2.212   3.240   7.190 -0.0478  0.1589 -0.1204
 2151SOL    HW118089   2.171   3.311   7.238  2.6246 -0.5874  3.2626
 2151SOL    HW218090   2.170   3.252   7.105  2.0738  0.3462 -1.1540
 2152SOL     OW18091   0.276   4.006  12.340  0.6086  0.3643 -0.2302
 2152SOL    HW118092   0.316   4.019  12.254 -0.4389 -0.1939 -0.7983
 2152SOL    HW218093   0.333   4.061  12.394  1.6084 -0.7678 -0.1350
 2153SOL     OW18094   1.059   0.970   5.153  0.0566  0.0393 -0.2388
 2153SOL    HW118095   1.061   0.918   5.234 -0.1313 -0.9721 -0.8892
 2153SOL    HW218096   1.085   0.900   5.093 -2.1229 -1.9905  1.1955
 2154SOL     OW18097   4.681   3.786  10.925 -0.0125 -0.0967  0.3728
 2154SOL    HW118098   4.653   3.877  10.921  3.0975  0.8143 -0.5680
 2154SOL    HW218099   4.654   3.753  10.839  0.3087 -1.8414  0.9424
 2155SOL     OW18100   0.349   1.361   6.137 -0.2472  0.1185  0.4174
 2155SOL    HW118101   0.390   1.349   6.051  0.4773 -0.0600  0.7857
 2155SOL    HW218102   0.268   1.312   6.122 -0.7310  0.1825  2.8033
 2156SOL     OW18103   2.788   4.055   8.351 -0.0123  0.4423  0.3190
 2156SOL    HW118104   2.878   4.072   8.376  0.4212 -1.3408 -0.0058
 2156SOL    HW218105   2.765   4.130   8.296  0.7589  0.4638  0.0244
 2157SOL     OW18106   2.062   4.224  17.018  0.8758  0.5261 -0.0897
 2157SOL    HW118107   2.053   4.244  17.112 -1.1650 -0.2846 -0.1282
 2157SOL    HW218108   2.062   4.129  17.025  3.4929  0.3617 -2.2619
 2158SOL     OW18109   2.530   2.774   5.672  0.2628  0.3066  0.3315
 2158SOL    HW118110   2.610   2.804   5.715  0.5732  0.0317 -0.0459
 2158SOL    HW218111   2.535   2.680   5.689 -0.3483  0.2704  0.3095
 2159SOL     OW18112   3.933   3.660   5.790 -0.3499  0.1843  0.3073
 2159SOL    HW118113   3.964   3.639   5.702  0.7328  3.4892 -0.1106
 2159SOL    HW218114   3.974   3.584   5.831  1.2285  0.6548 -0.3982
 2160SOL     OW18115   3.155   3.446   2.627  0.5290 -0.6358  0.1130
 2160SOL    HW118116   3.200   3.470   2.708 -0.4396  0.7519  0.2255
 2160SOL    HW218117   3.137   3.535   2.598 -0.4215 -1.6721 -2.4529
 2161SOL     OW18118   2.132   4.298  10.783  0.2331  0.0340 -0.4238
 2161SOL    HW118119   2.043   4.294  10.747 -0.2958  0.1614  0.8546
 2161SOL    HW218120   2.165   4.211  10.759  0.5126  0.3807 -1.2816
 2162SOL     OW18121   3.611   1.154  12.194 -0.0167  0.1786 -0.1826
 2162SOL    HW118122   3.673   1.084  12.211  0.6501  0.3444 -1.9387
 2162SOL    HW218123   3.566   1.172  12.277 -0.4945  1.7210 -0.7651
 2163SOL     OW18124   2.289   3.449   1.817  0.0734 -0.0402  0.0632
 2163SOL    HW118125   2.203   3.468   1.781  0.2868  0.4042 -0.2095
 2163SOL    HW218126   2.275   3.410   1.903 -1.9299 -0.0643 -0.2760
 2164SOL     OW18127   2.704   4.226   8.933 -0.3160 -0.6756  0.1301
 2164SOL    HW118128   2.785   4.224   8.881 -0.8108 -0.2478 -0.6642
 2164SOL    HW218129   2.645   4.287   8.889  0.7310 -0.9344 -1.6194
 2165SOL     OW18130   2.540   0.072   2.785  0.2390  0.2362 -0.1703
 2165SOL    HW118131   2.555   0.165   2.773  0.5928  0.0298 -1.3809
 2165SOL    HW218132   2.619   0.041   2.830  1.2191  3.6728  0.4356
 2166SOL     OW18133   0.210   0.798   3.215 -0.1432 -0.5830 -0.3500
 2166SOL    HW118134   0.252   0.731   3.160 -0.6564 -1.9390  0.9084
 2166SOL    HW218135   0.179   0.857   3.147 -1.3604 -1.6321 -0.7095
 2167SOL     OW18136   1.127   3.452   2.328 -0.3481  0.1169  0.5767
 2167SOL    HW118137   1.143   3.398   2.405  0.1890 -0.8455 -0.2174
 2167SOL    HW218138   1.202   3.511   2.328 -0.5796  0.4146 -1.8560
 2168SOL     OW18139   0.810   2.358   2.166 -0.0240  0.3926  0.0338
 2168SOL    HW118140   0.732   2.401   2.201  0.2412  0.0221  1.1060
 2168SOL    HW218141   0.777   2.284   2.115  1.7910  0.8983 -1.8752
 2169SOL     OW18142   1.970   1.835   6.286  0.3371  0.5406  0.1460
 2169SOL    HW118143   1.880   1.854   6.259  0.3256  1.2796  0.6943
 2169SOL    HW218144   1.952   1.772   6.356 -0.3218 -0.7420 -1.1845
 2170SOL     OW18145   1.636   2.090   3.261 -0.1780  0.4151  0.3188
 2170SOL    HW118146   1.575   2.022   3.290  2.2000 -0.4780  3.1750
 2170SOL    HW218147   1.632   2.087   3.166 -2.0967 -1.4004  0.4478
 2171SOL     OW18148   1.087   1.438   3.879  0.1783  0.3702  0.0675
 2171SOL    HW118149   1.002   1.416   3.842 -0.7901  1.3590  1.6786
 2171SOL    HW218150   1.138   1.369   3.837 -0.7129  0.4454 -1.1159
 2172SOL     OW18151   0.204   4.338   0.291 -0.3154  0.3451 -0.3348
 2172SOL    HW118152   0.275   4.339   0.356 -0.2407  0.0143 -0.4100
 2172SOL    HW218153   0.131   4.333   0.353 -0.1175 -1.5880 -0.2682
 2173SOL     OW18154   4.166   2.361  11.954  0.0541 -0.3537  0.5835
 2173SOL    HW118155   4.153   2.291  12.017 -0.2180 -0.4545  0.4120
 2173SOL    HW218156   4.148   2.445  11.996 -2.1114 -1.7316  2.3755
 2174SOL     OW18157   3.875   2.601  17.200  0.1614  0.0853  0.5692
 2174SOL    HW118158   3.899   2.671  17.261 -0.6201  1.8472 -1.1246
 2174SOL    HW218159   3.780   2.593  17.208  0.2355  0.3369  1.6892
 2175SOL     OW18160   0.795   3.988   4.897 -0.0892 -0.4297  0.3442
 2175SOL    HW118161   0.718   3.946   4.935 -0.3217  0.3786  0.7678
 2175SOL    HW218162   0.868   3.928   4.914 -2.4365 -3.3352  0.0592
 2176SOL     OW18163   0.795   3.477   6.244 -0.3398 -0.2736 -0.2329
 2176SOL    HW118164   0.792   3.402   6.185  2.2092  0.0679 -0.7754
 2176SOL    HW218165   0.702   3.480   6.266 -0.4544 -0.6510 -0.6787
 2177SOL     OW18166   1.993   3.365   3.773 -0.6033 -0.3969  0.8650
 2177SOL    HW118167   1.904   3.386   3.745 -0.1270  0.7572  0.2171
 2177SOL    HW218168   2.047   3.395   3.700  0.2654 -1.3258  1.1330
 2178SOL     OW18169   3.540   1.912   4.313 -0.4515  0.1719 -0.2855
 2178SOL    HW118170   3.588   1.992   4.337 -3.1807  2.0175 -1.0573
 2178SOL    HW218171   3.547   1.855   4.389 -1.5959 -2.2687 -2.0217
 2179SOL     OW18172   0.125   4.029   3.352 -0.1473 -0.0009 -0.8118
 2179SOL    HW118173   0.080   3.986   3.425  1.7314  0.1241  0.4268
 2179SOL    HW218174   0.093   3.976   3.279  0.4538 -0.3554 -0.8203
 2180SOL     OW18175   2.460   0.932   2.271  0.0388 -0.2856 -0.3757
 2180SOL    HW118176   2.551   0.944   2.299  0.1882 -0.5339 -0.7533
 2180SOL    HW218177   2.466   0.953   2.178 -0.7507  0.5058 -0.2441
 2181SOL     OW18178   4.040   2.638   5.499  0.4498  0.6518 -0.5012
 2181SOL    HW118179   4.038   2.661   5.406 -0.9741  0.6307 -0.4757
 2181SOL    HW218180   4.007   2.548   5.495 -1.3778  1.2648  0.6367
 2182SOL     OW18181   2.351   4.581   7.948 -0.7213 -0.5733 -0.1235
 2182SOL    HW118182   2.357   4.675   7.935  0.9484 -0.5488  0.7937
 2182SOL    HW218183   2.296   4.594   8.025 -1.3074 -1.1684 -0.4402
 2183SOL     OW18184   2.187   3.690   5.181  0.3017 -0.3113  0.3999
 2183SOL    HW118185   2.222   3.669   5.095  0.6173  2.8344 -0.2424
 2183SOL    HW218186   2.154   3.779   5.171 -1.1032 -0.9476 -0.7541
 2184SOL     OW18187   3.816   2.810   6.022  0.1973  0.8173  0.3443
 2184SOL    HW118188   3.790   2.861   5.945 -0.0899 -2.3239 -1.6011
 2184SOL    HW218189   3.816   2.885   6.082  1.1100 -0.4881  1.9785
 2185SOL     OW18190   0.848   1.633   9.146 -0.1960  0.3308 -0.0116
 2185SOL    HW118191   0.783   1.640   9.076 -0.0266  0.6129 -0.1421
 2185SOL    HW218192   0.810   1.694   9.210  0.9116 -0.5397  1.4846
 2186SOL     OW18193   3.814   3.627   6.234 -0.5037 -0.4609  0.0560
 2186SOL    HW118194   3.760   3.589   6.165  0.4641  0.2895 -1.1130
 2186SOL    HW218195   3.865   3.693   6.188 -1.8821  2.0608  2.1021
 2187SOL     OW18196   0.267   3.616   3.027 -0.2130  0.1598 -0.1724
 2187SOL    HW118197   0.298   3.701   2.996  1.1250 -0.7234 -1.2796
 2187SOL    HW218198   0.331   3.550   2.999  0.5442 -0.2556  2.5401
 2188SOL     OW18199   3.080   3.987  11.086 -0.2124  0.1684  0.5017
 2188SOL    HW118200   3.117   4.047  11.022  1.5352  0.9984  2.2906
 2188SOL    HW218201   2.987   4.000  11.067  0.0578 -1.4854 -1.8765
 2189SOL     OW18202   3.632   1.541  14.467  0.3199  0.5249  0.1797
 2189SOL    HW118203   3.632   1.528  14.561 -0.4089 -1.3729 -0.0940
 2189SOL    HW218204   3.552   1.592  14.450  2.3691  3.8202  0.4397
 2190SOL     OW18205   4.469   1.213   3.365  0.2692  0.0651 -0.8109
 2190SOL    HW118206   4.520   1.194   3.444 -1.4172  1.9334  0.7284
 2190SOL    HW218207   4.520   1.283   3.324  0.0864  0.1639 -0.8687
 2191SOL     OW18208   1.723   0.046  10.224 -0.4477 -0.2162 -0.3594
 2191SOL    HW118209   1.765   4.708  10.269  0.9282  2.2673  2.4742
 2191SOL    HW218210   1.750   0.106  10.293 -2.0291  1.1277 -0.9142
 2192SOL     OW18211   3.478   0.135   9.020 -0.7311  0.3056  0.2302
 2192SOL    HW118212   3.468   0.148   8.926  0.0657  1.7693  0.3467
 2192SOL    HW218213   3.402   0.084   9.048 -2.4052  1.8848 -1.4186
 2193SOL     OW18214   4.528   3.447   2.642  0.3841 -0.0475  0.2730
 2193SOL    HW118215   4.459   3.487   2.694  2.5542  3.0618  0.7254
 2193SOL    HW218216   4.554   3.374   2.698  0.8998  0.6474  0.9308
 2194SOL     OW18217   3.383   1.517   5.626  0.4102  0.1100  0.9166
 2194SOL    HW118218   3.439   1.514   5.703  0.5555 -1.4796  0.7520
 2194SOL    HW218219   3.362   1.428   5.597  0.3684  0.9135 -1.4674
 2195SOL     OW18220   4.473   2.279   8.643 -0.3608 -0.5696 -0.0394
 2195SOL    HW118221   4.534   2.243   8.578  0.3093 -1.5594  1.1406
 2195SOL    HW218222   4.393   2.238   8.610 -2.3174  1.7488  1.8553
 2196SOL     OW18223   2.058   4.277  14.553 -0.1904 -0.3051 -0.4811
 2196SOL    HW118224   2.007   4.353  14.580  0.7813 -0.2423  1.1739
 2196SOL    HW218225   2.127   4.320  14.503 -0.0053  1.1299  0.9986
 2197SOL     OW18226   0.621   2.784   7.565  0.1183  0.1345  0.3598
 2197SOL    HW118227   0.552   2.851   7.561 -1.0286 -1.0726 -0.2373
 2197SOL    HW218228   0.705   2.828   7.575 -0.3292  0.7749  1.2695
 2198SOL     OW18229   0.350   3.313  16.455 -0.0536 -0.4506  0.8011
 2198SOL    HW118230   0.392   3.230  16.436 -0.6861 -0.3945 -0.8005
 2198SOL    HW218231   0.365   3.330  16.548 -1.0195 -0.0554  0.8800
 2199SOL     OW18232   2.833   1.872  11.205  0.1891  0.1183  0.1886
 2199SOL    HW118233   2.827   1.816  11.282 -1.1292  0.0004  0.0147
 2199SOL    HW218234   2.891   1.820  11.149 -0.9558 -2.9670  1.8754
 2200SOL     OW18235   1.431   2.584   7.049 -0.4420  0.0041  0.4840
 2200SOL    HW118236   1.402   2.630   6.971  1.3996  0.5945  0.1486
 2200SOL    HW218237   1.521   2.574   7.019  0.1324 -2.1631  2.9793
 2201SOL     OW18238   0.039   3.729  15.956 -0.0234 -0.1493 -0.4694
 2201SOL    HW118239   4.697   3.737  15.902  0.6334  3.9909 -0.8109
 2201SOL    HW218240   0.012   3.776  16.036  0.2657 -0.8512  0.0396
 2202SOL     OW18241   3.664   0.826   2.119  0.3086 -0.1080  0.0756
 2202SOL    HW118242   3.646   0.859   2.207  1.0767 -1.4324  0.7411
 2202SOL    HW218243   3.576   0.811   2.085  0.7902 -0.7974 -0.8835
 2203SOL     OW18244   2.032   2.009   3.363  0.3432 -0.1071  0.5693
 2203SOL    HW118245   2.102   2.070   3.336  0.7663  0.2214  2.4615
 2203SOL    HW218246   1.957   2.068   3.369  0.9932  0.9309 -1.2467
 2204SOL     OW18247   2.121   0.531   8.613  0.0413  0.3427  0.5195
 2204SOL    HW118248   2.125   0.623   8.640 -1.8911  1.2528 -2.2189
 2204SOL    HW218249   2.176   0.547   8.535  1.5716 -0.1601  1.4973
 2205SOL     OW18250   2.796   4.278   3.856  0.1159  0.2595 -0.0254
 2205SOL    HW118251   2.775   4.185   3.846  2.4500 -0.1840 -0.9895
 2205SOL    HW218252   2.841   4.283   3.940 -0.9602 -1.2119  0.6390
 2206SOL     OW18253   2.597   1.480   5.052 -0.4435  0.1919  0.4810
 2206SOL    HW118254   2.649   1.435   4.986  1.8798  2.2461  0.9062
 2206SOL    HW218255   2.607   1.429   5.133  0.4205 -0.4791 -0.0423
 2207SOL     OW18256   3.716   2.545   0.943 -0.3830 -0.1866  0.0339
 2207SOL    HW118257   3.635   2.592   0.925  0.4936  1.7646  1.1106
 2207SOL    HW218258   3.766   2.536   0.862  1.8432 -2.2270  1.6149
 2208SOL     OW18259   4.639   2.100   9.434  0.7737 -0.6181  0.1592
 2208SOL    HW118260   4.575   2.058   9.375 -0.2449 -0.2333  0.9842
 2208SOL    HW218261   4.725   2.076   9.400  0.8867 -0.5656  0.4099
 2209SOL     OW18262   4.458   4.155  15.795  0.1813  0.2898  0.2751
 2209SOL    HW118263   4.373   4.135  15.836 -0.8465  2.0520 -1.0003
 2209SOL    HW218264   4.491   4.065  15.798 -2.1593 -0.5387  2.0958
 2210SOL     OW18265   3.746   2.392   5.524  0.0827  0.6197 -0.0229
 2210SOL    HW118266   3.707   2.446   5.455  0.4417 -0.7551 -1.3113
 2210SOL    HW218267   3.840   2.400   5.506  0.7317 -1.5503  2.4567
 2211SOL     OW18268   0.445   2.317   6.075  0.3598  0.3366 -0.1620
 2211SOL    HW118269   0.524   2.366   6.052 -0.5710  1.4751 -0.9686
 2211SOL    HW218270   0.485   2.268   6.147  3.3051  4.8823  1.2785
 2212SOL     OW18271   1.200   3.024   5.036  0.4006  0.8338 -0.3444
 2212SOL    HW118272   1.112   2.996   5.061  0.1434 -1.5303 -3.9187
 2212SOL    HW218273   1.250   2.969   5.097 -1.3077 -1.3174 -0.9199
 2213SOL     OW18274   0.635   0.970   7.116 -0.1340  0.2887 -0.6663
 2213SOL    HW118275   0.572   1.005   7.052  0.0203  1.1915 -0.3300
 2213SOL    HW218276   0.590   0.996   7.197  3.4999 -1.7613  2.0074
 2214SOL     OW18277   0.338   1.545   6.801  0.2614  0.5854  0.2861
 2214SOL    HW118278   0.351   1.508   6.888 -1.3473 -1.0478 -0.1624
 2214SOL    HW218279   0.390   1.625   6.805 -0.6452  1.2357 -0.8138
 2215SOL     OW18280   1.308   4.072   1.468  0.1049 -0.0925 -0.0887
 2215SOL    HW118281   1.260   4.085   1.387  0.0939 -0.1859 -0.0968
 2215SOL    HW218282   1.374   4.011   1.435  0.4075  0.2066 -0.0492
 2216SOL     OW18283   3.052   4.572   1.186 -0.0759  0.3592 -0.7000
 2216SOL    HW118284   3.128   4.529   1.146 -0.0950  0.7984 -1.2089
 2216SOL    HW218285   2.984   4.529   1.133  1.0328  0.0930 -1.9274
 2217SOL     OW18286   2.086   1.025   2.980 -0.0899  0.2965 -0.0719
 2217SOL    HW118287   2.035   0.945   2.969  0.2268  0.3154 -1.7086
 2217SOL    HW218288   2.072   1.076   2.900 -1.5677  0.9964  0.6376
 2218SOL     OW18289   2.683   3.746  11.503  0.1414  0.2452  0.0215
 2218SOL    HW118290   2.765   3.702  11.480 -0.7531 -1.8119  0.7696
 2218SOL    HW218291   2.641   3.738  11.417 -0.6655  1.4167  0.3144
 2219SOL     OW18292   1.465   3.546   6.640 -0.1200 -0.1088  0.3819
 2219SOL    HW118293   1.540   3.583   6.687 -0.9779 -1.0608  2.5039
 2219SOL    HW218294   1.423   3.619   6.596  1.1424  0.6753  0.4702
 2220SOL     OW18295   1.050   1.081   3.900  0.0356  0.3837 -0.0557
 2220SOL    HW118296   1.068   0.989   3.882 -0.5325  0.1986  0.3258
 2220SOL    HW218297   1.107   1.122   3.834  2.7903 -1.3906  1.2296
 2221SOL     OW18298   3.896   2.369  10.816  0.3071 -0.4764 -0.5581
 2221SOL    HW118299   3.919   2.350  10.725  0.0483 -0.4933 -0.6208
 2221SOL    HW218300   3.952   2.444  10.835 -2.1273  1.5702 -1.3121
 2222SOL     OW18301   1.640   1.620  16.165 -0.4520 -0.5463 -0.1135
 2222SOL    HW118302   1.724   1.608  16.121  0.0201  0.8987  0.3871
 2222SOL    HW218303   1.666   1.653  16.251  1.6882  0.6001 -1.2078
 2223SOL     OW18304   3.824   0.448   7.261 -0.6855  0.2888  0.7649
 2223SOL    HW118305   3.824   0.467   7.355 -0.2531 -1.4465  1.1038
 2223SOL    HW218306   3.871   0.365   7.257  0.0284  0.7303 -0.1796
 2224SOL     OW18307   3.524   2.035   5.232  0.6762  0.1297 -0.2075
 2224SOL    HW118308   3.495   2.120   5.267 -1.6024 -0.9171  0.4827
 2224SOL    HW218309   3.605   2.067   5.193 -0.7276  2.4586 -1.1905
 2225SOL     OW18310   1.160   3.955  16.890  0.0639 -0.3741 -0.2682
 2225SOL    HW118311   1.140   3.865  16.913 -0.6741  0.3714  2.0503
 2225SOL    HW218312   1.251   3.946  16.862 -0.7034 -0.8287 -2.5494
 2226SOL     OW18313   3.138   1.104  12.227  0.2099 -0.0621  0.4015
 2226SOL    HW118314   3.105   1.015  12.219 -2.1081  0.9053 -0.7297
 2226SOL    HW218315   3.057   1.155  12.238 -0.5667 -1.3031  0.3648
 2227SOL     OW18316   1.767   1.492  11.038 -0.0666  0.3316 -0.1219
 2227SOL    HW118317   1.841   1.552  11.037  0.9124 -0.8781  0.2114
 2227SOL    HW218318   1.819   1.414  11.021  1.5821  0.6084  3.5123
 2228SOL     OW18319   4.113   2.840  15.296 -0.2644  0.4810 -0.3050
 2228SOL    HW118320   4.167   2.768  15.328  0.8191  1.7224  0.6451
 2228SOL    HW218321   4.033   2.797  15.266  1.4320 -0.9931 -2.8412
 2229SOL     OW18322   4.374   3.055  10.026 -0.4235  0.2894 -0.4877
 2229SOL    HW118323   4.415   3.013   9.950  1.3622 -1.6069  1.5357
 2229SOL    HW218324   4.282   3.031  10.012 -0.3272 -0.0373 -0.5567
 2230SOL     OW18325   1.689   0.849   8.773  0.3108 -0.1654 -0.3479
 2230SOL    HW118326   1.680   0.823   8.864  0.0503  1.3940  0.0664
 2230SOL    HW218327   1.595   0.843   8.754  0.5411 -1.9195 -0.9222
 2231SOL     OW18328   0.862   3.626   2.613  0.2563  0.3361 -0.0095
 2231SOL    HW118329   0.915   3.547   2.625 -1.4966 -0.5580  1.9719
 2231SOL    HW218330   0.858   3.623   2.518  1.1149 -1.3348  0.0040
 2232SOL     OW18331   2.021   2.914   3.574 -0.4960  0.3666 -0.7105
 2232SOL    HW118332   2.031   2.884   3.664 -0.8419  0.7574 -0.5410
 2232SOL    HW218333   2.039   2.833   3.526  1.0182 -0.2666  0.9210
 2233SOL     OW18334   3.408   0.591   1.717  0.9242  0.4162 -0.2199
 2233SOL    HW118335   3.407   0.551   1.804  1.6281 -2.6116 -1.5890
 2233SOL    HW218336   3.487   0.643   1.732  1.4679 -0.8045  1.2312
 2234SOL     OW18337   2.259   1.034  12.157  0.1786  0.2566  0.5634
 2234SOL    HW118338   2.208   1.106  12.119 -1.0040  1.0446  3.5952
 2234SOL    HW218339   2.196   1.002  12.221  1.3012 -0.3685  1.3509
 2235SOL     OW18340   0.939   2.117   7.101 -0.1098  0.1579  0.3726
 2235SOL    HW118341   0.925   2.051   7.170  1.5737  1.0504  1.5482
 2235SOL    HW218342   0.876   2.182   7.134  2.5378  0.8455  4.0719
 2236SOL     OW18343   1.504   3.630   3.982  0.1324 -0.1033 -0.0531
 2236SOL    HW118344   1.488   3.721   4.010 -3.2278 -0.8273  0.4038
 2236SOL    HW218345   1.458   3.583   4.052  0.0427 -0.6591 -0.4853
 2237SOL     OW18346   1.428   2.035   9.829  0.3198  0.1078 -0.2252
 2237SOL    HW118347   1.478   2.101   9.781  0.4221  0.2587  0.0940
 2237SOL    HW218348   1.500   1.979   9.859  1.1456  0.7194 -1.0469
 2238SOL     OW18349   0.105   2.681   7.598 -0.2870 -0.5907 -0.0065
 2238SOL    HW118350   0.184   2.664   7.649  0.3192 -1.1142 -1.1329
 2238SOL    HW218351   0.069   2.595   7.577  2.2747 -1.3226 -1.3696
 2239SOL     OW18352   1.375   4.380   1.827  0.0189  0.3534  0.1347
 2239SOL    HW118353   1.302   4.359   1.885  1.0281  0.8546  1.5753
 2239SOL    HW218354   1.326   4.437   1.767 -2.1270 -1.1248  0.4592
 2240SOL     OW18355   3.676   3.584   1.734 -0.4885  0.0375  0.3154
 2240SOL    HW118356   3.593   3.538   1.747 -0.4544  0.0872  0.7096
 2240SOL    HW218357   3.674   3.657   1.795  2.8345 -0.1347  0.5936
 2241SOL     OW18358   1.838   2.943   6.943  0.1788  0.1413  0.1554
 2241SOL    HW118359   1.925   2.973   6.970  0.7947 -1.2141 -0.3553
 2241SOL    HW218360   1.805   2.999   6.873  1.8040 -0.3815 -1.0140
 2242SOL     OW18361   3.624   0.302   1.758 -0.4711 -0.1311 -0.1728
 2242SOL    HW118362   3.556   0.287   1.692 -0.3132  1.5265 -0.7288
 2242SOL    HW218363   3.698   0.323   1.701 -0.3044  0.1170  0.1349
 2243SOL     OW18364   4.500   0.147  14.849  0.4912  0.3552  0.6294
 2243SOL    HW118365   4.571   0.211  14.854  0.2267  0.6195  0.9804
 2243SOL    HW218366   4.548   0.086  14.793 -0.0816 -0.4939  1.0655
 2244SOL     OW18367   2.366   4.065   4.703  0.6147 -0.5059  0.2101
 2244SOL    HW118368   2.309   4.115   4.644 -0.1260 -0.3831  1.0270
 2244SOL    HW218369   2.401   4.143   4.746  0.3957 -0.2955  0.0051
 2245SOL     OW18370   4.695   0.725   4.366 -0.6509  0.0569 -0.2235
 2245SOL    HW118371   4.729   0.674   4.439  1.5119  1.2248 -0.4412
 2245SOL    HW218372   4.665   0.803   4.413  0.0931  0.5212 -0.5319
 2246SOL     OW18373   1.034   2.469   7.091  0.7398  0.0827 -0.7520
 2246SOL    HW118374   1.110   2.430   7.048  0.6290  0.5125 -1.3352
 2246SOL    HW218375   1.077   2.546   7.129  0.0884 -1.0224  2.2309
 2247SOL     OW18376   0.419   1.897  17.157 -0.0654  0.1401 -0.2351
 2247SOL    HW118377   0.360   1.854  17.095  0.7125 -0.7093 -0.3792
 2247SOL    HW218378   0.376   1.982  17.167 -2.2383 -1.0152  0.4990
 2248SOL     OW18379   0.640   3.276   8.893 -0.5878 -0.5833  0.0891
 2248SOL    HW118380   0.545   3.266   8.892 -0.7272  1.1667 -1.6136
 2248SOL    HW218381   0.664   3.202   8.950  1.4909  0.7709  1.0143
 2249SOL     OW18382   4.275   2.565   3.980 -0.0468  0.0238  0.0582
 2249SOL    HW118383   4.217   2.636   3.954 -0.1442 -0.6021 -1.4237
 2249SOL    HW218384   4.224   2.492   3.945 -1.1138 -0.0711  1.8388
 2250SOL     OW18385   4.720   2.645   1.223  0.1524 -0.2031  0.4626
 2250SOL    HW118386   0.035   2.653   1.304 -1.3915 -0.6306  1.4814
 2250SOL    HW218387   0.031   2.713   1.175  0.4073  0.9831  2.3870
 2251SOL     OW18388   1.729   1.902   5.314  0.4015  0.6231  0.3146
 2251SOL    HW118389   1.722   1.822   5.367  1.4358 -0.9230 -1.8829
 2251SOL    HW218390   1.637   1.923   5.297  0.7033  2.4709  0.9637
 2252SOL     OW18391   3.003   0.867   3.967 -0.0552  0.4063 -0.1121
 2252SOL    HW118392   3.088   0.910   3.970  0.2735 -0.2228 -0.4598
 2252SOL    HW218393   2.960   0.923   3.903  0.1108  2.9588  2.0424
 2253SOL     OW18394   3.864   0.629   2.435 -0.1989  0.2455 -0.1546
 2253SOL    HW118395   3.925   0.595   2.369  0.8668 -0.9474  1.4223
 2253SOL    HW218396   3.782   0.628   2.386  0.0781  0.6305 -0.6262
 2254SOL     OW18397   0.301   2.882   2.579 -0.0470  0.2239 -0.0229
 2254SOL    HW118398   0.226   2.845   2.533 -0.9132 -0.6676  2.0917
 2254SOL    HW218399   0.295   2.970   2.542 -2.4458  0.3008  0.5587
 2255SOL     OW18400   4.501   0.815   4.089 -0.2528 -0.3657  0.3666
 2255SOL    HW118401   4.476   0.815   4.182  1.5445  0.0784  0.8535
 2255SOL    HW218402   4.562   0.888   4.100  1.3836 -1.5295 -1.1351
 2256SOL     OW18403   4.127   2.125   8.341 -0.0088  0.2324 -0.0491
 2256SOL    HW118404   4.079   2.208   8.343 -0.6958 -0.0951 -2.5551
 2256SOL    HW218405   4.110   2.092   8.252 -3.2385  4.9947 -1.1991
 2257SOL     OW18406   2.246   0.694   1.556  0.2388  0.2876  0.3324
 2257SOL    HW118407   2.184   0.762   1.583 -2.7634 -0.9406 -3.5088
 2257SOL    HW218408   2.227   0.680   1.463  1.0979 -1.3095  0.4017
 2258SOL     OW18409   3.352   0.307   5.468 -0.0313  0.1651  0.4292
 2258SOL    HW118410   3.434   0.325   5.514 -1.6396  3.5613  2.0201
 2258SOL    HW218411   3.304   0.247   5.525 -0.6557 -2.0193 -2.4548
 2259SOL     OW18412   2.368   3.099   2.966 -0.8618 -0.2977 -0.0274
 2259SOL    HW118413   2.384   3.164   2.898  1.6838  0.4377  1.3061
 2259SOL    HW218414   2.451   3.071   3.004  0.1966  0.6186 -1.6781
 2260SOL     OW18415   0.551   1.558   3.852  0.3797  0.1101  0.4611
 2260SOL    HW118416   0.493   1.494   3.809 -1.0447  2.4255 -1.0464
 2260SOL    HW218417   0.491   1.598   3.914 -0.4584  2.2749 -1.7537
 2261SOL     OW18418   1.628   0.808   9.044  0.5174  0.4690 -0.0585
 2261SOL    HW118419   1.562   0.770   8.985  1.3838 -2.0477  0.5738
 2261SOL    HW218420   1.585   0.833   9.126 -0.3926  0.4031 -0.5095
 2262SOL     OW18421   1.403   2.125   1.000 -0.2117 -0.1365 -0.1880
 2262SOL    HW118422   1.335   2.069   0.963  0.6355  0.2320 -2.2939
 2262SOL    HW218423   1.406   2.198   0.939  1.2531 -0.9434 -1.0874
 2263SOL     OW18424   3.899   1.276   7.221  0.1197 -0.1217  0.3054
 2263SOL    HW118425   3.937   1.202   7.174 -4.0056 -1.1825 -1.3718
 2263SOL    HW218426   3.864   1.335   7.154 -0.6721  0.9818  1.6846
 2264SOL     OW18427   1.111   2.892   6.677 -0.2186 -0.0580  0.1847
 2264SOL    HW118428   1.108   2.932   6.764  1.9998 -1.4239  0.8905
 2264SOL    HW218429   1.137   2.970   6.627  2.7819  0.7077  2.9860
 2265SOL     OW18430   0.605   0.678   0.412 -0.5314  0.4907  0.0883
 2265SOL    HW118431   0.683   0.732   0.425 -0.4356  0.7018 -1.3714
 2265SOL    HW218432   0.561   0.720   0.338 -1.4570  0.3847  0.5729
 2266SOL     OW18433   3.049   3.139   3.589  1.0428 -0.3293  0.3877
 2266SOL    HW118434   2.993   3.216   3.581  0.6358 -0.7615 -1.1574
 2266SOL    HW218435   3.032   3.088   3.509 -2.5164  0.7322  0.4709
 2267SOL     OW18436   1.951   4.111  14.800 -0.5863  0.1275 -0.1876
 2267SOL    HW118437   1.978   4.081  14.887 -0.0453  0.7462 -0.1465
 2267SOL    HW218438   2.000   4.057  14.738 -0.5157 -0.4230  0.3451
 2268SOL     OW18439   4.237   1.822   2.982  0.0626 -0.2541 -0.4446
 2268SOL    HW118440   4.208   1.892   2.924 -3.4365 -0.6082  0.8930
 2268SOL    HW218441   4.310   1.784   2.933  0.2159 -0.5345  0.0014
 2269SOL     OW18442   1.283   2.719  17.677  0.5575  0.3985  0.6485
 2269SOL    HW118443   1.340   2.696   0.007 -1.7744 -2.5166  1.5869
 2269SOL    HW218444   1.205   2.668  17.697  0.6162 -0.8807 -2.3399
 2270SOL     OW18445   1.319   2.288   5.594  0.4842  0.2588 -0.2369
 2270SOL    HW118446   1.304   2.342   5.672  0.3582 -0.5506  0.3138
 2270SOL    HW218447   1.271   2.209   5.621 -0.7821  1.0274 -0.2496
 2271SOL     OW18448   2.227   4.361   2.085 -0.4767  0.3823  0.2893
 2271SOL    HW118449   2.254   4.288   2.140 -1.0914 -0.6221 -0.7537
 2271SOL    HW218450   2.304   4.418   2.094  0.0141 -0.2356  0.0389
 2272SOL     OW18451   4.504   3.599  11.949 -0.4408  0.0200 -0.5726
 2272SOL    HW118452   4.492   3.592  12.044  0.9050 -0.7946 -0.4655
 2272SOL    HW218453   4.597   3.591  11.928  0.2625 -1.4647  3.0812
 2273SOL     OW18454   2.287   4.572   3.149  0.1126  0.8411  0.3967
 2273SOL    HW118455   2.197   4.583   3.118  0.5983  1.6799 -0.7138
 2273SOL    HW218456   2.334   4.631   3.089  0.2716 -1.7662 -2.0832
 2274SOL     OW18457   2.171   2.469   7.502  0.3670  0.0131  0.2762
 2274SOL    HW118458   2.160   2.417   7.582 -2.1588  1.2609  0.7255
 2274SOL    HW218459   2.150   2.407   7.433  0.3017  1.3445 -0.9058
 2275SOL     OW18460   2.056   3.352  14.966 -0.2484 -0.8866 -0.3057
 2275SOL    HW118461   2.136   3.339  15.016 -0.5050  0.5710  0.4882
 2275SOL    HW218462   2.029   3.260  14.964  0.1319 -1.0262  1.0332
 2276SOL     OW18463   1.827   0.829   6.923 -0.0419 -0.2071  0.1701
 2276SOL    HW118464   1.793   0.906   6.876  0.8348 -0.5634 -1.0688
 2276SOL    HW218465   1.752   0.787   6.963 -0.3886  0.5329  0.2937
 2277SOL     OW18466   2.294   3.124   2.326 -0.0306 -0.0309 -0.0147
 2277SOL    HW118467   2.310   3.036   2.293 -0.2035  0.6888 -1.9758
 2277SOL    HW218468   2.370   3.169   2.289 -0.4274 -0.2191 -1.0569
 2278SOL     OW18469   0.431   3.436   4.401 -0.0380  0.5586 -0.0663
 2278SOL    HW118470   0.356   3.464   4.454  0.9150 -0.5625  1.8717
 2278SOL    HW218471   0.434   3.341   4.418 -0.9881  0.2865 -1.4431
 2279SOL     OW18472   1.772   0.231   4.019 -0.4184 -0.3744 -0.2296
 2279SOL    HW118473   1.833   0.243   3.947  1.9549 -1.5498  1.6120
 2279SOL    HW218474   1.725   0.149   4.000 -0.0917 -0.5162 -0.4267
 2280SOL     OW18475   0.869   4.664  13.176 -0.2753 -0.1498 -0.2341
 2280SOL    HW118476   0.891   4.725  13.247  0.1918  0.8355 -1.2160
 2280SOL    HW218477   0.869   4.578  13.216  0.6209 -0.7745 -1.5784
 2281SOL     OW18478   1.811   2.307   3.906  0.3725  0.5897 -0.2847
 2281SOL    HW118479   1.752   2.320   3.832 -1.5913 -0.8851  1.0149
 2281SOL    HW218480   1.757   2.269   3.975  1.1047  0.6262  0.3122
 2282SOL     OW18481   0.730   2.919   3.838 -0.2083  0.0914  0.2224
 2282SOL    HW118482   0.810   2.952   3.878 -0.3743  0.0985  0.5534
 2282SOL    HW218483   0.676   2.996   3.817  1.0263  0.8637 -0.0765
 2283SOL     OW18484   4.040   2.112   4.831  0.0480 -0.1673  0.3272
 2283SOL    HW118485   4.055   2.177   4.901 -0.3316  0.2409  0.0293
 2283SOL    HW218486   3.945   2.107   4.826 -0.0202 -0.6981  2.0068
 2284SOL     OW18487   0.128   4.597   3.014  0.5744 -0.0689  0.2382
 2284SOL    HW118488   0.055   4.593   2.953 -0.2113 -0.9989  1.2484
 2284SOL    HW218489   0.184   4.656   2.962  0.2281 -2.1208 -2.4817
 2285SOL     OW18490   1.512   0.066  15.575 -0.0252  0.0308  0.1621
 2285SOL    HW118491   1.480   4.731  15.631 -3.1656 -0.6337 -2.4693
 2285SOL    HW218492   1.542   0.019  15.497 -1.8212 -0.0121 -0.4866
 2286SOL     OW18493   2.842   1.257   1.967  0.2119  0.7230  0.2163
 2286SOL    HW118494   2.866   1.181   2.021  1.7157  1.3517  0.4482
 2286SOL    HW218495   2.919   1.314   1.966 -0.0151  1.0699  1.5098
 2287SOL     OW18496   1.590   4.340  13.646  0.4002 -0.1339  0.0086
 2287SOL    HW118497   1.598   4.312  13.737  1.1080 -0.7609 -0.2386
 2287SOL    HW218498   1.548   4.266  13.602  0.5670 -1.2203  1.6687
 2288SOL     OW18499   1.712   1.129   8.615 -0.4779  0.2078 -0.1203
 2288SOL    HW118500   1.650   1.198   8.641  0.4505  1.5047 -1.3981
 2288SOL    HW218501   1.664   1.057   8.656  2.0652 -0.9243  0.8059
 2289SOL     OW18502   4.237   3.935  17.740 -0.2766 -0.3055  0.1034
 2289SOL    HW118503   4.192   4.006  17.693  2.4287  0.1898 -1.7633
 2289SOL    HW218504   4.218   3.949   0.090  1.8943 -0.3420  0.5446
 2290SOL     OW18505   3.791   1.739   4.832 -0.3090  0.0231  0.0615
 2290SOL    HW118506   3.765   1.657   4.875  0.7753 -0.8240 -0.8759
 2290SOL    HW218507   3.872   1.709   4.790  0.2188  0.3360  0.8406
 2291SOL     OW18508   1.005   1.657  11.461 -0.1870 -0.5335 -0.4604
 2291SOL    HW118509   0.931   1.715  11.441  0.1815  0.5850  1.5178
 2291SOL    HW218510   1.045   1.711  11.529 -1.1907 -0.4047  0.0270
 2292SOL     OW18511   4.196   4.116  15.872 -0.1160 -0.5759  0.0123
 2292SOL    HW118512   4.128   4.147  15.933 -2.0197 -2.8338 -0.9499
 2292SOL    HW218513   4.147   4.049  15.825  0.2498 -1.0002  0.2339
 2293SOL     OW18514   1.263   1.187   2.695  0.4355  0.1426 -0.3534
 2293SOL    HW118515   1.171   1.189   2.720  0.8090  2.0909  0.8771
 2293SOL    HW218516   1.264   1.101   2.652  1.5983  0.2673 -0.5730
 2294SOL     OW18517   1.622   0.477  16.918  0.1017  0.5534  0.1385
 2294SOL    HW118518   1.533   0.512  16.919 -0.0948  0.0379  1.1465
 2294SOL    HW218519   1.606   0.391  16.958  1.5277 -0.5953 -1.7303
 2295SOL     OW18520   1.166   1.538  10.436  0.3637  0.1709  0.1337
 2295SOL    HW118521   1.174   1.535  10.531  0.1125  1.5734  0.1995
 2295SOL    HW218522   1.182   1.445  10.418  0.2983  0.3408 -0.8087
 2296SOL     OW18523   2.040   2.005  15.936 -0.1407 -0.3087  0.4655
 2296SOL    HW118524   2.080   1.961  16.011  0.8616  1.5297  1.0164
 2296SOL    HW218525   2.115   2.051  15.898 -1.4452  1.1568 -0.3850
 2297SOL     OW18526   1.747   2.381   2.608 -0.2543 -0.2563  0.2382
 2297SOL    HW118527   1.657   2.400   2.584  0.5400  0.8439 -1.8796
 2297SOL    HW218528   1.783   2.374   2.519 -2.0964 -2.2057 -0.3365
 2298SOL     OW18529   0.621   4.675   3.219 -0.5306  0.2992 -0.4530
 2298SOL    HW118530   0.602   4.696   3.127  0.4665 -2.0888 -1.2029
 2298SOL    HW218531   0.697   4.733   3.231 -1.6406  1.3457  1.5373
 2299SOL     OW18532   4.230   3.646   0.311  0.4590  0.3617  0.8233
 2299SOL    HW118533   4.254   3.669   0.221  0.2069  2.0079  1.1816
 2299SOL    HW218534   4.298   3.582   0.335  1.6981  0.9029 -1.2514
 2300SOL     OW18535   3.529   0.628   8.241 -0.2283  0.0721  0.0199
 2300SOL    HW118536   3.552   0.668   8.325  0.0109 -0.6261  0.2814
 2300SOL    HW218537   3.576   0.686   8.180  2.4578  0.1835  2.2063
 2301SOL     OW18538   3.130   0.171   2.000 -0.2957  0.5711  0.3998
 2301SOL    HW118539   3.206   0.211   1.958  0.6224 -1.4404  0.1475
 2301SOL    HW218540   3.104   0.228   2.073  0.7310  3.6113 -1.5745
 2302SOL     OW18541   1.230   3.565  10.483 -0.1727  0.2875 -0.2331
 2302SOL    HW118542   1.221   3.560  10.578 -1.7517 -3.1176 -0.5654
 2302SOL    HW218543   1.247   3.473  10.463 -1.4162  0.3020 -1.3058
 2303SOL     OW18544   1.508   3.305   2.384 -0.1212 -0.0117 -1.0443
 2303SOL    HW118545   1.566   3.261   2.323 -0.7307 -0.7112 -1.1079
 2303SOL    HW218546   1.559   3.295   2.465  1.7229 -0.3028 -2.2532
 2304SOL     OW18547   4.685   0.601   7.655 -0.5553  0.3240 -0.2779
 2304SOL    HW118548   4.712   0.693   7.649  0.3081  0.0817 -0.2373
 2304SOL    HW218549   4.698   0.585   7.748  2.0560  0.4225 -0.6120
 2305SOL     OW18550   1.648   3.150   7.968  0.1285 -0.0385 -0.4213
 2305SOL    HW118551   1.583   3.080   7.962 -0.4408  0.5790 -1.5118
 2305SOL    HW218552   1.617   3.192   8.048  3.1358 -2.1129  1.8377
 2306SOL     OW18553   4.383   1.382   3.617  0.2824 -0.1140  0.3223
 2306SOL    HW118554   4.351   1.312   3.673  0.1481  1.0360  1.6909
 2306SOL    HW218555   4.421   1.339   3.541 -0.2806  3.0052 -1.7199
 2307SOL     OW18556   4.430   3.834  14.726  0.1187  0.4919  0.4374
 2307SOL    HW118557   4.503   3.826  14.788  2.2344  2.0403 -1.8599
 2307SOL    HW218558   4.473   3.883  14.656 -0.8307  1.7352  0.7140
 2308SOL     OW18559   2.906   1.983  12.086  0.1496  0.1738 -0.2564
 2308SOL    HW118560   2.958   1.991  12.166 -1.0943  1.6772  0.4134
 2308SOL    HW218561   2.828   2.006  12.136 -0.6445 -0.3757 -1.2353
 2309SOL     OW18562   2.562   3.693  11.261 -0.2754 -0.2599  0.3677
 2309SOL    HW118563   2.559   3.686  11.165 -0.3625 -0.2412  0.3691
 2309SOL    HW218564   2.572   3.601  11.285 -1.1008 -0.4169  0.1220
 2310SOL     OW18565   0.858   0.159  13.754  0.6726 -0.4383  0.6959
 2310SOL    HW118566   0.809   0.240  13.741  1.9258  0.1938 -0.0572
 2310SOL    HW218567   0.938   0.178  13.705 -0.1427 -0.5069 -0.6669
 2311SOL     OW18568   0.521   1.764   6.780 -0.3840  0.6507 -0.0641
 2311SOL    HW118569   0.462   1.831   6.747 -1.9530 -0.8063 -0.2315
 2311SOL    HW218570   0.605   1.795   6.748  0.6728 -2.6293 -0.4221
 2312SOL     OW18571   2.321   3.005  14.620  0.2833  0.3885  0.4196
 2312SOL    HW118572   2.361   3.015  14.706  0.1647  1.4981  0.3492
 2312SOL    HW218573   2.234   2.983  14.653  0.6724 -0.8938  0.5536
 2313SOL     OW18574   4.275   4.353   0.742  0.2367  0.1850  0.3651
 2313SOL    HW118575   4.223   4.276   0.764 -0.6186  0.6952  0.1189
 2313SOL    HW218576   4.280   4.386   0.831  3.7020  0.3515  0.0988
 2314SOL     OW18577   4.152   1.557   9.657  0.1310 -0.3636  0.2246
 2314SOL    HW118578   4.192   1.606   9.729 -2.9117  1.7137  0.4663
 2314SOL    HW218579   4.177   1.470   9.687  0.5516  0.0649  1.1509
 2315SOL     OW18580   2.314   3.150  15.500 -0.0302 -0.2696  0.3999
 2315SOL    HW118581   2.358   3.097  15.434  0.8781  0.1275  0.6911
 2315SOL    HW218582   2.257   3.085  15.541 -0.4105 -0.0088  0.2861
 2316SOL     OW18583   4.164   2.020   1.005  0.7387 -0.1203  0.0028
 2316SOL    HW118584   4.157   1.939   0.955 -0.8932  0.3941 -0.6021
 2316SOL    HW218585   4.222   2.006   1.079 -0.8689  1.6199  1.5831
 2317SOL     OW18586   2.225   2.267   5.079  0.2978  0.0422 -0.0416
 2317SOL    HW118587   2.303   2.322   5.084 -0.0933  0.8268 -2.8517
 2317SOL    HW218588   2.259   2.178   5.093 -1.1041 -0.4664  0.1666
 2318SOL     OW18589   0.944   1.493  16.667 -0.0822 -0.1973 -0.5205
 2318SOL    HW118590   0.870   1.554  16.671 -0.6940 -0.8838 -1.3194
 2318SOL    HW218591   0.914   1.419  16.720  0.8688 -0.6604 -0.6350
 2319SOL     OW18592   0.646   0.845   4.286  1.1766 -0.0268  0.1392
 2319SOL    HW118593   0.587   0.878   4.219 -0.2671 -2.0571  0.4162
 2319SOL    HW218594   0.609   0.867   4.372 -0.6091 -1.9846 -0.1206
 2320SOL     OW18595   2.281   0.937   3.506  0.3710 -0.0615  0.1684
 2320SOL    HW118596   2.267   1.000   3.578 -0.6089 -1.3775  1.1296
 2320SOL    HW218597   2.216   0.968   3.443  1.7557 -2.5683 -2.4353
 2321SOL     OW18598   2.942   3.290   8.225 -0.3471  0.1104 -0.4315
 2321SOL    HW118599   2.856   3.250   8.210  0.0090 -0.1090 -1.8496
 2321SOL    HW218600   2.922   3.382   8.243  0.6256  0.8301 -3.0940
 2322SOL     OW18601   3.326   2.263   5.252  0.2523  0.0773 -0.1310
 2322SOL    HW118602   3.252   2.214   5.216 -1.9542  2.0633  1.6711
 2322SOL    HW218603   3.293   2.349   5.226 -0.5761 -0.0584  0.4614
 2323SOL     OW18604   2.350   2.749   6.358 -0.4265  0.6599 -0.0386
 2323SOL    HW118605   2.390   2.773   6.274  1.6626 -0.2792  0.6936
 2323SOL    HW218606   2.269   2.718   6.318 -0.0365 -0.4130  0.0239
 2324SOL     OW18607   3.422   1.658  14.352  0.1803 -0.1778  0.1958
 2324SOL    HW118608   3.392   1.704  14.273  0.5303  1.0661  0.7851
 2324SOL    HW218609   3.369   1.578  14.345 -1.2391  0.5525  2.4353
 2325SOL     OW18610   0.205   4.656   8.492  0.2437 -0.1157  0.3554
 2325SOL    HW118611   0.297   4.682   8.485 -0.0938  0.8766 -0.4533
 2325SOL    HW218612   0.205   4.570   8.449 -0.0466 -0.3543  0.8309
 2326SOL     OW18613   0.324   2.901   7.757  0.1896 -0.9189  0.0905
 2326SOL    HW118614   0.327   2.941   7.670 -1.4124 -2.0334 -0.4662
 2326SOL    HW218615   0.327   2.808   7.735  0.4523 -1.1629  1.1303
 2327SOL     OW18616   3.394   2.338   6.381 -0.1124  0.1374  0.1457
 2327SOL    HW118617   3.414   2.348   6.474  1.7733  0.3286 -0.2740
 2327SOL    HW218618   3.305   2.303   6.383 -0.6041  1.2009 -2.6442
 2328SOL     OW18619   2.708   4.526   5.311 -0.8572 -0.2617  0.1632
 2328SOL    HW118620   2.769   4.486   5.249  0.4480  1.8368  0.0659
 2328SOL    HW218621   2.683   4.608   5.269 -0.2444 -0.1793 -0.0492
 2329SOL     OW18622   0.412   3.149  11.178  0.3798 -0.1563  0.2313
 2329SOL    HW118623   0.456   3.085  11.121  2.3671  0.9215  0.5566
 2329SOL    HW218624   0.415   3.090  11.253 -2.8101 -0.8840 -0.2028
 2330SOL     OW18625   3.443   3.449   6.723 -0.0328  0.5997  0.2944
 2330SOL    HW118626   3.400   3.419   6.642 -0.9148 -2.9403  2.0870
 2330SOL    HW218627   3.501   3.373   6.728  0.2791  0.8111 -0.0514
 2331SOL     OW18628   1.829   2.741   9.644  0.5562 -0.3593  0.1124
 2331SOL    HW118629   1.764   2.782   9.586  1.9113  2.3651  0.5418
 2331SOL    HW218630   1.785   2.705   9.721  0.4636  1.5095  0.9156
 2332SOL     OW18631   3.930   1.851   2.036  0.3539 -0.2648 -0.1093
 2332SOL    HW118632   3.964   1.827   2.122  0.7917  0.4970 -0.0702
 2332SOL    HW218633   4.012   1.866   1.990  1.2750  0.6870  1.8449
 2333SOL     OW18634   0.735   0.723  14.319 -0.1511  0.1795 -0.9012
 2333SOL    HW118635   0.782   0.669  14.256  1.0769 -0.4311  0.5618
 2333SOL    HW218636   0.667   0.770  14.269  1.3695  2.1089 -1.1678
 2334SOL     OW18637   0.715   4.196   9.076 -0.2326 -0.3141 -0.5860
 2334SOL    HW118638   0.796   4.151   9.101  0.2652  0.5748 -0.5862
 2334SOL    HW218639   0.748   4.226   8.992 -1.5616 -1.8580 -1.6494
 2335SOL     OW18640   3.559   2.543  10.661 -0.0656  0.1532  0.0971
 2335SOL    HW118641   3.513   2.567  10.581 -1.5758 -1.9618  0.3341
 2335SOL    HW218642   3.525   2.454  10.667  2.2967 -0.7757 -0.5560
 2336SOL     OW18643   0.619   2.536  15.552 -0.4421  0.3404  0.8013
 2336SOL    HW118644   0.632   2.479  15.476  0.6383 -0.4508  1.5902
 2336SOL    HW218645   0.608   2.616  15.501  3.9010  0.3506 -0.0927
 2337SOL     OW18646   0.872   1.838  15.067  0.6631  0.3720  0.1420
 2337SOL    HW118647   0.954   1.791  15.084  0.4241  0.1659  0.7465
 2337SOL    HW218648   0.867   1.840  14.972 -0.0366  2.3342  0.2302
 2338SOL     OW18649   3.535   1.218   3.551 -0.3372  0.6092  0.1244
 2338SOL    HW118650   3.573   1.134   3.525 -0.3047  0.6356  0.0869
 2338SOL    HW218651   3.441   1.203   3.554  0.1746 -1.7658  4.3385
 2339SOL     OW18652   1.641   4.524   0.846  0.3769  0.4171  0.5533
 2339SOL    HW118653   1.617   4.529   0.938 -1.2352 -1.3395  0.2366
 2339SOL    HW218654   1.577   4.456   0.827  1.1991  0.0040 -0.7843
 2340SOL     OW18655   1.724   1.608   0.805  0.1798  0.2563  0.3238
 2340SOL    HW118656   1.727   1.629   0.899  0.7996  2.6921 -0.2359
 2340SOL    HW218657   1.786   1.536   0.799  1.5912  1.8171 -3.7803
 2341SOL     OW18658   2.272   3.118   4.877  0.0224 -0.5746 -0.6072
 2341SOL    HW118659   2.349   3.064   4.862 -0.8176 -1.8999 -0.1782
 2341SOL    HW218660   2.232   3.121   4.790 -0.5278  1.4589 -0.2990
 2342SOL     OW18661   1.476   3.460   8.302  0.8282 -0.2951  0.1427
 2342SOL    HW118662   1.381   3.450   8.297  0.5786  2.3755 -0.5432
 2342SOL    HW218663   1.488   3.469   8.396 -1.6081 -2.3657  0.6502
 2343SOL     OW18664   0.540   0.461   5.121  0.6204 -0.0054  0.3330
 2343SOL    HW118665   0.565   0.396   5.056 -2.8114 -1.6442  0.6674
 2343SOL    HW218666   0.616   0.518   5.110  1.3885 -0.9293  0.8991
 2344SOL     OW18667   0.572   1.683  15.572 -0.2311  0.4983 -0.4514
 2344SOL    HW118668   0.485   1.652  15.549 -0.0850 -0.2408 -0.0091
 2344SOL    HW218669   0.612   1.646  15.493 -0.5866  0.7613 -0.7552
 2345SOL     OW18670   0.536   3.540   8.417 -0.2636  0.2489 -0.4131
 2345SOL    HW118671   0.549   3.469   8.480  0.1301  0.4380 -0.2794
 2345SOL    HW218672   0.467   3.586   8.465  1.5878  0.9995  1.5248
 2346SOL     OW18673   4.115   1.569   7.601 -0.4506  0.1997 -0.0532
 2346SOL    HW118674   4.050   1.511   7.639  2.0362 -2.9466 -0.5516
 2346SOL    HW218675   4.152   1.618   7.674 -1.9810  1.0443  0.1511
 2347SOL     OW18676   3.759   0.518   7.537 -0.2197  0.6785  0.1700
 2347SOL    HW118677   3.739   0.551   7.625 -0.0418  3.8318 -0.9912
 2347SOL    HW218678   3.689   0.562   7.488 -0.5061  1.5343  1.3574
 2348SOL     OW18679   0.051   0.391   6.343  0.0566  0.6458  0.2076
 2348SOL    HW118680   0.122   0.377   6.280 -2.6683 -2.1942 -2.2704
 2348SOL    HW218681   4.729   0.319   6.316 -0.6795  1.1730  0.3739
 2349SOL     OW18682   2.786   4.234   4.243  0.8852  0.4937  0.2857
 2349SOL    HW118683   2.845   4.213   4.316 -0.4350 -0.3412  1.1101
 2349SOL    HW218684   2.854   4.276   4.190 -0.8862 -0.4121 -2.7266
 2350SOL     OW18685   0.764   1.970   1.387  0.6908 -0.3542 -0.2612
 2350SOL    HW118686   0.847   2.018   1.396 -0.1998  1.4064 -1.5128
 2350SOL    HW218687   0.759   1.931   1.475  1.0158  2.5576  1.0624
 2351SOL     OW18688   0.706   1.914   6.331 -0.0357  0.1247 -0.2147
 2351SOL    HW118689   0.774   1.877   6.273  0.1842 -0.2067  0.2584
 2351SOL    HW218690   0.769   1.972   6.375 -1.9677  1.2290  1.0917
 2352SOL     OW18691   2.468   0.268   4.408 -0.0329 -0.3508 -0.0036
 2352SOL    HW118692   2.513   0.316   4.339 -2.7637  0.1114 -1.4654
 2352SOL    HW218693   2.377   0.266   4.378 -0.0502  0.4746 -0.0144
 2353SOL     OW18694   4.685   1.060   0.551 -0.3869  0.8005  0.2982
 2353SOL    HW118695   4.679   1.148   0.587 -0.2064  0.8873  0.1159
 2353SOL    HW218696   4.603   1.055   0.503  0.2928  2.1740 -0.9985
 2354SOL     OW18697   3.704   0.814   5.775 -0.1308  0.3912  0.1667
 2354SOL    HW118698   3.685   0.908   5.772 -1.6778  0.0834  0.1456
 2354SOL    HW218699   3.778   0.808   5.715 -1.0891  1.6442 -1.1446
 2355SOL     OW18700   4.702   2.456   7.536  0.1942  0.3759  0.0648
 2355SOL    HW118701   4.704   2.393   7.463 -1.3027  0.5391 -0.1077
 2355SOL    HW218702   4.632   2.516   7.511 -0.9059 -0.8144  0.2315
 2356SOL     OW18703   4.077   0.101   4.431  0.0067 -0.2160  0.7677
 2356SOL    HW118704   4.110   0.081   4.518  0.7519 -1.2219  0.2572
 2356SOL    HW218705   4.133   0.164   4.385 -0.9005 -0.3605 -0.5492
 2357SOL     OW18706   3.388   1.012   4.287  0.2070  0.0555 -0.3749
 2357SOL    HW118707   3.433   1.097   4.289 -0.6009  0.4165  2.2897
 2357SOL    HW218708   3.409   0.975   4.372  0.4934 -0.5840 -0.7179
 2358SOL     OW18709   1.385   2.630  14.650  0.3364 -0.1710 -0.2143
 2358SOL    HW118710   1.353   2.719  14.634  1.6284  0.1589 -0.8930
 2358SOL    HW218711   1.425   2.627  14.737  1.0976 -0.1456 -0.5662
 2359SOL     OW18712   2.970   0.170   7.241 -0.4757  0.4407 -0.0209
 2359SOL    HW118713   3.021   0.179   7.322 -0.4704  1.9303 -0.1914
 2359SOL    HW218714   2.889   0.134   7.276  0.3822 -0.9172  0.5928
 2360SOL     OW18715   1.389   3.050   4.630 -0.7331 -0.4156  0.5779
 2360SOL    HW118716   1.414   3.135   4.666  0.6937 -0.2561 -0.7872
 2360SOL    HW218717   1.293   3.051   4.637 -0.7853  3.2137 -0.6738
 2361SOL     OW18718   2.763   4.442  10.022  0.7208 -0.3550  0.1573
 2361SOL    HW118719   2.779   4.423  10.114 -0.0500 -0.8410  0.1951
 2361SOL    HW218720   2.780   4.536  10.026 -1.3522  0.0022  0.3940
 2362SOL     OW18721   1.649   2.827   0.915 -0.0287  0.1098 -0.3792
 2362SOL    HW118722   1.578   2.871   0.962  0.5406 -0.1100  0.6854
 2362SOL    HW218723   1.720   2.806   0.976 -1.3247  0.1828  1.1678
 2363SOL     OW18724   1.023   4.377  15.142  0.5858 -0.2120 -0.2154
 2363SOL    HW118725   1.086   4.449  15.130 -0.3393  0.9543  1.8527
 2363SOL    HW218726   0.947   4.399  15.089  1.3613  2.4118 -0.2566
 2364SOL     OW18727   1.653   4.073   3.311 -0.2837 -0.1001 -0.2610
 2364SOL    HW118728   1.608   4.112   3.235  0.1455 -0.1410 -0.5329
 2364SOL    HW218729   1.701   4.151   3.340 -2.1001  1.1189 -0.4854
 2365SOL     OW18730   3.779   2.855  10.703 -0.3239 -0.3853  0.0107
 2365SOL    HW118731   3.845   2.872  10.769 -1.0551  1.3028  0.3052
 2365SOL    HW218732   3.708   2.916  10.722 -0.2961 -0.7375  1.2168
 2366SOL     OW18733   3.341   3.878   7.409 -0.1657  0.0928  0.2225
 2366SOL    HW118734   3.305   3.831   7.484  1.3129  1.1739  1.5930
 2366SOL    HW218735   3.423   3.906   7.448 -0.3289  1.9607 -0.7732
 2367SOL     OW18736   0.970   3.077   3.206 -1.1478  0.3399 -0.0658
 2367SOL    HW118737   1.040   3.019   3.176 -0.9696  0.0906  0.8150
 2367SOL    HW218738   1.025   3.154   3.225 -2.0272  1.1123 -0.6660
 2368SOL     OW18739   0.705   2.602  10.397  0.2765  0.1275 -0.4331
 2368SOL    HW118740   0.718   2.609  10.303 -1.2938  1.5951 -0.5551
 2368SOL    HW218741   0.791   2.628  10.430  0.2960  2.1217 -2.0666
 2369SOL     OW18742   0.909   4.038   7.459 -0.1716 -0.2428  0.3069
 2369SOL    HW118743   0.814   4.032   7.469 -0.2567 -0.1224 -0.3807
 2369SOL    HW218744   0.932   4.111   7.516 -2.5202 -0.4099  1.4779
 2370SOL     OW18745   0.156   2.592   3.982  0.3151  0.1340 -0.2045
 2370SOL    HW118746   0.081   2.611   3.926  0.9445  2.3198 -0.2782
 2370SOL    HW218747   0.203   2.529   3.928  0.5726 -0.1612  0.3657
 2371SOL     OW18748   4.399   1.522   7.182  0.0528 -0.3174  0.5040
 2371SOL    HW118749   4.364   1.566   7.104 -0.3602 -1.3453  0.1062
 2371SOL    HW218750   4.318   1.478   7.207 -0.7980  0.5425 -0.7333
 2372SOL     OW18751   3.043   0.409   0.224 -0.0685 -0.4177 -0.2889
 2372SOL    HW118752   3.030   0.504   0.235  2.3709 -0.2677  1.3006
 2372SOL    HW218753   3.123   0.405   0.172  0.8938  0.2673  1.1369
 2373SOL     OW18754   4.628   1.260   3.852 -0.5955 -0.0544  0.0841
 2373SOL    HW118755   4.587   1.310   3.923 -3.8181 -0.8418 -1.2186
 2373SOL    HW218756   4.693   1.212   3.903  0.2523  1.7960  0.7425
 2374SOL     OW18757   1.022   0.464   6.134  0.1631 -0.3150 -0.1150
 2374SOL    HW118758   0.999   0.543   6.086 -0.3252  1.0438  2.3280
 2374SOL    HW218759   0.966   0.470   6.211  0.6444 -2.0942  0.3783
 2375SOL     OW18760   2.404   2.265   6.101  0.1412 -0.2363 -0.1305
 2375SOL    HW118761   2.420   2.359   6.095  0.1632 -0.2879 -0.8935
 2375SOL    HW218762   2.404   2.234   6.011  0.5721 -1.4446  0.2853
 2376SOL     OW18763   3.464   1.894  13.671  0.2863 -0.2744  0.5954
 2376SOL    HW118764   3.501   1.982  13.676  1.4137 -0.7960  1.3438
 2376SOL    HW218765   3.379   1.908  13.713 -0.4618 -1.0914 -0.6306
 2377SOL     OW18766   0.103   4.634   8.108 -0.2343 -0.2645 -0.4600
 2377SOL    HW118767   0.051   4.582   8.047  0.5048 -1.2737 -0.2429
 2377SOL    HW218768   0.044   4.707   8.128 -2.4425 -2.2286  0.1730
 2378SOL     OW18769   0.885   2.386  11.267  0.3177 -0.2410 -0.0449
 2378SOL    HW118770   0.923   2.319  11.210  1.7248 -0.0427  0.6562
 2378SOL    HW218771   0.814   2.414  11.210 -0.1056 -0.8751  0.1720
 2379SOL     OW18772   2.287   2.630  14.700 -0.0559 -0.3614  0.4766
 2379SOL    HW118773   2.367   2.628  14.648 -0.4540  0.8390 -0.1707
 2379SOL    HW218774   2.307   2.673  14.783  0.2231  0.4114  0.0089
 2380SOL     OW18775   0.571   3.866   5.016  0.3769 -0.2457 -0.0977
 2380SOL    HW118776   0.486   3.908   5.023  0.1990 -0.5468 -0.4220
 2380SOL    HW218777   0.552   3.772   5.010 -0.9455  0.0248 -0.1839
 2381SOL     OW18778   1.642   3.453   5.537  0.1380 -0.1774  0.1224
 2381SOL    HW118779   1.631   3.443   5.632 -1.0491  0.8401  0.0887
 2381SOL    HW218780   1.554   3.440   5.503 -0.8085 -0.3389  2.6292
 2382SOL     OW18781   4.339   0.017   5.655 -0.3143 -0.4610  0.5842
 2382SOL    HW118782   4.404   4.696   5.613 -1.1357 -1.2086  0.3172
 2382SOL    HW218783   4.300   0.063   5.581  1.4541 -2.0128 -1.3242
 2383SOL     OW18784   4.481   1.821   4.804 -0.3520 -0.6499  0.4602
 2383SOL    HW118785   4.405   1.854   4.851  0.4110 -1.0858  1.9963
 2383SOL    HW218786   4.472   1.725   4.806  1.8130 -0.9023 -1.6369
 2384SOL     OW18787   3.271   0.472   3.206 -0.1409 -0.1353  0.3343
 2384SOL    HW118788   3.179   0.444   3.215 -0.0132 -0.3728  0.8833
 2384SOL    HW218789   3.296   0.428   3.124 -2.8411 -0.1863 -0.4828
 2385SOL     OW18790   4.370   2.150   4.176 -0.9827 -0.3926  0.2347
 2385SOL    HW118791   4.417   2.233   4.190 -1.4972  0.1541 -1.2917
 2385SOL    HW218792   4.443   2.089   4.164 -0.1378  0.3171  1.7404
 2386SOL     OW18793   3.724   0.148   3.862  0.1854 -0.0551  0.0661
 2386SOL    HW118794   3.767   0.193   3.789  1.8691 -0.4962  0.7885
 2386SOL    HW218795   3.636   0.153   3.824 -0.7016 -1.1540  1.9997
 2387SOL     OW18796   0.538   2.118   2.252 -0.0968 -0.0067  0.5400
 2387SOL    HW118797   0.472   2.051   2.269  0.4651 -0.3628  1.2930
 2387SOL    HW218798   0.517   2.191   2.310 -2.8772 -0.3309 -0.0429
 2388SOL     OW18799   4.642   4.202  12.407  0.4827  0.3135 -0.1662
 2388SOL    HW118800   4.556   4.225  12.441  0.2132  1.1774 -1.4470
 2388SOL    HW218801   4.640   4.272  12.343 -1.2635  1.0860  0.7399
 2389SOL     OW18802   4.570   0.629   2.252 -0.1113  1.0061  0.5831
 2389SOL    HW118803   4.603   0.666   2.170  0.5402  0.6784  0.7001
 2389SOL    HW218804   4.483   0.609   2.219 -0.0033  2.5636 -0.6723
 2390SOL     OW18805   3.748   2.186   2.764 -0.2036  0.6760 -0.7060
 2390SOL    HW118806   3.689   2.259   2.783 -0.5808  0.2315 -0.1588
 2390SOL    HW218807   3.835   2.223   2.776 -0.2278  0.3320  0.5706
 2391SOL     OW18808   4.623   2.065   8.782 -0.0341 -0.1914  0.5617
 2391SOL    HW118809   4.632   2.021   8.698  3.5891 -0.0020  0.8207
 2391SOL    HW218810   4.544   2.117   8.770  0.2521  0.4773  1.5438
 2392SOL     OW18811   3.282   4.038   8.293  0.5265  0.1570 -0.3344
 2392SOL    HW118812   3.208   3.978   8.300  0.5966  0.3113  1.8956
 2392SOL    HW218813   3.348   3.981   8.333 -0.1639 -0.4448 -0.0654
 2393SOL     OW18814   0.068   3.428  16.465 -0.2965 -0.2452 -0.2358
 2393SOL    HW118815   0.050   3.491  16.536 -0.4492 -1.3813  0.7310
 2393SOL    HW218816   0.152   3.458  16.430 -1.0049  0.4765 -1.3194
 2394SOL     OW18817   0.071   0.851   6.974 -0.2011 -0.1717  0.3585
 2394SOL    HW118818   0.080   0.757   6.959  0.5047 -0.1438  0.5963
 2394SOL    HW218819   0.158   0.874   7.007  0.7285  0.9919 -2.9251
 2395SOL     OW18820   1.883   4.581   4.618 -0.1596  0.1405 -0.2407
 2395SOL    HW118821   1.969   4.541   4.627  0.1251  0.9873  0.8394
 2395SOL    HW218822   1.833   4.509   4.580 -0.7756  0.2530  0.3560
 2396SOL     OW18823   2.491   4.349   8.180  0.3819  0.2632 -0.3781
 2396SOL    HW118824   2.483   4.407   8.105  1.8071  0.0712 -0.6791
 2396SOL    HW218825   2.527   4.279   8.125 -1.9055  1.9190 -3.9318
 2397SOL     OW18826   1.588   3.267   2.861 -0.0143 -0.3474 -0.3622
 2397SOL    HW118827   1.600   3.362   2.871  0.2810 -0.4944  0.6738
 2397SOL    HW218828   1.494   3.266   2.843 -0.3197  0.1285  1.2289
 2398SOL     OW18829   0.794   3.100   7.680  0.0951 -0.2280 -0.2626
 2398SOL    HW118830   0.726   3.138   7.625 -1.6369 -3.0384 -0.0386
 2398SOL    HW218831   0.818   3.028   7.622  1.0558 -0.1281  0.0117
 2399SOL     OW18832   3.695   3.762  11.621 -0.3944 -0.6709 -0.1124
 2399SOL    HW118833   3.628   3.698  11.596 -1.3434 -0.4169  1.7790
 2399SOL    HW218834   3.732   3.719  11.698 -0.5141  0.4035  0.5471
 2400SOL     OW18835   3.152   3.498  10.798  0.4786 -0.3320 -0.0511
 2400SOL    HW118836   3.180   3.560  10.865  0.0178 -1.2008  0.9429
 2400SOL    HW218837   3.086   3.549  10.751 -0.8845 -2.3462 -0.3133
 2401SOL     OW18838   4.682   1.032   7.106 -0.3913 -0.1833  0.0812
 2401SOL    HW118839   0.010   0.977   7.062  0.1682 -0.2868  1.0276
 2401SOL    HW218840   4.606   1.009   7.053  0.2937 -0.9774 -0.5512
 2402SOL     OW18841   1.168   3.743   6.091 -0.0511  0.3559 -0.3367
 2402SOL    HW118842   1.113   3.687   6.146  0.7902 -0.4327 -0.3120
 2402SOL    HW218843   1.174   3.826   6.137  2.2724  0.7738 -1.3861
 2403SOL     OW18844   2.533   2.638   3.960  0.0281 -0.2015  0.4345
 2403SOL    HW118845   2.462   2.670   4.015 -0.8785  0.3413 -1.0452
 2403SOL    HW218846   2.580   2.713   3.924  0.2135 -1.0287 -1.0653
 2404SOL     OW18847   3.103   3.103   8.995 -0.1822 -0.4423  0.6406
 2404SOL    HW118848   3.179   3.158   9.016  0.6063 -1.4758  0.4604
 2404SOL    HW218849   3.040   3.174   8.983  0.7380  0.5753  1.7164
 2405SOL     OW18850   1.829   2.964   9.100 -0.0433  0.5659  0.4701
 2405SOL    HW118851   1.766   3.021   9.145 -1.6422  0.8696 -2.1892
 2405SOL    HW218852   1.774   2.889   9.081  0.4638  0.1309  0.7180
 2406SOL     OW18853   1.189   2.697   1.288 -0.9471  0.0028  0.6091
 2406SOL    HW118854   1.181   2.738   1.202  2.6812 -0.4625  0.0254
 2406SOL    HW218855   1.137   2.618   1.276 -0.2827 -0.3043 -0.1970
 2407SOL     OW18856   4.051   1.418   2.836  0.2309 -0.0475 -0.2912
 2407SOL    HW118857   4.115   1.415   2.765  1.3489  2.1100  0.6343
 2407SOL    HW218858   3.972   1.378   2.799 -0.9040  1.6724  0.2544
 2408SOL     OW18859   1.119   0.404   0.161 -0.1594 -0.0849  0.3543
 2408SOL    HW118860   1.128   0.311   0.139 -1.3389 -0.2664  0.5955
 2408SOL    HW218861   1.195   0.440   0.117 -1.6673  0.4795 -1.7810
 2409SOL     OW18862   0.707   4.570   6.744 -0.1139  0.3097  0.1796
 2409SOL    HW118863   0.758   4.651   6.746  0.6589 -0.1618 -0.2617
 2409SOL    HW218864   0.697   4.560   6.838  2.1671 -0.3425  0.3452
 2410SOL     OW18865   0.506   0.009   2.991  0.2599 -0.3018 -0.2020
 2410SOL    HW118866   0.501   0.102   2.968 -0.2817 -0.3166 -0.1411
 2410SOL    HW218867   0.447   4.702   2.929  0.0811 -1.3643  0.7193
 2411SOL     OW18868   0.867   2.887   0.405 -0.3408 -0.5478 -0.2056
 2411SOL    HW118869   0.874   2.794   0.385  1.2137 -0.0472 -1.9361
 2411SOL    HW218870   0.825   2.892   0.491  1.9291 -2.6849  0.9998
 2412SOL     OW18871   4.530   4.684  11.177  0.4270 -0.2869  0.1274
 2412SOL    HW118872   4.587   4.631  11.121 -0.4063  1.4185 -2.3738
 2412SOL    HW218873   4.596   4.733  11.225  0.4398  0.0735 -0.2578
 2413SOL     OW18874   0.792   3.131   2.308  0.2331  0.0865 -0.2539
 2413SOL    HW118875   0.840   3.091   2.235 -1.0143 -1.2612 -0.3325
 2413SOL    HW218876   0.802   3.071   2.383 -1.3606  1.0734  0.7525
 2414SOL     OW18877   3.146   3.148   0.376 -0.1524 -0.2312  0.1604
 2414SOL    HW118878   3.155   3.065   0.330  1.0340  0.2897 -0.5446
 2414SOL    HW218879   3.188   3.204   0.311  2.3434 -0.8718  1.2260
 2415SOL     OW18880   2.338   0.580  11.742  0.2371 -0.3089  0.0246
 2415SOL    HW118881   2.397   0.646  11.778 -0.9765  1.6415 -1.6019
 2415SOL    HW218882   2.377   0.499  11.776 -0.0755  0.6836  2.7112
 2416SOL     OW18883   0.342   1.211  10.390  0.1284  0.3642 -0.1964
 2416SOL    HW118884   0.287   1.286  10.411  0.9851  1.3613 -1.5132
 2416SOL    HW218885   0.278   1.140  10.390 -1.8129  2.1398  1.4446
 2417SOL     OW18886   2.069   2.587   7.916 -0.4578  0.3161  0.1133
 2417SOL    HW118887   2.005   2.569   7.846  1.2531  1.6578 -1.7904
 2417SOL    HW218888   2.137   2.642   7.876 -1.1284  1.0417 -0.0278
 2418SOL     OW18889   2.943   3.185   5.518  0.1322  0.0354 -0.6067
 2418SOL    HW118890   2.850   3.207   5.510 -0.1925 -1.6769 -1.6535
 2418SOL    HW218891   2.930   3.100   5.561  2.9804  0.0371  0.2259
 2419SOL     OW18892   1.127   1.657   4.571  0.6911 -0.4304  0.1028
 2419SOL    HW118893   1.176   1.610   4.504  1.4520 -0.1801  0.4764
 2419SOL    HW218894   1.055   1.600   4.600  1.0779 -0.5798  0.7807
 2420SOL     OW18895   2.448   2.020   9.317  0.3973  0.9343  0.1460
 2420SOL    HW118896   2.366   2.061   9.289  0.0053 -0.0125 -0.0964
 2420SOL    HW218897   2.428   1.927   9.304 -2.0971  1.4870  0.0248
 2421SOL     OW18898   3.528   0.799   3.587  0.1276 -0.0188 -0.0496
 2421SOL    HW118899   3.447   0.790   3.537 -0.7325 -0.3243  1.3647
 2421SOL    HW218900   3.493   0.769   3.672 -0.9619  0.1923 -0.4301
 2422SOL     OW18901   2.453   0.288   6.989  0.4707  0.1470 -0.4942
 2422SOL    HW118902   2.488   0.245   7.067 -2.2324 -3.0238 -1.0016
 2422SOL    HW218903   2.514   0.275   6.916  1.0147 -2.0602  0.3413
 2423SOL     OW18904   3.420   0.513   1.986 -0.0298  0.0160 -0.4411
 2423SOL    HW118905   3.393   0.434   2.033  1.1817 -0.4466 -0.5172
 2423SOL    HW218906   3.509   0.527   2.018 -0.5325  0.8310  0.6094
 2424SOL     OW18907   1.795   3.405  10.438 -0.1648 -0.1097 -1.3441
 2424SOL    HW118908   1.745   3.341  10.388  0.4103 -0.4208 -1.5085
 2424SOL    HW218909   1.804   3.482  10.382  1.8883  0.9334  0.4225
 2425SOL     OW18910   4.049   3.570   5.548  0.1224 -0.5251  0.3825
 2425SOL    HW118911   4.024   3.658   5.518 -2.7734 -0.9770  1.4619
 2425SOL    HW218912   3.972   3.530   5.507 -0.0184 -1.8309  1.9308
 2426SOL     OW18913   2.951   0.711   6.833 -0.6763 -0.4385 -0.3618
 2426SOL    HW118914   3.007   0.694   6.909 -0.4410  1.1562 -0.1859
 2426SOL    HW218915   2.977   0.800   6.811 -1.8705  0.1664  0.7076
 2427SOL     OW18916   2.619   1.045   8.644  0.0206 -0.7059 -0.1742
 2427SOL    HW118917   2.596   1.121   8.696 -0.8488 -1.0146 -0.1136
 2427SOL    HW218918   2.536   1.034   8.597  0.6160  1.9967 -1.8604
 2428SOL     OW18919   2.514   0.021   0.358 -0.0957  0.6687  1.1199
 2428SOL    HW118920   2.428   0.012   0.400  0.3228 -1.2013  1.5931
 2428SOL    HW218921   2.503   4.708   0.276 -1.5038  1.2264  0.9765
 2429SOL     OW18922   0.142   0.181  10.276 -0.1771 -0.2983  0.2161
 2429SOL    HW118923   0.226   0.225  10.292 -1.2865  1.5222  0.9730
 2429SOL    HW218924   0.168   0.113  10.214  1.2789  1.8529 -1.5740
 2430SOL     OW18925   2.713   3.938  13.371 -0.3619  0.1602  0.3703
 2430SOL    HW118926   2.655   3.867  13.397  0.2201  0.0051  1.2480
 2430SOL    HW218927   2.764   3.957  13.450  1.6386  0.7585 -1.0517
 2431SOL     OW18928   4.231   2.259  16.239  0.0741 -0.0282 -0.1633
 2431SOL    HW118929   4.223   2.342  16.193  1.0560  0.3852  0.4063
 2431SOL    HW218930   4.152   2.251  16.293 -0.5743 -1.1279 -1.2667
 2432SOL     OW18931   2.622   1.516  11.836  0.2241 -0.2557  0.3064
 2432SOL    HW118932   2.647   1.609  11.839  1.2190 -0.5574  1.1420
 2432SOL    HW218933   2.598   1.503  11.744 -3.6947  1.9371  1.0474
 2433SOL     OW18934   0.769   3.266   6.081 -0.4291  0.1161 -0.5221
 2433SOL    HW118935   0.777   3.302   5.993 -2.6613 -0.2672 -0.8843
 2433SOL    HW218936   0.856   3.228   6.096 -0.5338  0.6339  1.3414
 2434SOL     OW18937   3.636   1.117   6.653 -0.0152  0.4076  0.2331
 2434SOL    HW118938   3.688   1.153   6.725 -0.5251  0.9781  0.3159
 2434SOL    HW218939   3.706   1.109   6.588  0.7362 -3.0260  1.4193
 2435SOL     OW18940   2.168   4.109   3.696 -0.1603  0.3839 -0.1493
 2435SOL    HW118941   2.240   4.160   3.659  0.0686  0.4541  0.3917
 2435SOL    HW218942   2.219   4.063   3.763 -0.9059  1.9131  1.4778
 2436SOL     OW18943   3.586   4.652   3.996 -0.2073  0.0777  0.3272
 2436SOL    HW118944   3.672   4.611   4.001  0.1541  0.7516 -0.3602
 2436SOL    HW218945   3.617   4.731   3.951 -0.5496  0.0662  0.0779
 2437SOL     OW18946   0.471   2.799   5.546  0.1901  0.1940  0.1659
 2437SOL    HW118947   0.508   2.867   5.490  0.0100  1.0121  1.0454
 2437SOL    HW218948   0.520   2.726   5.507 -0.1786  1.3043 -2.3561
 2438SOL     OW18949   1.303   0.789   8.085 -0.5744  0.5681  0.9865
 2438SOL    HW118950   1.242   0.829   8.024 -0.2971 -0.1532  0.2315
 2438SOL    HW218951   1.353   0.741   8.019 -0.1663  0.4912  1.3497
 2439SOL     OW18952   3.244   4.670   1.769 -0.0424  0.5922 -0.3829
 2439SOL    HW118953   3.292   4.598   1.728  0.4343 -0.2420  1.6241
 2439SOL    HW218954   3.290   0.016   1.753  1.1950 -0.2056 -0.8808
 2440SOL     OW18955   2.031   0.010  16.010 -0.0880  0.2411 -0.2390
 2440SOL    HW118956   2.031   4.694  15.930  0.3824 -1.6497  0.9841
 2440SOL    HW218957   1.983   0.086  15.977 -0.4614  0.6740  1.2802
 2441SOL     OW18958   3.980   0.120   3.459 -0.5637  0.5199 -0.0834
 2441SOL    HW118959   3.952   0.188   3.398  2.9465  0.4881 -1.7076
 2441SOL    HW218960   3.956   0.047   3.402 -2.2144 -0.5397  2.0010
 2442SOL     OW18961   0.911   2.695   2.462 -0.4301 -0.0207  0.4492
 2442SOL    HW118962   0.939   2.657   2.379 -0.3294  0.8142  0.1102
 2442SOL    HW218963   0.929   2.623   2.523  0.1055  2.1397  2.8111
 2443SOL     OW18964   3.969   3.386   3.885 -0.0604 -0.3537 -0.4001
 2443SOL    HW118965   4.056   3.370   3.921 -0.3666  2.6173  1.6953
 2443SOL    HW218966   3.940   3.478   3.883 -0.4213 -0.4084  2.7285
 2444SOL     OW18967   2.851   3.651   8.867 -0.8253 -0.1388  0.0339
 2444SOL    HW118968   2.920   3.607   8.817  0.0474 -0.2173  1.2918
 2444SOL    HW218969   2.907   3.710   8.919 -0.4325  0.1603 -0.7307
 2445SOL     OW18970   1.478   2.188  11.570  0.2955  0.1802 -0.3563
 2445SOL    HW118971   1.536   2.262  11.586  2.8573 -1.3804 -2.5730
 2445SOL    HW218972   1.402   2.226  11.614  1.4413  1.0809  0.8049
 2446SOL     OW18973   2.088   2.063   6.496 -0.2471  0.3151 -0.1818
 2446SOL    HW118974   2.119   2.133   6.553  1.0283 -0.5673  0.1880
 2446SOL    HW218975   2.128   2.094   6.415 -1.9253  1.1342 -0.7076
 2447SOL     OW18976   4.501   2.543   7.770 -0.0816 -0.6563 -0.1899
 2447SOL    HW118977   4.418   2.496   7.762 -0.7508  0.4367  0.4749
 2447SOL    HW218978   4.472   2.618   7.718  1.1615  0.0981  0.2154
 2448SOL     OW18979   4.337   2.121  13.446  0.1396 -0.7454 -0.8402
 2448SOL    HW118980   4.247   2.137  13.421 -0.7084 -0.9738  2.0814
 2448SOL    HW218981   4.367   2.200  13.491  1.3097 -0.7091 -1.6696
 2449SOL     OW18982   2.603   1.585   7.033 -0.5565  0.0335  0.3189
 2449SOL    HW118983   2.547   1.565   7.107  1.4507 -0.8582  1.5775
 2449SOL    HW218984   2.537   1.608   6.967 -0.3017  1.7296  0.6469
 2450SOL     OW18985   2.187   3.218   1.445 -0.1560  0.8902  0.0879
 2450SOL    HW118986   2.189   3.195   1.538 -2.0789  1.1156  0.1878
 2450SOL    HW218987   2.262   3.277   1.442 -1.1449  2.0909 -0.8535
 2451SOL     OW18988   4.509   2.182  10.285  0.1576  0.1683  0.1194
 2451SOL    HW118989   4.422   2.180  10.325 -1.0900  1.8612 -2.5402
 2451SOL    HW218990   4.519   2.275  10.264 -0.7957 -0.1362 -1.6741
 2452SOL     OW18991   4.474   2.952   6.473  0.2087  0.4026  0.5754
 2452SOL    HW118992   4.397   2.910   6.436  0.7631  0.3001 -0.4701
 2452SOL    HW218993   4.532   2.905   6.412 -2.9123 -0.7819 -1.5293
 2453SOL     OW18994   3.768   3.669   9.915  0.0417 -0.1453  0.3671
 2453SOL    HW118995   3.708   3.663   9.841  1.5246 -1.0277 -0.7748
 2453SOL    HW218996   3.804   3.580   9.913 -1.9345 -0.9096 -1.3604
 2454SOL     OW18997   3.649   1.524   4.905 -0.3977 -0.2124 -0.1008
 2454SOL    HW118998   3.645   1.434   4.874  0.6030 -0.0603 -0.6740
 2454SOL    HW218999   3.602   1.514   4.988  1.6143 -0.3993  1.0167
 2455SOL     OW19000   2.903   0.137   5.445 -0.0924  0.4828  0.0692
 2455SOL    HW119001   2.932   0.184   5.523  0.0714  0.0652  0.2589
 2455SOL    HW219002   2.878   0.055   5.488  1.1561 -0.7740 -1.5843
 2456SOL     OW19003   3.908   2.189   8.671  0.5259  0.3899  0.3302
 2456SOL    HW119004   3.832   2.192   8.729 -0.0286 -0.1462 -0.3664
 2456SOL    HW219005   3.949   2.276   8.677  3.9795 -1.3038  1.7203
 2457SOL     OW19006   0.596   0.820  10.099  0.3772 -0.3123  0.3363
 2457SOL    HW119007   0.565   0.891  10.155  2.0971  1.8892 -1.5281
 2457SOL    HW219008   0.671   0.862  10.057 -0.5330 -0.0206 -0.9813
 2458SOL     OW19009   1.496   2.725   3.656  0.4616 -0.9229 -0.5872
 2458SOL    HW119010   1.435   2.713   3.728 -0.8707  1.6794 -1.2605
 2458SOL    HW219011   1.580   2.714   3.701  0.2772  0.5216  0.1174
 2459SOL     OW19012   0.189   0.611   5.565 -0.2815  0.3771  0.2682
 2459SOL    HW119013   0.212   0.692   5.611  0.4429 -0.5643  1.5528
 2459SOL    HW219014   0.098   0.609   5.595 -0.4676  0.0292 -0.3245
 2460SOL     OW19015   3.480   1.604   4.709 -0.1256  0.0413  0.5532
 2460SOL    HW119016   3.551   1.583   4.770  0.8975  1.1038 -0.2647
 2460SOL    HW219017   3.403   1.628   4.761 -0.3438  0.5927 -0.0148
 2461SOL     OW19018   3.141   3.628  15.090 -0.7782 -0.3073 -0.1913
 2461SOL    HW119019   3.161   3.587  15.006  0.1733  1.3383 -0.7758
 2461SOL    HW219020   3.162   3.561  15.156  1.0296 -1.8639 -2.3209
 2462SOL     OW19021   0.548   0.812   9.462  0.4588  0.2986 -0.0345
 2462SOL    HW119022   0.470   0.825   9.408  0.3414 -1.0488 -0.1966
 2462SOL    HW219023   0.594   0.895   9.456 -1.6160  1.4178 -0.4659
 2463SOL     OW19024   1.285   1.259   4.500 -0.2042 -0.5269  0.0739
 2463SOL    HW119025   1.273   1.251   4.594  1.3117 -1.0337  0.2375
 2463SOL    HW219026   1.373   1.220   4.495  0.4343  0.8635  0.5937
 2464SOL     OW19027   4.557   2.704  12.613  0.1728 -0.2597 -0.2077
 2464SOL    HW119028   4.491   2.764  12.648  1.5873  1.5833 -0.7059
 2464SOL    HW219029   4.572   2.740  12.526  0.8434  1.1564  0.4999
 2465SOL     OW19030   1.570   1.275  14.097 -0.0993 -0.3409  0.3649
 2465SOL    HW119031   1.497   1.226  14.059 -1.3107  0.1421  2.0418
 2465SOL    HW219032   1.524   1.309  14.174  0.1608 -1.9000  1.1922
 2466SOL     OW19033   2.423   2.482  13.474 -0.0851  0.1841  0.3396
 2466SOL    HW119034   2.467   2.402  13.447  1.6157  0.7666  1.3907
 2466SOL    HW219035   2.366   2.444  13.540 -2.1841 -0.6910 -1.9788
 2467SOL     OW19036   1.758   3.205   7.066  0.1896  0.2605 -0.3482
 2467SOL    HW119037   1.834   3.163   7.106 -0.4628  2.4932  3.2989
 2467SOL    HW219038   1.723   3.134   7.012 -1.1098  2.3090 -2.1954
 2468SOL     OW19039   2.247   0.726   1.976  0.2015 -0.1020 -0.4604
 2468SOL    HW119040   2.273   0.773   1.897 -0.5629  0.0457 -0.6218
 2468SOL    HW219041   2.167   0.685   1.944 -0.6364 -1.1497  2.9951
 2469SOL     OW19042   0.816   2.917   4.761 -0.7259 -0.0363 -0.0462
 2469SOL    HW119043   0.894   2.863   4.754 -0.1119  0.3634  3.4964
 2469SOL    HW219044   0.791   2.890   4.849  0.8819  0.2784  0.5205
 2470SOL     OW19045   0.147   4.199   4.856  0.5666 -0.2107 -0.5343
 2470SOL    HW119046   0.058   4.198   4.891  1.0878  0.4970  0.8277
 2470SOL    HW219047   0.192   4.276   4.892 -0.8784 -0.2513  1.3756
 2471SOL     OW19048   2.318   2.785   8.281 -0.1511 -0.4655 -0.7135
 2471SOL    HW119049   2.300   2.721   8.212 -1.4421 -1.6201  0.7017
 2471SOL    HW219050   2.379   2.737   8.338 -0.7510  0.0859  0.3803
 2472SOL     OW19051   1.718   1.333  12.595  0.1914 -0.6822  0.0002
 2472SOL    HW119052   1.719   1.412  12.649 -0.8066  0.0241 -0.9979
 2472SOL    HW219053   1.625   1.330  12.571 -0.3962  1.3616  2.0878
 2473SOL     OW19054   4.447   2.386   2.444  0.1942 -0.3451 -0.1884
 2473SOL    HW119055   4.375   2.327   2.421  1.2811 -1.6119 -0.3097
 2473SOL    HW219056   4.521   2.327   2.455  0.8423 -0.0249 -2.8250
 2474SOL     OW19057   1.334   1.589   5.946 -0.5483  0.2828  0.0878
 2474SOL    HW119058   1.385   1.570   6.025  0.3620 -0.7643 -0.7505
 2474SOL    HW219059   1.409   1.614   5.893  0.7978 -0.6276  1.5747
 2475SOL     OW19060   0.501   4.026   8.626 -0.1020  0.2856  0.2377
 2475SOL    HW119061   0.450   4.046   8.705 -3.5734  1.3760 -2.2741
 2475SOL    HW219062   0.540   3.943   8.655 -1.2145 -0.7889 -1.3469
 2476SOL     OW19063   0.128   1.527   4.937 -0.6902  0.6741  0.1564
 2476SOL    HW119064   0.217   1.564   4.932 -0.3680 -0.1328 -0.1458
 2476SOL    HW219065   0.146   1.435   4.951  3.5128  1.0955 -2.2333
 2477SOL     OW19066   4.254   1.553   4.450 -0.3171 -0.9320  0.0533
 2477SOL    HW119067   4.262   1.556   4.545  0.8176 -1.4450 -0.0162
 2477SOL    HW219068   4.201   1.474   4.439  0.0083 -1.2070  0.4623
 2478SOL     OW19069   2.896   0.935   4.833 -0.6147  0.1321  0.3982
 2478SOL    HW119070   2.946   0.981   4.900 -0.2259  1.3463 -0.7215
 2478SOL    HW219071   2.900   0.846   4.869  2.5301 -0.0725 -0.3929
 2479SOL     OW19072   1.537   3.969  15.444 -0.3485 -0.0119 -0.4743
 2479SOL    HW119073   1.566   3.878  15.438  1.6355  0.6266 -0.6468
 2479SOL    HW219074   1.445   3.962  15.418 -0.6342  1.8842  0.0238
 2480SOL     OW19075   0.367   1.934   2.299 -0.2804  0.5791  0.5400
 2480SOL    HW119076   0.291   1.966   2.250 -1.5059 -3.5246 -0.2602
 2480SOL    HW219077   0.380   1.845   2.266 -0.5020  0.5593  0.5053
 2481SOL     OW19078   1.327   0.886  13.130 -0.1865 -0.4741 -0.1425
 2481SOL    HW119079   1.257   0.922  13.184 -1.5392 -0.8867 -1.6311
 2481SOL    HW219080   1.360   0.811  13.180 -2.4384 -0.7059  0.9482
 2482SOL     OW19081   4.450   0.981   6.984  0.4535 -0.3837 -0.4544
 2482SOL    HW119082   4.468   0.907   6.927  0.2562  0.8335 -2.0873
 2482SOL    HW219083   4.355   0.972   6.995  0.6338 -0.9422  0.6664
 2483SOL     OW19084   1.768   0.989   6.689 -0.2884 -0.2002  0.2232
 2483SOL    HW119085   1.856   1.026   6.693 -0.7072  0.6238  1.7302
 2483SOL    HW219086   1.716   1.047   6.745  2.2454  0.1301  2.2600
 2484SOL     OW19087   0.493   1.481   3.402  0.5264 -0.0131  0.5492
 2484SOL    HW119088   0.515   1.561   3.450  0.8811  0.6280 -0.6912
 2484SOL    HW219089   0.405   1.508   3.373  1.1835 -0.0509 -1.4450
 2485SOL     OW19090   3.266   2.601  12.337 -0.3399  0.1686 -1.0097
 2485SOL    HW119091   3.314   2.668  12.386 -0.7131  0.9655 -1.7294
 2485SOL    HW219092   3.339   2.577  12.280 -0.0655 -1.6836  0.1347
 2486SOL     OW19093   1.316   3.156   8.470  0.1852 -0.2321 -0.5114
 2486SOL    HW119094   1.381   3.185   8.534 -2.8644  0.1807  2.3662
 2486SOL    HW219095   1.327   3.062   8.484  0.1326 -0.4953 -2.2312
 2487SOL     OW19096   4.523   2.009   6.709  0.4644  0.2644  0.0631
 2487SOL    HW119097   4.492   1.924   6.739 -1.3220  1.7590  2.4874
 2487SOL    HW219098   4.437   2.036   6.676  0.4745 -0.8242 -0.8483
 2488SOL     OW19099   1.937   0.771  14.643  0.6522  0.4800  0.2142
 2488SOL    HW119100   1.936   0.864  14.664 -1.3121  0.1760  1.4306
 2488SOL    HW219101   1.898   0.772  14.556 -0.4304 -1.4322  0.6798
 2489SOL     OW19102   0.252   1.780   0.434 -0.0284 -0.1238  0.2065
 2489SOL    HW119103   0.175   1.754   0.486  0.1045 -2.1110 -0.6007
 2489SOL    HW219104   0.289   1.696   0.411 -0.5744  0.4058 -2.6251
 2490SOL     OW19105   0.010   3.429   2.009 -0.4886 -0.1635  0.3810
 2490SOL    HW119106   0.035   3.340   1.983  0.3046  0.1411  0.0836
 2490SOL    HW219107   0.072   3.436   2.082 -0.0688  0.1814 -0.0043
 2491SOL     OW19108   0.841   0.296   5.003 -0.7524  0.2928 -0.2809
 2491SOL    HW119109   0.910   0.356   5.031 -0.8567 -0.4269  1.5784
 2491SOL    HW219110   0.860   0.275   4.912 -1.4782  0.2069 -0.4161
 2492SOL     OW19111   3.034   1.636   0.524  0.5046  0.2400  0.0129
 2492SOL    HW119112   2.988   1.554   0.541 -1.5638  1.4708  0.4591
 2492SOL    HW219113   3.056   1.660   0.614  1.0401  0.4797 -0.1870
 2493SOL     OW19114   4.276   1.853  15.993 -0.0422  0.0115 -0.3946
 2493SOL    HW119115   4.296   1.947  15.993  2.0321 -0.4380 -1.2724
 2493SOL    HW219116   4.310   1.818  15.911  0.3210  0.3131 -0.3713
 2494SOL     OW19117   2.933   4.227   2.633  0.3240  0.0454  0.1598
 2494SOL    HW119118   2.849   4.195   2.664  0.4199  0.4940  0.8624
 2494SOL    HW219119   2.947   4.297   2.697 -1.5003 -1.7991  2.5159
 2495SOL     OW19120   1.683   2.020   0.273  0.1473 -0.0757  0.7561
 2495SOL    HW119121   1.761   1.983   0.315  0.8602 -0.0896 -0.5900
 2495SOL    HW219122   1.662   2.089   0.336 -0.0002 -0.6841  1.3725
 2496SOL     OW19123   2.346   4.348   8.424 -0.0455  0.5166 -0.1442
 2496SOL    HW119124   2.291   4.426   8.418 -0.2602  0.2099 -2.0283
 2496SOL    HW219125   2.399   4.355   8.345 -1.1767  2.7426 -0.6988
 2497SOL     OW19126   1.322   2.771   8.830  0.0374 -0.8879  0.1325
 2497SOL    HW119127   1.230   2.795   8.846  0.4630 -0.3744  1.7394
 2497SOL    HW219128   1.345   2.829   8.903 -1.6130 -0.7691  0.5587
 2498SOL     OW19129   4.409   4.591   4.233  0.3017 -0.3877  0.2140
 2498SOL    HW119130   4.429   4.530   4.305 -0.9585 -0.1710  0.7310
 2498SOL    HW219131   4.374   4.669   4.275  1.4313  0.5979 -0.6843
 2499SOL     OW19132   3.037   1.148   4.974  0.5670 -0.3629  0.0950
 2499SOL    HW119133   3.017   1.204   4.899  1.2266  2.7759  2.2230
 2499SOL    HW219134   3.041   1.212   5.046  0.1176  1.6620 -1.6756
 2500SOL     OW19135   1.863   0.705  17.225  0.2709  0.1025  0.5805
 2500SOL    HW119136   1.930   0.772  17.241 -0.6521  1.0030  0.6685
 2500SOL    HW219137   1.780   0.750  17.243 -0.3624 -0.0770 -1.8227
 2501SOL     OW19138   2.175   3.863   9.072  0.3296  0.3860  0.1168
 2501SOL    HW119139   2.119   3.786   9.080  1.8628 -0.6777  0.7462
 2501SOL    HW219140   2.243   3.831   9.132  0.8341 -1.7062 -1.5598
 2502SOL     OW19141   3.033   1.638   6.486 -0.0177  0.6754  0.0523
 2502SOL    HW119142   3.093   1.669   6.554 -0.1105  2.1599 -0.5385
 2502SOL    HW219143   3.084   1.653   6.407 -2.5723 -0.6013 -1.8271
 2503SOL     OW19144   0.572   2.593   7.401 -0.9529 -0.4560 -0.3704
 2503SOL    HW119145   0.589   2.664   7.463  0.0598  0.4955 -1.7427
 2503SOL    HW219146   0.646   2.606   7.342 -1.0964 -0.2591 -0.5071
 2504SOL     OW19147   0.842   3.348   8.000 -0.5102  0.3801  0.1993
 2504SOL    HW119148   0.899   3.307   7.934 -0.8498  0.2769 -0.0280
 2504SOL    HW219149   0.762   3.343   7.948 -0.2541 -1.4613  0.0028
 2505SOL     OW19150   1.653   4.038  11.387 -0.3070  0.1701 -0.0703
 2505SOL    HW119151   1.630   3.982  11.461 -0.2812 -0.4800 -0.5573
 2505SOL    HW219152   1.574   4.093  11.380 -0.3257 -0.1631 -2.4671
 2506SOL     OW19153   1.516   3.644   4.834 -0.5420 -0.3056  0.2782
 2506SOL    HW119154   1.487   3.592   4.759 -2.7653  1.4895 -0.1356
 2506SOL    HW219155   1.563   3.589   4.896  2.2840  1.0591 -0.6434
 2507SOL     OW19156   1.055   2.122   9.485  0.1582 -0.7218 -0.2334
 2507SOL    HW119157   0.989   2.161   9.542 -2.3950 -2.6486 -1.8680
 2507SOL    HW219158   1.118   2.098   9.553 -1.0372 -1.2038  0.6982
 2508SOL     OW19159   0.217   2.360   5.903  0.0421  0.5960 -0.7488
 2508SOL    HW119160   0.280   2.362   5.975 -2.6932  0.7157  1.5978
 2508SOL    HW219161   0.237   2.440   5.854  0.4120  0.2369 -1.1839
 2509SOL     OW19162   0.194   3.313  11.497 -0.5097  0.3017  0.3190
 2509SOL    HW119163   0.221   3.352  11.414 -0.2072 -2.1160 -0.7432
 2509SOL    HW219164   0.239   3.229  11.493  0.1614  0.6339  0.9260
 2510SOL     OW19165   1.420   0.771   5.028 -0.0263  0.0809 -0.3675
 2510SOL    HW119166   1.437   0.865   5.036  0.7249 -0.1035  0.1822
 2510SOL    HW219167   1.379   0.760   5.113  1.0122 -1.0654 -0.0177
 2511SOL     OW19168   3.044   2.687  15.905 -0.1752  0.2755  0.1645
 2511SOL    HW119169   3.037   2.600  15.865 -0.6674 -0.9494  2.8993
 2511SOL    HW219170   2.978   2.685  15.975  0.4840 -2.9949  0.6908
 2512SOL     OW19171   0.446   0.217   5.881  0.1491  0.1593 -0.2727
 2512SOL    HW119172   0.416   0.170   5.959 -2.7043  0.1248 -1.3986
 2512SOL    HW219173   0.381   0.178   5.823 -0.2415  1.8395 -0.9605
 2513SOL     OW19174   2.326   3.777   6.690 -0.2056  0.2573 -0.2710
 2513SOL    HW119175   2.238   3.764   6.654 -0.1242 -1.7171  0.2712
 2513SOL    HW219176   2.358   3.690   6.666 -0.4111  0.0678  0.1542
 2514SOL     OW19177   0.591   0.443   2.739 -0.3151 -0.3429  0.0596
 2514SOL    HW119178   0.581   0.413   2.829  0.1990 -0.8450 -0.0532
 2514SOL    HW219179   0.682   0.415   2.725  0.0442  0.4959  0.7335
 2515SOL     OW19180   0.593   1.956   8.705 -0.7505  0.3797  0.2721
 2515SOL    HW119181   0.578   2.034   8.652  0.1177  1.7493  2.0528
 2515SOL    HW219182   0.522   1.903   8.669 -0.7817  1.0850 -0.7082
 2516SOL     OW19183   0.135   0.935  11.342  0.4233  0.1224 -0.0924
 2516SOL    HW119184   0.138   0.840  11.345  3.7437  0.2693  0.4205
 2516SOL    HW219185   0.216   0.960  11.299  1.4649 -0.6762  1.3990
 2517SOL     OW19186   4.159   1.052   6.144  0.3973 -0.2032  0.4459
 2517SOL    HW119187   4.099   1.019   6.077 -2.0818  1.2642  1.9363
 2517SOL    HW219188   4.146   1.145   6.159 -0.5014 -0.4556  1.1664
 2518SOL     OW19189   2.253   4.113  15.782  0.2920  0.6289  0.1019
 2518SOL    HW119190   2.302   4.082  15.859 -0.9693  0.0592  0.6696
 2518SOL    HW219191   2.296   4.075  15.704 -0.0720 -0.8417  0.6115
 2519SOL     OW19192   4.681   4.424   6.043 -0.2612  1.0088  0.0593
 2519SOL    HW119193   4.699   4.332   6.062 -1.2226  0.5234 -1.3909
 2519SOL    HW219194   0.022   4.448   5.992 -0.5698  3.7440  0.8784
 2520SOL     OW19195   1.431   3.403   9.688 -0.2963 -0.2442 -0.0565
 2520SOL    HW119196   1.497   3.336   9.702  0.5257  0.3515 -1.0053
 2520SOL    HW219197   1.429   3.451   9.771 -0.4982 -0.8745  0.2975
 2521SOL     OW19198   1.116   2.166   7.622 -0.3807 -0.2853 -0.7706
 2521SOL    HW119199   1.107   2.198   7.532  0.0540  1.5239 -0.1790
 2521SOL    HW219200   1.089   2.239   7.677 -0.9062 -1.0398 -0.0304
 2522SOL     OW19201   0.541   4.605   9.870  0.0946  0.1355  0.1433
 2522SOL    HW119202   0.571   4.607   9.961  0.3299 -3.5023  0.1496
 2522SOL    HW219203   0.449   4.583   9.879 -0.2339  1.3031 -0.4042
 2523SOL     OW19204   4.157   1.942  16.270 -0.0960  0.1212  0.0278
 2523SOL    HW119205   4.227   2.007  16.269 -0.2645  0.3045  0.1461
 2523SOL    HW219206   4.170   1.916  16.179  1.4028 -1.6333  0.7206
 2524SOL     OW19207   3.119   2.272  13.132 -0.1989  0.6241  0.3678
 2524SOL    HW119208   3.092   2.202  13.191 -0.4537  1.3254  1.0828
 2524SOL    HW219209   3.119   2.348  13.189  1.8494  0.1904  0.9586
 2525SOL     OW19210   2.511   0.882  12.583  0.0059  0.6712 -0.4443
 2525SOL    HW119211   2.416   0.886  12.589  0.0738  0.6322  0.6463
 2525SOL    HW219212   2.524   0.788  12.593  0.5197  0.6462 -1.2754
 2526SOL     OW19213   3.163   3.077  14.821  0.1958  0.2008 -0.9996
 2526SOL    HW119214   3.086   3.042  14.777  0.2499 -1.7405  0.4434
 2526SOL    HW219215   3.197   2.992  14.848 -0.5485  0.7831  1.7676
 2527SOL     OW19216   0.213   2.686   9.544  0.2899 -0.0904 -0.2802
 2527SOL    HW119217   0.218   2.604   9.494 -0.4309 -0.2990 -0.0103
 2527SOL    HW219218   0.293   2.691   9.597 -1.3093 -1.5773  2.2769
 2528SOL     OW19219   4.625   3.473  10.720 -0.0596  0.1175 -0.7116
 2528SOL    HW119220   4.657   3.508  10.803  0.4912 -0.8818 -0.5010
 2528SOL    HW219221   4.701   3.417  10.706 -0.1896 -0.4740  0.9626
 2529SOL     OW19222   3.123   0.257   1.485 -0.1839 -0.7485  0.2000
 2529SOL    HW119223   3.102   0.330   1.426 -0.9797 -1.2712 -0.1611
 2529SOL    HW219224   3.133   0.188   1.420 -0.8001 -0.6432 -0.0146
 2530SOL     OW19225   2.230   1.147   3.693 -0.1022  0.1915  0.6558
 2530SOL    HW119226   2.234   1.148   3.789  2.2343  0.6689  0.5409
 2530SOL    HW219227   2.149   1.196   3.678  0.2935  0.0363 -1.9176
 2531SOL     OW19228   3.892   2.826   3.828  0.4311 -0.0373  0.3160
 2531SOL    HW119229   3.816   2.881   3.806  1.0633 -0.6242 -3.4760
 2531SOL    HW219230   3.915   2.875   3.907  0.0704 -0.0305  0.4191
 2532SOL     OW19231   1.895   0.457   3.611  0.7154  0.2985  0.2251
 2532SOL    HW119232   1.900   0.485   3.702  3.0371  1.1129 -0.1427
 2532SOL    HW219233   1.823   0.397   3.627 -0.5192  2.2545  2.0145
 2533SOL     OW19234   2.094   2.877   9.000  0.2057  0.7666 -0.1623
 2533SOL    HW119235   2.118   2.806   9.059  1.1569 -1.4226 -3.1600
 2533SOL    HW219236   1.999   2.871   8.990  0.7868 -1.7176 -4.3224
 2534SOL     OW19237   1.422   1.241   8.009 -0.6423  0.1557 -0.5599
 2534SOL    HW119238   1.400   1.182   7.936  0.3124  0.1172 -0.8254
 2534SOL    HW219239   1.353   1.306   8.010 -2.6455 -2.0015  1.3363
 2535SOL     OW19240   0.123   2.661   6.920  0.4280 -0.1589  0.4430
 2535SOL    HW119241   0.181   2.736   6.912 -0.0107  0.2012  0.6239
 2535SOL    HW219242   0.182   2.592   6.951 -2.1518 -2.0461  1.1628
 2536SOL     OW19243   1.435   1.068  12.959 -0.1396 -0.0512  0.2382
 2536SOL    HW119244   1.407   1.012  13.031 -2.2085 -0.0697 -0.5466
 2536SOL    HW219245   1.362   1.130  12.960  0.7384  0.9782 -0.2129
 2537SOL     OW19246   2.565   2.118  16.214 -0.0249 -0.2375  0.0956
 2537SOL    HW119247   2.593   2.185  16.278  0.0363 -0.4568  0.2977
 2537SOL    HW219248   2.474   2.148  16.217  1.0459  3.1410 -0.1360
 2538SOL     OW19249   1.626   3.111   9.232 -0.1884 -0.3405  0.4280
 2538SOL    HW119250   1.537   3.129   9.203  0.1556  1.4538  0.5080
 2538SOL    HW219251   1.646   3.198   9.265 -0.9802  0.9395 -2.4921
 2539SOL     OW19252   4.066   3.461   1.581  0.0286  0.4543 -0.5295
 2539SOL    HW119253   4.079   3.421   1.495  0.0557 -0.8446  0.0837
 2539SOL    HW219254   4.150   3.440   1.621 -0.6590  0.2079  0.7793
 2540SOL     OW19255   4.318   1.306   6.155  0.1693 -0.4983 -0.1505
 2540SOL    HW119256   4.339   1.397   6.177 -1.8874  1.0962 -4.9432
 2540SOL    HW219257   4.393   1.269   6.202 -0.3686  0.4396  1.4466
 2541SOL     OW19258   4.103   0.953   5.381 -0.2334 -0.2163  0.2003
 2541SOL    HW119259   4.045   0.878   5.371 -1.7685  1.1707 -1.3594
 2541SOL    HW219260   4.092   0.981   5.472  0.0325  1.5277 -0.2958
 2542SOL     OW19261   0.170   1.479   9.761  0.1975 -0.3797  0.4248
 2542SOL    HW119262   0.155   1.573   9.750  0.0851 -0.2062  2.0746
 2542SOL    HW219263   0.123   1.449   9.839  0.7002  3.3584  2.1842
 2543SOL     OW19264   2.369   0.539   8.434 -0.3674 -0.3641  0.3399
 2543SOL    HW119265   2.338   0.531   8.344  1.1229 -1.5757 -0.0685
 2543SOL    HW219266   2.430   0.611   8.425  0.5249 -1.2190 -0.4816
 2544SOL     OW19267   0.657   2.422   6.743  0.1023 -0.0445 -0.1388
 2544SOL    HW119268   0.740   2.467   6.734 -0.4408  0.5686 -2.1743
 2544SOL    HW219269   0.644   2.428   6.838  0.2691  1.0384 -0.1866
 2545SOL     OW19270   4.729   0.656   7.247 -0.6275 -0.1447  0.3332
 2545SOL    HW119271   4.727   0.662   7.152  0.3614  0.5516  0.3506
 2545SOL    HW219272   4.649   0.699   7.278 -1.5436 -0.2381 -1.8870
 2546SOL     OW19273   3.048   0.975   9.112 -0.2546  0.3563  0.3420
 2546SOL    HW119274   3.057   0.968   9.017  0.3764 -2.5102  0.6332
 2546SOL    HW219275   3.041   0.882   9.133  0.6532  0.1657 -0.2237
 2547SOL     OW19276   3.697   1.768   7.613  0.2812 -0.2919 -0.8349
 2547SOL    HW119277   3.618   1.811   7.645  0.5589 -0.9731  0.7827
 2547SOL    HW219278   3.762   1.776   7.684 -3.2406  1.5163  2.1813
 2548SOL     OW19279   1.077   0.295   5.883  0.2370 -0.2273  0.1099
 2548SOL    HW119280   1.002   0.258   5.927  0.5939  1.9397  2.5355
 2548SOL    HW219281   1.092   0.372   5.938  2.2601 -0.5977  0.0888
 2549SOL     OW19282   2.151   1.743  12.347 -0.1855 -0.5662  0.2767
 2549SOL    HW119283   2.208   1.788  12.410  0.6954 -0.1709 -0.7973
 2549SOL    HW219284   2.190   1.770  12.264 -2.3943  0.7919 -0.3021
 2550SOL     OW19285   0.495   3.590   3.498  0.3079 -0.4947  0.2862
 2550SOL    HW119286   0.506   3.634   3.582  1.1454  0.3523 -0.2691
 2550SOL    HW219287   0.445   3.656   3.450 -0.0006 -0.3713  0.7765
 2551SOL     OW19288   4.495   2.678   8.804  0.5300 -0.5015  0.7711
 2551SOL    HW119289   4.582   2.643   8.826  0.6153 -0.4830  0.4686
 2551SOL    HW219290   4.487   2.764   8.846 -0.1536 -0.2659  0.1715
 2552SOL     OW19291   4.494   0.366   7.942  0.0198 -0.0960 -0.4837
 2552SOL    HW119292   4.554   0.439   7.927 -0.7169  0.5957 -0.0526
 2552SOL    HW219293   4.445   0.377   7.861  0.5241  0.4776 -0.7099
 2553SOL     OW19294   1.841   2.038   5.711  0.2697  0.0582 -0.0697
 2553SOL    HW119295   1.896   1.970   5.671 -0.3196 -0.3629 -0.1715
 2553SOL    HW219296   1.798   1.991   5.782 -0.0986 -1.2592 -1.1711
 2554SOL     OW19297   0.191   3.301   3.186 -0.5642 -0.2713  0.4744
 2554SOL    HW119298   0.109   3.291   3.138 -0.5235 -1.9463  0.7844
 2554SOL    HW219299   0.250   3.232   3.155 -0.1270  0.4527 -0.3158
 2555SOL     OW19300   4.271   3.299   4.794  0.4660  0.4115  0.0440
 2555SOL    HW119301   4.330   3.230   4.765 -0.0838 -1.1716  2.6874
 2555SOL    HW219302   4.290   3.361   4.723 -0.3998  1.2904  0.5969
 2556SOL     OW19303   1.291   3.432   7.208 -0.2664  0.4636 -0.2983
 2556SOL    HW119304   1.232   3.451   7.281  1.1907  2.1662  0.4336
 2556SOL    HW219305   1.320   3.519   7.180  1.1483  0.0790 -0.0019
 2557SOL     OW19306   0.891   0.875   2.309 -0.3208  0.1100 -0.6404
 2557SOL    HW119307   0.815   0.822   2.285  1.2892 -2.3979 -0.2043
 2557SOL    HW219308   0.943   0.879   2.229  0.2168 -4.3228 -0.5165
 2558SOL     OW19309   3.681   2.398   5.784  0.5858  0.0786  0.0681
 2558SOL    HW119310   3.710   2.395   5.693 -2.4039 -0.0133 -0.8650
 2558SOL    HW219311   3.763   2.435   5.816  1.4637 -1.8846  0.1005
 2559SOL     OW19312   1.127   0.488   1.019  0.8346 -0.3458 -0.3537
 2559SOL    HW119313   1.142   0.457   1.109 -0.0444 -0.8257 -0.3719
 2559SOL    HW219314   1.031   0.486   1.022  0.8837  0.4981  1.9388
 2560SOL     OW19315   3.935   0.921   6.330 -0.1206  0.2637 -0.2636
 2560SOL    HW119316   4.024   0.950   6.307 -0.9568  2.4840 -0.6840
 2560SOL    HW219317   3.950   0.879   6.415 -1.8922  0.0266 -0.0829
 2561SOL     OW19318   2.337   0.927   1.751 -0.5240  0.2970  0.0219
 2561SOL    HW119319   2.410   0.962   1.700 -0.4420 -0.4344 -0.3664
 2561SOL    HW219320   2.264   0.932   1.689  0.1875 -0.5826 -0.8876
 2562SOL     OW19321   0.631   3.061  12.191  0.3283  0.6978 -0.4398
 2562SOL    HW119322   0.621   2.968  12.167 -0.9405  0.3478  1.5098
 2562SOL    HW219323   0.657   3.048  12.282 -0.7319  0.6463 -0.1439
 2563SOL     OW19324   3.894   1.597   5.518  0.0594  0.0810  0.2133
 2563SOL    HW119325   3.818   1.655   5.522 -1.1137 -1.4034 -0.5239
 2563SOL    HW219326   3.958   1.642   5.463  0.3048 -1.5931 -0.8583
 2564SOL     OW19327   0.193   3.952   4.623  0.1276  0.3708  0.1535
 2564SOL    HW119328   0.147   3.997   4.552 -1.1235 -0.4768  0.4317
 2564SOL    HW219329   0.123   3.899   4.660  0.1590 -1.0638 -1.8152
 2565SOL     OW19330   4.246   3.748   5.895  0.4603 -0.1599  0.0152
 2565SOL    HW119331   4.285   3.780   5.976 -0.5199  1.2970 -0.0921
 2565SOL    HW219332   4.179   3.699   5.943 -0.8558  0.7233 -0.9186
 2566SOL     OW19333   0.870   2.682   8.965  0.0498 -0.2633 -0.0842
 2566SOL    HW119334   0.816   2.702   9.042 -0.0056  2.3649 -0.8019
 2566SOL    HW219335   0.892   2.590   8.976 -3.6703 -1.3817 -2.1955
 2567SOL     OW19336   1.585   2.387   9.579 -0.0442  0.5157  0.5258
 2567SOL    HW119337   1.568   2.401   9.672 -1.4733 -0.1757  0.3627
 2567SOL    HW219338   1.513   2.439   9.542 -0.4187 -1.9373 -2.1867
 2568SOL     OW19339   4.218   4.372   8.418 -0.0707 -0.3258  0.3203
 2568SOL    HW119340   4.276   4.309   8.376 -0.9358 -0.7799 -0.1850
 2568SOL    HW219341   4.281   4.438   8.446  1.0785 -1.7411  1.0546
 2569SOL     OW19342   1.404   3.649   3.554  0.1980  0.2737  0.0853
 2569SOL    HW119343   1.480   3.707   3.549 -0.2010  0.8347  0.4819
 2569SOL    HW219344   1.332   3.710   3.538  1.1281  0.9094 -1.7559
 2570SOL     OW19345   4.442   0.662   3.681  0.1921  0.1904 -0.2276
 2570SOL    HW119346   4.464   0.755   3.686  0.6768  0.0617 -0.0170
 2570SOL    HW219347   4.444   0.643   3.588  2.1639  0.1461 -0.1653
 2571SOL     OW19348   0.186   2.400  12.256 -0.2082  0.0204  0.2485
 2571SOL    HW119349   0.095   2.429  12.263 -0.5841 -0.4726 -2.7915
 2571SOL    HW219350   0.200   2.446  12.338 -0.6902  1.2978 -0.3966
 2572SOL     OW19351   3.093   1.437   2.416 -0.0112  0.4038 -0.6086
 2572SOL    HW119352   3.120   1.348   2.437  0.0683  0.3705 -0.8607
 2572SOL    HW219353   3.169   1.454   2.361 -0.7359 -0.5787 -1.8880
 2573SOL     OW19354   0.465   2.674  11.610  0.4909 -0.1218  0.6741
 2573SOL    HW119355   0.475   2.765  11.640 -0.4804 -0.2090  1.2568
 2573SOL    HW219356   0.410   2.634  11.677 -1.2579 -1.1576 -1.3632
 2574SOL     OW19357   3.569   1.703  17.167  0.2078 -0.2169 -0.0502
 2574SOL    HW119358   3.588   1.744  17.083 -1.8137  1.3629  0.2712
 2574SOL    HW219359   3.636   1.634  17.164 -1.7389 -2.1409  1.0670
 2575SOL     OW19360   4.605   1.567   2.933  0.4873 -0.2653 -0.6414
 2575SOL    HW119361   4.529   1.621   2.917 -0.5824 -1.4026  0.6603
 2575SOL    HW219362   4.596   1.530   2.845 -0.0591 -1.8648  0.0814
 2576SOL     OW19363   4.735   2.524  10.175 -0.5542 -0.6231  0.5823
 2576SOL    HW119364   4.660   2.486  10.220 -1.1016 -1.1810 -0.8094
 2576SOL    HW219365   4.700   2.496  10.091  1.6915  0.7361 -0.8140
 2577SOL     OW19366   0.802   0.990   6.413 -0.0542  0.6592 -0.1643
 2577SOL    HW119367   0.713   0.963   6.435 -0.6232  2.4975 -0.2334
 2577SOL    HW219368   0.791   1.047   6.337  0.4667  1.6191  0.4901
 2578SOL     OW19369   1.982   0.177   6.305  0.0433  0.2145  0.5814
 2578SOL    HW119370   2.030   0.130   6.236 -1.7536 -1.1420  0.2521
 2578SOL    HW219371   2.046   0.229   6.354  0.7791 -0.6419  0.5337
 2579SOL     OW19372   0.770   4.057  16.010  0.1898  0.0153 -0.1481
 2579SOL    HW119373   0.740   3.967  15.996 -0.3950  0.1856 -0.0124
 2579SOL    HW219374   0.688   4.107  16.014  1.1711  1.8199 -2.8071
 2580SOL     OW19375   0.380   2.241   9.315 -0.0585  0.3342 -0.0159
 2580SOL    HW119376   0.371   2.312   9.251  0.8236 -0.4767 -1.0250
 2580SOL    HW219377   0.416   2.170   9.263 -1.2751  0.8944 -1.6095
 2581SOL     OW19378   4.334   3.032  13.600  0.3674  0.5800  0.0535
 2581SOL    HW119379   4.283   2.969  13.651 -0.9653  3.1722  1.8870
 2581SOL    HW219380   4.260   3.073  13.556  1.0725 -1.2538 -2.9219
 2582SOL     OW19381   0.909   3.546   4.673 -0.1619  0.1719 -0.2720
 2582SOL    HW119382   0.940   3.591   4.594 -2.7394  0.0450 -1.3649
 2582SOL    HW219383   0.948   3.458   4.674 -0.9681 -0.1722  0.8783
 2583SOL     OW19384   0.544   0.650   8.720  0.3859  0.3683 -0.0568
 2583SOL    HW119385   0.462   0.645   8.672 -0.5788 -0.3905  1.6388
 2583SOL    HW219386   0.588   0.566   8.702 -1.8812 -0.6148 -0.9691
 2584SOL     OW19387   0.766   3.636  17.102  0.2116  0.0861 -0.2470
 2584SOL    HW119388   0.710   3.691  17.157  0.3563 -1.9644  1.9687
 2584SOL    HW219389   0.703   3.572  17.071 -0.1655  1.4536 -2.3194
 2585SOL     OW19390   0.302   0.353   5.524  0.1329  0.3997 -0.2657
 2585SOL    HW119391   0.270   0.443   5.521 -1.1020 -0.1142 -2.0601
 2585SOL    HW219392   0.330   0.353   5.433  0.7864 -0.8376 -0.0585
 2586SOL     OW19393   4.085   1.308   6.345 -0.2777 -0.3437 -0.6137
 2586SOL    HW119394   4.049   1.378   6.289  0.5458  0.1448 -0.5264
 2586SOL    HW219395   4.148   1.279   6.279 -1.2689 -1.0749 -1.2353
 2587SOL     OW19396   4.174   3.959   7.625 -0.6986  0.3804 -0.0290
 2587SOL    HW119397   4.174   3.969   7.530 -0.3193 -0.8064 -0.1524
 2587SOL    HW219398   4.082   3.956   7.650 -0.8606 -2.1667 -1.0206
 2588SOL     OW19399   2.281   1.688   5.483 -0.4045 -0.4396 -0.1657
 2588SOL    HW119400   2.292   1.601   5.443  0.8203  0.2334 -1.2857
 2588SOL    HW219401   2.225   1.727   5.416 -2.5636 -1.1962  1.1999
 2589SOL     OW19402   4.423   4.124  16.582 -0.0658 -0.1651  0.3461
 2589SOL    HW119403   4.366   4.075  16.524 -1.5594 -1.3805  2.8129
 2589SOL    HW219404   4.400   4.215  16.564 -0.0349 -0.0223  1.0279
 2590SOL     OW19405   0.382   3.806  14.207  0.1029  0.0482 -0.4519
 2590SOL    HW119406   0.354   3.823  14.117 -0.9590  0.6733 -0.0043
 2590SOL    HW219407   0.383   3.893  14.246  1.7896 -0.7462  1.2393
 2591SOL     OW19408   4.735   0.492   2.767 -0.1345 -0.1897 -0.2668
 2591SOL    HW119409   0.000   0.553   2.693  3.1392 -0.8072 -0.7237
 2591SOL    HW219410   0.035   0.413   2.725 -0.0370 -0.8204  1.0073
 2592SOL     OW19411   2.992   1.680  10.014  0.6241  0.2406  0.0913
 2592SOL    HW119412   2.968   1.746  10.079 -2.6486  1.1517 -2.0699
 2592SOL    HW219413   3.088   1.685  10.016  0.5392  1.7714  0.2809
 2593SOL     OW19414   0.068   1.611  11.125  0.0288 -0.2616  0.0902
 2593SOL    HW119415   0.011   1.636  11.053  0.3692 -1.1058 -0.4764
 2593SOL    HW219416   0.057   1.516  11.120  0.7790 -0.3807  0.6311
 2594SOL     OW19417   2.260   1.611   4.113 -0.5757  0.4316  0.0223
 2594SOL    HW119418   2.336   1.666   4.093  0.0840 -0.4897 -0.0032
 2594SOL    HW219419   2.222   1.593   4.027  0.8680 -2.7416  0.0503
 2595SOL     OW19420   0.848   0.240   1.593 -0.1689 -0.1600  0.0456
 2595SOL    HW119421   0.879   0.258   1.505  2.1849 -4.1427  0.0630
 2595SOL    HW219422   0.909   0.293   1.645 -1.2540 -0.2750  1.4534
 2596SOL     OW19423   4.603   1.589  15.870 -0.3819  0.7449 -0.2125
 2596SOL    HW119424   4.653   1.570  15.791  1.6394 -0.1801  1.3006
 2596SOL    HW219425   4.625   1.512  15.922  0.9478  0.2542 -1.4977
 2597SOL     OW19426   1.251   1.950   5.850  0.2526 -0.2632 -0.4740
 2597SOL    HW119427   1.204   2.033   5.860  0.9188 -0.1203  1.6394
 2597SOL    HW219428   1.343   1.978   5.858  0.2611 -0.6547  0.8978
 2598SOL     OW19429   2.375   0.637  11.463  0.1522  0.5390 -0.2084
 2598SOL    HW119430   2.344   0.633  11.553  0.7351 -2.3973 -0.1378
 2598SOL    HW219431   2.470   0.630  11.475  0.1094 -0.1035 -0.2447
 2599SOL     OW19432   0.588   2.973   9.382  0.0710  0.4819 -0.3653
 2599SOL    HW119433   0.529   2.936   9.316 -1.2126 -0.3745  1.2528
 2599SOL    HW219434   0.560   3.064   9.392  0.6493  0.1849  3.9969
 2600SOL     OW19435   1.482   2.519   2.574 -0.1316 -0.7546  0.1048
 2600SOL    HW119436   1.501   2.590   2.635 -0.3188 -1.1948  0.6755
 2600SOL    HW219437   1.404   2.555   2.531 -0.0722  2.3159  2.5311
 2601SOL     OW19438   3.754   3.496   4.589  0.8246  0.2564  0.3957
 2601SOL    HW119439   3.725   3.579   4.627 -1.2472 -0.3578  0.1343
 2601SOL    HW219440   3.844   3.508   4.559  0.4947  0.0629 -0.6618
 2602SOL     OW19441   1.268   1.332  11.732 -0.0288  0.4212  0.1766
 2602SOL    HW119442   1.244   1.247  11.695 -0.7935 -0.0429  1.7545
 2602SOL    HW219443   1.264   1.388  11.654  0.5696 -0.5739 -0.5626
 2603SOL     OW19444   0.754   2.080   7.428 -0.0128 -0.3911  0.6261
 2603SOL    HW119445   0.734   2.018   7.497 -0.8048 -0.8246 -0.0054
 2603SOL    HW219446   0.826   2.031   7.387  0.6904 -1.3574  3.0283
 2604SOL     OW19447   0.199   3.045   5.773  0.1151 -0.3459  0.0462
 2604SOL    HW119448   0.251   2.965   5.777 -0.9191 -1.0906 -1.5045
 2604SOL    HW219449   0.207   3.078   5.863 -0.0176  0.4387 -0.2245
 2605SOL     OW19450   0.823   2.259   7.831  0.2875 -0.5501 -0.6159
 2605SOL    HW119451   0.780   2.315   7.895 -0.2978  0.2681 -1.7079
 2605SOL    HW219452   0.787   2.299   7.751  0.7315 -0.1028 -0.5898
 2606SOL     OW19453   0.912   2.422   5.907  0.2202  0.4502  0.0000
 2606SOL    HW119454   0.875   2.427   5.819 -1.4932  2.2872  0.8218
 2606SOL    HW219455   0.988   2.366   5.891  0.4574  0.9388 -0.5725
 2607SOL     OW19456   4.243   1.631   7.843 -0.2071  0.0196 -0.5387
 2607SOL    HW119457   4.263   1.539   7.858 -0.8505 -0.3353 -1.9338
 2607SOL    HW219458   4.179   1.644   7.913  0.8547 -2.0190  0.8191
 2608SOL     OW19459   2.055   3.541   1.721 -0.6873 -0.9551 -0.0084
 2608SOL    HW119460   1.987   3.488   1.763  1.8717 -2.3216  2.4254
 2608SOL    HW219461   2.022   3.553   1.631  1.6486 -0.6677 -0.8323
 2609SOL     OW19462   1.175   2.929   3.124  0.1185  0.5212  0.0077
 2609SOL    HW119463   1.249   2.957   3.177  1.0782  1.3305 -1.7411
 2609SOL    HW219464   1.219   2.925   3.039  0.6620  0.4085  0.2928
 2610SOL     OW19465   3.373   0.881   8.585  0.3985  0.0862  0.4340
 2610SOL    HW119466   3.331   0.947   8.530  0.7461  0.3344  0.4686
 2610SOL    HW219467   3.301   0.825   8.616  1.3344  0.1342  2.6918
 2611SOL     OW19468   1.000   2.497   9.866 -0.0080  0.0893 -0.3040
 2611SOL    HW119469   0.933   2.538   9.812 -1.0784  0.4473  1.2809
 2611SOL    HW219470   1.065   2.566   9.879 -0.5726  0.6252 -0.3366
 2612SOL     OW19471   1.912   3.144   7.904  0.2527  0.0570 -0.0828
 2612SOL    HW119472   1.893   3.144   7.810 -0.6796 -1.2771  0.1017
 2612SOL    HW219473   1.826   3.161   7.942  0.7175 -0.1777  1.0592
 2613SOL     OW19474   0.550   3.197   7.611 -0.1127  0.3410  0.9703
 2613SOL    HW119475   0.457   3.177   7.604  0.0295  0.0995 -0.2184
 2613SOL    HW219476   0.550   3.274   7.554 -1.7813 -1.7474 -1.8164
 2614SOL     OW19477   3.571   2.526   5.361 -0.4854 -0.1070 -0.0713
 2614SOL    HW119478   3.552   2.609   5.319 -1.3434 -1.0746 -1.6058
 2614SOL    HW219479   3.489   2.505   5.405  0.0558  0.4747  1.1940
 2615SOL     OW19480   3.962   3.979   2.920  0.4500 -0.3463  0.6330
 2615SOL    HW119481   3.877   4.007   2.954 -0.4263 -1.5908 -0.5190
 2615SOL    HW219482   3.934   3.904   2.867 -0.8167  0.6724 -0.1253
 2616SOL     OW19483   4.252   1.638  12.325 -0.2436  0.3948  0.2349
 2616SOL    HW119484   4.325   1.617  12.267  0.7021  2.5198  0.6555
 2616SOL    HW219485   4.188   1.569  12.305 -0.7935  0.9312  0.1428
 2617SOL     OW19486   4.535   2.601   5.191  0.1185  0.6987 -0.3062
 2617SOL    HW119487   4.536   2.696   5.174 -1.2785  0.8331  0.2805
 2617SOL    HW219488   4.500   2.565   5.110 -1.9255  0.6876  0.5546
 2618SOL     OW19489   1.919   3.166  11.826 -0.1930 -0.4022  0.3328
 2618SOL    HW119490   1.886   3.235  11.884  1.2195  0.6539 -0.1008
 2618SOL    HW219491   1.995   3.213  11.792  0.3981 -0.0541  2.1400
 2619SOL     OW19492   4.225   0.960   2.923  0.2452 -0.0126  0.0922
 2619SOL    HW119493   4.172   0.891   2.964 -0.1425  0.1107 -0.2058
 2619SOL    HW219494   4.303   0.963   2.978  0.5409  3.5161 -0.5471
 2620SOL     OW19495   2.460   2.295   7.752 -0.2560  0.4448 -1.2371
 2620SOL    HW119496   2.373   2.324   7.781 -0.5472 -0.6547 -1.0128
 2620SOL    HW219497   2.525   2.362   7.770 -1.0332  0.3981  1.6437
 2621SOL     OW19498   2.169   1.741   8.911 -0.1327 -0.4031  0.6902
 2621SOL    HW119499   2.231   1.805   8.946  2.7329 -2.5743 -0.4371
 2621SOL    HW219500   2.100   1.724   8.975 -0.3024 -3.2197 -0.2345
 2622SOL     OW19501   4.528   2.177  12.435 -0.2977  0.1416 -0.2473
 2622SOL    HW119502   4.516   2.151  12.527  3.1548 -1.7436 -0.3324
 2622SOL    HW219503   4.506   2.087  12.409 -0.3350  0.1559 -0.2653
 2623SOL     OW19504   0.453   4.153  12.477  0.2127  0.2057  0.2759
 2623SOL    HW119505   0.516   4.084  12.495 -0.4404  0.0938  2.0894
 2623SOL    HW219506   0.507   4.227  12.450  1.7933 -1.0424  0.0320
 2624SOL     OW19507   0.508   0.232   3.820 -0.0554  0.2461 -0.2819
 2624SOL    HW119508   0.463   0.286   3.754  0.5321  1.9861  0.7225
 2624SOL    HW219509   0.453   0.156   3.834 -1.5559  1.2685 -0.6035
 2625SOL     OW19510   3.235   0.969   4.939  0.1524  0.0995 -0.3336
 2625SOL    HW119511   3.189   0.887   4.953  1.4757 -0.5243  0.3708
 2625SOL    HW219512   3.165   1.027   4.970 -0.6737 -0.1029 -1.8279
 2626SOL     OW19513   1.025   0.879   7.970  0.0062  0.0791 -0.1928
 2626SOL    HW119514   0.996   0.964   8.005 -0.8483 -0.7007  0.9795
 2626SOL    HW219515   0.956   0.821   8.003  1.1554 -1.8535 -1.2120
 2627SOL     OW19516   1.271   3.352   9.445 -0.3103  0.0777 -0.0001
 2627SOL    HW119517   1.238   3.440   9.426 -0.7429  0.0815  0.7601
 2627SOL    HW219518   1.316   3.369   9.528  2.5214  1.3454 -1.8069
 2628SOL     OW19519   1.908   2.485  14.826 -0.0535  0.4438  0.4141
 2628SOL    HW119520   1.981   2.439  14.784 -1.6465 -0.0821 -1.8028
 2628SOL    HW219521   1.902   2.566  14.776 -1.3656 -0.0354 -0.2043
 2629SOL     OW19522   3.166   2.389  12.906 -0.2488  0.0127  0.6080
 2629SOL    HW119523   3.201   2.326  12.842 -5.3507 -0.7273 -1.3995
 2629SOL    HW219524   3.166   2.335  12.985  0.3989 -1.0830 -0.1219
 2630SOL     OW19525   2.649   4.023  17.445  0.1014 -0.3834 -0.1617
 2630SOL    HW119526   2.632   3.979  17.362  0.9579 -1.8769  0.4484
 2630SOL    HW219527   2.659   4.113  17.415  0.7212 -0.0120  1.1163
 2631SOL     OW19528   2.846   3.135   2.935 -0.7121 -0.2095  0.1762
 2631SOL    HW119529   2.931   3.177   2.939  0.1089 -1.8246 -0.3892
 2631SOL    HW219530   2.801   3.183   2.865  0.1966 -0.0404 -0.2823
 2632SOL     OW19531   0.001   0.045  15.148  0.1495  0.6315 -0.6440
 2632SOL    HW119532   4.709   0.136  15.157 -3.3356 -0.4942 -0.0121
 2632SOL    HW219533   0.023   0.021  15.239  0.8218  3.0646 -0.1613
 2633SOL     OW19534   3.081   2.755   7.420  0.1243  0.6723  0.8230
 2633SOL    HW119535   3.030   2.823   7.376 -0.9548  0.0255  1.0655
 2633SOL    HW219536   3.087   2.774   7.513  0.7226  1.1144  0.6970
 2634SOL     OW19537   2.343   4.145   7.485 -0.2263  0.2196  0.2460
 2634SOL    HW119538   2.315   4.135   7.576 -0.2347 -0.4708  0.1667
 2634SOL    HW219539   2.303   4.074   7.436  1.2869 -1.3706  1.3320
 2635SOL     OW19540   4.104   2.589   9.543  0.5730 -0.4536 -0.4139
 2635SOL    HW119541   4.122   2.668   9.491 -0.7735 -0.9266 -1.5863
 2635SOL    HW219542   4.140   2.612   9.629  1.1913 -0.2986 -0.7179
 2636SOL     OW19543   4.275   0.170  14.992  0.4681 -0.1074 -0.3248
 2636SOL    HW119544   4.293   0.127  15.075 -0.8016  0.5079  0.2609
 2636SOL    HW219545   4.360   0.166  14.948 -0.0230 -0.3456 -1.2545
 2637SOL     OW19546   0.303   1.063   9.569  0.6512 -0.0073 -0.3190
 2637SOL    HW119547   0.254   0.988   9.602 -1.4818  0.8753 -1.4595
 2637SOL    HW219548   0.383   1.021   9.536  0.7737  0.1328 -0.2030
 2638SOL     OW19549   4.494   4.256   2.025  0.2610 -0.3636 -0.3086
 2638SOL    HW119550   4.456   4.168   2.027 -0.4455  0.0005  2.2747
 2638SOL    HW219551   4.578   4.232   2.065  0.4429  0.6880 -0.0605
 2639SOL     OW19552   3.737   2.137   4.374 -0.4247  0.3611 -0.4320
 2639SOL    HW119553   3.772   2.204   4.433  1.9041 -2.3733  1.3058
 2639SOL    HW219554   3.786   2.066   4.416 -0.7039 -0.7956 -2.0538
 2640SOL     OW19555   0.885   4.164  10.972 -0.7806  0.1409  0.4304
 2640SOL    HW119556   0.941   4.176  11.049  1.6837  0.4518 -1.4182
 2640SOL    HW219557   0.811   4.225  10.979  0.9920  2.2906  0.3232
 2641SOL     OW19558   1.967   2.727   8.540 -0.0681  0.3231  0.0081
 2641SOL    HW119559   1.978   2.793   8.472 -0.0557 -2.0009 -2.2242
 2641SOL    HW219560   2.000   2.649   8.497  0.7281  1.2796 -1.1287
 2642SOL     OW19561   2.868   0.785  11.602 -0.1610  0.3199 -0.1446
 2642SOL    HW119562   2.867   0.858  11.663  1.0315 -0.1216  0.4059
 2642SOL    HW219563   2.872   0.711  11.663 -1.5965  1.9536  1.8863
 2643SOL     OW19564   1.810   2.814   1.138  0.1926  0.0426 -0.2031
 2643SOL    HW119565   1.858   2.897   1.133  0.7536 -0.2075  0.8933
 2643SOL    HW219566   1.876   2.753   1.171 -1.1097 -0.7488  0.9129
 2644SOL     OW19567   4.558   3.579   4.551 -0.6379  0.1798  0.5956
 2644SOL    HW119568   4.475   3.535   4.565 -0.4323 -0.8679 -1.5266
 2644SOL    HW219569   4.619   3.530   4.607 -0.0079 -0.4350 -0.6136
 2645SOL     OW19570   2.351   3.857   3.444 -0.2707  0.0104  0.2471
 2645SOL    HW119571   2.338   3.795   3.516 -1.8162 -0.7528 -0.6783
 2645SOL    HW219572   2.410   3.922   3.481 -2.3883  0.7457  2.3629
 2646SOL     OW19573   4.115   3.576   3.213  0.2700  0.4159  0.3108
 2646SOL    HW119574   4.072   3.662   3.212 -2.3296 -0.8991  0.5373
 2646SOL    HW219575   4.186   3.580   3.277  0.3204 -3.1078  0.4543
 2647SOL     OW19576   2.620   2.087   8.238 -0.1428  0.1301 -0.0159
 2647SOL    HW119577   2.713   2.085   8.261 -0.1529 -0.6926 -0.0548
 2647SOL    HW219578   2.597   1.994   8.238 -2.3084  0.6512 -0.4526
 2648SOL     OW19579   3.959   1.015  10.790 -0.4610 -0.0394 -0.1026
 2648SOL    HW119580   3.960   0.967  10.874  0.5455  0.5440  0.2109
 2648SOL    HW219581   4.015   1.092  10.802  0.0979 -0.1564 -1.9762
 2649SOL     OW19582   2.459   0.789   3.352 -0.1252 -0.0264  0.1838
 2649SOL    HW119583   2.396   0.852   3.388  0.1956  0.4796 -0.1379
 2649SOL    HW219584   2.499   0.753   3.431 -0.2936 -1.4501 -0.3837
 2650SOL     OW19585   0.638   0.948   2.868 -0.2557  0.3495 -0.1763
 2650SOL    HW119586   0.594   0.866   2.890 -0.1767  0.7206  1.3447
 2650SOL    HW219587   0.621   0.951   2.774  0.0720  0.7129 -0.2198
 2651SOL     OW19588   2.800   2.539   4.612 -0.4004  0.0205 -0.0446
 2651SOL    HW119589   2.795   2.443   4.612  0.1720 -0.0195  2.0724
 2651SOL    HW219590   2.885   2.549   4.655 -0.3649 -1.8439  0.3318
 2652SOL     OW19591   3.276   3.398  17.019 -0.8081  0.3175 -0.1091
 2652SOL    HW119592   3.192   3.372  17.057 -0.3593  0.2254  0.8226
 2652SOL    HW219593   3.279   3.343  16.941  0.1798  1.1936 -0.6870
 2653SOL     OW19594   3.290   3.017  13.596 -0.1322  0.1189  0.2066
 2653SOL    HW119595   3.306   2.979  13.510 -0.7022  0.1182  0.0984
 2653SOL    HW219596   3.370   3.069  13.603 -1.0211  1.6811 -1.3096
 2654SOL     OW19597   1.873   2.475   1.258  0.2659 -0.4029 -0.0745
 2654SOL    HW119598   1.952   2.523   1.234  0.8118 -0.5607  1.3729
 2654SOL    HW219599   1.857   2.495   1.351  2.6743  0.8459  0.0598
 2655SOL     OW19600   3.536   3.306   2.848 -0.0671  0.2937 -1.0642
 2655SOL    HW119601   3.594   3.362   2.797 -1.1030  2.5326  0.2213
 2655SOL    HW219602   3.502   3.367   2.914  0.3729 -2.7874  2.0380
 2656SOL     OW19603   2.202   4.516   8.874  0.3948  0.1904  0.2186
 2656SOL    HW119604   2.125   4.494   8.926 -0.7651  2.1051 -0.6995
 2656SOL    HW219605   2.244   4.588   8.921  0.1467  0.3002  0.2736
 2657SOL     OW19606   1.013   1.920   6.372  0.7889 -0.1892  1.1061
 2657SOL    HW119607   1.058   1.965   6.299 -0.8142 -1.1608 -0.4752
 2657SOL    HW219608   1.004   1.984   6.443 -0.1093 -1.2513  1.9391
 2658SOL     OW19609   3.002   0.453  16.938 -0.1184  0.3502 -0.1999
 2658SOL    HW119610   2.950   0.407  16.872 -0.1655 -1.5504  1.1768
 2658SOL    HW219611   3.091   0.448  16.903  0.6180  1.2250  1.5341
 2659SOL     OW19612   1.329   2.267  14.329  0.1997 -0.3312  0.3758
 2659SOL    HW119613   1.419   2.278  14.359  0.2424 -0.6267  0.3552
 2659SOL    HW219614   1.295   2.215  14.402 -3.4742  0.3476 -0.8081
 2660SOL     OW19615   0.589   0.598   6.503 -0.2138 -0.4039  0.0321
 2660SOL    HW119616   0.573   0.607   6.597  0.4989 -1.0317  0.2156
 2660SOL    HW219617   0.502   0.623   6.473 -1.0822  0.0706  2.8967
 2661SOL     OW19618   2.174   4.127   5.725 -0.0883 -0.8362  0.0421
 2661SOL    HW119619   2.215   4.074   5.657  0.5285 -0.5645  0.2104
 2661SOL    HW219620   2.180   4.063   5.796 -1.9871 -1.2471 -0.1656
 2662SOL     OW19621   2.839   4.042  12.020  0.6210 -0.3266 -0.2873
 2662SOL    HW119622   2.828   3.965  11.965 -1.4608 -0.7149  0.6856
 2662SOL    HW219623   2.762   4.042  12.077 -0.3376 -1.2921 -1.5608
 2663SOL     OW19624   4.137   2.220  17.505 -0.0254  0.1779 -0.3613
 2663SOL    HW119625   4.170   2.134  17.531  1.5429  0.9038 -0.0162
 2663SOL    HW219626   4.147   2.276  17.582 -0.1249  1.8128 -1.5541
 2664SOL     OW19627   4.152   3.765   6.751 -0.2845  0.1232 -0.2899
 2664SOL    HW119628   4.115   3.696   6.696 -0.4327 -0.4613  0.5433
 2664SOL    HW219629   4.153   3.834   6.685  0.4368  0.0427 -0.3559
 2665SOL     OW19630   3.554   2.267   9.047 -0.5796 -0.4982  0.1198
 2665SOL    HW119631   3.489   2.335   9.061 -2.5136 -2.1067 -0.9821
 2665SOL    HW219632   3.584   2.251   9.137  0.1431  1.1166  0.1543
 2666SOL     OW19633   2.985   2.695   1.620 -0.0158 -0.1524 -0.3723
 2666SOL    HW119634   2.902   2.673   1.577 -0.4580 -2.0946  1.5055
 2666SOL    HW219635   3.035   2.695   1.538 -0.0554 -1.0147 -0.3964
 2667SOL     OW19636   2.031   0.589  10.699  0.4164 -0.1651 -0.2162
 2667SOL    HW119637   2.086   0.654  10.741 -2.1077 -0.2398  3.2022
 2667SOL    HW219638   2.100   0.523  10.694  0.3335 -0.1200 -2.1576
 2668SOL     OW19639   4.727   3.800   2.338  0.1194 -0.0761 -0.1649
 2668SOL    HW119640   4.669   3.859   2.387 -0.6838 -0.3201 -0.8219
 2668SOL    HW219641   4.664   3.770   2.273  1.6933  1.1915 -2.3118
 2669SOL     OW19642   0.258   4.607   4.770 -0.7184 -0.3166 -0.2234
 2669SOL    HW119643   0.276   4.545   4.700  0.6734 -1.0326  0.7500
 2669SOL    HW219644   0.330   4.605   4.833 -0.7568 -2.1686 -0.2399
 2670SOL     OW19645   4.032   3.002   3.993 -0.0528 -0.5594  0.1212
 2670SOL    HW119646   4.072   3.088   4.006  0.0293 -0.5299 -0.3192
 2670SOL    HW219647   4.089   2.976   3.920 -0.8791 -1.4768 -0.1890
 2671SOL     OW19648   2.744   2.116   6.919 -0.0489 -0.1748 -0.2542
 2671SOL    HW119649   2.839   2.129   6.929  0.2984 -3.2055  0.3035
 2671SOL    HW219650   2.726   2.168   6.841 -1.2391  0.0771  0.1909
 2672SOL     OW19651   2.621   0.738  14.974 -0.1742  0.1674  0.3396
 2672SOL    HW119652   2.598   0.808  14.913  0.6212  1.6813  1.7729
 2672SOL    HW219653   2.699   0.776  15.014 -0.5540 -0.3746  1.6073
 2673SOL     OW19654   2.107   4.317   7.031 -0.5866  0.1669  0.1567
 2673SOL    HW119655   2.055   4.317   7.112 -0.7947  2.1612  0.0023
 2673SOL    HW219656   2.164   4.392   7.042  0.5346 -0.6475 -0.1045
 2674SOL     OW19657   0.857   1.029   8.448  0.1756 -0.2674 -0.2334
 2674SOL    HW119658   0.900   1.111   8.424 -1.2259  0.0550 -1.5839
 2674SOL    HW219659   0.811   1.047   8.530 -0.2553 -2.8306  0.0836
 2675SOL     OW19660   3.421   4.229   5.820  0.2472 -0.1849  0.4336
 2675SOL    HW119661   3.338   4.193   5.788 -0.1356  2.5050 -1.6666
 2675SOL    HW219662   3.424   4.299   5.754 -0.9963  1.1203  1.7555
 2676SOL     OW19663   0.214   1.284   5.852  0.4348  0.6169  0.2141
 2676SOL    HW119664   0.147   1.321   5.795 -0.0317  0.5034  0.6840
 2676SOL    HW219665   0.287   1.274   5.791  0.0453  0.3238 -0.2087
 2677SOL     OW19666   2.880   0.057   8.760 -0.3243  0.4056 -0.1139
 2677SOL    HW119667   2.921   0.098   8.684 -2.3843  1.5206 -0.6234
 2677SOL    HW219668   2.811   0.121   8.777 -1.5566 -0.3584 -2.1700
 2678SOL     OW19669   2.072   4.539  10.954 -0.4235 -0.2986 -0.1397
 2678SOL    HW119670   2.115   4.455  10.936 -0.4535 -0.3908  0.2232
 2678SOL    HW219671   2.139   4.600  10.923 -0.3336  0.7667  2.1729
 2679SOL     OW19672   1.327   3.280   6.927  0.0274  0.2580  0.5315
 2679SOL    HW119673   1.271   3.279   7.005 -2.0382 -1.6083 -0.9917
 2679SOL    HW219674   1.402   3.329   6.960  0.7738  0.8524 -2.0691
 2680SOL     OW19675   0.729   3.074   9.095  0.2961 -0.4207  0.3350
 2680SOL    HW119676   0.794   3.052   9.161  1.4366  1.8382 -0.0494
 2680SOL    HW219677   0.690   2.988   9.076 -0.4422 -0.2698  1.1663
 2681SOL     OW19678   0.283   3.496   5.717  0.2592 -0.3315 -0.1161
 2681SOL    HW119679   0.230   3.476   5.793 -0.9589 -0.3962 -0.9808
 2681SOL    HW219680   0.285   3.418   5.662 -3.2937  0.7282 -1.7337
 2682SOL     OW19681   0.747   0.094  13.998  0.3066  0.2848  0.4921
 2682SOL    HW119682   0.795   0.114  13.917 -0.0947  0.0675  0.1967
 2682SOL    HW219683   0.775   0.003  14.010 -0.4291  0.0906  0.7558
 2683SOL     OW19684   1.990   3.570   9.102 -0.8377 -0.1587 -0.0254
 2683SOL    HW119685   2.012   3.498   9.041  2.3699 -0.5819  1.6103
 2683SOL    HW219686   1.980   3.522   9.184  0.9709 -0.6689 -0.0983
 2684SOL     OW19687   3.421   3.836   2.412 -0.2503 -0.2014 -0.4315
 2684SOL    HW119688   3.349   3.793   2.367  1.1154 -2.5215 -0.4181
 2684SOL    HW219689   3.476   3.883   2.349 -0.3498 -0.4266 -0.6880
 2685SOL     OW19690   0.548   4.156   2.454 -0.9174 -0.0294 -0.5011
 2685SOL    HW119691   0.590   4.078   2.492 -0.0649  0.0210 -1.3383
 2685SOL    HW219692   0.558   4.143   2.359 -1.0900  0.6812 -0.6111
 2686SOL     OW19693   2.455   0.577  15.542 -1.0192  0.8292  0.4888
 2686SOL    HW119694   2.478   0.628  15.464 -0.8991  1.5565  0.9922
 2686SOL    HW219695   2.362   0.601  15.540 -0.6868  2.0466 -0.3729
 2687SOL     OW19696   2.928   0.705   4.496 -0.1555  0.2248  0.0725
 2687SOL    HW119697   2.898   0.794   4.513  0.7082  0.2607  1.4139
 2687SOL    HW219698   2.974   0.727   4.414 -0.9550  2.0504  0.1168
 2688SOL     OW19699   1.052   3.342   3.617  0.5445 -0.1018  0.8454
 2688SOL    HW119700   1.021   3.283   3.549 -0.7920  2.6128 -0.8848
 2688SOL    HW219701   1.090   3.414   3.566  1.9515 -1.1806  0.3732
 2689SOL     OW19702   0.644   2.442   8.531  0.3707 -0.0504 -0.0217
 2689SOL    HW119703   0.676   2.444   8.440  0.7438  1.4441  0.1386
 2689SOL    HW219704   0.713   2.491   8.575 -2.6700  2.2732  2.1397
 2690SOL     OW19705   3.857   2.722   4.712  0.3707  0.5060  0.2932
 2690SOL    HW119706   3.843   2.797   4.654 -1.6204 -0.0828  0.0002
 2690SOL    HW219707   3.900   2.665   4.649 -0.8124  1.0804 -1.0406
 2691SOL     OW19708   1.653   4.273   4.636 -0.3788  0.3256 -0.6619
 2691SOL    HW119709   1.657   4.347   4.695 -2.0124 -1.2459  1.4293
 2691SOL    HW219710   1.704   4.205   4.681  1.0429  0.0784 -2.6461
 2692SOL     OW19711   3.355   2.717   4.136 -0.3842 -0.2495  0.2220
 2692SOL    HW119712   3.404   2.800   4.140 -0.9761  0.1085  0.1133
 2692SOL    HW219713   3.330   2.716   4.044  0.8885 -2.4265 -0.0903
 2693SOL     OW19714   1.291   0.215   6.591  0.0877 -0.0913 -0.2318
 2693SOL    HW119715   1.372   0.205   6.541  1.2768 -2.3925  2.2074
 2693SOL    HW219716   1.305   0.305   6.621 -1.3872  0.4693 -1.2204
 2694SOL     OW19717   3.304   3.263   4.201  0.3525  0.1504  0.5349
 2694SOL    HW119718   3.317   3.345   4.249 -0.5339 -0.7154  2.3063
 2694SOL    HW219719   3.322   3.190   4.261 -0.1378  0.6693  1.3265
 2695SOL     OW19720   1.063   4.203   8.681  0.4612 -0.3663  0.0072
 2695SOL    HW119721   0.968   4.211   8.670  0.3394  0.9504  2.1294
 2695SOL    HW219722   1.087   4.167   8.595  1.0027 -0.0640  0.0329
 2696SOL     OW19723   1.225   3.425   6.487  0.5119 -0.0872 -0.0566
 2696SOL    HW119724   1.141   3.437   6.443  0.5039 -0.1368 -0.0548
 2696SOL    HW219725   1.233   3.486   6.561  0.1044 -0.2434  0.1152
 2697SOL     OW19726   2.679   1.910  17.235 -0.5319 -0.1971  0.3290
 2697SOL    HW119727   2.709   2.001  17.236  1.0912 -0.7343  0.1332
 2697SOL    HW219728   2.671   1.895  17.329  1.4972  1.1278  0.7321
 2698SOL     OW19729   3.452   1.899   6.672  0.0038  0.3207 -0.5032
 2698SOL    HW119730   3.525   1.839   6.688  0.3838  0.4654 -1.6834
 2698SOL    HW219731   3.485   1.978   6.716 -1.3857  1.1246 -0.8940
 2699SOL     OW19732   3.195   3.806  16.478  0.8564 -0.5570  0.2106
 2699SOL    HW119733   3.282   3.805  16.518 -0.2687 -1.4529  2.6060
 2699SOL    HW219734   3.188   3.895  16.443  1.7355  0.3675  2.3439
 2700SOL     OW19735   2.682   1.490   6.281  0.4762 -0.2826  0.1325
 2700SOL    HW119736   2.737   1.538   6.220  0.0338 -0.7212 -0.6001
 2700SOL    HW219737   2.745   1.472   6.351  0.4118  0.2664  0.3358
 2701SOL     OW19738   3.294   1.275  16.808  0.0372 -0.3785  0.2343
 2701SOL    HW119739   3.243   1.313  16.879 -1.0190  0.1236 -0.7771
 2701SOL    HW219740   3.239   1.298  16.733 -0.1518 -0.8519  0.2309
 2702SOL     OW19741   2.715   2.757  11.845  0.0539  0.2219  0.4153
 2702SOL    HW119742   2.783   2.725  11.904 -0.1213 -1.8799 -0.5258
 2702SOL    HW219743   2.655   2.683  11.852  1.6694 -1.0724  0.6280
 2703SOL     OW19744   0.158   3.233   5.027 -0.0678  0.3057  0.5518
 2703SOL    HW119745   0.167   3.144   5.063  0.6488 -0.0919 -0.6186
 2703SOL    HW219746   0.187   3.238   4.936  1.4620  0.6681  1.0499
 2704SOL     OW19747   1.123   4.367   1.135 -0.1122  0.2162 -0.2716
 2704SOL    HW119748   1.136   4.413   1.052 -0.7685  1.2696  0.2164
 2704SOL    HW219749   1.113   4.444   1.190 -1.3557 -0.2497  0.1581
 2705SOL     OW19750   4.147   3.034   8.073  0.5382 -0.4603  0.2725
 2705SOL    HW119751   4.153   2.960   8.014  1.6487  0.9942 -1.4357
 2705SOL    HW219752   4.191   3.005   8.153 -2.0545 -1.2009  1.4432
 2706SOL     OW19753   1.936   4.348   6.277 -0.3209  0.2885 -0.1336
 2706SOL    HW119754   2.007   4.370   6.217 -1.0170  1.8976 -0.3496
 2706SOL    HW219755   1.877   4.410   6.235 -1.5319 -0.5556  0.3407
 2707SOL     OW19756   4.257   2.682  14.177 -0.0978  0.0486  0.4397
 2707SOL    HW119757   4.329   2.678  14.114 -1.0261 -1.7616 -0.4911
 2707SOL    HW219758   4.302   2.659  14.258 -0.2673 -0.3077  0.4321
 2708SOL     OW19759   0.888   3.915   8.370  0.0300 -0.0958 -0.2521
 2708SOL    HW119760   0.826   3.842   8.372 -1.7761  1.4177 -0.0903
 2708SOL    HW219761   0.965   3.860   8.376 -0.9202 -1.3826  0.1375
 2709SOL     OW19762   2.030   2.396   3.192 -0.0880 -0.2348  0.0270
 2709SOL    HW119763   2.007   2.412   3.101 -0.7384 -1.7973 -0.0848
 2709SOL    HW219764   2.041   2.489   3.210 -1.0251 -0.4660  1.8584
 2710SOL     OW19765   0.172   2.040   6.201  0.1452 -0.3137 -0.0620
 2710SOL    HW119766   0.110   2.113   6.201  0.4529 -0.0525  0.2235
 2710SOL    HW219767   0.196   2.017   6.291 -0.4545 -0.4586  0.0632
 2711SOL     OW19768   1.085   4.530   2.466 -0.1790  0.1224 -0.1950
 2711SOL    HW119769   1.040   4.469   2.407  1.3384 -0.9594 -0.2406
 2711SOL    HW219770   1.169   4.491   2.487  0.8622  2.0335 -0.8151
 2712SOL     OW19771   1.325   4.582  14.088 -0.1424  0.4391  0.0412
 2712SOL    HW119772   1.381   4.513  14.052 -2.5505 -1.8032  0.6195
 2712SOL    HW219773   1.394   4.635  14.127  0.6169  1.2814 -2.4675
 2713SOL     OW19774   2.238   0.140   6.913 -0.3408 -0.0487 -0.1869
 2713SOL    HW119775   2.184   0.212   6.945 -1.7480 -1.0653 -0.2868
 2713SOL    HW219776   2.324   0.150   6.954 -0.2144 -0.7994 -0.2777
 2714SOL     OW19777   3.966   1.573  17.348 -0.8618  0.2949  0.1138
 2714SOL    HW119778   3.922   1.654  17.371  1.6345  1.4686  0.7177
 2714SOL    HW219779   3.898   1.507  17.365 -0.5416 -0.2122 -0.5498
 2715SOL     OW19780   0.648   1.066   6.785 -0.3925 -0.0753  0.3008
 2715SOL    HW119781   0.583   1.064   6.715 -0.3292 -1.8963  0.2962
 2715SOL    HW219782   0.611   1.138   6.837 -0.1185  1.9872 -2.4014
 2716SOL     OW19783   3.896   1.941   3.393  0.0189  0.8390  0.2835
 2716SOL    HW119784   3.971   1.978   3.440 -0.8254  0.6300  1.8246
 2716SOL    HW219785   3.907   1.981   3.307 -1.1617 -0.0394 -0.2676
 2717SOL     OW19786   4.053   3.596   3.672 -0.1254  0.0019  0.5038
 2717SOL    HW119787   4.111   3.551   3.733  0.5926 -1.5527 -1.3210
 2717SOL    HW219788   4.107   3.668   3.640 -0.5765 -0.7081 -1.8531
 2718SOL     OW19789   2.697   4.659   6.439  0.4856 -0.3445 -0.4121
 2718SOL    HW119790   2.691   4.579   6.491 -1.4171 -0.0830 -0.2272
 2718SOL    HW219791   2.681   4.728   6.504  2.2360  0.7335 -1.1202
 2719SOL     OW19792   1.998   4.473   3.092  0.3548 -0.3494  0.6841
 2719SOL    HW119793   2.009   4.567   3.107  0.1795  0.0535 -1.6827
 2719SOL    HW219794   1.909   4.469   3.126  0.7888 -1.8013  1.6496
 2720SOL     OW19795   1.553   0.703   5.491 -0.4723 -0.7084 -0.0528
 2720SOL    HW119796   1.584   0.658   5.570 -1.8830  0.1911  1.0197
 2720SOL    HW219797   1.597   0.651   5.424  0.8977 -1.5996  1.5495
 2721SOL     OW19798   2.004   0.347   6.726  0.4074  0.4985 -0.4093
 2721SOL    HW119799   1.945   0.299   6.783 -0.8477  0.1942 -1.9581
 2721SOL    HW219800   1.956   0.428   6.708 -3.1020 -1.3177  0.9090
 2722SOL     OW19801   3.017   4.173   8.435 -0.2941 -0.8119  0.0546
 2722SOL    HW119802   2.988   4.211   8.518 -1.1082  0.1712 -0.6829
 2722SOL    HW219803   3.090   4.222   8.397 -0.1336 -2.1499 -1.3830
 2723SOL     OW19804   0.780   4.401   2.556  0.3816 -0.4305 -0.2017
 2723SOL    HW119805   0.831   4.320   2.547 -2.5993 -2.4931  1.1383
 2723SOL    HW219806   0.840   4.474   2.543  1.2925 -1.1025  0.2492
 2724SOL     OW19807   4.630   3.946  15.251  0.2276  0.4774  0.2136
 2724SOL    HW119808   4.688   4.002  15.200  1.9854 -0.5430  1.1176
 2724SOL    HW219809   4.661   3.857  15.238  0.5142  0.6052  0.0369
 2725SOL     OW19810   3.360   1.281   2.354  0.2626 -0.4688  0.1515
 2725SOL    HW119811   3.378   1.362   2.307 -0.3450 -0.3283  0.1547
 2725SOL    HW219812   3.320   1.222   2.290  0.3733 -0.0305 -0.3220
 2726SOL     OW19813   3.494   0.735  14.884  0.4082 -0.1602  0.1514
 2726SOL    HW119814   3.549   0.656  14.884 -0.9005 -1.0753 -0.5692
 2726SOL    HW219815   3.430   0.707  14.819  0.7706  0.4081 -0.4609
 2727SOL     OW19816   3.484   0.557  10.338  0.5010  1.1922 -0.4622
 2727SOL    HW119817   3.529   0.499  10.399 -0.8789  1.1847  0.5267
 2727SOL    HW219818   3.536   0.543  10.259 -0.2581  1.5786 -1.0249
 2728SOL     OW19819   1.486   2.598  15.141 -0.0706 -0.4459  0.6793
 2728SOL    HW119820   1.522   2.660  15.205  0.0226  2.1131 -1.8783
 2728SOL    HW219821   1.397   2.623  15.164 -0.5940 -0.4597 -1.3307
 2729SOL     OW19822   3.104   1.016   0.302  0.8471 -0.1636 -0.0417
 2729SOL    HW119823   3.101   0.964   0.383 -1.6512 -0.3586 -0.2539
 2729SOL    HW219824   3.114   1.101   0.345 -0.7871  1.0798 -2.1487
 2730SOL     OW19825   3.566   0.411   0.139 -0.2895 -0.0895 -0.7884
 2730SOL    HW119826   3.612   0.494   0.132 -3.2420  1.6131  0.0928
 2730SOL    HW219827   3.605   0.381   0.221  0.3237  1.9871 -0.3308
 2731SOL     OW19828   2.308   2.475   1.771 -0.3830 -0.0361 -0.3640
 2731SOL    HW119829   2.305   2.528   1.691  2.0821 -1.1118 -1.1739
 2731SOL    HW219830   2.369   2.536   1.812 -0.7291  1.9792 -2.7984
 2732SOL     OW19831   1.204   2.385   1.061 -0.1624 -0.3694 -0.3926
 2732SOL    HW119832   1.130   2.350   1.012 -0.0589  1.1139 -1.6290
 2732SOL    HW219833   1.153   2.418   1.135  1.6622  0.1370  0.6473
 2733SOL     OW19834   3.313   2.153   2.609 -0.7271 -0.3685  0.4170
 2733SOL    HW119835   3.219   2.166   2.596 -0.1869  0.8228 -2.2803
 2733SOL    HW219836   3.318   2.057   2.601  0.1697 -0.3071  0.3241
 2734SOL     OW19837   3.782   2.964   5.546  0.0969 -0.4654  0.0632
 2734SOL    HW119838   3.833   2.949   5.467 -1.5128  2.8185 -1.6022
 2734SOL    HW219839   3.834   2.917   5.611 -0.3563 -1.0164  0.0278
 2735SOL     OW19840   0.472   3.138   4.951  0.6342  0.0255  0.0813
 2735SOL    HW119841   0.422   3.202   4.901  2.2259  0.5045 -0.8889
 2735SOL    HW219842   0.496   3.073   4.884 -0.2332 -1.0172  0.7765
 2736SOL     OW19843   0.436   2.982  16.226  0.0300  0.5918  0.0240
 2736SOL    HW119844   0.398   2.992  16.313 -0.6409 -1.9854  0.0309
 2736SOL    HW219845   0.362   2.993  16.167  0.7236 -0.7376 -1.1095
 2737SOL     OW19846   0.685   1.014   5.836  0.5142  0.5310 -0.4037
 2737SOL    HW119847   0.590   1.011   5.827  0.4940  3.2144 -1.2287
 2737SOL    HW219848   0.713   0.998   5.746 -0.6855 -2.6417 -0.2076
 2738SOL     OW19849   2.620   4.292  17.320 -0.6552  0.2339 -0.5717
 2738SOL    HW119850   2.652   4.324  17.236 -0.0209  3.0691  0.7578
 2738SOL    HW219851   2.544   4.241  17.291  0.0636 -0.1609 -1.7544
 2739SOL     OW19852   4.260   1.541  12.621  0.5651  0.1809  0.1076
 2739SOL    HW119853   4.259   1.568  12.530 -1.6278  0.9332  0.3532
 2739SOL    HW219854   4.301   1.455  12.615  0.7037  0.2547 -0.0140
 2740SOL     OW19855   0.419   2.636  14.265 -0.2927 -0.6821 -0.5003
 2740SOL    HW119856   0.496   2.694  14.266 -0.9421  0.1648  0.5654
 2740SOL    HW219857   0.430   2.606  14.355 -1.2943  0.1843 -0.0964
 2741SOL     OW19858   3.102   4.528   5.370  0.5006 -0.6000 -0.1323
 2741SOL    HW119859   3.171   4.550   5.432  0.0241 -2.1567  0.9503
 2741SOL    HW219860   3.132   4.586   5.300 -0.4796  0.6931  0.5169
 2742SOL     OW19861   3.766   2.101   5.520  0.1038 -0.0625  0.4062
 2742SOL    HW119862   3.807   2.103   5.607  0.7028  2.5849  0.0842
 2742SOL    HW219863   3.764   2.193   5.494  0.5164  0.7725  3.3656
 2743SOL     OW19864   0.474   2.008   4.358 -0.2838 -0.8529 -0.6153
 2743SOL    HW119865   0.460   1.935   4.418 -0.6960 -0.4798 -0.2581
 2743SOL    HW219866   0.383   2.019   4.331 -0.4233 -0.6725 -0.0580
 2744SOL     OW19867   1.111   0.755   2.960 -0.2321  0.3115  0.1885
 2744SOL    HW119868   1.196   0.721   2.932  0.1705  0.3387  1.3616
 2744SOL    HW219869   1.056   0.721   2.889  0.2975  1.0116 -0.5482
 2745SOL     OW19870   0.767   1.833   3.259 -0.3736 -0.5303  0.5268
 2745SOL    HW119871   0.722   1.861   3.179 -0.0428 -2.4730 -0.3519
 2745SOL    HW219872   0.844   1.814   3.205 -1.2769 -1.9741 -0.2734
 2746SOL     OW19873   1.987   4.152  14.165 -0.3839 -0.3545  0.2327
 2746SOL    HW119874   1.965   4.154  14.259 -0.5429 -1.5873  0.2139
 2746SOL    HW219875   1.909   4.193  14.129  0.7727  2.0111  0.3998
 2747SOL     OW19876   0.331   4.236  16.520 -0.3429  0.2219  0.0095
 2747SOL    HW119877   0.339   4.163  16.459  2.8236  0.6301 -0.0462
 2747SOL    HW219878   0.421   4.269  16.525 -0.8470  1.8406 -1.5214
 2748SOL     OW19879   1.640   3.525  12.153 -0.2372 -0.0097  0.1389
 2748SOL    HW119880   1.637   3.615  12.186 -0.6990  0.0695 -0.1183
 2748SOL    HW219881   1.630   3.533  12.058  1.7433 -0.1287 -0.0836
 2749SOL     OW19882   1.273   1.536  14.300  0.8354  0.4544 -0.6621
 2749SOL    HW119883   1.327   1.465  14.335 -0.0642 -0.7665 -1.7856
 2749SOL    HW219884   1.329   1.556  14.226  2.3469 -0.8957  0.1078
 2750SOL     OW19885   4.123   0.601  15.716  0.6245  0.0807 -0.2381
 2750SOL    HW119886   4.102   0.694  15.703 -0.6687 -0.1168  0.5012
 2750SOL    HW219887   4.037   0.573  15.746 -0.0888 -0.0706 -2.3824
 2751SOL     OW19888   3.310   3.751   5.314 -0.0015 -0.0788  0.8469
 2751SOL    HW119889   3.267   3.672   5.282  0.4926  0.2743 -0.6933
 2751SOL    HW219890   3.298   3.810   5.240  0.8971 -0.2846  0.5447
 2752SOL     OW19891   1.838   3.992   3.920 -0.1257 -0.8071 -0.5038
 2752SOL    HW119892   1.856   3.903   3.890  0.6563 -0.9297  0.3460
 2752SOL    HW219893   1.762   4.015   3.865 -0.4461 -2.1881 -0.6517
 2753SOL     OW19894   4.597   2.238  15.080  0.3850 -0.5352  0.1657
 2753SOL    HW119895   4.642   2.164  15.039  0.3087 -0.4395 -0.0943
 2753SOL    HW219896   4.512   2.223  15.038 -0.2325  0.3021  1.1342
 2754SOL     OW19897   3.579   0.781   6.562 -0.0473  0.3482 -0.3369
 2754SOL    HW119898   3.497   0.826   6.582  0.9073  2.8394 -2.0741
 2754SOL    HW219899   3.588   0.791   6.468 -0.4483  0.4683 -0.3621
 2755SOL     OW19900   1.667   4.088   6.123 -0.0803 -0.2673  0.2414
 2755SOL    HW119901   1.593   4.030   6.107 -2.1186  2.7609 -1.4266
 2755SOL    HW219902   1.631   4.151   6.186  3.9562 -0.0160  2.3270
 2756SOL     OW19903   0.958   4.695   7.415 -0.0067  0.1363  0.0306
 2756SOL    HW119904   0.912   4.616   7.443 -1.6306  0.9668 -0.2714
 2756SOL    HW219905   0.986   4.667   7.328  0.2997 -1.1187  0.5366
 2757SOL     OW19906   3.295   2.836   2.904  0.9729 -0.1072  0.6273
 2757SOL    HW119907   3.339   2.755   2.878 -0.8842 -0.4787 -1.4019
 2757SOL    HW219908   3.366   2.882   2.949 -1.0048  0.2917  3.3619
 2758SOL     OW19909   4.264   2.396   7.055 -0.4975  0.2171 -0.2423
 2758SOL    HW119910   4.359   2.388   7.046 -0.4096 -1.9177  2.7216
 2758SOL    HW219911   4.249   2.449   6.977 -3.1270 -3.2345 -2.0719
 2759SOL     OW19912   0.831   2.371   0.599 -0.0715  0.3490  0.4373
 2759SOL    HW119913   0.789   2.325   0.671  0.9100 -2.1870 -0.6115
 2759SOL    HW219914   0.867   2.450   0.639  0.1954  0.0427  0.8042
 2760SOL     OW19915   0.709   0.476   6.277  0.1814  0.3084 -0.0131
 2760SOL    HW119916   0.692   0.384   6.297  1.4594  0.1092  0.1530
 2760SOL    HW219917   0.671   0.520   6.353 -0.6660  1.3768 -1.0536
 2761SOL     OW19918   2.318   0.530  17.438  0.6230  0.4520 -0.5661
 2761SOL    HW119919   2.383   0.464  17.414  0.2197  0.1754 -0.8991
 2761SOL    HW219920   2.253   0.477  17.485  0.5562  1.2181  0.2225
 2762SOL     OW19921   0.866   2.154   8.216 -0.2332  0.3145  0.4283
 2762SOL    HW119922   0.934   2.164   8.149 -0.8117  3.1309  0.2688
 2762SOL    HW219923   0.899   2.198   8.294  0.3817  3.5586 -1.6935
 2763SOL     OW19924   4.360   3.367   9.155  0.0519  0.4080 -0.6687
 2763SOL    HW119925   4.368   3.296   9.219 -3.2641  2.1428  1.7029
 2763SOL    HW219926   4.302   3.322   9.094 -0.1953  0.1971 -0.2793
 2764SOL     OW19927   2.797   2.413   2.386  0.5216  0.3932 -0.7184
 2764SOL    HW119928   2.710   2.374   2.391  0.4464  0.6031 -0.3968
 2764SOL    HW219929   2.771   2.504   2.398 -1.5089 -0.1741 -0.7992
 2765SOL     OW19930   4.694   0.478  17.302 -0.1819  0.1084 -0.0109
 2765SOL    HW119931   4.646   0.504  17.381 -3.1240 -1.4480 -1.2760
 2765SOL    HW219932   4.621   0.458  17.245  0.3258  1.5205 -1.1561
 2766SOL     OW19933   2.537   0.878   5.549  0.0188 -0.1978  0.4164
 2766SOL    HW119934   2.444   0.860   5.535 -0.3290  0.4150  1.9754
 2766SOL    HW219935   2.587   0.853   5.471 -1.5849  0.5227 -0.8276
 2767SOL     OW19936   1.101   1.218   3.034  0.1148  0.2124 -0.0788
 2767SOL    HW119937   1.123   1.156   2.965 -0.6254 -0.2105  0.0682
 2767SOL    HW219938   1.121   1.296   2.982  1.3132 -1.4723 -2.1235
 2768SOL     OW19939   4.556   1.408   4.076  0.2329 -0.5371  0.7932
 2768SOL    HW119940   4.465   1.433   4.093  0.0382 -0.0354 -1.0414
 2768SOL    HW219941   4.597   1.486   4.114  1.1931 -1.6622  2.0795
 2769SOL     OW19942   1.892   2.274   4.403  0.3840  0.0887 -0.1999
 2769SOL    HW119943   1.860   2.329   4.475  1.9749 -1.5383  1.7521
 2769SOL    HW219944   1.888   2.191   4.450  1.1466 -1.1749 -2.3738
 2770SOL     OW19945   3.870   0.492   6.063  0.6512 -0.3375 -0.6290
 2770SOL    HW119946   3.793   0.549   6.052 -1.0825 -2.6098 -0.4211
 2770SOL    HW219947   3.846   0.400   6.051 -1.8493  0.1362  0.7185
 2771SOL     OW19948   3.658   2.130   3.225 -0.2623 -0.3347  0.2615
 2771SOL    HW119949   3.613   2.076   3.290  1.7257  0.1974  2.0568
 2771SOL    HW219950   3.712   2.073   3.171  2.0673  1.3280  0.8538
 2772SOL     OW19951   0.739   4.441   4.045 -0.0526 -0.5003 -0.0304
 2772SOL    HW119952   0.666   4.502   4.036  1.3423  1.2367  0.4689
 2772SOL    HW219953   0.680   4.367   4.063 -2.1186  1.2118  0.1932
 2773SOL     OW19954   3.804   3.033  12.868 -0.2121 -0.1172  0.4124
 2773SOL    HW119955   3.818   3.127  12.859 -0.7242 -0.0668  0.1159
 2773SOL    HW219956   3.893   3.002  12.881 -0.3226 -1.2875 -1.6271
 2774SOL     OW19957   1.155   1.846   3.335 -0.0816  0.0064  0.6305
 2774SOL    HW119958   1.102   1.774   3.369  0.3104  0.0838  1.4253
 2774SOL    HW219959   1.093   1.917   3.318  0.9619  0.6561 -0.4133
 2775SOL     OW19960   2.104   0.642   2.652 -0.8038 -0.2197 -0.2135
 2775SOL    HW119961   2.030   0.600   2.608 -0.0082 -0.0410 -1.6871
 2775SOL    HW219962   2.061   0.636   2.738  1.1117 -0.5294  0.7254
 2776SOL     OW19963   0.561   1.598   0.912 -0.0673 -0.4311  0.6006
 2776SOL    HW119964   0.654   1.589   0.894 -0.8346 -0.0387 -3.5423
 2776SOL    HW219965   0.563   1.687   0.875 -1.1543  0.0754  1.7574
 2777SOL     OW19966   3.278   2.253  16.239 -0.2716 -0.3156  0.5827
 2777SOL    HW119967   3.221   2.266  16.315  0.5566 -1.6823  1.4270
 2777SOL    HW219968   3.210   2.220  16.179 -0.5253 -0.7760  1.1237
 2778SOL     OW19969   4.263   3.160   2.518  0.2306  0.0240 -0.1440
 2778SOL    HW119970   4.328   3.137   2.585 -1.8788  1.4955  2.4188
 2778SOL    HW219971   4.239   3.073   2.484 -0.6791 -0.4580  1.7068
 2779SOL     OW19972   1.959   3.202  12.471  0.1757  0.6761 -0.1599
 2779SOL    HW119973   1.929   3.242  12.389 -3.5399 -1.3371  0.2287
 2779SOL    HW219974   2.054   3.199  12.458  0.0397 -0.2234 -0.9420
 2780SOL     OW19975   4.512   2.440   7.000 -0.4551  0.0131 -0.5374
 2780SOL    HW119976   4.581   2.454   6.935  0.0630 -1.4343 -0.2858
 2780SOL    HW219977   4.520   2.520   7.053  0.7032 -0.1787 -0.4189
 2781SOL     OW19978   2.091   3.804   6.587 -0.6291 -0.5080  0.1275
 2781SOL    HW119979   2.070   3.898   6.592 -0.5500 -0.5149  0.6476
 2781SOL    HW219980   2.102   3.803   6.492 -0.4644 -0.4408  0.1466
 2782SOL     OW19981   4.513   4.388   7.747  0.1407  0.1999  0.3224
 2782SOL    HW119982   4.438   4.394   7.806 -0.8159 -2.1077 -0.6444
 2782SOL    HW219983   4.571   4.327   7.792  0.8177 -0.2562 -1.1573
 2783SOL     OW19984   4.534   3.140   1.597 -0.3449 -0.0910 -0.3935
 2783SOL    HW119985   4.567   3.056   1.563  1.1989  0.3285  0.0728
 2783SOL    HW219986   4.570   3.132   1.685 -1.2997  1.8950  0.1546
 2784SOL     OW19987   2.560   1.650   5.374  0.1348 -0.3815  0.3951
 2784SOL    HW119988   2.565   1.555   5.389  2.3704 -0.6071 -1.7241
 2784SOL    HW219989   2.484   1.674   5.426 -0.4812 -1.7883  0.1441
 2785SOL     OW19990   0.091   1.059   3.475 -0.7593 -0.1633 -0.0982
 2785SOL    HW119991   0.101   1.145   3.436 -0.4765 -1.7906 -3.6412
 2785SOL    HW219992   4.732   1.060   3.491 -0.7327  2.7345 -0.0990
 2786SOL     OW19993   0.832   1.155  10.520  0.5012 -0.0404  0.1999
 2786SOL    HW119994   0.815   1.147  10.426 -0.8865  1.2348  0.3477
 2786SOL    HW219995   0.742   1.162  10.552 -0.1952 -1.7972 -1.4289
 2787SOL     OW19996   0.264   2.345   1.982 -0.6354 -0.0318 -0.7414
 2787SOL    HW119997   0.247   2.306   2.068  1.4043  0.9843  0.1260
 2787SOL    HW219998   0.268   2.270   1.923 -1.5193  2.2796 -3.7450
 2788SOL     OW19999   3.332   2.362   3.033  0.1845 -0.3820 -0.9257
 2788SOL    HW120000   3.348   2.292   2.970 -1.6621 -0.2118 -1.5714
 2788SOL    HW220001   3.247   2.393   3.002 -0.2777  0.1995  0.9634
 2789SOL     OW20002   0.207   2.669   2.725  0.6168 -0.0959 -0.4772
 2789SOL    HW120003   0.257   2.746   2.700 -0.4251  1.6501  2.7759
 2789SOL    HW220004   0.168   2.700   2.807  0.9180  0.8834 -0.7158
 2790SOL     OW20005   0.371   3.604   3.944  0.1404  0.2490 -0.4704
 2790SOL    HW120006   0.444   3.623   4.003  0.6194 -1.9348 -0.3696
 2790SOL    HW220007   0.401   3.646   3.864 -0.4685  0.0679 -0.7926
 2791SOL     OW20008   2.985   1.989   5.871  0.2227 -0.0718  0.4690
 2791SOL    HW120009   3.048   1.967   5.940  1.7571 -0.5789 -1.0874
 2791SOL    HW220010   2.953   1.902   5.846 -0.6891  0.2975  0.3710
 2792SOL     OW20011   3.850   1.295  15.565  0.2249 -0.0362 -0.0528
 2792SOL    HW120012   3.881   1.304  15.475 -0.3632  0.0106 -0.2502
 2792SOL    HW220013   3.861   1.202  15.585  0.7610 -0.3846 -1.9336
 2793SOL     OW20014   3.747   2.912   2.889  0.2129 -0.0427  0.6826
 2793SOL    HW120015   3.758   2.867   2.973 -2.4632  0.3933  1.2936
 2793SOL    HW220016   3.724   2.844   2.826  2.1829 -0.4863  0.4369
 2794SOL     OW20017   1.192   3.244   1.966  0.1540 -0.2477  0.1178
 2794SOL    HW120018   1.160   3.165   1.924  0.8530 -0.6903  0.4196
 2794SOL    HW220019   1.273   3.223   2.011 -1.4569 -5.2151  0.6509
 2795SOL     OW20020   1.963   0.602   5.799  0.7001  0.4493  0.2126
 2795SOL    HW120021   1.950   0.534   5.866  2.3336 -0.2476 -0.1926
 2795SOL    HW220022   2.055   0.582   5.785 -0.1281 -2.0143 -1.7969
 2796SOL     OW20023   0.979   2.151   5.455  0.3180 -0.6013  0.2573
 2796SOL    HW120024   0.936   2.073   5.421  2.0583 -1.1695 -0.5965
 2796SOL    HW220025   0.898   2.203   5.459  2.7573  3.0988  2.1212
 2797SOL     OW20026   4.694   2.857   1.509 -0.7697 -0.0178 -0.2786
 2797SOL    HW120027   4.694   2.858   1.604  0.6036 -1.2959 -0.2608
 2797SOL    HW220028   0.026   2.794   1.485  0.4490  1.1243  0.2566
 2798SOL     OW20029   0.949   3.761   6.790  0.1356  0.1148  0.1978
 2798SOL    HW120030   0.932   3.680   6.837  0.6816  0.9140  1.7529
 2798SOL    HW220031   0.939   3.817   6.866 -0.3689 -1.1558  1.0702
 2799SOL     OW20032   1.142   4.399   1.996  0.4947 -0.2957 -0.0383
 2799SOL    HW120033   1.086   4.454   2.050  0.2991  0.1442 -0.6834
 2799SOL    HW220034   1.098   4.314   2.002  1.5665 -0.9800 -1.7961
 2800SOL     OW20035   2.171   2.212  14.329  0.3073 -0.0074  0.1087
 2800SOL    HW120036   2.115   2.137  14.350  0.6174 -0.6377 -1.3182
 2800SOL    HW220037   2.246   2.175  14.283  0.1485  0.7293 -0.7260
 2801SOL     OW20038   2.965   4.348   5.823 -0.6077 -0.0285  0.9602
 2801SOL    HW120039   2.949   4.387   5.738 -2.3376 -1.5491  0.5684
 2801SOL    HW220040   2.880   4.307   5.839 -0.2972 -1.3311 -0.6668
 2802SOL     OW20041   4.290   4.484   2.048 -0.0302 -0.2620 -0.1976
 2802SOL    HW120042   4.366   4.425   2.054 -0.8438 -1.4294 -1.2644
 2802SOL    HW220043   4.226   4.413   2.047 -1.3134  0.9085  0.2477
 2803SOL     OW20044   0.161   2.407   7.731 -0.1159 -0.0594 -0.2875
 2803SOL    HW120045   0.235   2.458   7.698 -0.0780  0.5570  0.7650
 2803SOL    HW220046   0.110   2.403   7.649  1.5699  2.2177 -1.4625
 2804SOL     OW20047   1.613   2.242   8.492 -0.2592 -0.0346  0.0058
 2804SOL    HW120048   1.581   2.213   8.407  0.4259 -0.6477 -0.0399
 2804SOL    HW220049   1.623   2.156   8.533 -0.2636 -0.0154  0.0475
 2805SOL     OW20050   2.999   0.510   8.356 -0.2425 -0.5249  0.1411
 2805SOL    HW120051   2.909   0.496   8.387  0.7000 -1.2214  2.4951
 2805SOL    HW220052   2.995   0.485   8.264  1.5105 -1.1207  0.2374
 2806SOL     OW20053   0.972   2.626  13.097 -0.6123  0.2607 -0.2698
 2806SOL    HW120054   0.904   2.621  13.164 -0.8138  0.8503 -0.4337
 2806SOL    HW220055   0.964   2.720  13.080  1.4079  0.2637 -1.1668
 2807SOL     OW20056   0.787   0.037   4.418  0.2065  0.6876  0.2082
 2807SOL    HW120057   0.736   0.017   4.340 -0.6258 -0.4425  1.0380
 2807SOL    HW220058   0.722   0.021   4.486  0.6100 -2.1100 -0.0717
 2808SOL     OW20059   4.388   1.727  15.777 -0.1447 -0.3149 -0.3574
 2808SOL    HW120060   4.439   1.739  15.697  1.7524 -0.1065  0.9034
 2808SOL    HW220061   4.455   1.685  15.830  0.9120  1.6467 -0.1688
 2809SOL     OW20062   1.100   4.587   1.293  0.1731  0.3307 -0.3072
 2809SOL    HW120063   1.158   4.659   1.317  0.8979 -0.6410  0.8773
 2809SOL    HW220064   1.030   4.608   1.355  2.2506 -2.7609  3.0735
 2810SOL     OW20065   3.846   3.668   7.732 -0.4477 -0.0786 -0.0375
 2810SOL    HW120066   3.795   3.656   7.652 -2.1417  1.5752  0.8147
 2810SOL    HW220067   3.878   3.578   7.746 -0.5652  0.1836  1.9179
 2811SOL     OW20068   4.071   0.021   1.601 -0.1739  0.7791  0.3656
 2811SOL    HW120069   4.074   4.708   1.683 -2.4405 -1.7515 -1.0569
 2811SOL    HW220070   4.125   0.095   1.630  1.6555 -0.7381  0.8374
 2812SOL     OW20071   1.156   4.521   4.279 -0.3853 -0.5999  0.0239
 2812SOL    HW120072   1.090   4.567   4.227 -1.4457 -3.1540 -0.9168
 2812SOL    HW220073   1.117   4.512   4.365 -1.7697 -1.5722 -0.6977
 2813SOL     OW20074   4.464   2.845   9.859 -0.0961 -0.0305 -0.3799
 2813SOL    HW120075   4.534   2.824   9.921  0.6781  3.0993 -0.2034
 2813SOL    HW220076   4.508   2.829   9.775  0.6487 -1.8745  0.3728
 2814SOL     OW20077   1.590   4.491  12.576 -0.2911  0.6850 -1.0170
 2814SOL    HW120078   1.638   4.470  12.496  0.4860  1.7717 -0.8401
 2814SOL    HW220079   1.655   4.534  12.633  0.3487 -2.2852  0.4717
 2815SOL     OW20080   4.572   0.495   4.247 -0.2083 -0.1112 -0.6372
 2815SOL    HW120081   4.607   0.573   4.290 -0.8418 -0.4574  0.5005
 2815SOL    HW220082   4.545   0.430   4.311  0.1805  0.4328  0.0762
 2816SOL     OW20083   1.548   1.946   0.031 -0.2902 -0.7350  0.4674
 2816SOL    HW120084   1.601   1.881  17.728  0.2998 -0.2505  0.4704
 2816SOL    HW220085   1.595   1.951   0.115 -0.4144 -0.5113  0.5248
 2817SOL     OW20086   0.884   0.527  16.786  0.0301  0.6113 -0.1498
 2817SOL    HW120087   0.875   0.554  16.877  0.8334  0.8854 -0.1549
 2817SOL    HW220088   0.811   0.466  16.795  0.6035 -0.6530 -3.7833
 2818SOL     OW20089   2.188   2.273   6.257  0.1181  0.1500 -0.0499
 2818SOL    HW120090   2.265   2.285   6.201  1.3243 -1.0399  1.3640
 2818SOL    HW220091   2.160   2.364   6.247 -1.2347 -0.1494  0.9416
 2819SOL     OW20092   3.468   1.238   6.116 -0.2893  0.2332  0.4537
 2819SOL    HW120093   3.529   1.270   6.050  0.1012 -0.8580  0.2925
 2819SOL    HW220094   3.506   1.285   6.190 -0.2566  2.0852 -0.7236
 2820SOL     OW20095   1.704   0.136   8.728 -0.4624  0.4768 -0.4224
 2820SOL    HW120096   1.768   0.206   8.711  0.9161 -0.2451  1.7743
 2820SOL    HW220097   1.708   0.130   8.823  1.1459  0.0395 -0.5050
 2821SOL     OW20098   2.230   1.111  14.055 -0.1494 -0.3638  0.2947
 2821SOL    HW120099   2.158   1.101  13.994  0.7148  0.7960 -0.9020
 2821SOL    HW220100   2.288   1.038  14.032  0.1387 -0.7989  2.3321
 2822SOL     OW20101   3.763   0.257  15.098 -0.0593 -0.0385 -0.5781
 2822SOL    HW120102   3.747   0.305  15.179  2.1764 -3.2095  1.7775
 2822SOL    HW220103   3.855   0.275  15.075  0.6939 -1.9843  0.8786
 2823SOL     OW20104   3.008   4.268  10.471  0.2082 -0.8230 -0.1605
 2823SOL    HW120105   2.993   4.183  10.428 -2.8730  0.2613 -1.2412
 2823SOL    HW220106   3.095   4.246  10.507 -0.2915  0.4752  1.8368
 2824SOL     OW20107   4.195   1.523  15.833  0.0010  0.1706 -0.1683
 2824SOL    HW120108   4.114   1.566  15.859  0.6152  0.6624  0.9128
 2824SOL    HW220109   4.241   1.596  15.791  2.1351 -0.7262  0.5782
 2825SOL     OW20110   3.156   2.533   1.988 -0.8280 -0.3521  0.3130
 2825SOL    HW120111   3.126   2.517   2.078 -1.0241  0.1898  0.3399
 2825SOL    HW220112   3.229   2.471   1.983  0.1852  0.8233  0.4014
 2826SOL     OW20113   1.122   1.483   8.225  0.3134 -0.0848 -0.0852
 2826SOL    HW120114   1.144   1.562   8.275  0.8761 -0.3945  0.1540
 2826SOL    HW220115   1.183   1.489   8.151  0.5623 -0.0263  0.1230
 2827SOL     OW20116   2.754   0.991  12.649  0.0881 -0.2891  0.2638
 2827SOL    HW120117   2.689   0.932  12.611  0.2054 -0.0531 -0.2998
 2827SOL    HW220118   2.822   0.967  12.586  0.4831 -1.5775  1.1615
 2828SOL     OW20119   1.877   3.335   2.375 -0.6572 -0.5809 -0.0299
 2828SOL    HW120120   1.816   3.281   2.325  0.6834  0.3896 -2.7299
 2828SOL    HW220121   1.834   3.324   2.459  1.4491 -0.1397  1.1088
 2829SOL     OW20122   0.305   1.822   8.115 -0.0314  0.5156 -0.4229
 2829SOL    HW120123   0.253   1.763   8.169  3.6200  0.2686  2.8432
 2829SOL    HW220124   0.328   1.881   8.187  0.7597 -0.9502  0.5026
 2830SOL     OW20125   4.632   2.398   1.832 -0.5238  0.3091  0.3624
 2830SOL    HW120126   4.559   2.443   1.790  0.3937  0.3251 -1.2541
 2830SOL    HW220127   4.706   2.434   1.782 -1.7261 -1.5706 -2.7177
 2831SOL     OW20128   3.625   1.805  16.920  0.4660 -0.1454  0.8310
 2831SOL    HW120129   3.642   1.731  16.862 -0.6061  1.0155 -0.9817
 2831SOL    HW220130   3.557   1.853  16.872  1.2915  1.2031  1.0225
 2832SOL     OW20131   1.364   0.731   1.892 -0.5821  0.1447  0.5407
 2832SOL    HW120132   1.316   0.741   1.809 -0.1338  0.8438  0.3713
 2832SOL    HW220133   1.457   0.726   1.870 -0.2822  2.1963  1.3830
 2833SOL     OW20134   3.535   0.833  13.955 -0.3195 -0.3180  0.8228
 2833SOL    HW120135   3.595   0.854  14.027  1.4473  1.2347 -1.0868
 2833SOL    HW220136   3.454   0.869  13.991 -0.5676  0.8184 -0.8616
 2834SOL     OW20137   2.756   0.943  17.719  0.3019  0.3742  0.3311
 2834SOL    HW120138   2.851   0.952  17.727  0.6787 -1.0748 -2.7052
 2834SOL    HW220139   2.730   0.946   0.069  0.8416  1.0149  0.4603
 2835SOL     OW20140   0.813   4.193  16.674  0.6142 -0.3862 -0.0161
 2835SOL    HW120141   0.832   4.146  16.756 -0.5707 -3.0911 -1.2959
 2835SOL    HW220142   0.866   4.139  16.616  0.7846  1.7198 -1.7828
 2836SOL     OW20143   4.541   0.630   5.919 -0.0613  0.2383  0.6717
 2836SOL    HW120144   4.533   0.554   5.977 -0.6602 -0.3456 -0.1677
 2836SOL    HW220145   4.463   0.681   5.942 -1.8919 -3.1288  1.8747
 2837SOL     OW20146   3.979   2.020   9.834  0.5110 -0.1151  0.8680
 2837SOL    HW120147   3.885   2.031   9.820  0.4269  0.5735  1.9904
 2837SOL    HW220148   4.003   1.976   9.752 -0.9600  1.0791 -0.1986
 2838SOL     OW20149   0.264   3.109   2.926  0.3161  0.1705 -0.2041
 2838SOL    HW120150   0.308   3.083   3.006 -3.3049 -1.6231  1.1996
 2838SOL    HW220151   0.330   3.170   2.892 -0.5986  1.1415 -0.2580
 2839SOL     OW20152   0.573   4.732   4.609  0.1030  0.2169  0.8241
 2839SOL    HW120153   0.619   4.697   4.685 -2.0873 -1.7693  1.2561
 2839SOL    HW220154   0.489   4.686   4.614 -1.1085  2.3004 -0.3210
 2840SOL     OW20155   2.551   1.299   8.787 -0.0817  0.1648 -0.5048
 2840SOL    HW120156   2.531   1.375   8.732 -0.1160  0.9671  0.6245
 2840SOL    HW220157   2.500   1.323   8.864 -0.6765 -0.9414 -0.5592
 2841SOL     OW20158   2.293   2.746  12.445  0.5288 -0.3140  0.1531
 2841SOL    HW120159   2.367   2.800  12.474 -0.5637  1.2983 -0.0801
 2841SOL    HW220160   2.314   2.749  12.351  0.0649 -0.0550  0.0616
 2842SOL     OW20161   2.310   3.841   7.963  0.1456  0.1215  0.1848
 2842SOL    HW120162   2.237   3.856   8.022 -0.2706  2.5147 -0.9413
 2842SOL    HW220163   2.321   3.746   7.966 -0.1982  0.1484  2.1381
 2843SOL     OW20164   3.018   0.683   6.309  0.4403  0.0024 -0.4939
 2843SOL    HW120165   2.959   0.756   6.288  1.3299  0.6558 -0.7098
 2843SOL    HW220166   3.004   0.671   6.403  1.0370  1.1245 -0.2695
 2844SOL     OW20167   4.518   0.255   2.728 -0.3483  0.1515 -0.2982
 2844SOL    HW120168   4.598   0.253   2.676 -0.2994 -0.8793 -0.1792
 2844SOL    HW220169   4.530   0.186   2.793  1.2876  0.3490 -0.3821
 2845SOL     OW20170   1.402   3.900   3.828 -0.5427  0.4960 -0.4638
 2845SOL    HW120171   1.468   3.852   3.779  0.3255  1.5639 -0.3551
 2845SOL    HW220172   1.392   3.980   3.776 -0.5295  1.5897  1.2193
 2846SOL     OW20173   1.054   0.071   6.632 -0.5176 -0.4515 -0.1398
 2846SOL    HW120174   1.130   0.126   6.614  1.4462 -2.7271  1.2149
 2846SOL    HW220175   0.992   0.114   6.573  0.4456 -1.3578 -1.8143
 2847SOL     OW20176   1.955   2.828  16.774  0.2435 -0.0490 -0.1023
 2847SOL    HW120177   2.017   2.756  16.779  0.2950  0.0930  1.3891
 2847SOL    HW220178   1.936   2.840  16.868 -2.5226  0.4599 -0.7100
 2848SOL     OW20179   1.628   3.489   5.025 -0.1101  0.2893 -0.1619
 2848SOL    HW120180   1.586   3.410   4.990  2.1804 -0.3978 -1.3557
 2848SOL    HW220181   1.719   3.459   5.017  0.2973  1.1939  1.2536
 2849SOL     OW20182   1.116   3.953   3.145  0.5398  0.1955 -0.1098
 2849SOL    HW120183   1.080   3.956   3.233 -0.0432  1.0822 -0.3818
 2849SOL    HW220184   1.122   4.047   3.126 -0.8988  0.6347  1.6455
 2850SOL     OW20185   4.344   0.558   4.092  0.2328 -0.5249  0.2202
 2850SOL    HW120186   4.333   0.652   4.079 -0.9184 -0.9397 -1.8133
 2850SOL    HW220187   4.426   0.559   4.142  0.8848 -0.7379 -0.8423
 2851SOL     OW20188   3.217   4.129   8.045 -0.8841  0.0019 -0.0395
 2851SOL    HW120189   3.255   4.100   8.127 -2.7801 -2.4937 -0.0314
 2851SOL    HW220190   3.139   4.172   8.081 -0.1185  0.5102  0.9923
 2852SOL     OW20191   1.424   4.661   8.571 -0.0928  0.0284 -0.4306
 2852SOL    HW120192   1.520   4.658   8.575 -0.1113 -0.2159 -0.1775
 2852SOL    HW220193   1.406   0.019   8.568 -1.2919 -0.2276 -1.2078
 2853SOL     OW20194   0.180   2.687   9.022 -0.6032  0.4047 -0.9638
 2853SOL    HW120195   0.149   2.776   9.004  0.7818  1.5570  2.3610
 2853SOL    HW220196   0.251   2.668   8.960  1.1937  0.6253  1.0081
 2854SOL     OW20197   1.555   3.660   4.571  0.4662  0.0161 -0.0283
 2854SOL    HW120198   1.565   3.712   4.650 -0.3806  2.8470 -1.7593
 2854SOL    HW220199   1.618   3.588   4.567  0.9416  0.5050 -1.3675
 2855SOL     OW20200   1.334   1.388   4.998  0.0395 -0.7754  0.5384
 2855SOL    HW120201   1.270   1.338   5.049  1.0822 -2.3192  0.3521
 2855SOL    HW220202   1.404   1.409   5.059  0.4922  0.3012 -0.3579
 2856SOL     OW20203   2.595   3.353   4.586 -0.2921 -0.2384 -0.2784
 2856SOL    HW120204   2.536   3.296   4.536 -2.0556  0.9748  0.4547
 2856SOL    HW220205   2.559   3.337   4.673 -1.7898  2.1758 -0.4614
 2857SOL     OW20206   0.918   0.905  14.348 -0.4974 -0.0984 -0.0682
 2857SOL    HW120207   0.846   0.845  14.368  0.3388 -1.0442  0.1135
 2857SOL    HW220208   0.947   0.873  14.262 -1.6277 -1.7562  0.1714
 2858SOL     OW20209   1.417   0.748   2.309  0.4722  0.7028  0.2106
 2858SOL    HW120210   1.471   0.799   2.248  0.5438 -0.7196 -0.9134
 2858SOL    HW220211   1.428   0.797   2.390  3.6065  3.0894 -1.6298
 2859SOL     OW20212   4.416   0.250  10.512  0.1575 -0.3009 -0.4128
 2859SOL    HW120213   4.377   0.166  10.537  0.5403 -0.3660 -0.0404
 2859SOL    HW220214   4.486   0.214  10.458  1.4007  1.6003 -0.0596
 2860SOL     OW20215   2.277   4.606  15.532 -0.5268  0.3064 -0.1496
 2860SOL    HW120216   2.348   4.572  15.478  0.3002  2.1317 -0.2154
 2860SOL    HW220217   2.329   4.656  15.596 -0.1787 -1.8985  1.2840
 2861SOL     OW20218   1.974   1.457   5.374 -0.6664 -0.1164  0.0926
 2861SOL    HW120219   1.991   1.420   5.287  3.4463  0.7245  0.5361
 2861SOL    HW220220   2.037   1.401   5.420 -1.6532 -0.1785  1.3637
 2862SOL     OW20221   4.249   0.208   4.735 -0.3644  0.7698 -0.0428
 2862SOL    HW120222   4.309   0.283   4.743  1.0002 -0.0565 -2.3240
 2862SOL    HW220223   4.166   0.249   4.760 -0.9615  0.8116 -2.1032
 2863SOL     OW20224   0.270   0.837   5.681 -0.0959 -0.5411  0.3561
 2863SOL    HW120225   0.225   0.893   5.619 -0.7856 -0.9604  0.4797
 2863SOL    HW220226   0.323   0.904   5.725 -0.4717 -0.5401  0.8118
 2864SOL     OW20227   4.368   1.859   8.609  0.1866 -0.4732 -0.1795
 2864SOL    HW120228   4.422   1.834   8.534 -0.3638  0.0044 -0.7327
 2864SOL    HW220229   4.428   1.840   8.681  1.2167  2.1941 -0.3256
 2865SOL     OW20230   0.984   0.032   7.981  0.7104 -0.6874  0.2149
 2865SOL    HW120231   1.042   0.058   7.910 -1.1393  1.1065 -0.6343
 2865SOL    HW220232   0.941   4.700   7.928 -0.0509  0.1744 -0.2688
 2866SOL     OW20233   1.371   3.626   7.031  0.5012  0.3291 -0.5356
 2866SOL    HW120234   1.420   3.560   6.982  1.0445  0.3944 -0.0747
 2866SOL    HW220235   1.436   3.696   7.020 -2.1481  3.1312  1.5825
 2867SOL     OW20236   3.506   0.093   8.737  0.1265 -0.2091 -0.0946
 2867SOL    HW120237   3.587   0.104   8.687 -0.6504  1.6472 -0.9234
 2867SOL    HW220238   3.442   0.076   8.668 -0.0918  3.0528 -0.7012
 2868SOL     OW20239   3.876   0.577   5.598 -0.1682  0.2519  0.0465
 2868SOL    HW120240   3.814   0.505   5.611  0.0416  0.2569  1.0727
 2868SOL    HW220241   3.951   0.521   5.618  0.0484  0.3531 -0.4616
 2869SOL     OW20242   3.977   3.262   1.974  0.1169 -0.4014 -0.4178
 2869SOL    HW120243   3.961   3.348   1.935 -1.1025  0.3240  1.6757
 2869SOL    HW220244   3.891   3.221   1.986 -0.2131  0.5601  0.5593
 2870SOL     OW20245   0.777   1.187  13.352 -0.6553 -0.1637 -0.4956
 2870SOL    HW120246   0.814   1.135  13.423  2.1542  3.2521  0.5426
 2870SOL    HW220247   0.822   1.268  13.376 -0.4239 -0.4930  0.1781
 2871SOL     OW20248   1.751   4.407   2.277  0.2341 -0.6812 -0.0339
 2871SOL    HW120249   1.819   4.411   2.210  1.0868 -2.2793  0.7452
 2871SOL    HW220250   1.789   4.375   2.359  2.1459  1.2013 -0.1865
 2872SOL     OW20251   0.997   2.333   8.371  0.1745 -0.7200  0.7394
 2872SOL    HW120252   1.084   2.329   8.412  0.5738  0.0750 -0.0200
 2872SOL    HW220253   0.995   2.427   8.352 -1.0242 -0.7693  0.6060
 2873SOL     OW20254   2.380   0.117   6.235 -0.1248  0.4611 -0.0376
 2873SOL    HW120255   2.399   0.159   6.319 -0.6425 -0.3736  0.4968
 2873SOL    HW220256   2.444   0.158   6.177 -1.3800 -1.2921 -2.6620
 2874SOL     OW20257   1.910   3.006   8.758  0.0343  0.1713 -0.0977
 2874SOL    HW120258   1.936   2.917   8.784  1.4267  0.3496 -0.8461
 2874SOL    HW220259   1.979   3.048   8.809 -0.0038  0.1786 -0.0522
 2875SOL     OW20260   3.397   4.224   8.870 -0.1104 -0.4746 -0.2005
 2875SOL    HW120261   3.357   4.288   8.928  0.9297 -0.9081  0.9907
 2875SOL    HW220262   3.370   4.146   8.918 -1.0002  0.4246  0.7711
 2876SOL     OW20263   1.846   2.774   6.359  0.1678 -0.4103 -0.3731
 2876SOL    HW120264   1.870   2.862   6.388  0.8413 -0.5150 -0.6068
 2876SOL    HW220265   1.820   2.733   6.441 -0.2299  1.2712  0.3530
 2877SOL     OW20266   3.733   1.160   3.735  0.7013 -0.5760  0.3860
 2877SOL    HW120267   3.650   1.204   3.716  1.6380  1.0591  0.1072
 2877SOL    HW220268   3.724   1.149   3.830  0.7733  0.3408  0.4952
 2878SOL     OW20269   0.246   2.139   8.673 -0.1371  0.0035 -0.0844
 2878SOL    HW120270   0.204   2.143   8.587  0.8933  0.7153 -0.5543
 2878SOL    HW220271   0.332   2.174   8.651 -0.2820  2.6054  3.4765
 2879SOL     OW20272   3.405   1.332   9.608  0.1077  0.2086  0.5237
 2879SOL    HW120273   3.452   1.276   9.668  1.6752  0.3077 -0.6132
 2879SOL    HW220274   3.397   1.276   9.530  1.9427  0.1236  0.4099
 2880SOL     OW20275   2.855   0.543   3.744  0.0957 -0.5138  0.2038
 2880SOL    HW120276   2.806   0.551   3.825  0.6813  2.7142  0.2371
 2880SOL    HW220277   2.947   0.531   3.767  0.7326  0.4017 -1.7921
 2881SOL     OW20278   3.736   0.862   4.444 -0.3900  0.1116 -0.1478
 2881SOL    HW120279   3.717   0.815   4.362  0.1028  1.2274 -0.9036
 2881SOL    HW220280   3.648   0.874   4.480 -0.7324  1.1863 -1.3244
 2882SOL     OW20281   4.459   2.602   6.563  0.5155 -0.2081 -0.8429
 2882SOL    HW120282   4.437   2.672   6.624  0.9013 -1.1556  0.4021
 2882SOL    HW220283   4.500   2.647   6.490 -0.0295 -1.0024 -1.6324
 2883SOL     OW20284   2.217   0.678  17.194  0.1096 -0.5003  0.1412
 2883SOL    HW120285   2.229   0.626  17.273  1.3505  0.1014  0.3493
 2883SOL    HW220286   2.165   0.753  17.225 -2.2326 -1.7638 -0.7523
 2884SOL     OW20287   2.968   4.389   4.120 -0.6299  0.2538 -0.2267
 2884SOL    HW120288   3.003   4.474   4.092 -0.1540  0.1812  0.1497
 2884SOL    HW220289   3.057   4.356   4.134  0.6997  3.1474 -1.8687
 2885SOL     OW20290   2.996   1.115   5.573  0.3150  0.0507  0.3725
 2885SOL    HW120291   2.956   1.029   5.588  1.7564 -0.7317 -0.3188
 2885SOL    HW220292   3.016   1.144   5.661 -0.4964  0.4739  0.4189
 2886SOL     OW20293   0.479   2.048   8.037 -0.2634 -0.0687  0.0339
 2886SOL    HW120294   0.440   1.962   8.055 -0.2768  0.0247  0.4444
 2886SOL    HW220295   0.561   2.038   8.085  1.0813  0.6913 -2.0867
 2887SOL     OW20296   1.503   1.191   0.905  0.1074  0.2215  0.1429
 2887SOL    HW120297   1.479   1.111   0.859  1.4551  0.5711 -1.1595
 2887SOL    HW220298   1.417   1.216   0.938  0.5722  0.4600  1.1607
 2888SOL     OW20299   2.851   0.377   4.704 -0.0243  0.1999 -0.1141
 2888SOL    HW120300   2.943   0.388   4.727  0.3111  2.7399 -2.5856
 2888SOL    HW220301   2.818   0.330   4.780  1.7075  1.7235  1.5799
 2889SOL     OW20302   4.639   1.266   5.152  0.1888 -0.0543 -0.5106
 2889SOL    HW120303   4.673   1.341   5.202  1.9125 -1.0006 -0.2503
 2889SOL    HW220304   4.559   1.308   5.121 -0.4142 -1.5258 -0.8982
 2890SOL     OW20305   0.978   1.761   7.939  0.4351  0.4101  0.5080
 2890SOL    HW120306   0.960   1.788   8.029  0.8174 -1.4487  1.1401
 2890SOL    HW220307   0.964   1.845   7.895  1.6243 -0.1016 -0.8270
 2891SOL     OW20308   3.968   4.454   5.941 -0.6347 -0.5020  0.0214
 2891SOL    HW120309   3.927   4.459   6.028  0.4957  0.7271  0.4791
 2891SOL    HW220310   3.939   4.535   5.900  1.6443  1.0723  1.5234
 2892SOL     OW20311   0.098   2.721  11.288 -0.5034  0.5244  0.1073
 2892SOL    HW120312   0.115   2.627  11.297 -0.4047  0.5907  0.6244
 2892SOL    HW220313   0.136   2.764  11.365  0.9658 -1.3290  0.4166
 2893SOL     OW20314   0.057   2.138  13.702 -0.3781  0.0050 -0.0992
 2893SOL    HW120315   0.032   2.216  13.751  1.8806 -0.8126  2.3254
 2893SOL    HW220316   4.710   2.139  13.653 -0.2637 -0.7541 -0.3107
 2894SOL     OW20317   2.668   1.673  10.305 -0.6087 -0.3926  0.1930
 2894SOL    HW120318   2.616   1.739  10.259 -0.7158 -0.7497 -0.2098
 2894SOL    HW220319   2.597   1.621  10.345  0.0888 -0.1464  1.7223
 2895SOL     OW20320   1.617   4.030   1.206  0.2451 -0.1229 -0.0956
 2895SOL    HW120321   1.562   3.954   1.188 -0.2588 -0.6776  3.7458
 2895SOL    HW220322   1.617   4.066   1.117 -1.4214 -0.7827 -0.3677
 2896SOL     OW20323   1.916   2.035   4.539  0.4998 -0.1412  0.4079
 2896SOL    HW120324   1.983   2.009   4.476 -1.4832  2.7504 -2.9622
 2896SOL    HW220325   1.880   1.949   4.559  0.2880  0.3412  2.0796
 2897SOL     OW20326   3.527   3.171   8.816  0.4084 -0.6369 -0.0702
 2897SOL    HW120327   3.521   3.129   8.730  1.5223 -0.7670 -0.0784
 2897SOL    HW220328   3.552   3.261   8.796  1.0148 -0.2542  2.3575
 2898SOL     OW20329   3.542   3.320   5.726 -0.0792 -0.2778 -0.3211
 2898SOL    HW120330   3.517   3.399   5.678  3.7670  2.5617  2.2482
 2898SOL    HW220331   3.475   3.310   5.793 -0.0185 -2.0334 -0.5344
 2899SOL     OW20332   2.729   4.666   7.178 -0.3153 -0.5168  0.1928
 2899SOL    HW120333   2.742   4.574   7.197  0.8211 -0.8361 -2.1165
 2899SOL    HW220334   2.636   4.676   7.197 -0.3085 -2.1648  1.0610
 2900SOL     OW20335   0.457   0.260   2.586  0.1844  0.4693  0.8322
 2900SOL    HW120336   0.538   0.289   2.543 -0.5200 -1.3369 -1.7014
 2900SOL    HW220337   0.492   0.267   2.675  2.9487  0.4063 -0.2481
 2901SOL     OW20338   0.330   2.567  13.957 -0.4754  0.1995  0.0081
 2901SOL    HW120339   0.318   2.493  13.897  0.4803 -0.2507  0.3683
 2901SOL    HW220340   0.410   2.610  13.927  0.4473 -0.9102  0.8508
 2902SOL     OW20341   0.568   4.105   8.180  0.8095  0.2596 -0.1586
 2902SOL    HW120342   0.598   4.136   8.095 -1.0500 -1.3970 -1.4420
 2902SOL    HW220343   0.569   4.011   8.159  2.3085  0.0093  1.0432
 2903SOL     OW20344   4.204   0.500   2.941  0.0139  0.0463  0.1800
 2903SOL    HW120345   4.211   0.446   3.020 -1.9085 -0.4347  0.0228
 2903SOL    HW220346   4.193   0.585   2.984  0.4244 -0.4114  1.1774
 2904SOL     OW20347   0.377   3.168   4.480  0.7584  0.1880 -0.1179
 2904SOL    HW120348   0.447   3.105   4.464  2.6104  2.1438  0.3419
 2904SOL    HW220349   0.313   3.140   4.415 -0.5892  1.7568  0.5337
 2905SOL     OW20350   3.208   0.009  11.294  0.2321 -0.1696  0.5006
 2905SOL    HW120351   3.283   0.004  11.353  0.9192  3.7237 -0.0414
 2905SOL    HW220352   3.133   0.007  11.354  0.7640  0.8299  1.2068
 2906SOL     OW20353   2.657   3.739   2.424 -0.2717  0.5976  0.4683
 2906SOL    HW120354   2.719   3.695   2.482 -1.0889 -1.0194  0.1102
 2906SOL    HW220355   2.720   3.792   2.374 -0.9644  0.9686 -0.0163
 2907SOL     OW20356   4.438   4.451   8.142  0.3936 -0.5012 -0.4308
 2907SOL    HW120357   4.405   4.378   8.090 -1.2203  0.4381 -0.7388
 2907SOL    HW220358   4.421   4.531   8.093 -2.1269 -0.0439  1.1696
 2908SOL     OW20359   3.051   4.591   3.021 -0.4651 -0.1815  0.4219
 2908SOL    HW120360   3.055   4.667   3.079  2.4195  0.3535 -0.4712
 2908SOL    HW220361   2.979   4.542   3.059 -0.1078 -1.4381 -0.5303
 2909SOL     OW20362   3.853   2.070   9.001 -0.0844 -0.0183  0.5708
 2909SOL    HW120363   3.807   2.138   8.951 -2.7217 -0.2869  2.6711
 2909SOL    HW220364   3.859   1.994   8.944 -0.8095 -0.0488  0.5336
 2910SOL     OW20365   1.864   1.985   3.810 -0.0800  0.4209 -0.0771
 2910SOL    HW120366   1.908   1.985   3.895  0.5110 -0.0285 -0.3828
 2910SOL    HW220367   1.906   2.064   3.776 -0.6081  0.6812 -0.1247
 2911SOL     OW20368   3.826   3.680   2.977 -0.5333 -0.1941 -0.0266
 2911SOL    HW120369   3.896   3.630   2.937 -0.8895  0.7724 -1.8610
 2911SOL    HW220370   3.760   3.677   2.907 -0.0493  0.5057 -0.5139
 2912SOL     OW20371   2.075   1.268   3.277 -0.4139 -0.4359 -0.2087
 2912SOL    HW120372   2.083   1.319   3.357  2.1601 -0.7352 -0.2709
 2912SOL    HW220373   2.027   1.330   3.222 -2.7887 -1.8280  0.2927
 2913SOL     OW20374   0.569   2.855   8.503  0.2120 -0.0627  0.2030
 2913SOL    HW120375   0.568   2.882   8.594  0.4749  0.5942  0.0165
 2913SOL    HW220376   0.488   2.890   8.466 -0.2643 -2.6529 -1.2389
 2914SOL     OW20377   2.056   3.933  13.314 -0.0133 -0.0842 -0.4122
 2914SOL    HW120378   1.994   3.889  13.373  0.5157 -2.7073 -1.8581
 2914SOL    HW220379   2.112   3.994  13.362  0.2217 -1.6742  1.3547
 2915SOL     OW20380   4.409   2.996   7.813  0.0288 -0.0500  0.0415
 2915SOL    HW120381   4.461   2.939   7.870  0.0074  0.1077  0.2236
 2915SOL    HW220382   4.427   3.087   7.838 -1.0437  0.2039 -0.1177
 2916SOL     OW20383   1.875   0.081   2.029 -0.2899 -0.0020  0.0999
 2916SOL    HW120384   1.810   0.015   2.006 -2.4377  1.3017  2.4448
 2916SOL    HW220385   1.903   0.058   2.118  0.4648 -0.3509 -0.2287
 2917SOL     OW20386   0.500   0.664   3.498 -0.3555 -0.2895 -0.3599
 2917SOL    HW120387   0.581   0.687   3.543 -0.6206  0.2495 -0.1636
 2917SOL    HW220388   0.506   0.709   3.414 -0.5662  0.6780  0.1522
 2918SOL     OW20389   2.333   3.313  14.544 -0.2293  0.5353 -0.2821
 2918SOL    HW120390   2.336   3.322  14.448 -1.5626  1.1506 -0.2678
 2918SOL    HW220391   2.306   3.222  14.553 -2.2118  1.0699 -0.8366
 2919SOL     OW20392   4.190   2.593   9.994 -0.1830  0.2661 -0.2386
 2919SOL    HW120393   4.110   2.542   9.997 -0.9746  1.4420 -1.2731
 2919SOL    HW220394   4.178   2.668  10.054 -0.8424  1.3457 -1.7263
 2920SOL     OW20395   0.556   1.856   0.801  0.4749 -0.5203 -0.5223
 2920SOL    HW120396   0.496   1.868   0.728  1.5506 -1.8164 -1.6276
 2920SOL    HW220397   0.638   1.891   0.764  0.7151 -1.0523 -0.4936
 2921SOL     OW20398   1.372   1.406   1.834  0.1415  0.2694 -0.2831
 2921SOL    HW120399   1.449   1.390   1.889  0.5838 -0.6038 -1.1440
 2921SOL    HW220400   1.408   1.470   1.772 -0.5731  1.3740  0.4413
 2922SOL     OW20401   0.608   0.208  14.213 -0.3727  0.5272  0.0303
 2922SOL    HW120402   0.678   0.151  14.182 -1.5610  0.9539 -3.3661
 2922SOL    HW220403   0.653   0.272  14.268  0.1118 -0.2283  0.5144
 2923SOL     OW20404   4.613   3.718   9.499  0.0300 -0.5845  0.2101
 2923SOL    HW120405   4.595   3.692   9.589 -1.9954 -0.1365 -0.0779
 2923SOL    HW220406   4.532   3.694   9.455  0.5757  1.5134 -1.9441
 2924SOL     OW20407   0.646   0.212   6.359  1.1334 -0.3168 -0.1374
 2924SOL    HW120408   0.632   0.125   6.323 -1.4047  0.3075 -0.6156
 2924SOL    HW220409   0.558   0.248   6.364  1.3788  0.0249  1.5965
 2925SOL     OW20410   4.068   1.846   7.410 -0.2619 -0.4981 -0.2019
 2925SOL    HW120411   4.138   1.785   7.430 -0.5096 -0.5586  0.4900
 2925SOL    HW220412   3.994   1.785   7.405 -0.3791 -0.3608 -0.1654
 2926SOL     OW20413   1.546   0.131  16.250 -0.2063 -0.5620  0.2902
 2926SOL    HW120414   1.501   0.164  16.328 -2.2920 -0.4149 -0.9646
 2926SOL    HW220415   1.628   0.179  16.263  0.5210 -2.1287  1.4330
 2927SOL     OW20416   1.862   2.651  17.179 -0.7472 -0.0227 -0.3453
 2927SOL    HW120417   1.767   2.662  17.182 -0.6432  1.5439 -2.2322
 2927SOL    HW220418   1.886   2.740  17.151 -0.7244 -0.1753 -0.7981
 2928SOL     OW20419   3.021   2.141  10.410 -0.5299 -0.5278 -0.1802
 2928SOL    HW120420   3.072   2.062  10.392 -0.0583 -0.4208  0.6552
 2928SOL    HW220421   3.031   2.173  10.321  1.9939  0.7831  0.5724
 2929SOL     OW20422   3.654   3.919  13.184  0.0820  0.4957 -0.5695
 2929SOL    HW120423   3.684   3.881  13.267 -0.8908 -2.8760 -1.7494
 2929SOL    HW220424   3.736   3.911  13.136  0.7866 -2.0741  1.0744
 2930SOL     OW20425   2.419   3.247   3.395 -0.5366  0.7511  0.0973
 2930SOL    HW120426   2.352   3.193   3.438 -1.1983 -0.0256 -1.9085
 2930SOL    HW220427   2.388   3.258   3.305 -1.0330 -0.3127  0.1353
 2931SOL     OW20428   1.790   2.611   0.528 -0.4249  0.1621  0.3270
 2931SOL    HW120429   1.849   2.551   0.573  0.4814  0.3579 -0.6004
 2931SOL    HW220430   1.793   2.682   0.592  0.1931  1.7042 -1.4147
 2932SOL     OW20431   1.028   0.982  15.385  0.4062  0.3498  0.3121
 2932SOL    HW120432   1.033   0.891  15.417 -0.5672  0.5699  1.1078
 2932SOL    HW220433   1.122   0.993  15.377  0.4040  0.6891  0.7480
 2933SOL     OW20434   3.818   4.539   6.145 -0.0174 -0.7292  0.1533
 2933SOL    HW120435   3.741   4.489   6.119 -0.9368  0.5064  0.5067
 2933SOL    HW220436   3.777   4.599   6.208 -1.9481 -1.4052 -0.4661
 2934SOL     OW20437   0.310   0.602   4.181 -0.3274  0.0691 -0.2392
 2934SOL    HW120438   0.225   0.626   4.143  0.0451 -2.0466 -2.3995
 2934SOL    HW220439   0.365   0.577   4.107  0.5667 -1.8165  1.0571
 2935SOL     OW20440   4.501   2.059  13.225 -0.1166  0.5845 -0.1292
 2935SOL    HW120441   4.416   2.051  13.269  1.2247  0.7833  2.4849
 2935SOL    HW220442   4.470   2.080  13.137 -0.9096 -0.4199 -0.0923
 2936SOL     OW20443   4.593   0.871  15.748 -0.1412  0.2319 -0.3008
 2936SOL    HW120444   4.576   0.794  15.802  1.5716 -1.5809 -2.3323
 2936SOL    HW220445   4.668   0.912  15.793  1.0759 -1.5598 -0.6960
 2937SOL     OW20446   0.141   0.136   5.982 -0.1297 -0.1042  0.5004
 2937SOL    HW120447   0.171   0.072   5.918  0.9730  0.5207  0.3996
 2937SOL    HW220448   0.144   0.223   5.943  0.6089  0.4447  1.7858
 2938SOL     OW20449   3.309   2.034   9.538  0.6337 -0.0900  0.2483
 2938SOL    HW120450   3.320   1.947   9.577 -0.1909 -0.2787  0.0659
 2938SOL    HW220451   3.241   2.007   9.476  0.8015 -2.9907  1.3217
 2939SOL     OW20452   0.595   1.164   4.198 -0.3106  0.1957  0.0196
 2939SOL    HW120453   0.687   1.142   4.210 -0.5011 -0.8688 -0.4619
 2939SOL    HW220454   0.567   1.196   4.284  4.1699  1.5537  0.9716
 2940SOL     OW20455   1.618   2.319   0.351  0.0866  0.8042 -0.7206
 2940SOL    HW120456   1.658   2.398   0.314  0.8946 -0.6703 -3.0005
 2940SOL    HW220457   1.638   2.333   0.444  0.4349  0.7525 -0.7852
 2941SOL     OW20458   3.516   1.615   2.362 -0.2807 -0.5344 -0.3322
 2941SOL    HW120459   3.450   1.585   2.300 -2.3535 -0.7995  2.0134
 2941SOL    HW220460   3.588   1.637   2.303 -0.6788  2.5078  0.3091
 2942SOL     OW20461   3.842   1.454  10.518  0.2904  0.0625  0.1791
 2942SOL    HW120462   3.848   1.512  10.594  1.4937  0.2415 -0.0604
 2942SOL    HW220463   3.750   1.465  10.495  0.1084 -0.2648  0.7325
 2943SOL     OW20464   4.206   3.460   5.749  0.3967 -0.4315 -0.2862
 2943SOL    HW120465   4.170   3.516   5.680  0.1351 -2.1203 -1.5137
 2943SOL    HW220466   4.134   3.403   5.773 -0.6391  1.4743  1.1210
 2944SOL     OW20467   2.609   1.303   5.883  0.2517 -0.3280 -0.1967
 2944SOL    HW120468   2.513   1.297   5.877  0.4801 -1.8075 -2.4094
 2944SOL    HW220469   2.627   1.251   5.962  1.9049  0.6343  0.0494
 2945SOL     OW20470   3.946   0.908   5.112  0.8436 -0.3658 -0.4807
 2945SOL    HW120471   3.927   0.984   5.057  0.7427 -1.1849 -1.5816
 2945SOL    HW220472   3.982   0.958   5.185 -0.0385  2.2323 -1.8162
 2946SOL     OW20473   0.503   2.553   7.945  0.2705 -0.2354  0.2161
 2946SOL    HW120474   0.435   2.489   7.966 -1.4156  1.5075  0.0840
 2946SOL    HW220475   0.577   2.504   7.980 -0.4437 -1.7677 -0.4030
 2947SOL     OW20476   2.991   3.179   4.410  0.1384  0.0433 -0.0216
 2947SOL    HW120477   2.954   3.134   4.485  0.1705 -1.1198 -0.7020
 2947SOL    HW220478   2.914   3.189   4.354 -2.2424 -0.0813  3.2819
 2948SOL     OW20479   0.673   0.795   6.875 -0.3546 -0.2338  0.1300
 2948SOL    HW120480   0.638   0.842   6.951  1.8371 -0.4919  1.2931
 2948SOL    HW220481   0.693   0.866   6.815 -1.2409  1.5595  1.9565
 2949SOL     OW20482   0.288   0.332   7.732 -0.1313  0.0117 -0.1116
 2949SOL    HW120483   0.232   0.324   7.810 -1.1306  0.1111 -0.8255
 2949SOL    HW220484   0.370   0.366   7.768 -0.0475  0.3064 -0.5900
 2950SOL     OW20485   0.116   3.766  15.025  0.0616  0.0859 -0.2452
 2950SOL    HW120486   0.077   3.709  15.092 -0.1237 -0.5231 -0.8648
 2950SOL    HW220487   0.204   3.771  15.062 -0.1833 -0.6269  0.4418
 2951SOL     OW20488   0.936   4.357   1.420  0.5264  0.2665 -0.3549
 2951SOL    HW120489   1.009   4.344   1.480 -0.5941  1.8054  1.3279
 2951SOL    HW220490   0.950   4.450   1.405  0.6352 -0.0276 -2.0522
 2952SOL     OW20491   0.075   1.539   7.347  0.1778 -0.1630  0.0610
 2952SOL    HW120492   0.013   1.475   7.312 -0.6739  0.2696  0.7565
 2952SOL    HW220493   0.109   1.490   7.422  1.4309  0.4754 -0.0866
 2953SOL     OW20494   0.514   2.559  14.516 -0.1185 -0.0947  0.1107
 2953SOL    HW120495   0.478   2.544  14.603  0.1649 -4.1791 -0.5033
 2953SOL    HW220496   0.583   2.494  14.525 -1.1736 -1.2494 -0.1739
 2954SOL     OW20497   3.729   1.949   6.862  0.1058 -0.2452  0.0633
 2954SOL    HW120498   3.725   1.853   6.865  0.7131 -0.3897 -3.5579
 2954SOL    HW220499   3.772   1.973   6.944  0.1068 -1.1173  0.3173
 2955SOL     OW20500   1.862   3.305   9.312  0.0365  0.0165  0.0184
 2955SOL    HW120501   1.916   3.382   9.333 -2.2147  1.2092  1.5173
 2955SOL    HW220502   1.782   3.339   9.354 -0.9228 -0.9277 -1.0676
 2956SOL     OW20503   1.618   4.661  11.630 -0.4550  0.1334 -0.1203
 2956SOL    HW120504   1.635   4.669  11.536  4.0018  0.2478  0.6926
 2956SOL    HW220505   1.523   4.656  11.640 -0.1048 -2.3885  2.2072
 2957SOL     OW20506   4.072   1.745   4.405 -0.0368  0.0671 -0.4352
 2957SOL    HW120507   4.131   1.672   4.425  0.7375  0.9470  0.4830
 2957SOL    HW220508   4.098   1.766   4.315 -1.0152 -0.5631 -0.8602
 2958SOL     OW20509   0.391   2.971   8.295 -0.2193  0.5220 -0.1285
 2958SOL    HW120510   0.387   3.066   8.301  0.9372  0.3734  2.8706
 2958SOL    HW220511   0.411   2.967   8.201  0.7150  1.0126  0.0605
 2959SOL     OW20512   1.543   1.896  14.964 -0.4276 -0.0198  0.4483
 2959SOL    HW120513   1.549   1.819  14.908  3.2258  2.9285 -3.1794
 2959SOL    HW220514   1.607   1.952  14.921 -0.9185 -0.0813 -0.3557
 2960SOL     OW20515   0.832   3.235   9.529  0.3820 -0.0287 -0.5120
 2960SOL    HW120516   0.747   3.190   9.524 -0.1679  1.2344 -2.3884
 2960SOL    HW220517   0.806   3.327   9.526 -1.0112 -0.3164  2.8256
 2961SOL     OW20518   1.868   1.646   1.691  0.3201 -0.4103  0.0171
 2961SOL    HW120519   1.818   1.582   1.639 -1.2487  0.2122  0.7744
 2961SOL    HW220520   1.892   1.714   1.628  0.9994 -0.2487  0.4452
 2962SOL     OW20521   2.693   2.843   6.707 -0.3019 -0.6265  0.0245
 2962SOL    HW120522   2.663   2.752   6.697 -0.2841 -0.6122 -0.1503
 2962SOL    HW220523   2.721   2.855   6.798  0.3775  1.1090 -0.4095
 2963SOL     OW20524   4.451   4.159  10.273 -0.0362 -0.0219 -0.1842
 2963SOL    HW120525   4.455   4.121  10.185  2.0183 -0.4606  0.1222
 2963SOL    HW220526   4.495   4.097  10.331 -1.4541  1.0338  2.0210
 2964SOL     OW20527   1.640   2.631   6.012 -0.1257 -0.2074  0.2396
 2964SOL    HW120528   1.558   2.679   6.026  1.8401  3.2404  0.0947
 2964SOL    HW220529   1.639   2.649   5.918 -0.3004 -1.6537 -0.0236
 2965SOL     OW20530   2.403   2.409   3.792  0.2431 -0.2327 -0.0706
 2965SOL    HW120531   2.324   2.430   3.842  0.4569  1.5386 -0.4566
 2965SOL    HW220532   2.470   2.471   3.822  2.1740 -2.8315  0.9276
 2966SOL     OW20533   1.570   2.020   2.372  0.0142  0.1560 -0.3112
 2966SOL    HW120534   1.557   2.076   2.296  1.4014 -3.1733 -3.0024
 2966SOL    HW220535   1.500   1.956   2.361  2.1948 -2.4033  0.5308
 2967SOL     OW20536   4.362   3.839   1.171  0.4167 -0.1466  0.2334
 2967SOL    HW120537   4.287   3.807   1.222 -1.8797  1.7585 -1.9699
 2967SOL    HW220538   4.360   3.770   1.105 -0.4201  0.3635 -0.2666
 2968SOL     OW20539   4.447   0.976   9.542 -0.0730  0.5335 -0.8890
 2968SOL    HW120540   4.463   1.006   9.453  2.0999 -0.6619 -0.9044
 2968SOL    HW220541   4.469   0.884   9.529 -0.6945  0.0927  1.1913
 2969SOL     OW20542   4.415   2.574  13.251 -0.0900  0.1979  0.4488
 2969SOL    HW120543   4.456   2.558  13.166 -1.9959  1.2521 -0.6840
 2969SOL    HW220544   4.402   2.669  13.246 -0.8642  0.0747 -0.0298
 2970SOL     OW20545   4.148   2.089   8.823 -0.3299 -0.0308  0.3883
 2970SOL    HW120546   4.074   2.104   8.765  1.3305  1.0363 -1.4337
 2970SOL    HW220547   4.217   2.126   8.768  0.6883  0.5168  1.9993
 2971SOL     OW20548   3.216   3.010   1.600  0.0484  0.1147 -0.3814
 2971SOL    HW120549   3.130   2.975   1.577  0.5517 -1.0171 -0.5080
 2971SOL    HW220550   3.248   2.941   1.658  1.1851  0.0517 -1.1008
 2972SOL     OW20551   0.769   3.510   6.994  0.0272 -0.5604 -0.0380
 2972SOL    HW120552   0.781   3.597   7.032 -1.3030 -0.3602 -0.0867
 2972SOL    HW220553   0.835   3.506   6.925  0.3938  1.7832  0.1738
 2973SOL     OW20554   2.254   0.920  12.624 -0.2385  0.2023 -0.8150
 2973SOL    HW120555   2.199   0.949  12.697 -1.1864 -1.5247 -0.8299
 2973SOL    HW220556   2.187   0.921  12.556 -0.1706 -2.0809 -0.9234
 2974SOL     OW20557   1.487   2.555  11.891 -0.2630  0.1726 -0.4425
 2974SOL    HW120558   1.437   2.527  11.968 -2.1329  0.5664 -1.5332
 2974SOL    HW220559   1.559   2.606  11.929 -1.5305  1.5610  0.0557
 2975SOL     OW20560   1.646   3.012   8.661 -1.2476 -0.3103 -0.0979
 2975SOL    HW120561   1.737   3.015   8.690 -0.7400 -0.1837 -1.6746
 2975SOL    HW220562   1.608   2.947   8.719 -0.3945 -2.0106 -1.4261
 2976SOL     OW20563   0.995   4.193   3.762 -0.2858 -0.4797 -0.1090
 2976SOL    HW120564   1.043   4.186   3.679  0.7391  0.4018  0.4058
 2976SOL    HW220565   0.922   4.133   3.751 -0.5101 -0.2631  0.2069
 2977SOL     OW20566   1.350   1.819  15.471  0.2596 -0.5393 -0.8248
 2977SOL    HW120567   1.365   1.788  15.561 -0.3484 -0.4078 -0.6803
 2977SOL    HW220568   1.356   1.914  15.483  0.7958 -0.9411  2.1979
 2978SOL     OW20569   2.065   3.406   1.133  0.4532  0.0932  0.1733
 2978SOL    HW120570   2.021   3.370   1.056  0.7076  0.6537 -0.2304
 2978SOL    HW220571   2.010   3.380   1.208 -0.0758 -0.3420 -0.3670
 2979SOL     OW20572   0.876   0.411   8.312 -0.7059 -0.1606 -0.6973
 2979SOL    HW120573   0.812   0.341   8.302 -0.5803 -0.3454 -0.2530
 2979SOL    HW220574   0.838   0.474   8.251 -0.5752  1.1182  0.5374
 2980SOL     OW20575   3.897   3.451   9.040  0.1628 -0.0206 -0.3936
 2980SOL    HW120576   3.891   3.381   9.105 -1.8476  0.9594  0.4727
 2980SOL    HW220577   3.830   3.421   8.979  1.2388 -1.9435 -0.6453
 2981SOL     OW20578   1.003   0.097   4.828  0.0714 -0.1901 -0.0374
 2981SOL    HW120579   1.090   0.100   4.867  0.3789 -1.8179 -0.6082
 2981SOL    HW220580   0.993   0.186   4.794  0.9872  0.4515  1.3770
 2982SOL     OW20581   4.287   0.010   6.536  0.1912 -0.6571  0.4385
 2982SOL    HW120582   4.211   0.067   6.518  0.2119  0.0412  2.6141
 2982SOL    HW220583   4.239   4.664   6.542 -1.1682 -0.0240 -1.4538
 2983SOL     OW20584   1.275   2.562   4.163  0.3108  0.1062 -0.3828
 2983SOL    HW120585   1.224   2.492   4.122 -1.9553 -0.0000  2.6793
 2983SOL    HW220586   1.221   2.632   4.128 -0.8009 -0.6305 -0.1271
 2984SOL     OW20587   1.776   0.893   2.565  0.2170 -0.1233  0.1528
 2984SOL    HW120588   1.758   0.923   2.655  3.5447 -2.1030  1.4724
 2984SOL    HW220589   1.870   0.912   2.562  0.4897 -1.7141 -1.1437
 2985SOL     OW20590   4.334   2.321   2.729 -0.6481 -0.0231  0.0692
 2985SOL    HW120591   4.376   2.344   2.646 -0.8730  1.0542  0.2465
 2985SOL    HW220592   4.357   2.400   2.778  0.4566 -0.5351  0.3713
 2986SOL     OW20593   4.073   0.649  16.412 -0.5692  0.2957 -0.2770
 2986SOL    HW120594   4.162   0.659  16.447 -1.2353 -0.9102  1.7909
 2986SOL    HW220595   4.032   0.595  16.480  2.1716 -0.6691  0.6289
 2987SOL     OW20596   3.135   1.666   6.216 -0.0604  0.2004 -0.0951
 2987SOL    HW120597   3.045   1.639   6.198 -0.5728  0.9983  1.2756
 2987SOL    HW220598   3.145   1.731   6.146  1.6573  0.6808  0.5805
 2988SOL     OW20599   0.431   0.914   0.719  0.1828  0.0050 -0.0692
 2988SOL    HW120600   0.381   0.835   0.699 -0.9218  0.9678 -1.1297
 2988SOL    HW220601   0.371   0.958   0.780 -4.1477  1.2299 -5.2258
 2989SOL     OW20602   2.829   2.444   7.553 -0.2381  0.2919 -0.6854
 2989SOL    HW120603   2.868   2.357   7.547 -1.9414 -0.5736  0.5381
 2989SOL    HW220604   2.891   2.484   7.613  0.6571 -1.3682 -0.5102
 2990SOL     OW20605   2.298   2.951  16.681  0.3423 -0.2543 -0.5177
 2990SOL    HW120606   2.278   2.956  16.774  2.6514  0.6528 -0.0664
 2990SOL    HW220607   2.304   3.046  16.666  1.5803 -0.1751  0.4441
 2991SOL     OW20608   3.438   1.172   1.765 -0.6377 -0.0244 -0.2030
 2991SOL    HW120609   3.364   1.115   1.745 -1.5696  0.4098  2.1274
 2991SOL    HW220610   3.422   1.243   1.703 -2.3187 -0.0352  0.2341
 2992SOL     OW20611   4.693   0.436   0.766 -0.8690 -0.7560 -0.0349
 2992SOL    HW120612   4.677   0.421   0.673 -1.3872  2.7364 -0.5091
 2992SOL    HW220613   4.626   0.500   0.790 -0.6052  0.3028 -2.1757
 2993SOL     OW20614   3.513   0.379  15.500  0.1836  0.1504  0.5273
 2993SOL    HW120615   3.457   0.446  15.538 -2.4208 -2.4111  1.2745
 2993SOL    HW220616   3.552   0.420  15.423 -2.5394  0.9480 -0.4211
 2994SOL     OW20617   0.064   0.983   8.022  0.3313  0.1210 -0.2019
 2994SOL    HW120618   0.065   1.013   7.931 -0.1378  0.0453 -0.2315
 2994SOL    HW220619   0.118   0.906   8.004 -1.2061 -0.4637 -2.3178
 2995SOL     OW20620   1.203   2.735   1.027 -0.4056 -0.1062 -0.4471
 2995SOL    HW120621   1.192   2.796   0.955 -1.6059  0.7129  0.4204
 2995SOL    HW220622   1.277   2.680   1.001 -0.9397 -0.0522 -2.0692
 2996SOL     OW20623   2.427   0.622   4.238  0.9794 -0.5432  0.3821
 2996SOL    HW120624   2.398   0.537   4.204  0.9959  0.0023 -1.0004
 2996SOL    HW220625   2.367   0.678   4.189  0.6195 -0.1577  1.2536
 2997SOL     OW20626   0.556   2.510   2.625 -0.2615  0.5628 -0.0205
 2997SOL    HW120627   0.646   2.497   2.653  0.1476  1.0944 -1.0881
 2997SOL    HW220628   0.550   2.599   2.589  1.7405  0.8411  0.3496
 2998SOL     OW20629   1.476   4.700   7.249  0.6492  0.4460 -0.3234
 2998SOL    HW120630   1.432   0.033   7.198 -1.5627 -0.5406  0.2245
 2998SOL    HW220631   1.409   4.687   7.316  0.6054  0.0391 -0.4448
 2999SOL     OW20632   3.901   2.208  10.108  0.1076  0.1674 -0.4292
 2999SOL    HW120633   3.837   2.172  10.046 -0.9455  0.3642  0.5434
 2999SOL    HW220634   3.968   2.246  10.051  0.1436 -1.0062 -1.1679
 3000SOL     OW20635   2.082   2.624   5.507  0.2770  0.0235  0.4045
 3000SOL    HW120636   2.150   2.574   5.461 -0.3225 -0.3544 -0.0690
 3000SOL    HW220637   2.136   2.675   5.568 -1.7495  2.1665  0.3967
 3001SOL     OW20638   0.291   3.722   8.843  0.5373 -0.0313 -0.0279
 3001SOL    HW120639   0.273   3.729   8.937  0.4555 -3.7947  0.2120
 3001SOL    HW220640   0.358   3.790   8.845  0.7429 -0.2349  0.0038
 3002SOL     OW20641   3.947   4.158  15.563 -0.4438 -0.6442  0.1996
 3002SOL    HW120642   3.897   4.238  15.573  0.3712 -0.6267  4.2783
 3002SOL    HW220643   3.866   4.110  15.547  0.9793 -2.7573 -0.7931
 3003SOL     OW20644   2.448   1.302   8.415 -0.2312  0.1042 -0.8515
 3003SOL    HW120645   2.518   1.237   8.417  1.3400  1.7529 -1.8094
 3003SOL    HW220646   2.398   1.284   8.495 -1.0910 -0.0179 -1.4238
 3004SOL     OW20647   1.043   1.115   6.134 -0.1849 -0.1820 -0.1199
 3004SOL    HW120648   0.964   1.073   6.098  0.6134 -0.6520 -1.3132
 3004SOL    HW220649   1.026   1.135   6.226  1.2633 -0.0970  0.1258
 3005SOL     OW20650   2.955   3.522   2.320  0.3217 -0.1593  0.2050
 3005SOL    HW120651   2.956   3.577   2.242  0.4249 -1.5828 -0.8011
 3005SOL    HW220652   3.017   3.453   2.296 -1.5126 -2.0984  1.1290
 3006SOL     OW20653   1.330   0.188   1.913 -0.0290  0.3921 -0.0088
 3006SOL    HW120654   1.392   0.138   1.860  1.1479 -0.8377  2.5547
 3006SOL    HW220655   1.342   0.156   2.003 -1.0828  1.6946  0.6010
 3007SOL     OW20656   0.144   1.888   7.416 -0.4012  0.8458  0.1954
 3007SOL    HW120657   0.193   1.950   7.362  0.6641 -1.9296 -2.0213
 3007SOL    HW220658   0.192   1.806   7.410 -1.5571  0.1413  0.5633
 3008SOL     OW20659   3.504   3.433   4.296 -0.0727  0.2620 -0.2538
 3008SOL    HW120660   3.556   3.373   4.349  1.6234  2.0000  0.0659
 3008SOL    HW220661   3.525   3.423   4.203 -0.7190  2.5380 -0.6432
 3009SOL     OW20662   0.402   3.656   2.698  0.3295 -0.0205  0.1512
 3009SOL    HW120663   0.337   3.717   2.664 -0.1864 -0.9708 -0.5920
 3009SOL    HW220664   0.357   3.575   2.671  0.3206  0.1700 -0.4048
 3010SOL     OW20665   0.746   4.418  14.672  0.2267  0.1002 -0.5161
 3010SOL    HW120666   0.698   4.410  14.755  0.4308  0.8178 -0.3319
 3010SOL    HW220667   0.670   4.437  14.617  0.3365 -1.1814 -1.1030
 3011SOL     OW20668   3.331   4.132   5.095  0.1021 -0.4211 -0.1658
 3011SOL    HW120669   3.238   4.115   5.087 -0.2531  1.7547 -0.7049
 3011SOL    HW220670   3.355   4.046   5.059  1.4702 -0.5819  1.1220
 3012SOL     OW20671   4.619   4.367   5.615  0.2170 -0.0666 -0.3278
 3012SOL    HW120672   4.537   4.322   5.634 -0.1415  0.3575 -0.8694
 3012SOL    HW220673   4.668   4.304   5.668  2.3333  0.9427 -1.0731
 3013SOL     OW20674   1.555   0.334   3.197 -0.2977 -0.2808 -0.1517
 3013SOL    HW120675   1.519   0.415   3.160  1.2033 -0.2366 -1.5290
 3013SOL    HW220676   1.501   0.264   3.161 -0.1183 -0.4563 -0.0766
 3014SOL     OW20677   3.160   2.579   2.668 -0.4356  0.5640  0.2225
 3014SOL    HW120678   3.077   2.627   2.672 -1.0114 -0.3733 -0.4722
 3014SOL    HW220679   3.146   2.492   2.706 -0.6182  0.5623  0.1520
 3015SOL     OW20680   1.042   2.196  14.353  0.0666 -0.0113 -0.1799
 3015SOL    HW120681   1.087   2.273  14.320 -1.3428  1.5179  1.4247
 3015SOL    HW220682   0.977   2.177  14.286  1.5092 -2.4994 -0.8980
 3016SOL     OW20683   3.617   3.153  13.193  0.6069 -0.2853 -0.3471
 3016SOL    HW120684   3.692   3.203  13.224  0.2668 -0.3847  0.6499
 3016SOL    HW220685   3.551   3.167  13.261  0.7709  0.0382 -0.2540
 3017SOL     OW20686   0.952   3.874   2.482 -0.6899  0.4513 -0.1393
 3017SOL    HW120687   1.022   3.872   2.417 -2.0825  0.5830 -1.6474
 3017SOL    HW220688   0.923   3.783   2.475  0.7352 -0.1897  2.3460
 3018SOL     OW20689   2.873   1.212  12.250 -0.2424 -0.0594 -0.2534
 3018SOL    HW120690   2.854   1.261  12.330 -0.0637  0.0185 -0.2579
 3018SOL    HW220691   2.852   1.286  12.194  0.2204  0.5144  0.3247
 3019SOL     OW20692   2.160   1.691   9.455 -0.1410 -0.3382  0.0557
 3019SOL    HW120693   2.247   1.686   9.495 -1.5367  2.1918  3.4212
 3019SOL    HW220694   2.144   1.785   9.448 -3.2949 -0.7838  1.2188
 3020SOL     OW20695   0.149   1.364   4.195  0.1574  0.6508  0.5224
 3020SOL    HW120696   0.226   1.421   4.196  1.7906 -1.5542 -0.7467
 3020SOL    HW220697   0.148   1.341   4.102 -0.9187  0.9432  0.4642
 3021SOL     OW20698   0.340   1.206  10.730 -0.5467 -0.3353 -0.2411
 3021SOL    HW120699   0.336   1.161  10.815  0.0155 -0.4324 -0.2647
 3021SOL    HW220700   0.276   1.276  10.730  0.3025  0.4616  3.2227
 3022SOL     OW20701   0.577   2.799   8.983 -0.1628  0.3416 -0.1707
 3022SOL    HW120702   0.535   2.714   8.968 -0.7725  0.3806  1.3919
 3022SOL    HW220703   0.604   2.813   8.892 -0.9053 -3.7259 -1.0390
 3023SOL     OW20704   4.601   4.591  15.797 -0.5369  0.0137  0.0581
 3023SOL    HW120705   4.591   4.560  15.887  0.3180  1.1242  0.5362
 3023SOL    HW220706   4.525   4.552  15.753 -1.7678  1.0023  1.3126
 3024SOL     OW20707   3.351   0.832   5.260 -0.2435  0.1485 -0.0565
 3024SOL    HW120708   3.304   0.752   5.235 -0.6736  0.1210  0.8399
 3024SOL    HW220709   3.375   0.864   5.173 -0.6755 -4.0096 -1.7307
 3025SOL     OW20710   1.969   1.635   5.610 -0.1699  0.6716 -0.0212
 3025SOL    HW120711   1.993   1.572   5.542  1.7279  0.6399  0.6853
 3025SOL    HW220712   1.877   1.610   5.618  0.0093  0.2821  0.7578
 3026SOL     OW20713   1.514   3.516   6.331  0.2933  0.5998 -0.0106
 3026SOL    HW120714   1.502   3.421   6.328  2.3210  0.3418  0.0300
 3026SOL    HW220715   1.502   3.548   6.421  0.7208 -0.5254  0.4548
 3027SOL     OW20716   2.344   4.309  13.402  0.1341  0.0303  0.0183
 3027SOL    HW120717   2.432   4.281  13.428  0.5829  1.1462 -0.2737
 3027SOL    HW220718   2.294   4.230  13.422  0.5780 -0.1081  0.5999
 3028SOL     OW20719   1.359   1.951   3.187 -0.0964  0.0347  0.0061
 3028SOL    HW120720   1.339   1.903   3.107 -2.8482  1.3957 -0.1373
 3028SOL    HW220721   1.301   1.907   3.249 -3.0176  1.2766 -1.8366
 3029SOL     OW20722   1.802   0.773   3.294 -0.6225  0.3681  0.1641
 3029SOL    HW120723   1.835   0.822   3.370 -0.6971  1.2410 -0.3639
 3029SOL    HW220724   1.794   0.687   3.334 -0.1301  0.3524  0.2298
 3030SOL     OW20725   1.737   1.569   5.328 -0.4428  0.4490  0.0697
 3030SOL    HW120726   1.821   1.523   5.326 -1.9317 -2.2730 -0.2339
 3030SOL    HW220727   1.727   1.584   5.422  0.9433  1.3612  0.0721
 3031SOL     OW20728   1.431   4.574   4.591 -0.3766  0.0458 -0.3252
 3031SOL    HW120729   1.401   4.625   4.516 -2.2486 -2.6582 -1.4458
 3031SOL    HW220730   1.353   4.581   4.646 -0.7786  1.4963 -1.0896
 3032SOL     OW20731   0.012   1.116   8.482  0.1924  0.5195 -0.4826
 3032SOL    HW120732   0.094   1.072   8.462  0.1082 -0.0115  0.3764
 3032SOL    HW220733   4.703   1.109   8.397 -0.9984  1.5859  0.0534
 3033SOL     OW20734   3.121   0.337  14.765 -0.6019 -0.2798 -0.2486
 3033SOL    HW120735   3.049   0.288  14.805 -0.1263  1.1651  2.3835
 3033SOL    HW220736   3.195   0.307  14.817  0.0261  0.5802 -0.6428
 3034SOL     OW20737   0.407   2.136   3.747  0.6934  0.2637 -0.8193
 3034SOL    HW120738   0.416   2.062   3.808 -0.9937  1.4279  0.8321
 3034SOL    HW220739   0.326   2.107   3.705 -1.0801 -0.6761  3.1731
 3035SOL     OW20740   0.214   4.203  12.608 -0.0152  0.3940  0.1088
 3035SOL    HW120741   0.305   4.202  12.578  0.0315 -0.4374  0.2962
 3035SOL    HW220742   0.185   4.113  12.601  0.7966  0.1800 -0.5199
 3036SOL     OW20743   1.190   1.217   3.716 -0.0632 -0.2633  0.5220
 3036SOL    HW120744   1.220   1.147   3.657  0.4310  0.1808  0.2473
 3036SOL    HW220745   1.271   1.251   3.754 -0.5047  1.1980  0.1369
 3037SOL     OW20746   0.069   1.298   6.963 -0.3699  0.6169 -0.0757
 3037SOL    HW120747   0.104   1.296   6.874 -1.1053  0.0726 -0.3521
 3037SOL    HW220748   0.008   1.224   6.966  0.2287 -0.0192 -3.9650
 3038SOL     OW20749   0.279   2.401   3.829 -0.0940 -0.2734  0.0616
 3038SOL    HW120750   0.333   2.388   3.908 -0.8494  1.8972  0.9107
 3038SOL    HW220751   0.302   2.322   3.780  1.8468 -0.8966  1.9447
 3039SOL     OW20752   1.913   1.362   8.391  0.1521  0.3326  0.6862
 3039SOL    HW120753   1.943   1.289   8.445  0.2569 -0.5269 -0.5381
 3039SOL    HW220754   1.874   1.409   8.465 -1.9506 -0.4418  0.0764
 3040SOL     OW20755   1.632   1.980   8.545 -0.2113 -0.1429 -0.0474
 3040SOL    HW120756   1.657   1.933   8.625  0.6695  0.8755  0.2645
 3040SOL    HW220757   1.547   1.936   8.540 -0.0178 -0.4743 -0.4316
 3041SOL     OW20758   4.153   1.006   7.767 -0.3064  0.1421  0.1080
 3041SOL    HW120759   4.230   1.018   7.823 -1.2868  0.2111  1.4409
 3041SOL    HW220760   4.129   1.094   7.738 -0.5259 -0.2421 -0.8730
 3042SOL     OW20761   1.619   2.671   3.409 -0.0449 -0.0776 -0.6753
 3042SOL    HW120762   1.578   2.662   3.496 -1.6088  0.3104 -1.3692
 3042SOL    HW220763   1.699   2.722   3.423 -0.1779 -0.1345  0.2876
 3043SOL     OW20764   4.419   4.048   3.994  0.0523  0.2950  0.1966
 3043SOL    HW120765   4.507   4.080   3.975  0.2323 -0.9071 -0.9507
 3043SOL    HW220766   4.398   4.085   4.080  0.0023  2.0389 -0.5683
 3044SOL     OW20767   1.637   1.297   5.897  0.1371  0.1731 -0.1826
 3044SOL    HW120768   1.681   1.376   5.929  2.0806 -0.3851 -1.5367
 3044SOL    HW220769   1.695   1.225   5.918  0.3368  0.4653  0.2625
 3045SOL     OW20770   2.399   4.533   5.782 -0.6099 -0.0729 -0.4635
 3045SOL    HW120771   2.309   4.511   5.758 -0.7620  0.7458 -0.6296
 3045SOL    HW220772   2.442   4.524   5.696 -1.5837 -0.2210 -0.9334
 3046SOL     OW20773   1.810   4.142   8.120  0.3020 -0.0909 -0.0611
 3046SOL    HW120774   1.744   4.130   8.188 -1.5156  0.1408 -1.7898
 3046SOL    HW220775   1.827   4.049   8.104  1.5379  0.0511  0.4139
 3047SOL     OW20776   3.044   1.656   2.220 -0.0125 -0.1272  0.3106
 3047SOL    HW120777   2.981   1.624   2.284 -1.4552 -0.3693 -1.2493
 3047SOL    HW220778   3.006   1.738   2.188  0.3285 -0.9017 -2.0483
 3048SOL     OW20779   1.120   2.684   3.243 -0.1552 -0.3282 -0.5071
 3048SOL    HW120780   1.121   2.756   3.181 -1.4672  0.0400 -0.0771
 3048SOL    HW220781   1.145   2.728   3.325 -1.5926  0.6717 -0.6161
 3049SOL     OW20782   0.470   3.550  15.606  0.0372 -0.0116  0.0355
 3049SOL    HW120783   0.498   3.561  15.697 -2.1796  1.9329  0.4772
 3049SOL    HW220784   0.408   3.481  15.631 -0.7040  0.8105  0.4692
 3050SOL     OW20785   0.087   1.864   4.021  0.0189  0.4648  0.0042
 3050SOL    HW120786   0.095   1.789   4.080 -0.1586 -0.1031 -0.6947
 3050SOL    HW220787   0.088   1.814   3.940 -0.0375 -0.8558  0.8043
 3051SOL     OW20788   3.384   1.003   5.521 -1.2767 -0.4007  0.2259
 3051SOL    HW120789   3.406   1.067   5.454  0.0067  0.3480  1.3862
 3051SOL    HW220790   3.448   1.020   5.589 -1.8444  3.8086 -0.3104
 3052SOL     OW20791   3.513   3.925   3.116  0.6141  0.3080  0.0659
 3052SOL    HW120792   3.578   3.968   3.060  3.2816 -2.2389  1.1980
 3052SOL    HW220793   3.473   3.996   3.166 -0.0341 -0.4636  0.6470
 3053SOL     OW20794   2.690   1.749   0.395  0.0962 -0.2581 -0.5691
 3053SOL    HW120795   2.766   1.771   0.341  2.0662  0.6096  2.5885
 3053SOL    HW220796   2.633   1.698   0.337  1.4067 -1.7061 -0.5774
 3054SOL     OW20797   0.259   1.526  14.084 -0.1120  0.0846 -0.4325
 3054SOL    HW120798   0.214   1.592  14.138 -0.2163 -0.9197  0.6938
 3054SOL    HW220799   0.220   1.551  13.999 -1.4321  0.5912  0.3223
 3055SOL     OW20800   1.852   1.841   2.914 -0.1863 -0.4011 -0.0539
 3055SOL    HW120801   1.862   1.766   2.856  2.1029 -0.7430  0.8054
 3055SOL    HW220802   1.885   1.801   2.995  3.7382  0.0085 -1.4862
 3056SOL     OW20803   2.916   1.210   7.788  0.0780  0.7299  0.3261
 3056SOL    HW120804   2.905   1.193   7.694 -0.1323 -0.2470  0.5277
 3056SOL    HW220805   2.935   1.304   7.789 -0.4564  0.8101  2.2409
 3057SOL     OW20806   4.296   4.506   9.803 -0.1716  0.0804 -0.0292
 3057SOL    HW120807   4.254   4.577   9.755 -0.0631 -0.8352 -1.4768
 3057SOL    HW220808   4.226   4.462   9.851  0.3469 -0.2551  0.4219
 3058SOL     OW20809   3.319   4.590  16.981  1.0331  0.0456 -0.7116
 3058SOL    HW120810   3.363   4.505  16.982 -0.9439 -0.9743  0.2920
 3058SOL    HW220811   3.395   4.647  16.970  1.1350 -0.2315 -1.4210
 3059SOL     OW20812   2.229   0.621   3.003 -0.0290  0.6487  0.3596
 3059SOL    HW120813   2.165   0.651   2.938  0.6068  2.1543  0.4287
 3059SOL    HW220814   2.175   0.590   3.076 -0.0708 -0.8884 -0.3211
 3060SOL     OW20815   3.719   3.486   8.538 -0.2608  0.1493  0.3528
 3060SOL    HW120816   3.767   3.437   8.472  0.2942  0.2136  0.7159
 3060SOL    HW220817   3.651   3.530   8.487 -1.1038 -2.0914 -0.4585
 3061SOL     OW20818   2.970   2.146   4.827  0.2684 -0.1082  0.7521
 3061SOL    HW120819   3.007   2.234   4.832 -1.3323  0.5697  0.4994
 3061SOL    HW220820   3.034   2.115   4.763  0.6313 -0.4073  1.2540
 3062SOL     OW20821   3.233   1.296   5.533  0.8734  0.1381  0.3114
 3062SOL    HW120822   3.192   1.295   5.620 -0.6632 -1.7347 -0.4321
 3062SOL    HW220823   3.192   1.214   5.508 -0.0413  0.5496  0.4500
 3063SOL     OW20824   4.292   4.660   8.408 -0.0278  0.2875  0.3079
 3063SOL    HW120825   4.350   0.000   8.409  1.5604 -0.8746 -1.6070
 3063SOL    HW220826   4.268   4.658   8.315 -0.9884 -3.7314  0.6463
 3064SOL     OW20827   0.591   3.143  16.063  0.0619 -0.2032 -0.7131
 3064SOL    HW120828   0.548   3.080  16.122 -0.9825  0.8406 -0.3780
 3064SOL    HW220829   0.585   3.094  15.981  0.0273 -1.8741  0.2772
 3065SOL     OW20830   2.819   0.747   4.126  0.0609 -0.1981  0.1864
 3065SOL    HW120831   2.862   0.787   4.050 -0.3270  1.5677  0.8750
 3065SOL    HW220832   2.745   0.707   4.081 -0.5781  0.4372  0.6607
 3066SOL     OW20833   2.483   3.462   7.029 -0.1109 -0.2960 -0.3820
 3066SOL    HW120834   2.512   3.553   7.035  2.5553 -1.2072  0.3931
 3066SOL    HW220835   2.466   3.432   7.118 -1.0244  0.1996 -0.3829
 3067SOL     OW20836   4.533   0.647   6.773  0.5558  0.0210  0.3191
 3067SOL    HW120837   4.565   0.737   6.760 -1.9457  0.5156 -2.4134
 3067SOL    HW220838   4.574   0.603   6.699  0.4090 -1.6687  1.2533
 3068SOL     OW20839   1.086   2.804   4.360  0.2507  0.0955  0.3099
 3068SOL    HW120840   1.158   2.759   4.403  1.3881  0.1514 -1.5494
 3068SOL    HW220841   1.135   2.886   4.352  0.2478  0.2386  1.6662
 3069SOL     OW20842   2.596   3.048   3.524  0.1027  0.2411  0.3477
 3069SOL    HW120843   2.615   3.068   3.615  0.7400 -0.9370  0.4689
 3069SOL    HW220844   2.543   3.118   3.485 -1.0386 -0.3029  0.9011
 3070SOL     OW20845   2.401   2.386  12.401  0.0977  0.4220 -0.1227
 3070SOL    HW120846   2.379   2.343  12.483  0.0939 -0.3474 -0.5329
 3070SOL    HW220847   2.469   2.330  12.366 -0.6979 -0.4532 -0.2703
 3071SOL     OW20848   1.200   0.687   8.473  0.3033  0.8345  1.0414
 3071SOL    HW120849   1.129   0.639   8.516 -2.3538  0.6397 -3.5666
 3071SOL    HW220850   1.155   0.763   8.436 -1.8077 -1.1800 -0.5999
 3072SOL     OW20851   3.125   2.743   3.307 -0.5417 -0.0544  0.0795
 3072SOL    HW120852   3.151   2.656   3.276 -3.1342 -0.3094 -1.4260
 3072SOL    HW220853   3.031   2.734   3.324 -0.5624 -1.2176 -0.6314
 3073SOL     OW20854   4.364   3.112   7.145 -0.0252  0.0488  0.0817
 3073SOL    HW120855   4.403   3.155   7.069 -1.6671  1.9874  0.3154
 3073SOL    HW220856   4.418   3.155   7.212  0.6443 -1.6631  0.6255
 3074SOL     OW20857   1.851   2.199   3.424  0.0426 -0.2704  0.1345
 3074SOL    HW120858   1.860   2.294   3.419  0.4782 -0.3927 -1.5012
 3074SOL    HW220859   1.798   2.190   3.345  0.4168 -0.4060 -0.1021
 3075SOL     OW20860   2.012   3.665   8.112 -0.3542 -0.5566 -0.0815
 3075SOL    HW120861   2.011   3.634   8.021  4.1375 -3.9716  1.0284
 3075SOL    HW220862   1.941   3.615   8.151 -0.5813  0.6270  1.0158
 3076SOL     OW20863   4.666   0.214   6.136 -0.2954  0.2673 -0.2227
 3076SOL    HW120864   4.604   0.174   6.075 -2.0667  0.7189  1.2649
 3076SOL    HW220865   0.013   0.179   6.103 -0.9584 -0.1792 -1.4311
 3077SOL     OW20866   4.530   1.420   8.244 -0.0781 -0.1415  0.8462
 3077SOL    HW120867   4.566   1.423   8.333  0.0594 -0.0029  0.7853
 3077SOL    HW220868   4.574   1.494   8.204 -3.2415  0.8835 -0.7007
 3078SOL     OW20869   0.216   0.063   8.819 -0.2710 -0.4459 -0.2294
 3078SOL    HW120870   0.283   0.075   8.751  0.5670  0.1224  0.6977
 3078SOL    HW220871   0.268   0.012   8.882  0.9093 -0.3104 -1.0832
 3079SOL     OW20872   3.852   4.626   5.750  0.1104  0.7028 -0.3283
 3079SOL    HW120873   3.879   4.580   5.671 -2.6697 -1.1857 -0.1947
 3079SOL    HW220874   3.915   4.697   5.756  1.1788 -0.4505  2.0158
 3080SOL     OW20875   1.243   4.481   3.490 -0.4401 -0.1831  0.3124
 3080SOL    HW120876   1.207   4.547   3.430  0.8592  0.3014  0.0635
 3080SOL    HW220877   1.336   4.505   3.481 -1.1154  1.8978 -1.2036
 3081SOL     OW20878   4.651   4.400  12.222 -0.6416 -0.3631  0.1841
 3081SOL    HW120879   4.627   4.471  12.162  0.0460 -1.0957 -0.9830
 3081SOL    HW220880   4.606   4.434  12.299  2.2080  3.7329  0.0751
 3082SOL     OW20881   3.934   4.293   8.012 -0.0119  0.2506 -0.4013
 3082SOL    HW120882   3.850   4.340   8.014  0.0846  0.3262  1.6302
 3082SOL    HW220883   3.986   4.358   8.059 -0.3339  0.2298 -0.0122
 3083SOL     OW20884   2.610   1.235  10.513  0.1631 -0.0886 -0.3850
 3083SOL    HW120885   2.669   1.172  10.555 -0.8971 -1.4336 -0.9234
 3083SOL    HW220886   2.601   1.297  10.586 -0.2205 -0.2338 -0.3119
 3084SOL     OW20887   1.540   1.482   5.161  0.3677 -0.5685 -0.2210
 3084SOL    HW120888   1.599   1.508   5.231  1.3079 -0.5026 -1.0333
 3084SOL    HW220889   1.571   1.538   5.090 -1.8490  0.2302 -0.5604
 3085SOL     OW20890   3.674   3.388   8.131 -0.2758  0.6156  0.5899
 3085SOL    HW120891   3.741   3.347   8.077 -1.6244  0.5460 -1.0376
 3085SOL    HW220892   3.726   3.461   8.163 -0.7129  0.7311  1.0331
 3086SOL     OW20893   1.082   4.556  16.163  0.0246  0.4383 -0.0743
 3086SOL    HW120894   1.173   4.529  16.176  0.5724  1.8312 -1.0490
 3086SOL    HW220895   1.043   4.573  16.249  1.3310 -0.0135  0.6195
 3087SOL     OW20896   1.113   0.500   9.626  0.0656  0.1903 -0.2888
 3087SOL    HW120897   1.047   0.495   9.695 -0.1157 -1.7532 -0.6279
 3087SOL    HW220898   1.088   0.577   9.574  3.9604  0.5124 -1.7373
 3088SOL     OW20899   1.615   1.956   4.888  0.4457  0.1463 -0.3876
 3088SOL    HW120900   1.557   1.974   4.814  0.2152  0.2605 -0.1820
 3088SOL    HW220901   1.635   2.044   4.919  0.2327 -0.3974  1.2710
 3089SOL     OW20902   1.213   2.627   4.522 -0.6371 -0.5659  0.1874
 3089SOL    HW120903   1.164   2.580   4.590 -1.4829 -1.2332 -0.8814
 3089SOL    HW220904   1.290   2.574   4.504 -0.5949 -0.6443  0.5872
 3090SOL     OW20905   0.044   4.503   7.127  0.2684 -0.1591 -0.0407
 3090SOL    HW120906   0.056   4.567   7.057  2.3888 -1.8250 -1.1807
 3090SOL    HW220907   4.724   4.544   7.194 -0.3074 -0.7050 -0.1925
 3091SOL     OW20908   0.458   4.120  15.023  0.0058 -0.2073 -1.4338
 3091SOL    HW120909   0.402   4.120  15.100  1.9878  2.2627 -0.0129
 3091SOL    HW220910   0.477   4.213  15.010  0.9522 -0.6646 -3.4433
 3092SOL     OW20911   2.265   1.844  17.285  0.2595 -0.3653  0.1070
 3092SOL    HW120912   2.349   1.815  17.250 -0.2045 -1.5906 -0.0144
 3092SOL    HW220913   2.253   1.917  17.224  2.8487  0.6374  0.8265
 3093SOL     OW20914   1.640   3.068   3.816  0.4748 -0.2142  0.0296
 3093SOL    HW120915   1.554   3.094   3.849  1.1523  1.3478  0.5810
 3093SOL    HW220916   1.667   2.998   3.876  0.0841 -0.9961 -0.7077
 3094SOL     OW20917   1.495   2.670   0.745  0.1704  0.5238  0.2120
 3094SOL    HW120918   1.550   2.712   0.810 -0.8321 -0.4964  1.7382
 3094SOL    HW220919   1.439   2.624   0.808  0.6715 -0.9838 -0.4362
 3095SOL     OW20920   3.866   1.164   6.499  0.3500 -0.0379 -0.2346
 3095SOL    HW120921   3.930   1.232   6.478  1.1208 -0.4513  0.7340
 3095SOL    HW220922   3.896   1.096   6.439  1.9998  1.3944 -1.0522
 3096SOL     OW20923   0.843   4.291   6.224 -0.3243  0.4755 -0.5681
 3096SOL    HW120924   0.888   4.235   6.160 -1.0661 -0.2380 -0.4759
 3096SOL    HW220925   0.800   4.219   6.270 -0.4726  1.0224  0.1464
 3097SOL     OW20926   1.170   2.820   3.467 -0.1763 -0.1334  0.5742
 3097SOL    HW120927   1.175   2.732   3.506 -2.0601 -1.0498 -1.2827
 3097SOL    HW220928   1.090   2.850   3.510 -0.2071 -1.4395  1.4499
 3098SOL     OW20929   2.588   3.859   0.611 -0.7311  0.0252  0.3940
 3098SOL    HW120930   2.515   3.874   0.671 -0.6367 -1.4886  0.9051
 3098SOL    HW220931   2.657   3.849   0.677  1.2240 -0.0216 -1.6619
 3099SOL     OW20932   2.713   2.069   7.308 -0.0120 -0.5025  0.7635
 3099SOL    HW120933   2.767   2.126   7.253  0.6827 -2.3159 -0.4508
 3099SOL    HW220934   2.685   2.134   7.372 -1.3812 -1.1643  0.8355
 3100SOL     OW20935   1.977   3.640   7.850 -0.0893 -0.0048 -0.1662
 3100SOL    HW120936   1.917   3.691   7.796 -1.0409  0.2662  1.1428
 3100SOL    HW220937   2.043   3.639   7.780  0.8596 -0.1620  0.7351
 3101SOL     OW20938   0.552   2.714  17.209  0.1714 -0.3650 -0.7459
 3101SOL    HW120939   0.527   2.668  17.289  2.1106  0.9769  0.6291
 3101SOL    HW220940   0.472   2.719  17.157 -0.1949  2.2222  0.0385
 3102SOL     OW20941   3.424   3.997  12.904  0.1010  0.0821 -0.0796
 3102SOL    HW120942   3.510   4.039  12.897 -0.2536  1.2839  2.9492
 3102SOL    HW220943   3.438   3.942  12.981  1.3009 -0.4853 -0.6990
 3103SOL     OW20944   3.089   0.532   2.683 -0.2174  0.1674 -0.0495
 3103SOL    HW120945   3.178   0.556   2.711 -0.4063 -0.7826  1.3910
 3103SOL    HW220946   3.069   0.483   2.763  0.3937 -0.2333 -0.1416
 3104SOL     OW20947   2.771   2.433   5.946 -0.0695  0.2580  0.0347
 3104SOL    HW120948   2.704   2.465   6.007 -0.1828  0.6749 -0.3097
 3104SOL    HW220949   2.739   2.346   5.925 -1.2188  0.2378  1.8798
 3105SOL     OW20950   4.690   2.265   7.346 -0.1468  0.3927 -0.1119
 3105SOL    HW120951   4.614   2.237   7.295 -0.4703 -1.1498  1.2415
 3105SOL    HW220952   0.022   2.211   7.304  0.0245 -3.0466  4.6197
 3106SOL     OW20953   3.909   2.947   1.315  0.3788  0.1917  0.4773
 3106SOL    HW120954   3.905   2.874   1.377 -0.6001 -0.3017 -0.1618
 3106SOL    HW220955   3.828   2.993   1.339  0.3336 -0.1786  1.0325
 3107SOL     OW20956   3.803   3.962   6.423  0.0126  0.3004  0.1536
 3107SOL    HW120957   3.842   4.039   6.381  1.8337 -0.2354  0.8662
 3107SOL    HW220958   3.728   3.952   6.363  0.4346 -1.9495  0.0033
 3108SOL     OW20959   2.840   2.271   4.573 -0.0248 -0.3851  0.0553
 3108SOL    HW120960   2.929   2.301   4.591  0.7593 -1.8467 -1.3494
 3108SOL    HW220961   2.857   2.177   4.566  0.3741 -0.4799  2.4405
 3109SOL     OW20962   2.981   2.488   4.974  0.1604 -0.3926  0.1616
 3109SOL    HW120963   2.900   2.526   5.007 -0.3238  0.4438 -1.9996
 3109SOL    HW220964   3.006   2.554   4.909  1.4920 -1.1596 -0.1015
 3110SOL     OW20965   3.809   4.576   2.827 -0.4899  0.2251 -0.6759
 3110SOL    HW120966   3.790   4.506   2.766 -2.6959 -0.1073  0.3997
 3110SOL    HW220967   3.854   4.529   2.898  0.5754  2.5453  0.2079
 3111SOL     OW20968   1.005   2.975   5.472  0.2649  0.0378 -0.1596
 3111SOL    HW120969   1.038   2.956   5.560 -0.5960  2.6608  0.7260
 3111SOL    HW220970   1.054   2.912   5.419  0.4808 -0.0481  0.1408
 3112SOL     OW20971   1.861   3.894   1.662 -0.0692  0.1777 -0.1918
 3112SOL    HW120972   1.783   3.929   1.705 -0.8340  0.8014 -2.0824
 3112SOL    HW220973   1.922   3.964   1.688 -0.2447  0.3011 -0.1083
 3113SOL     OW20974   2.689   2.177  14.568 -0.0859  0.3844  0.3467
 3113SOL    HW120975   2.765   2.139  14.525 -1.5837 -1.3962 -0.7141
 3113SOL    HW220976   2.619   2.113  14.563 -2.0280  2.5464 -0.4177
 3114SOL     OW20977   3.918   3.294  15.381  0.1406 -0.4512 -0.2077
 3114SOL    HW120978   3.861   3.359  15.420 -1.3112 -1.1015 -1.2537
 3114SOL    HW220979   4.001   3.326  15.418  0.5761 -0.5174 -1.1195
 3115SOL     OW20980   1.969   3.640   3.576  0.1176 -0.6805 -0.0373
 3115SOL    HW120981   2.040   3.577   3.566 -0.9954 -2.2631  1.8102
 3115SOL    HW220982   1.975   3.687   3.493 -1.8638 -0.7064 -0.2137
 3116SOL     OW20983   0.206   2.455  11.246  0.0795  0.3425 -0.2389
 3116SOL    HW120984   0.299   2.440  11.265 -0.5525  0.0621  2.6383
 3116SOL    HW220985   0.159   2.399  11.307  0.6852 -1.9556 -1.8887
 3117SOL     OW20986   1.835   2.171  15.834  0.4690 -0.1353  0.1311
 3117SOL    HW120987   1.762   2.111  15.849  1.2350 -0.8250  1.1039
 3117SOL    HW220988   1.894   2.116  15.885  1.2042  0.3472 -0.1911
 3118SOL     OW20989   0.969   1.257   5.328 -0.2789 -0.1877  0.1908
 3118SOL    HW120990   0.876   1.245   5.308  0.3385 -0.6426 -2.4300
 3118SOL    HW220991   0.987   1.170   5.365 -0.4826  0.4363  1.7143
 3119SOL     OW20992   3.154   0.537   5.502 -0.6762 -0.0924 -0.5890
 3119SOL    HW120993   3.169   0.631   5.498  1.1273 -0.3647 -0.3333
 3119SOL    HW220994   3.237   0.497   5.478 -0.5474  0.1057 -0.4743
 3120SOL     OW20995   0.726   3.388   4.815  0.2439 -0.5393  0.1664
 3120SOL    HW120996   0.739   3.316   4.753 -0.3222  0.1763 -0.7896
 3120SOL    HW220997   0.787   3.443   4.766 -0.4970 -0.2714 -0.4662
 3121SOL     OW20998   1.229   1.967  14.900  0.4558 -0.0907  0.4094
 3121SOL    HW120999   1.186   2.028  14.961  1.3524  1.3400 -0.3752
 3121SOL    HW221000   1.312   1.949  14.945  0.4182  0.0196  0.5250
 3122SOL     OW21001   2.425   2.832  11.802 -0.1923 -0.4567 -0.1593
 3122SOL    HW121002   2.342   2.825  11.849  0.3128  1.7171  1.0289
 3122SOL    HW221003   2.466   2.746  11.805 -1.6050 -1.1128  0.3094
 3123SOL     OW21004   3.817   2.876   7.738  0.1403 -0.0274  0.2188
 3123SOL    HW121005   3.797   2.881   7.832  1.1080 -0.4199  0.4412
 3123SOL    HW221006   3.864   2.959   7.730 -0.4084  0.1447 -1.2427
 3124SOL     OW21007   4.077   0.990   4.452 -0.3299 -0.1916  0.5203
 3124SOL    HW121008   4.104   1.001   4.543 -0.3891  3.1056  0.1143
 3124SOL    HW221009   4.016   0.915   4.455 -0.5016  0.0075  2.5437
 3125SOL     OW21010   3.879   1.341   7.717 -0.2685  0.2426  0.1146
 3125SOL    HW121011   3.963   1.303   7.742 -0.0020 -1.4217 -3.2497
 3125SOL    HW221012   3.827   1.313   7.792  0.5956 -1.2869  0.1336
 3126SOL     OW21013   3.738   4.159  10.419 -0.7749 -0.4821  0.6604
 3126SOL    HW121014   3.752   4.125  10.331  0.6564 -1.5545  1.3039
 3126SOL    HW221015   3.778   4.245  10.408  0.2242 -1.3670 -2.5321
 3127SOL     OW21016   0.597   0.011  16.986 -0.1878  0.1658 -0.2211
 3127SOL    HW121017   0.566   4.691  17.056  1.8457 -0.2075  0.3991
 3127SOL    HW221018   0.516   0.059  16.970 -0.1347 -0.2677 -1.7553
 3128SOL     OW21019   3.407   0.457  17.388 -0.0452 -0.2808 -0.2053
 3128SOL    HW121020   3.410   0.479  17.481 -0.2217 -0.5998 -0.1269
 3128SOL    HW221021   3.355   0.377  17.395 -0.6732  0.1521  0.0715
 3129SOL     OW21022   2.499   3.398   3.053  0.5534 -0.5642  0.2570
 3129SOL    HW121023   2.530   3.308   3.046  1.2135 -0.2236 -1.2150
 3129SOL    HW221024   2.552   3.439   2.984 -0.3698  1.3527  0.6685
 3130SOL     OW21025   1.269   0.840   6.442  0.2420 -0.3301 -0.1322
 3130SOL    HW121026   1.351   0.868   6.402  0.3948 -1.7190 -0.7975
 3130SOL    HW221027   1.203   0.833   6.372  0.9821  2.7368 -1.1093
 3131SOL     OW21028   1.883   2.484   8.913 -0.0963  0.3135 -0.8168
 3131SOL    HW121029   1.903   2.410   8.856  0.6092 -0.0346 -0.1114
 3131SOL    HW221030   1.836   2.445   8.987  1.1118 -0.7211 -0.6142
 3132SOL     OW21031   2.336   1.832  11.174 -0.1305  0.1649 -0.2321
 3132SOL    HW121032   2.411   1.802  11.225 -0.2415  1.0010  0.4087
 3132SOL    HW221033   2.388   1.864  11.100 -1.7480 -1.8125 -2.2586
 3133SOL     OW21034   1.033   4.244   5.046 -0.3052  0.0938 -0.1132
 3133SOL    HW121035   1.029   4.150   5.062 -0.1341  0.1064  0.0113
 3133SOL    HW221036   1.122   4.260   5.079  0.2337 -3.2044  0.0584
 3134SOL     OW21037   4.223   2.881   5.782 -0.3917 -0.3010  0.4688
 3134SOL    HW121038   4.157   2.888   5.713  0.3924  1.0833 -0.1485
 3134SOL    HW221039   4.305   2.863   5.737 -1.2971 -3.1117 -0.0624
 3135SOL     OW21040   4.642   3.850   6.130 -0.4182 -0.3210  0.2241
 3135SOL    HW121041   4.678   3.776   6.082 -0.6520 -0.8981  0.9460
 3135SOL    HW221042   4.713   3.873   6.190 -0.2369  0.0855 -0.1408
 3136SOL     OW21043   2.667   1.819   8.220 -0.2373 -0.1940  0.2705
 3136SOL    HW121044   2.640   1.747   8.163  0.3848  0.3526 -0.6941
 3136SOL    HW221045   2.677   1.773   8.304  0.2232  1.0998  0.9279
 3137SOL     OW21046   2.662   0.958  17.483 -0.0130 -0.1320 -0.0491
 3137SOL    HW121047   2.606   0.883  17.504 -0.7456  0.9712  1.9086
 3137SOL    HW221048   2.714   0.960  17.563  2.7652  0.0839 -1.8621
 3138SOL     OW21049   2.048   0.977   5.048 -0.6156  0.0521 -0.3089
 3138SOL    HW121050   2.005   0.948   5.128  0.1202 -0.9451 -0.2829
 3138SOL    HW221051   2.128   0.927   5.061  0.0509  1.1935 -0.0529
 3139SOL     OW21052   2.916   3.633  10.720  0.0608 -0.1387  0.2847
 3139SOL    HW121053   2.914   3.625  10.625  0.3102  1.3768  0.1413
 3139SOL    HW221054   2.826   3.664  10.732  0.7261  2.1105 -0.3899
 3140SOL     OW21055   3.870   3.797   4.366 -0.1368 -0.0925  0.8866
 3140SOL    HW121056   3.802   3.730   4.369  0.0825 -0.4059 -1.0404
 3140SOL    HW221057   3.835   3.850   4.293  0.3130 -0.0391  0.7114
 3141SOL     OW21058   3.460   0.172  11.024 -0.0091  0.0763  0.9068
 3141SOL    HW121059   3.498   0.216  11.101  0.4193 -0.1456  0.8218
 3141SOL    HW221060   3.540   0.136  10.987  0.1015 -0.3197  1.5231
 3142SOL     OW21061   0.146   1.015   2.001 -0.0154 -0.4299  0.2973
 3142SOL    HW121062   0.150   1.101   1.958  2.1453 -0.3365  0.6844
 3142SOL    HW221063   0.173   0.955   1.931 -0.7074 -0.6776  0.2508
 3143SOL     OW21064   1.762   0.447   0.688  0.3165 -0.1151  0.1413
 3143SOL    HW121065   1.728   0.472   0.602  2.4437 -0.5537 -0.8252
 3143SOL    HW221066   1.751   0.352   0.692 -1.6799  0.1143  0.5125
 3144SOL     OW21067   1.255   3.570  15.553 -0.1634 -0.4836  0.0205
 3144SOL    HW121068   1.326   3.570  15.618  0.4868  0.3798 -0.6813
 3144SOL    HW221069   1.267   3.493  15.499  2.0405  0.0156 -0.2079
 3145SOL     OW21070   3.280   2.990   3.917 -0.1373 -0.0940  0.2165
 3145SOL    HW121071   3.283   3.064   3.857 -0.7508  0.6090  1.0500
 3145SOL    HW221072   3.235   2.925   3.864  1.5848  0.7054 -2.2359
 3146SOL     OW21073   4.224   2.113  12.570  0.5817 -0.3321  0.8103
 3146SOL    HW121074   4.288   2.088  12.637 -1.2579 -1.0616  2.2941
 3146SOL    HW221075   4.196   2.031  12.529  1.6673  0.5024 -1.6130
 3147SOL     OW21076   0.086   1.214   6.076  0.4812 -0.4564 -0.2478
 3147SOL    HW121077   0.112   1.124   6.097  2.9190  0.3859  0.4042
 3147SOL    HW221078   0.114   1.233   5.986 -0.2941 -2.2970 -0.8911
 3148SOL     OW21079   1.882   4.074  14.415 -0.3787  0.1784 -0.6405
 3148SOL    HW121080   1.800   4.026  14.424  0.6840 -1.2262  1.6707
 3148SOL    HW221081   1.902   4.106  14.504 -3.2200  1.6344 -0.5321
 3149SOL     OW21082   0.305   1.791   7.796  0.2387  0.3029  0.6142
 3149SOL    HW121083   0.382   1.826   7.840 -0.6986  1.7952  1.0632
 3149SOL    HW221084   0.251   1.740   7.857 -1.3028  0.3942 -0.6696
 3150SOL     OW21085   1.632   0.436   8.626  0.3426  0.2667 -0.1324
 3150SOL    HW121086   1.596   0.451   8.539 -0.0224  0.3794  0.0336
 3150SOL    HW221087   1.724   0.425   8.603  0.5812  0.8119  0.5585
 3151SOL     OW21088   1.080   0.593   7.554 -0.0987 -1.1315 -0.1108
 3151SOL    HW121089   1.081   0.612   7.648  0.0767 -3.3521  0.3489
 3151SOL    HW221090   1.005   0.534   7.564 -1.7855  0.8270 -1.1813
 3152SOL     OW21091   1.691   0.544   5.676 -0.1636 -0.1456  0.1908
 3152SOL    HW121092   1.782   0.556   5.703  0.6207 -1.9489 -1.6951
 3152SOL    HW221093   1.684   0.450   5.664  0.1180 -0.2877  1.1902
 3153SOL     OW21094   1.044   4.563   5.473 -0.1621 -0.5675 -0.7873
 3153SOL    HW121095   1.047   4.558   5.568 -1.1387  0.7140 -0.6862
 3153SOL    HW221096   1.058   4.473   5.443  0.9468 -1.0827  1.2770
 3154SOL     OW21097   3.575   2.898  10.940  0.6870  0.7918 -0.8995
 3154SOL    HW121098   3.493   2.878  10.986  0.3796  1.8872 -0.9629
 3154SOL    HW221099   3.632   2.823  10.955  0.0760  0.8052  1.5228
 3155SOL     OW21100   0.787   3.391   3.754  0.4132 -0.4401  0.0068
 3155SOL    HW121101   0.878   3.385   3.724  1.4195  1.6664  2.6842
 3155SOL    HW221102   0.791   3.465   3.814 -2.6148 -0.3588  0.1027
 3156SOL     OW21103   1.803   2.314   2.334  0.3268 -0.4178 -0.2307
 3156SOL    HW121104   1.873   2.261   2.298  1.7251  0.5860  1.0122
 3156SOL    HW221105   1.731   2.265   2.295  0.2964 -0.5235 -0.0440
 3157SOL     OW21106   1.275   1.491   7.980  0.3768  0.0508 -0.5187
 3157SOL    HW121107   1.292   1.573   7.934 -0.0725  0.6819  0.4418
 3157SOL    HW221108   1.198   1.449   7.942 -0.5688  1.0165  0.3404
 3158SOL     OW21109   2.285   3.166   1.688  0.2508  0.0967  0.2532
 3158SOL    HW121110   2.319   3.214   1.763 -2.0421  1.1413  0.6319
 3158SOL    HW221111   2.275   3.080   1.729  0.7422 -0.1419 -0.1192
 3159SOL     OW21112   3.472   1.735   6.023 -0.0715  0.1548  0.0708
 3159SOL    HW121113   3.481   1.815   6.074  0.3076 -0.2674  0.6693
 3159SOL    HW221114   3.523   1.749   5.942  1.5526 -1.9069  0.7474
 3160SOL     OW21115   4.029   0.076   2.190  0.3314  0.1174 -0.7214
 3160SOL    HW121116   4.117   0.069   2.152  0.7362 -5.2277  1.2128
 3160SOL    HW221117   4.041   0.031   2.273 -1.1034  0.8945 -0.1047
 3161SOL     OW21118   1.172   0.088   7.522  0.7059 -0.0269  0.1930
 3161SOL    HW121119   1.113   0.014   7.540  0.1312  0.5239  0.5418
 3161SOL    HW221120   1.112   0.129   7.459  0.0382  0.9439  1.4629
 3162SOL     OW21121   0.535   4.144   2.192 -0.0582  0.4121  0.1791
 3162SOL    HW121122   0.488   4.092   2.128 -2.0496  0.4133  1.6490
 3162SOL    HW221123   0.620   4.103   2.177  1.1076  3.1129 -0.6355
 3163SOL     OW21124   0.708   4.510   6.091  0.0769 -0.1854 -0.1621
 3163SOL    HW121125   0.775   4.513   6.023 -0.0373 -0.0919 -0.2697
 3163SOL    HW221126   0.733   4.427   6.133  0.4359  0.9687  1.9088
 3164SOL     OW21127   0.144   3.015   7.952  0.7144 -0.4884  0.3379
 3164SOL    HW121128   0.210   2.990   7.887  1.4689 -0.9603  1.2897
 3164SOL    HW221129   0.137   3.110   7.940  2.7671 -0.4782 -0.8887
 3165SOL     OW21130   2.570   1.507   2.145 -0.3040  0.4458 -0.5108
 3165SOL    HW121131   2.544   1.571   2.211  0.2840  0.9768 -0.7872
 3165SOL    HW221132   2.497   1.506   2.084  0.0297 -0.9870 -0.8839
 3166SOL     OW21133   0.289   1.551   8.810 -0.2167  0.1415  0.4089
 3166SOL    HW121134   0.240   1.608   8.868 -1.4916  1.4222 -1.9029
 3166SOL    HW221135   0.355   1.514   8.868  2.5430  0.4383 -2.5203
 3167SOL     OW21136   4.577   4.732  13.569 -0.0799  0.3731  0.0045
 3167SOL    HW121137   4.631   0.046  13.508 -1.5182  1.1402 -0.6491
 3167SOL    HW221138   4.539   0.068  13.619  1.2661  0.1440  1.3391
 3168SOL     OW21139   1.667   4.227   5.284  0.3210 -0.0694  0.3516
 3168SOL    HW121140   1.707   4.313   5.293  0.0369  0.0193  0.7645
 3168SOL    HW221141   1.703   4.199   5.199 -1.3634 -0.1110 -0.3465
 3169SOL     OW21142   2.347   4.276   3.560 -0.0253  0.2165 -0.5036
 3169SOL    HW121143   2.287   4.312   3.495 -0.9310  0.3737  0.4181
 3169SOL    HW221144   2.371   4.354   3.610  1.9556 -0.5715 -0.2177
 3170SOL     OW21145   2.846   3.132   7.716  0.1276  0.3871 -0.2623
 3170SOL    HW121146   2.834   3.191   7.642  0.4358 -1.8437 -2.0817
 3170SOL    HW221147   2.894   3.178   7.785 -0.2881 -1.1581  1.0787
 3171SOL     OW21148   3.625   2.547  15.874 -0.1569  0.7732 -0.1291
 3171SOL    HW121149   3.718   2.572  15.871 -0.1073  0.6654  0.3980
 3171SOL    HW221150   3.583   2.614  15.820 -0.7336 -0.0413 -0.6780
 3172SOL     OW21151   3.991   2.600   9.228 -0.0893 -0.5141 -0.8386
 3172SOL    HW121152   4.062   2.541   9.200  0.1451 -1.1235  1.0665
 3172SOL    HW221153   3.957   2.557   9.306  1.3523 -0.8747 -0.4015
 3173SOL     OW21154   3.694   1.262   4.405 -0.4537  0.5098  0.5727
 3173SOL    HW121155   3.754   1.333   4.384  2.7313 -2.4351 -0.3393
 3173SOL    HW221156   3.613   1.278   4.357 -2.4380 -0.3467  3.6171
 3174SOL     OW21157   3.635   4.024   8.955  0.3452 -0.0608 -0.3033
 3174SOL    HW121158   3.587   4.060   9.030  1.4115  0.2394  0.2323
 3174SOL    HW221159   3.640   3.934   8.988 -0.6539 -0.2429 -0.6529
 3175SOL     OW21160   3.052   1.600  17.185  0.2402 -0.1348 -0.6307
 3175SOL    HW121161   3.007   1.521  17.155  1.3644 -1.5113  1.3329
 3175SOL    HW221162   3.026   1.590  17.276  0.6946 -3.3548 -0.8825
 3176SOL     OW21163   3.153   4.227  12.890 -0.0342  0.1335  0.1962
 3176SOL    HW121164   3.200   4.226  12.974  0.9216  0.3936 -0.3285
 3176SOL    HW221165   3.152   4.138  12.857  1.9759  1.2176 -2.7839
 3177SOL     OW21166   1.523   2.254   0.779  0.1491  0.1431  0.0399
 3177SOL    HW121167   1.530   2.316   0.707 -0.1412 -1.9290 -1.7522
 3177SOL    HW221168   1.615   2.238   0.799 -0.2277 -0.6026  1.1677
 3178SOL     OW21169   4.247   4.441   3.187 -0.1629  0.5551 -0.0579
 3178SOL    HW121170   4.318   4.504   3.172 -0.0401  0.3803 -0.2109
 3178SOL    HW221171   4.228   4.458   3.279  0.0160 -1.2192  0.2994
 3179SOL     OW21172   3.060   0.673   4.727  0.1593 -0.3394  0.4710
 3179SOL    HW121173   3.050   0.681   4.633 -0.6882  1.6457  0.7253
 3179SOL    HW221174   3.087   0.581   4.737 -1.5734 -1.1625 -2.6530
 3180SOL     OW21175   4.009   3.508  15.778  0.1312 -0.1550 -0.0387
 3180SOL    HW121176   4.040   3.429  15.734  0.4609  0.2939 -0.6111
 3180SOL    HW221177   3.924   3.468  15.798  0.3933 -0.2010  0.9770
 3181SOL     OW21178   1.429   1.578  14.064 -0.6722  0.0236  0.5163
 3181SOL    HW121179   1.496   1.510  14.057  0.6818  1.5195 -1.2267
 3181SOL    HW221180   1.406   1.590  13.972 -1.3071  0.5842  0.7498
 3182SOL     OW21181   3.369   4.444   2.840 -0.0565  0.1571  0.1581
 3182SOL    HW121182   3.303   4.376   2.830 -2.6147  2.4115  1.6455
 3182SOL    HW221183   3.363   4.492   2.758  0.5169 -0.4326 -0.2213
 3183SOL     OW21184   2.374   3.685   2.654  0.1813 -0.3478 -0.0723
 3183SOL    HW121185   2.393   3.722   2.741  1.0272  0.7666 -0.7375
 3183SOL    HW221186   2.459   3.647   2.632  0.5391 -0.0471  0.7717
 3184SOL     OW21187   2.663   0.053   3.148  0.6246  0.1302  0.3559
 3184SOL    HW121188   2.708   0.064   3.064  0.4647  0.3700  0.3016
 3184SOL    HW221189   2.600   0.125   3.148  0.6088  0.1197  0.7712
 3185SOL     OW21190   1.961   3.063   1.123 -0.5282 -0.2329  0.1351
 3185SOL    HW121191   1.915   3.095   1.200  0.9903  0.8659  0.5867
 3185SOL    HW221192   1.938   3.128   1.056 -0.8553  0.0888  0.5564
 3186SOL     OW21193   4.419   0.463   5.229  0.1205 -0.3936  0.3062
 3186SOL    HW121194   4.377   0.547   5.208 -1.9745 -1.8340 -1.2254
 3186SOL    HW221195   4.387   0.413   5.155 -0.1272  0.3720 -0.1022
 3187SOL     OW21196   3.176   4.658  15.948  0.2572  0.3769 -0.3805
 3187SOL    HW121197   3.252   4.695  15.992  0.0139  1.7598 -1.1403
 3187SOL    HW221198   3.217   4.665  15.861 -1.4014  0.2329 -1.1703
 3188SOL     OW21199   4.722   4.273   1.734 -0.1600 -0.1821  0.1992
 3188SOL    HW121200   4.691   4.195   1.688  1.8996 -0.2264 -1.1146
 3188SOL    HW221201   0.056   4.240   1.792  2.0107  1.4694 -1.5138
 3189SOL     OW21202   0.916   4.725  11.439 -0.1037 -0.7000  0.1616
 3189SOL    HW121203   0.965   4.674  11.374  2.5865  2.1175 -0.0177
 3189SOL    HW221204   0.850   0.034  11.387  0.6393  0.3734  0.1447
 3190SOL     OW21205   3.405   2.709   3.857 -0.1130  0.0361  0.0326
 3190SOL    HW121206   3.492   2.671   3.843 -0.7134 -2.2419  2.5085
 3190SOL    HW221207   3.360   2.652   3.794  0.9202  0.8591 -1.4449
 3191SOL     OW21208   0.531   3.577   6.736 -0.2658 -0.1888 -0.4112
 3191SOL    HW121209   0.443   3.578   6.698 -0.9590  0.0333  1.1886
 3191SOL    HW221210   0.569   3.638   6.674 -0.0420  2.3967  2.2531
 3192SOL     OW21211   3.586   1.480  10.466  0.5601  0.4413  0.4263
 3192SOL    HW121212   3.537   1.400  10.448  0.7742  0.0636  1.5580
 3192SOL    HW221213   3.539   1.557  10.432  0.5406 -0.3194 -1.2802
 3193SOL     OW21214   4.394   3.721   5.640 -0.2221  0.7796 -0.1643
 3193SOL    HW121215   4.451   3.677   5.702  1.3004  0.8586 -1.4963
 3193SOL    HW221216   4.336   3.777   5.692  0.9434  0.0236  1.9442
 3194SOL     OW21217   1.607   1.089   6.855  0.4853 -0.1863  0.0813
 3194SOL    HW121218   1.513   1.074   6.845  0.7525 -2.5747  1.0642
 3194SOL    HW221219   1.610   1.181   6.881  3.2575 -0.5201  0.9806
 3195SOL     OW21220   4.627   1.034   4.173  0.0942 -0.0677  0.1361
 3195SOL    HW121221   4.601   1.107   4.229 -0.9669  0.9619 -1.6884
 3195SOL    HW221222   4.723   1.037   4.167  0.0566 -1.2797 -1.1195
 3196SOL     OW21223   0.966   4.567   7.796 -0.2005 -0.5133 -0.1902
 3196SOL    HW121224   1.055   4.543   7.822 -0.5923 -1.3444  0.3560
 3196SOL    HW221225   0.932   4.484   7.765 -1.2672 -0.2125  0.1800
 3197SOL     OW21226   3.906   1.722   9.768  0.1077  0.6532 -0.6608
 3197SOL    HW121227   3.985   1.693   9.813 -1.2047 -2.1470 -0.1781
 3197SOL    HW221228   3.941   1.726   9.680  0.3075 -2.0122 -0.6957
 3198SOL     OW21229   3.569   1.447   3.957 -0.5463 -0.3282 -0.3473
 3198SOL    HW121230   3.490   1.435   3.905 -0.9680  1.9415 -0.2325
 3198SOL    HW221231   3.629   1.482   3.892  0.7220 -0.2642  0.8538
 3199SOL     OW21232   4.271   0.458   4.499  0.3940 -0.6819 -0.2470
 3199SOL    HW121233   4.240   0.521   4.564 -0.1343  1.2269 -2.3724
 3199SOL    HW221234   4.357   0.435   4.533 -0.6143 -0.8782  2.1884
 3200SOL     OW21235   4.379   3.795   6.195  0.5391  0.2025  0.1702
 3200SOL    HW121236   4.377   3.699   6.192  1.7398  0.1347  1.6644
 3200SOL    HW221237   4.470   3.818   6.177  0.8805 -0.5597  0.9502
 3201SOL     OW21238   2.985   1.018   7.302 -0.1627 -0.0969  0.0543
 3201SOL    HW121239   2.919   0.959   7.265  0.0637  0.1441 -0.7409
 3201SOL    HW221240   2.996   1.075   7.226  1.1909 -2.0392 -1.1945
 3202SOL     OW21241   0.938   4.453   3.811  0.5029 -0.0407  0.1543
 3202SOL    HW121242   0.977   4.369   3.789  0.7073 -0.1449  0.9305
 3202SOL    HW221243   0.901   4.433   3.897  2.0429 -0.2537  0.7611
 3203SOL     OW21244   1.199   1.466   2.973  0.2795 -0.3214 -0.1291
 3203SOL    HW121245   1.223   1.536   2.913 -0.8419 -1.6404 -2.1270
 3203SOL    HW221246   1.237   1.501   3.054  0.9172  0.1508 -0.6345
 3204SOL     OW21247   0.382   3.401   3.715 -0.3088 -0.2267  0.1151
 3204SOL    HW121248   0.294   3.405   3.678 -0.5401  2.9922  0.9651
 3204SOL    HW221249   0.443   3.425   3.645 -2.1758 -0.2221 -1.5219
 3205SOL     OW21250   3.163   0.786   2.940  0.1185  0.5516 -0.1388
 3205SOL    HW121251   3.182   0.771   3.032  1.3412  1.7170 -0.1985
 3205SOL    HW221252   3.068   0.785   2.939  0.1156  1.2209 -1.0581
 3206SOL     OW21253   0.990   1.242  10.011 -0.3012  0.6800  0.4163
 3206SOL    HW121254   1.080   1.255   9.983 -0.3642  1.9094  0.7881
 3206SOL    HW221255   0.997   1.269  10.102  2.4069  2.0607 -0.1980
 3207SOL     OW21256   1.986   2.250   5.755 -0.5216 -0.5959 -0.0250
 3207SOL    HW121257   2.042   2.228   5.681 -1.3758 -2.9112  0.0106
 3207SOL    HW221258   1.928   2.173   5.752 -2.9275  1.0981  2.5262
 3208SOL     OW21259   4.198   1.430   2.607 -0.1349 -0.2795  0.0116
 3208SOL    HW121260   4.210   1.479   2.525  2.3979  2.5726  2.0750
 3208SOL    HW221261   4.137   1.363   2.576 -0.3693 -0.3962  0.7211
 3209SOL     OW21262   0.050   3.626   9.306 -0.2892  0.0232  0.0391
 3209SOL    HW121263   4.732   3.554   9.272 -0.2015 -0.0884  0.1323
 3209SOL    HW221264   4.720   3.674   9.357 -1.3046 -1.2288 -0.0958
 3210SOL     OW21265   1.013   1.322   4.281 -0.4284 -0.4998  0.0909
 3210SOL    HW121266   1.107   1.329   4.292 -0.4543  1.4016 -0.9855
 3210SOL    HW221267   1.011   1.246   4.222  1.8801 -0.3065 -0.2284
 3211SOL     OW21268   2.967   3.932   0.343  0.5328 -0.1141  0.1102
 3211SOL    HW121269   2.983   4.013   0.294  1.4549 -0.8011 -0.7227
 3211SOL    HW221270   2.986   3.962   0.432 -0.0026  0.4169  0.0466
 3212SOL     OW21271   2.242   4.454   1.836 -0.0323  0.2563 -0.5375
 3212SOL    HW121272   2.234   4.550   1.839  2.5473  0.4530 -0.4366
 3212SOL    HW221273   2.213   4.429   1.923  4.2371 -0.3222  0.7087
 3213SOL     OW21274   2.895   1.818  10.386  0.1951 -0.1629  0.0489
 3213SOL    HW121275   2.935   1.771  10.459 -0.3859  1.5519  1.4800
 3213SOL    HW221276   2.834   1.755  10.349 -0.8662 -0.6812  2.6482
 3214SOL     OW21277   0.618   2.291  15.368  0.3186 -0.3766 -0.3589
 3214SOL    HW121278   0.700   2.246  15.388  0.7874  0.2540 -0.8601
 3214SOL    HW221279   0.551   2.223  15.372 -0.2179  0.0867 -1.4377
 3215SOL     OW21280   2.258   3.779   4.906 -0.2851  0.3382  0.2509
 3215SOL    HW121281   2.307   3.857   4.880  3.9035 -2.1791  0.6088
 3215SOL    HW221282   2.171   3.796   4.871 -1.0267 -1.2159  1.3659
 3216SOL     OW21283   2.930   0.143  10.230 -0.2132  0.1080  0.0731
 3216SOL    HW121284   2.859   0.151  10.294  1.4669 -1.7306  2.1554
 3216SOL    HW221285   2.929   0.049  10.209  0.9955  0.4026 -1.3439
 3217SOL     OW21286   4.560   4.068   3.005 -0.5795  0.2200  0.4565
 3217SOL    HW121287   4.475   4.071   3.048 -1.4089  0.7715 -1.2112
 3217SOL    HW221288   4.604   4.142   3.046 -1.7003 -0.0043  2.0800
 3218SOL     OW21289   2.215   2.335   9.492  0.3180  0.0190 -0.2297
 3218SOL    HW121290   2.232   2.318   9.585 -1.6464 -2.4289 -0.3207
 3218SOL    HW221291   2.161   2.412   9.508 -2.6514 -2.2665  0.7036
 3219SOL     OW21292   1.690   3.662   7.682  0.3587  0.1448 -0.5584
 3219SOL    HW121293   1.649   3.619   7.757  0.9209  0.3527 -0.1232
 3219SOL    HW221294   1.613   3.710   7.651  0.3558  1.3010  1.2116
 3220SOL     OW21295   2.178   3.239  11.704 -0.3896 -0.5359  0.0216
 3220SOL    HW121296   2.234   3.199  11.770 -0.7586 -0.5546  0.3261
 3220SOL    HW221297   2.241   3.261  11.636 -0.8943 -0.3447 -0.3855
 3221SOL     OW21298   2.631   1.223   7.541  0.1237 -0.1613 -0.1498
 3221SOL    HW121299   2.726   1.232   7.543  0.2543 -1.2824 -1.2653
 3221SOL    HW221300   2.624   1.139   7.495  2.2190 -0.6576  0.4162
 3222SOL     OW21301   2.948   2.217   1.929 -0.8772  0.7527 -0.2321
 3222SOL    HW121302   2.915   2.192   1.843  0.7325  1.6166 -1.1126
 3222SOL    HW221303   2.980   2.301   1.897 -0.4887  0.0895 -1.5780
 3223SOL     OW21304   3.212   4.255   6.980  0.2633 -0.2383  0.2356
 3223SOL    HW121305   3.279   4.304   7.027  2.2120 -2.2235 -0.4467
 3223SOL    HW221306   3.135   4.312   6.985  0.1149 -0.3879 -0.2930
 3224SOL     OW21307   2.139   2.258  14.988  0.0284  0.1412 -0.0232
 3224SOL    HW121308   2.155   2.312  14.911  0.6018 -0.7061 -0.4956
 3224SOL    HW221309   2.116   2.173  14.950 -1.7004  0.8604 -0.5847
 3225SOL     OW21310   3.814   4.124   6.178 -0.2912  0.3755  0.5744
 3225SOL    HW121311   3.894   4.121   6.125 -0.9990  3.3787 -0.6796
 3225SOL    HW221312   3.754   4.141   6.105  0.8285 -1.1352 -0.7053
 3226SOL     OW21313   2.897   4.301  12.894 -0.1142  0.4553 -0.5796
 3226SOL    HW121314   2.916   4.388  12.860  2.1794 -0.1062 -0.7300
 3226SOL    HW221315   2.988   4.271  12.896  0.1034  1.0017 -2.2844
 3227SOL     OW21316   1.233   3.997   8.212 -0.4072  0.0957 -0.1457
 3227SOL    HW121317   1.309   3.957   8.254 -0.4493  0.9749  0.7628
 3227SOL    HW221318   1.261   3.993   8.121 -2.9965  1.9957 -1.0322
 3228SOL     OW21319   0.424   1.383   7.855  0.3599  0.1248 -0.4105
 3228SOL    HW121320   0.384   1.321   7.915  1.4651 -0.1372  0.0675
 3228SOL    HW221321   0.470   1.447   7.910  1.9517  0.9666 -2.7165
 3229SOL     OW21322   3.498   2.061  14.732 -0.3027  0.4889  0.2294
 3229SOL    HW121323   3.424   2.117  14.757  0.9370  2.2220  0.0082
 3229SOL    HW221324   3.569   2.125  14.723  1.9825 -1.8348  2.0786
 3230SOL     OW21325   3.347   0.018  15.018  0.0884  0.0640 -0.3864
 3230SOL    HW121326   3.410   4.683  15.031 -0.5363 -0.3428  0.4245
 3230SOL    HW221327   3.268   4.722  15.063  2.1993 -2.0822  1.7486
 3231SOL     OW21328   0.011   3.088   2.994 -0.3126  0.3351 -0.3032
 3231SOL    HW121329   0.053   3.058   3.075 -0.5693 -2.1106 -1.0699
 3231SOL    HW221330   0.087   3.108   2.940 -0.2582 -0.6528 -0.6032
 3232SOL     OW21331   2.163   2.976  15.681  0.0751  0.1322  0.1594
 3232SOL    HW121332   2.122   2.900  15.723  1.2918  0.2318  1.5391
 3232SOL    HW221333   2.082   3.010  15.642  0.4541  2.3061  1.3079
 3233SOL     OW21334   0.181   2.011   3.165  0.7448  0.5746 -0.0374
 3233SOL    HW121335   0.200   2.104   3.172  0.2477  0.6442  0.4311
 3233SOL    HW221336   0.230   1.988   3.086  2.3351 -1.1146  1.4464
 3234SOL     OW21337   0.399   1.203   6.362 -0.1541  0.2349  0.4957
 3234SOL    HW121338   0.432   1.241   6.281 -0.5282  0.4070  0.4251
 3234SOL    HW221339   0.392   1.282   6.416  1.6910  0.2905  0.6478
 3235SOL     OW21340   2.256   1.180   5.166 -0.5227 -0.7333  0.3844
 3235SOL    HW121341   2.263   1.112   5.099  0.8701  0.6048 -0.8179
 3235SOL    HW221342   2.163   1.200   5.156  0.0449 -0.1363 -3.4272
 3236SOL     OW21343   3.671   4.403   8.040  0.0536 -0.2665 -0.5923
 3236SOL    HW121344   3.631   4.326   8.081  2.0595  0.0152  1.9048
 3236SOL    HW221345   3.690   4.460   8.115  0.6100  1.1949 -1.8595
 3237SOL     OW21346   1.859   4.320   0.630  0.2579 -0.5711  0.3596
 3237SOL    HW121347   1.774   4.363   0.622  0.7250  0.2044 -0.4081
 3237SOL    HW221348   1.895   4.343   0.545  1.8345  0.5605  1.3173
 3238SOL     OW21349   1.852   3.945   7.069 -0.4974  0.3467  0.2864
 3238SOL    HW121350   1.837   3.883   6.997  0.5465  1.7740 -1.1738
 3238SOL    HW221351   1.851   3.889   7.146  0.0017  0.1871  0.1743
 3239SOL     OW21352   0.534   1.516   7.621 -0.7193  0.3575  0.0264
 3239SOL    HW121353   0.461   1.514   7.684  0.9468 -1.0572  1.9101
 3239SOL    HW221354   0.591   1.451   7.661 -1.6714 -0.2142  0.4574
 3240SOL     OW21355   1.973   3.049  14.966  0.1390  0.1197 -0.3167
 3240SOL    HW121356   1.954   2.995  15.043 -1.7429  3.3915  1.5207
 3240SOL    HW221357   1.887   3.071  14.931 -0.2118  1.4710  1.3645
 3241SOL     OW21358   0.519   2.828   3.968 -0.3793 -0.3204  0.2998
 3241SOL    HW121359   0.596   2.854   3.918 -0.0935 -0.8416  0.4605
 3241SOL    HW221360   0.535   2.734   3.983 -0.3193 -0.3303  0.1697
 3242SOL     OW21361   2.233   1.844   6.565  1.1109  0.2712 -0.5344
 3242SOL    HW121362   2.169   1.904   6.525  0.9534  0.0302 -0.6421
 3242SOL    HW221363   2.223   1.768   6.508  0.5302 -0.2298  0.2244
 3243SOL     OW21364   4.341   3.479   9.704  1.0846 -0.3025  0.1844
 3243SOL    HW121365   4.385   3.394   9.698  0.2509 -0.5802 -1.9434
 3243SOL    HW221366   4.308   3.483   9.614  2.3497  0.5380 -0.2343
 3244SOL     OW21367   2.706   1.505   7.871 -0.2830 -0.2866 -0.1281
 3244SOL    HW121368   2.702   1.601   7.877  2.0358 -0.1502 -0.5892
 3244SOL    HW221369   2.794   1.496   7.834 -1.8422 -1.4275 -3.4878
 3245SOL     OW21370   3.146   2.022   4.637 -0.2600  0.4379 -0.5380
 3245SOL    HW121371   3.088   1.981   4.572 -2.2169 -1.1644  2.1658
 3245SOL    HW221372   3.193   1.948   4.677  1.3096  1.5260 -0.3978
 3246SOL     OW21373   3.700   3.630   7.521 -0.1623  0.3127  0.2659
 3246SOL    HW121374   3.629   3.580   7.483  1.2273 -1.0866 -0.5038
 3246SOL    HW221375   3.782   3.605   7.478 -0.1081 -1.7207  1.5854
 3247SOL     OW21376   2.321   0.042   6.677 -0.2073 -0.3704  0.0962
 3247SOL    HW121377   2.408   0.078   6.692  0.6854 -2.9176  1.0046
 3247SOL    HW221378   2.286   0.049   6.766 -1.3549  1.7557 -0.5020
 3248SOL     OW21379   0.571   1.262   3.570 -0.0099 -0.4381  0.8595
 3248SOL    HW121380   0.505   1.298   3.630 -1.1010 -2.1283  0.6864
 3248SOL    HW221381   0.562   1.319   3.494 -0.4684  0.7045  1.7643
 3249SOL     OW21382   1.417   2.801   1.817 -0.1042 -0.2050  0.5472
 3249SOL    HW121383   1.405   2.717   1.860  0.4790  0.7566  2.5945
 3249SOL    HW221384   1.484   2.783   1.751  1.5757  1.4758  1.7702
 3250SOL     OW21385   1.071   4.527   5.083  0.0586  0.3458  0.1649
 3250SOL    HW121386   1.053   4.433   5.084  0.3081  0.3159  1.9237
 3250SOL    HW221387   1.151   4.517   5.030  0.9538 -1.4455  1.8427
 3251SOL     OW21388   0.220   1.797   2.979 -0.0287 -0.2729 -0.5222
 3251SOL    HW121389   0.131   1.824   3.001  1.0037  1.9363  0.9032
 3251SOL    HW221390   0.220   1.705   3.008 -3.5385 -0.0441  0.1083
 3252SOL     OW21391   4.258   3.287   8.324  0.3876  0.1399  0.3590
 3252SOL    HW121392   4.178   3.297   8.272 -0.1340 -0.2600  1.0878
 3252SOL    HW221393   4.315   3.364   8.319 -0.7523  0.9173 -0.5823
 3253SOL     OW21394   2.845   2.974   2.187  0.2504  0.1147  0.0269
 3253SOL    HW121395   2.939   2.990   2.196  0.3852  0.2493 -1.6204
 3253SOL    HW221396   2.816   2.957   2.277  1.4478  0.1565  0.4212
 3254SOL     OW21397   1.233   2.133   1.218 -0.2026 -0.0380 -0.2952
 3254SOL    HW121398   1.322   2.128   1.186 -0.3598 -0.4982 -0.6556
 3254SOL    HW221399   1.210   2.222   1.191 -1.2013 -0.5824 -1.2315
 3255SOL     OW21400   2.080   0.549   3.206 -0.2812  0.3014  0.2356
 3255SOL    HW121401   2.001   0.552   3.152 -0.5510 -2.2422  0.4992
 3255SOL    HW221402   2.063   0.469   3.256  0.3797 -0.6836 -1.1146
 3256SOL     OW21403   2.807   4.199  13.553  0.4785 -0.4850 -0.2431
 3256SOL    HW121404   2.869   4.127  13.543 -0.3341 -1.0542 -1.2010
 3256SOL    HW221405   2.833   4.248  13.631  0.6249 -0.9525 -0.0020
 3257SOL     OW21406   3.712   2.263  16.128 -0.1869 -0.7246 -1.1473
 3257SOL    HW121407   3.790   2.301  16.087 -1.1983  0.1583 -2.2584
 3257SOL    HW221408   3.742   2.265  16.219 -0.0249 -0.3723 -1.2071
 3258SOL     OW21409   2.128   1.276  12.931 -0.2067  0.3525  0.1055
 3258SOL    HW121410   2.099   1.291  12.841 -0.9500  2.7611  0.7456
 3258SOL    HW221411   2.210   1.325  12.932 -0.0266  0.0457  0.9994
 3259SOL     OW21412   1.605   1.982  15.888  0.1032 -0.5640  0.0182
 3259SOL    HW121413   1.517   2.020  15.888  0.2104 -0.2944  1.0516
 3259SOL    HW221414   1.578   1.898  15.925 -2.4032  1.2527  2.3519
 3260SOL     OW21415   0.447   2.365   4.427  0.1871 -0.3371  0.2964
 3260SOL    HW121416   0.487   2.278   4.417  1.8386  0.6134 -1.5297
 3260SOL    HW221417   0.355   2.342   4.413  0.0287 -0.5139  1.5881
 3261SOL     OW21418   0.289   4.486   6.184 -0.2565  0.2924 -0.3777
 3261SOL    HW121419   0.306   4.391   6.187  0.4000  0.4956  2.3070
 3261SOL    HW221420   0.265   4.508   6.094  2.1406  0.5416 -0.9431
 3262SOL     OW21421   4.142   0.378   0.500 -0.0140  0.1105  0.0024
 3262SOL    HW121422   4.055   0.407   0.526  0.3670  0.5981  0.7283
 3262SOL    HW221423   4.118   0.295   0.458 -0.1479  0.1467  0.0102
 3263SOL     OW21424   1.563   3.162   3.565  0.3126  0.2627  0.1906
 3263SOL    HW121425   1.579   3.116   3.647  0.0061 -0.5998 -0.2383
 3263SOL    HW221426   1.503   3.103   3.520 -0.4564  1.6648 -0.6071
 3264SOL     OW21427   3.263   1.534  15.330  0.0271 -0.2344  0.4682
 3264SOL    HW121428   3.322   1.468  15.364  0.2503  1.1204  2.6993
 3264SOL    HW221429   3.313   1.613  15.306 -1.5026  1.1641  1.8514
 3265SOL     OW21430   1.619   4.202  13.877 -0.1336  0.0979 -0.1123
 3265SOL    HW121431   1.697   4.162  13.915  1.0416  1.1210 -1.4375
 3265SOL    HW221432   1.571   4.133  13.832 -1.3467  0.5630  0.4501
 3266SOL     OW21433   0.584   2.929  11.146 -0.6358  0.3849  0.3482
 3266SOL    HW121434   0.519   2.859  11.141 -0.3168 -0.0999  2.8578
 3266SOL    HW221435   0.636   2.885  11.213  0.1829  0.5202 -0.2034
 3267SOL     OW21436   4.726   0.350  13.618  0.0775 -0.1539  0.4681
 3267SOL    HW121437   4.650   0.344  13.676 -2.4774 -1.2855 -3.0113
 3267SOL    HW221438   4.723   0.265  13.575  1.3465 -0.5775  1.2362
 3268SOL     OW21439   0.111   0.053   3.436 -0.6656  0.0041 -0.0282
 3268SOL    HW121440   0.195   0.067   3.393  0.5821 -0.3752  2.2764
 3268SOL    HW221441   0.103   0.134   3.486  1.9276  0.6035 -0.6246
 3269SOL     OW21442   0.074   2.984   0.032 -0.3550 -0.2619  0.3856
 3269SOL    HW121443   4.715   2.993   0.042 -0.1117  0.6312  1.8132
 3269SOL    HW221444   0.096   2.892   0.044  0.4352  0.2634  2.8105
 3270SOL     OW21445   4.478   3.724   2.856  0.4902 -0.5021  0.1437
 3270SOL    HW121446   4.482   3.802   2.912 -0.5963 -0.0280 -0.4357
 3270SOL    HW221447   4.420   3.662   2.901 -2.6310 -0.3536 -3.7234
 3271SOL     OW21448   1.326   0.780   0.079 -0.1903 -0.1666 -0.3471
 3271SOL    HW121449   1.312   0.836   0.003  0.0423  1.0050  0.4734
 3271SOL    HW221450   1.319   0.691   0.045  0.2885 -0.3119 -0.0620
 3272SOL     OW21451   1.297   1.190   4.768 -0.6024 -0.9084  0.4977
 3272SOL    HW121452   1.309   1.247   4.843  0.1485  1.5339 -1.4565
 3272SOL    HW221453   1.385   1.154   4.769 -0.8097 -1.4144  0.5393
 3273SOL     OW21454   0.506   3.512   5.255 -0.3302  0.2958  0.1542
 3273SOL    HW121455   0.597   3.491   5.277  0.1686 -0.5021 -2.6785
 3273SOL    HW221456   0.461   3.429   5.242  0.5008  0.2285 -2.1854
 3274SOL     OW21457   4.416   4.119   6.436  0.3630 -0.2577 -0.7292
 3274SOL    HW121458   4.391   4.205   6.469  0.0319 -1.0623  1.1295
 3274SOL    HW221459   4.453   4.084   6.517  1.6863  0.5295 -0.9979
 3275SOL     OW21460   4.540   2.520  16.681  0.0168  0.2747  0.1603
 3275SOL    HW121461   4.519   2.491  16.770  1.8611  0.3879  0.6179
 3275SOL    HW221462   4.570   2.609  16.695 -0.8715  0.4850  0.7472
 3276SOL     OW21463   4.104   3.930  15.693 -0.1883  0.5698 -0.4079
 3276SOL    HW121464   4.024   3.904  15.647 -0.8220  1.9570 -0.0926
 3276SOL    HW221465   4.170   3.868  15.664 -0.2499 -0.8472  2.4901
 3277SOL     OW21466   1.758   1.499   6.039 -0.6514 -0.0685  0.4810
 3277SOL    HW121467   1.847   1.518   6.071 -0.5496  1.8840 -0.9681
 3277SOL    HW221468   1.715   1.518   6.122  1.2303  0.8392  1.2461
 3278SOL     OW21469   2.502   4.480   9.299 -0.2499  0.3744  0.4019
 3278SOL    HW121470   2.529   4.505   9.211 -1.0466 -0.2325 -0.0056
 3278SOL    HW221471   2.431   4.419   9.280  1.3193 -0.9741 -1.1008
 3279SOL     OW21472   1.881   0.746   4.557  0.2364  0.6280  0.1563
 3279SOL    HW121473   1.913   0.809   4.621  0.9780  0.9904 -0.5805
 3279SOL    HW221474   1.788   0.766   4.552  0.0208 -1.3419 -3.6279
 3280SOL     OW21475   1.968   3.958   3.103 -0.0392 -0.0187  0.1919
 3280SOL    HW121476   2.025   4.031   3.125 -0.8732  1.3452 -2.2339
 3280SOL    HW221477   1.968   3.912   3.187  1.9312  0.7896  0.6342
 3281SOL     OW21478   0.178   1.032   0.763  0.0800  0.2209  0.5119
 3281SOL    HW121479   0.134   0.993   0.838  0.6726 -2.9468 -0.7827
 3281SOL    HW221480   0.100   1.042   0.707 -0.0547 -1.0982  0.4576
 3282SOL     OW21481   1.465   2.900   9.468 -0.1407  0.1121  0.4048
 3282SOL    HW121482   1.428   2.943   9.391 -0.1670  0.1261  0.4253
 3282SOL    HW221483   1.388   2.901   9.524 -1.9450 -2.0312 -2.0710
 3283SOL     OW21484   4.602   2.307   3.129 -0.1253  0.5097 -0.5708
 3283SOL    HW121485   4.631   2.251   3.056 -1.2921  0.0040 -0.6431
 3283SOL    HW221486   4.533   2.357   3.086  0.6716  3.0711  1.1220
 3284SOL     OW21487   3.155   4.128   5.783 -0.6128  0.4809  0.1935
 3284SOL    HW121488   3.097   4.203   5.790 -2.3005 -0.8328  0.2018
 3284SOL    HW221489   3.094   4.056   5.767  0.6229 -0.7160  0.7943
 3285SOL     OW21490   0.014   3.569   3.128 -0.4364 -0.3196  0.2473
 3285SOL    HW121491   0.048   3.524   3.205  1.7997 -2.0025 -1.7054
 3285SOL    HW221492   0.087   3.579   3.067  0.9795  0.3588  2.0948
 3286SOL     OW21493   3.876   2.005  16.544  0.5286  0.1739 -0.2327
 3286SOL    HW121494   3.868   1.912  16.523 -0.4795 -0.2022  1.8131
 3286SOL    HW221495   3.955   2.010  16.598  0.6077 -0.2048 -0.3131
 3287SOL     OW21496   2.656   1.770   5.670  0.1151 -0.0064 -0.4217
 3287SOL    HW121497   2.668   1.732   5.583  1.5415 -0.8229  0.1405
 3287SOL    HW221498   2.561   1.778   5.678  0.2686  1.5518 -0.2466
 3288SOL     OW21499   1.750   1.023   5.001  0.3283  0.6322 -0.0455
 3288SOL    HW121500   1.723   1.112   5.024 -3.3204 -0.7242  1.0115
 3288SOL    HW221501   1.840   1.048   4.980  0.1711 -0.3248 -1.8288
 3289SOL     OW21502   3.995   1.246   2.508 -0.4197  0.0422 -0.0799
 3289SOL    HW121503   3.943   1.214   2.582  0.3889  2.2073  1.4444
 3289SOL    HW221504   4.039   1.164   2.485 -0.2038  0.2783 -0.5064
 3290SOL     OW21505   0.350   2.962   9.592 -0.5299  0.2045 -0.2363
 3290SOL    HW121506   0.400   2.969   9.511 -0.9316 -0.3476 -0.5247
 3290SOL    HW221507   0.404   2.912   9.653 -0.2703  0.9687  0.1709
 3291SOL     OW21508   2.890   3.113   6.363 -0.1173  0.7961 -0.4543
 3291SOL    HW121509   2.876   3.040   6.423 -0.3281  3.6660  2.9626
 3291SOL    HW221510   2.922   3.179   6.425 -0.0725  0.6402 -0.3142
 3292SOL     OW21511   2.026   4.589  17.436 -0.3085  0.8487  0.1332
 3292SOL    HW121512   1.936   4.588  17.403 -0.2229  1.0119 -0.1011
 3292SOL    HW221513   2.071   4.525  17.381  0.7093  0.3594  1.5258
 3293SOL     OW21514   3.177   2.485   8.205  0.6487  0.0360  0.7179
 3293SOL    HW121515   3.168   2.578   8.182  1.5439  0.2717  1.2959
 3293SOL    HW221516   3.195   2.448   8.118  1.2006 -1.9992  1.7003
 3294SOL     OW21517   3.726   0.516   6.494 -0.0493 -0.5056 -0.7239
 3294SOL    HW121518   3.714   0.609   6.473  0.4386 -0.0343  1.1564
 3294SOL    HW221519   3.741   0.527   6.588  1.1492  0.7056 -1.0514
 3295SOL     OW21520   4.103   2.895   9.140  0.1589  0.0373 -0.8343
 3295SOL    HW121521   4.053   2.899   9.221  0.3228  2.1302 -0.8460
 3295SOL    HW221522   4.063   2.946   9.070 -1.6816 -1.9370 -1.2445
 3296SOL     OW21523   1.415   0.471  11.289 -0.5063 -0.4364  0.0953
 3296SOL    HW121524   1.431   0.377  11.283 -2.4756 -0.5760 -2.6275
 3296SOL    HW221525   1.357   0.475  11.214  0.1266 -0.6412 -0.4001
 3297SOL     OW21526   1.339   3.409  12.709 -0.0092 -0.0523  0.0945
 3297SOL    HW121527   1.304   3.450  12.788 -2.4081 -0.1546 -0.8926
 3297SOL    HW221528   1.355   3.315  12.723 -0.3379  0.2301  2.3375
 3298SOL     OW21529   0.569   2.151  15.792  0.3125  0.3860 -0.0791
 3298SOL    HW121530   0.603   2.092  15.725 -0.2609 -0.3066  0.2394
 3298SOL    HW221531   0.547   2.087  15.860  2.0998  0.6731  0.7901
 3299SOL     OW21532   3.549   4.430  16.185 -0.3701 -0.4567 -0.3375
 3299SOL    HW121533   3.633   4.454  16.146  0.0677 -1.1564  0.1827
 3299SOL    HW221534   3.557   4.489  16.261 -1.8275 -0.6490 -0.0353
 3300SOL     OW21535   4.520   4.370   5.063 -0.0886 -0.7677 -0.1941
 3300SOL    HW121536   4.525   4.278   5.034 -0.6765 -0.0985 -2.4796
 3300SOL    HW221537   4.611   4.372   5.092 -1.0017 -0.7050  2.6280
 3301SOL     OW21538   0.216   3.688   6.703  0.2928 -0.0780  0.0619
 3301SOL    HW121539   0.229   3.702   6.797 -0.3128 -2.4334  0.4937
 3301SOL    HW221540   0.203   3.782   6.691  0.8086 -0.1146 -0.7274
 3302SOL     OW21541   0.879   0.265   6.994 -0.3172  0.2738 -0.1925
 3302SOL    HW121542   0.893   0.352   6.957  2.0258  0.0994  0.2527
 3302SOL    HW221543   0.913   0.276   7.083 -0.6118  1.5198 -0.2310
 3303SOL     OW21544   1.736   3.700  16.349  0.1008  0.1204  0.4867
 3303SOL    HW121545   1.796   3.670  16.280 -0.3100  1.4463 -0.4508
 3303SOL    HW221546   1.756   3.794  16.357  2.8186 -0.1209 -2.9924
 3304SOL     OW21547   2.802   1.847  16.974  0.0701  0.3113  0.2459
 3304SOL    HW121548   2.861   1.920  16.953  0.3005 -0.5470 -2.1034
 3304SOL    HW221549   2.750   1.880  17.047  2.3867  0.7013  1.7188
 3305SOL     OW21550   2.505   0.743  11.878  0.2762  0.1321  0.3218
 3305SOL    HW121551   2.552   0.780  11.803 -1.6667  0.4832 -0.7578
 3305SOL    HW221552   2.568   0.681  11.914  0.8769  0.8212  0.4406
 3306SOL     OW21553   1.499   2.305  10.585 -0.3084 -0.3907  0.7625
 3306SOL    HW121554   1.520   2.214  10.564 -2.4087 -0.7370  0.1703
 3306SOL    HW221555   1.488   2.302  10.680 -0.2160  0.5032  0.8090
 3307SOL     OW21556   0.045   2.391   5.656  0.8754  0.0453 -0.3896
 3307SOL    HW121557   4.727   2.463   5.623  1.1443  0.1014 -0.7094
 3307SOL    HW221558   0.085   2.354   5.577 -0.1729  1.5621 -1.6417
 3308SOL     OW21559   1.259   1.804   2.028  0.0375  0.2110  0.5026
 3308SOL    HW121560   1.273   1.892   2.065 -1.0262 -0.2380  1.9653
 3308SOL    HW221561   1.211   1.770   2.103  0.7919 -0.2746  0.7707
 3309SOL     OW21562   3.407   0.626  12.432  0.0848  0.5769 -0.1107
 3309SOL    HW121563   3.454   0.709  12.420 -0.3876  0.7679 -0.6480
 3309SOL    HW221564   3.401   0.580  12.348 -1.5839  2.8503 -1.2285
 3310SOL     OW21565   3.210   0.438  16.762  0.3168 -0.3258  0.1593
 3310SOL    HW121566   3.156   0.375  16.715 -0.6522  1.1175 -0.6660
 3310SOL    HW221567   3.172   0.509  16.711  3.1806  1.0779 -0.0262
 3311SOL     OW21568   4.082   3.358   9.973  0.3070 -0.1253  0.0577
 3311SOL    HW121569   4.051   3.406  10.050  0.3792 -0.4952  0.3124
 3311SOL    HW221570   4.036   3.275   9.979  0.7459 -0.4408 -1.0319
 3312SOL     OW21571   3.253   1.516   7.536  0.2472  0.3988 -0.4350
 3312SOL    HW121572   3.314   1.566   7.482 -0.6205  0.4305 -1.3796
 3312SOL    HW221573   3.302   1.482   7.611  1.8450  2.4157 -0.5755
 3313SOL     OW21574   2.614   1.446   1.766 -0.2562  0.0057 -0.0362
 3313SOL    HW121575   2.616   1.368   1.822 -0.8244  0.0193  0.0012
 3313SOL    HW221576   2.521   1.463   1.753 -1.0080 -4.2166 -0.1925
 3314SOL     OW21577   1.006   3.084   8.184 -0.5386 -0.4217  0.4486
 3314SOL    HW121578   1.013   2.991   8.208 -1.0261 -0.9960 -1.6794
 3314SOL    HW221579   0.911   3.086   8.193 -0.4391 -1.0223  1.6385
 3315SOL     OW21580   0.968   1.979  14.697  0.4366 -0.0603  0.4153
 3315SOL    HW121581   0.928   1.910  14.750 -1.1100  1.2737  0.9996
 3315SOL    HW221582   1.057   1.946  14.684 -0.2194 -1.7584  0.2516
 3316SOL     OW21583   0.391   4.685  12.627  0.1484  0.6584  0.2751
 3316SOL    HW121584   0.464   4.734  12.664 -1.2007  1.4402  1.9110
 3316SOL    HW221585   0.420   4.680  12.536 -1.4792 -1.0852 -0.1640
 3317SOL     OW21586   4.733   2.046  10.203  0.0273 -0.0992 -0.0900
 3317SOL    HW121587   0.054   2.117  10.233  0.8446 -1.0792  0.6680
 3317SOL    HW221588   4.647   2.077  10.232  0.0414 -2.3151  2.3171
 3318SOL     OW21589   1.618   2.303   3.713  0.1125  0.3254 -1.0915
 3318SOL    HW121590   1.532   2.340   3.735  0.6325  0.7265  0.2822
 3318SOL    HW221591   1.612   2.278   3.621 -0.2943  1.5642 -1.3961
 3319SOL     OW21592   3.991   1.892  15.780  0.2586 -0.2514  0.2200
 3319SOL    HW121593   3.916   1.835  15.798 -0.0161 -0.1872 -0.7512
 3319SOL    HW221594   3.944   1.971  15.756 -1.4502 -1.1286  0.6726
 3320SOL     OW21595   0.295   4.396   3.940  0.1235  0.3278 -0.1377
 3320SOL    HW121596   0.263   4.485   3.956 -0.8414 -0.1772  0.7416
 3320SOL    HW221597   0.262   4.374   3.853  0.0228  0.9398 -0.2496
 3321SOL     OW21598   3.615   1.791   5.808  0.3236  0.0215 -0.0574
 3321SOL    HW121599   3.658   1.769   5.725  4.3390  0.1320  1.9773
 3321SOL    HW221600   3.572   1.876   5.794 -0.6853 -0.3049  1.1484
 3322SOL     OW21601   2.893   0.586  17.381 -0.3810  0.0448 -0.1821
 3322SOL    HW121602   2.822   0.591  17.446  1.2295 -0.5147  1.6073
 3322SOL    HW221603   2.849   0.580  17.296 -0.2377 -1.2902 -0.1570
 3323SOL     OW21604   3.864   0.661   1.992  0.3189 -0.1515  0.3922
 3323SOL    HW121605   3.803   0.728   2.023 -1.6868 -1.4604 -0.7062
 3323SOL    HW221606   3.821   0.576   1.992 -0.3354  0.1814  1.9055
 3324SOL     OW21607   1.961   2.449  15.080 -0.1605 -0.4700  0.0512
 3324SOL    HW121608   2.031   2.390  15.053  0.0462 -0.9328  1.6296
 3324SOL    HW221609   1.921   2.476  14.997  0.3749 -0.2994 -0.1527
 3325SOL     OW21610   4.594   3.725   8.189 -0.0686 -0.1343  0.6572
 3325SOL    HW121611   4.576   3.640   8.149 -0.4004  0.0167  0.4899
 3325SOL    HW221612   4.592   3.782   8.113 -1.8509  0.9782  1.5401
 3326SOL     OW21613   4.568   4.685  12.695 -0.5939 -0.2365  0.1802
 3326SOL    HW121614   4.597   4.708  12.783 -1.4192 -0.8956  0.6240
 3326SOL    HW221615   4.632   4.724  12.636  0.9987 -0.7967  1.5182
 3327SOL     OW21616   0.962   2.889  17.583  1.0753 -0.1206 -0.1955
 3327SOL    HW121617   0.875   2.877  17.622  0.0174  3.5401 -1.4239
 3327SOL    HW221618   0.954   2.851  17.496  0.1462  1.4035 -0.7811
 3328SOL     OW21619   3.827   1.867   8.776  0.3392 -0.0140 -0.2881
 3328SOL    HW121620   3.883   1.910   8.710  1.2990  0.3987  0.7970
 3328SOL    HW221621   3.813   1.777   8.747  0.3808 -0.2764  0.5133
 3329SOL     OW21622   2.926   1.878   7.371 -0.3160 -0.0418 -0.6288
 3329SOL    HW121623   2.945   1.907   7.460  1.2076  1.0183 -1.2942
 3329SOL    HW221624   2.860   1.942   7.346 -1.1615 -0.1026  1.5290
 3330SOL     OW21625   4.407   1.715   5.171 -0.0219  0.3801 -0.1543
 3330SOL    HW121626   4.496   1.721   5.138 -0.9931 -0.3767 -2.8755
 3330SOL    HW221627   4.366   1.796   5.140  0.9467  0.8753 -0.1280
 3331SOL     OW21628   2.340   0.275   5.943  0.1078 -0.3113  0.5839
 3331SOL    HW121629   2.321   0.191   5.902 -1.3621 -0.1503  0.9331
 3331SOL    HW221630   2.431   0.263   5.969  0.0371  0.5553  1.2394
 3332SOL     OW21631   2.524   3.447   9.057  0.1942 -0.3200 -0.1017
 3332SOL    HW121632   2.430   3.433   9.064 -0.2176  1.9989 -1.0050
 3332SOL    HW221633   2.541   3.393   8.979 -1.6494 -1.2048  0.1213
 3333SOL     OW21634   2.442   3.634   0.884 -0.3340  0.3899 -0.1116
 3333SOL    HW121635   2.490   3.709   0.921  2.7737 -1.0161 -1.2795
 3333SOL    HW221636   2.379   3.619   0.955  1.7566 -1.7270  1.2827
 3334SOL     OW21637   3.218   3.751   4.797 -0.2933 -0.0657  0.7542
 3334SOL    HW121638   3.237   3.701   4.718 -2.1561  1.5153 -0.7027
 3334SOL    HW221639   3.128   3.732   4.821 -0.0268 -1.3366  0.7099
 3335SOL     OW21640   3.325   4.428  15.378  0.3695  0.2245 -0.4073
 3335SOL    HW121641   3.375   4.510  15.384  1.3664 -0.4601  0.5033
 3335SOL    HW221642   3.234   4.451  15.401  0.5427  0.6245 -0.1219
 3336SOL     OW21643   1.328   2.414   3.764 -0.0659  0.6393  0.2176
 3336SOL    HW121644   1.306   2.385   3.676 -3.5468 -1.0202  1.6342
 3336SOL    HW221645   1.310   2.508   3.756  0.9200  0.8817  0.8694
 3337SOL     OW21646   0.297   3.031   6.534 -0.2022  0.5590  0.5224
 3337SOL    HW121647   0.238   3.021   6.459 -0.0187  0.3784  0.4010
 3337SOL    HW221648   0.356   2.956   6.534 -0.6941  0.1825  1.9965
 3338SOL     OW21649   2.365   1.323   6.851 -0.1178  0.2236 -0.4544
 3338SOL    HW121650   2.409   1.400   6.815  1.8373 -0.9945 -0.6807
 3338SOL    HW221651   2.381   1.330   6.945 -2.8515  0.8861 -0.0259
 3339SOL     OW21652   0.638   3.369   9.254  0.0887 -0.0042 -0.3197
 3339SOL    HW121653   0.666   3.313   9.182  2.3068  0.5911  0.0690
 3339SOL    HW221654   0.579   3.309   9.299 -0.9062  0.5501 -0.8926
 3340SOL     OW21655   4.088   2.530   3.313 -0.2810 -0.8057 -0.2775
 3340SOL    HW121656   4.011   2.483   3.345  1.0314 -1.3999  1.9451
 3340SOL    HW221657   4.050   2.586   3.245 -1.5529 -1.0815  0.1991
 3341SOL     OW21658   1.575   3.858   3.490  0.4621 -0.1000 -0.0744
 3341SOL    HW121659   1.593   3.918   3.418 -1.6955  2.1908  1.2624
 3341SOL    HW221660   1.651   3.879   3.545  0.2534  0.0042  0.1784
 3342SOL     OW21661   1.509   1.207   3.003  0.4390  0.2674  0.3335
 3342SOL    HW121662   1.473   1.243   3.084  1.8670  0.2153  0.9882
 3342SOL    HW221663   1.603   1.210   3.020  0.7791  0.1931 -1.4316
 3343SOL     OW21664   0.745   0.176   8.831  0.2719 -0.0974 -0.2778
 3343SOL    HW121665   0.822   0.232   8.835  0.7584 -0.7963  0.2190
 3343SOL    HW221666   0.677   0.238   8.855  0.6040  0.1662 -0.0231
 3344SOL     OW21667   4.042   1.709   4.698  0.1315  0.2303  0.3214
 3344SOL    HW121668   4.030   1.734   4.607 -1.1349 -0.6017  0.2600
 3344SOL    HW221669   3.999   1.624   4.689  0.9218 -0.2198  0.7369
 3345SOL     OW21670   3.964   0.740   4.519 -0.2531  0.3239 -0.2686
 3345SOL    HW121671   3.890   0.787   4.557 -0.0151  0.3961  0.1056
 3345SOL    HW221672   3.927   0.693   4.445  1.0270  1.1071 -1.4067
 3346SOL     OW21673   3.630   1.142   8.466  0.1425 -0.2758  0.3220
 3346SOL    HW121674   3.606   1.234   8.457  0.7056 -0.0090  1.4856
 3346SOL    HW221675   3.596   1.118   8.552 -0.2280 -0.7478  0.0394
 3347SOL     OW21676   1.481   3.254   8.679  0.6528 -0.2679  0.4573
 3347SOL    HW121677   1.526   3.169   8.680 -0.4511 -0.8368  1.1563
 3347SOL    HW221678   1.434   3.242   8.761  0.0643  1.7042  0.3950
 3348SOL     OW21679   3.673   1.922   1.968  0.0355  0.1428  0.3918
 3348SOL    HW121680   3.754   1.874   1.984  0.0187  0.8808  2.6512
 3348SOL    HW221681   3.651   1.951   2.056  0.2222  0.8297  0.2162
 3349SOL     OW21682   1.129   1.690   2.223 -0.0040  0.3752 -0.7369
 3349SOL    HW121683   1.092   1.602   2.227  0.5988  0.1020 -1.0993
 3349SOL    HW221684   1.104   1.725   2.308 -0.1757 -0.0213 -0.6258
 3350SOL     OW21685   1.675   2.565  14.919  0.2590 -0.0133 -0.0246
 3350SOL    HW121686   1.624   2.504  14.972  0.3080 -1.1611 -1.2786
 3350SOL    HW221687   1.747   2.510  14.886 -0.3750 -1.1852  0.5551
 3351SOL     OW21688   1.420   2.834   2.483  0.8438 -0.3036  0.0884
 3351SOL    HW121689   1.496   2.869   2.435 -1.2656  1.1814 -2.1454
 3351SOL    HW221690   1.392   2.919   2.518  2.5615 -1.5057  4.4389
 3352SOL     OW21691   0.889   0.720   0.141 -0.0283 -0.1876 -0.0445
 3352SOL    HW121692   0.893   0.746   0.049 -2.5001 -0.2363 -0.1592
 3352SOL    HW221693   0.853   0.632   0.128  0.5501 -0.0746 -2.4396
 3353SOL     OW21694   1.331   1.663  10.254 -0.5489  0.1389  0.1354
 3353SOL    HW121695   1.292   1.613  10.326  0.6627 -0.7558  0.1767
 3353SOL    HW221696   1.354   1.586  10.202  0.6851  0.1084  0.7267
 3354SOL     OW21697   3.077   2.707   8.823 -0.3060  0.1939 -0.0638
 3354SOL    HW121698   2.994   2.718   8.869 -0.2275  0.6940 -0.0378
 3354SOL    HW221699   3.059   2.629   8.770  2.4968  0.2237 -1.0609
 3355SOL     OW21700   2.417   0.137  16.698  0.0854  0.8110  0.1866
 3355SOL    HW121701   2.409   0.232  16.691  0.7779  0.8483 -0.1426
 3355SOL    HW221702   2.497   0.120  16.647  2.5295  1.4069  3.8151
 3356SOL     OW21703   0.705   3.484  13.335 -0.2970 -0.2662 -0.5460
 3356SOL    HW121704   0.702   3.477  13.239  0.8329 -1.0554 -0.5202
 3356SOL    HW221705   0.634   3.426  13.362 -1.2581  1.0742 -0.1543
 3357SOL     OW21706   3.101   4.096  12.020 -0.0816  0.0112 -0.3637
 3357SOL    HW121707   3.005   4.087  12.017 -0.1705  0.5862  0.5722
 3357SOL    HW221708   3.107   4.106  12.115 -1.9968 -0.6163 -0.1783
 3358SOL     OW21709   0.684   3.044   6.399  0.2883 -0.3111 -0.2899
 3358SOL    HW121710   0.621   2.992   6.449 -0.2754  1.5450  0.9386
 3358SOL    HW221711   0.733   2.981   6.347  1.1819 -0.5762  0.8693
 3359SOL     OW21712   3.457   2.239   8.701 -0.1397 -0.0789  0.1218
 3359SOL    HW121713   3.427   2.190   8.625  0.6568 -1.1409  0.4785
 3359SOL    HW221714   3.407   2.201   8.773 -0.4315 -2.9387 -1.6022
 3360SOL     OW21715   3.693   0.267   0.686  0.0578 -0.4916  0.5650
 3360SOL    HW121716   3.774   0.234   0.724  1.1932  1.7693  0.1224
 3360SOL    HW221717   3.628   0.238   0.749 -3.0848  1.9471 -1.5502
 3361SOL     OW21718   1.725   3.112   2.989 -0.5849 -0.0339  0.0219
 3361SOL    HW121719   1.666   3.165   2.936  2.0146  0.6556 -2.1341
 3361SOL    HW221720   1.703   3.146   3.076 -1.8997 -1.0850  0.1152
 3362SOL     OW21721   4.682   1.450   6.128  0.7094 -0.5422 -0.5169
 3362SOL    HW121722   4.729   1.366   6.127  0.9286 -0.3896 -2.9662
 3362SOL    HW221723   4.698   1.464   6.222  0.0051 -0.3642 -0.4279
 3363SOL     OW21724   2.826   2.701   9.235 -0.2112  0.1775 -0.1368
 3363SOL    HW121725   2.904   2.679   9.285 -1.4363 -2.9733  0.4265
 3363SOL    HW221726   2.798   2.784   9.273 -3.3259 -0.4660 -0.9873
 3364SOL     OW21727   3.335   3.875   5.016 -0.2799 -0.6790 -0.1347
 3364SOL    HW121728   3.242   3.865   4.994 -0.9734 -1.8142  3.2346
 3364SOL    HW221729   3.388   3.843   4.943  2.2162  0.6582  1.1113
 3365SOL     OW21730   2.351   3.389   6.797 -0.7313 -0.2082  0.1995
 3365SOL    HW121731   2.390   3.301   6.794 -0.0519  0.0908  0.3115
 3365SOL    HW221732   2.385   3.421   6.880 -0.4948  0.9107 -0.3245
 3366SOL     OW21733   2.485   0.922  15.165  0.4806  0.2778  0.0277
 3366SOL    HW121734   2.572   0.959  15.180  0.0842  0.5860  1.5990
 3366SOL    HW221735   2.460   0.951  15.077  1.3076 -0.2358 -0.3718
 3367SOL     OW21736   1.956   1.707   1.259  0.4613  0.5864  0.1121
 3367SOL    HW121737   2.022   1.639   1.247  0.1486  0.5922 -1.6141
 3367SOL    HW221738   1.879   1.686   1.207  0.3244  0.0698  0.5193
 3368SOL     OW21739   3.110   2.933   5.514 -0.1874  0.0076  0.2974
 3368SOL    HW121740   3.098   2.988   5.436 -0.7874  0.3604  0.6381
 3368SOL    HW221741   3.205   2.936   5.524 -0.0429  0.2281 -1.0674
 3369SOL     OW21742   3.213   4.243   6.474 -0.0375  0.2153 -0.9138
 3369SOL    HW121743   3.179   4.153   6.477  1.1072 -0.0994  2.0870
 3369SOL    HW221744   3.302   4.225   6.444  0.1840 -2.8489  1.5512
 3370SOL     OW21745   2.055   0.911   2.596 -0.0659 -1.0531  0.0629
 3370SOL    HW121746   2.090   0.823   2.608  0.0099 -0.6366  2.9681
 3370SOL    HW221747   2.135   0.963   2.581 -0.5413 -0.6884 -1.2407
 3371SOL     OW21748   2.442   2.570   4.379  0.2890  0.2773  0.4343
 3371SOL    HW121749   2.375   2.602   4.319  1.0597  0.0417 -0.5606
 3371SOL    HW221750   2.441   2.483   4.339  1.1185  0.4026  0.1479
 3372SOL     OW21751   4.250   2.218   2.358 -0.6733  0.2915  0.3662
 3372SOL    HW121752   4.290   2.144   2.314  1.0461  1.7936 -0.5914
 3372SOL    HW221753   4.191   2.263   2.297  0.0052 -0.4197 -0.8137
 3373SOL     OW21754   0.663   1.327  15.481  0.2413 -0.3651  0.5359
 3373SOL    HW121755   0.660   1.405  15.426 -0.3428 -0.3172  0.6317
 3373SOL    HW221756   0.705   1.262  15.424 -0.1781  0.9670 -1.3157
 3374SOL     OW21757   0.264   2.900  15.203  0.2036  0.2636 -0.8968
 3374SOL    HW121758   0.206   2.848  15.258  0.8162  1.3431  0.7743
 3374SOL    HW221759   0.351   2.862  15.218 -1.4232 -3.0232  0.0297
 3375SOL     OW21760   2.144   1.844   2.921 -0.1515  0.0634  0.1555
 3375SOL    HW121761   2.102   1.846   3.007 -0.8557 -1.2028 -0.1630
 3375SOL    HW221762   2.127   1.754   2.894 -0.3008  1.0849 -3.1812
 3376SOL     OW21763   1.467   4.127   2.494 -0.9452 -0.2264  0.4162
 3376SOL    HW121764   1.423   4.075   2.561  2.4292 -4.8547 -0.9428
 3376SOL    HW221765   1.553   4.131   2.537  0.0801  1.2139 -1.7535
 3377SOL     OW21766   1.964   3.107   7.216  0.7394 -0.4719 -0.2439
 3377SOL    HW121767   1.943   3.099   7.309  1.8262 -0.3561  0.0127
 3377SOL    HW221768   2.054   3.141   7.218  0.3313  0.5196  1.4975
 3378SOL     OW21769   0.738   1.125   8.742  0.4505 -0.0131  0.3375
 3378SOL    HW121770   0.654   1.106   8.783  1.4395  0.6241  2.6500
 3378SOL    HW221771   0.800   1.064   8.783  0.1549 -0.6742 -0.1971
 3379SOL     OW21772   3.813   2.284   9.301  0.2078  0.4229 -0.1446
 3379SOL    HW121773   3.904   2.282   9.271 -0.2813 -2.0399 -1.3592
 3379SOL    HW221774   3.820   2.360   9.360 -1.7539 -1.0686  1.9939
 3380SOL     OW21775   2.176   2.351   9.225  0.5206  0.2143 -0.4868
 3380SOL    HW121776   2.200   2.339   9.317 -2.8198  0.4537  0.3976
 3380SOL    HW221777   2.081   2.346   9.237  0.7250  0.4766  1.2238
 3381SOL     OW21778   1.534   1.259   4.186  0.4500 -0.0111 -0.4682
 3381SOL    HW121779   1.610   1.215   4.147  1.2552  0.7932  0.1971
 3381SOL    HW221780   1.513   1.181   4.237  1.0498 -0.0998 -0.3602
 3382SOL     OW21781   3.087   4.402   6.764 -0.2211 -0.7790  0.2836
 3382SOL    HW121782   3.045   4.454   6.696  1.1253  0.5280  0.4491
 3382SOL    HW221783   3.176   4.401   6.729 -0.8308 -2.2604 -1.2404
 3383SOL     OW21784   1.813   2.226   7.542 -0.5218  0.8837 -0.0430
 3383SOL    HW121785   1.774   2.312   7.531 -1.3880  0.5745  0.5912
 3383SOL    HW221786   1.811   2.196   7.451 -1.5232  0.2671  0.1778
 3384SOL     OW21787   1.537   1.931  13.887 -0.2810  0.6055 -0.0547
 3384SOL    HW121788   1.468   1.926  13.820 -1.1924  0.2207  0.9136
 3384SOL    HW221789   1.480   1.917  13.963 -1.2852 -1.2772 -1.1525
 3385SOL     OW21790   3.096   3.309   0.778  0.0592 -0.0412  0.2514
 3385SOL    HW121791   3.080   3.394   0.737  0.2194  0.2714  0.8337
 3385SOL    HW221792   3.097   3.343   0.867  0.9716  0.0192  0.2228
 3386SOL     OW21793   4.566   3.528   6.388  0.3894  0.1036  0.1786
 3386SOL    HW121794   4.477   3.497   6.408 -0.4242  1.1391 -1.8143
 3386SOL    HW221795   4.611   3.467   6.329 -2.0028 -0.1326 -1.4370
 3387SOL     OW21796   3.652   1.933   2.845  0.0908 -0.5795 -0.2280
 3387SOL    HW121797   3.575   1.968   2.890 -0.0693 -1.2101 -0.0103
 3387SOL    HW221798   3.697   2.013   2.818 -1.2135 -0.1741 -1.1922
 3388SOL     OW21799   3.484   3.040   8.569 -0.1753  0.3029 -0.0509
 3388SOL    HW121800   3.449   3.016   8.483 -0.1688 -1.6434  0.4769
 3388SOL    HW221801   3.542   2.966   8.587  0.1610  0.5949  0.0415
 3389SOL     OW21802   2.390   1.359   9.205  0.4134 -0.2601  0.4346
 3389SOL    HW121803   2.484   1.345   9.192  0.0945  0.2097 -2.3804
 3389SOL    HW221804   2.368   1.279   9.252 -0.7802 -2.0008 -3.0448
 3390SOL     OW21805   4.318   1.375   9.763 -0.3109  0.2295 -0.6605
 3390SOL    HW121806   4.400   1.391   9.809 -1.1445  0.4177  0.7840
 3390SOL    HW221807   4.344   1.287   9.736 -1.4316 -0.2848 -0.0804
 3391SOL     OW21808   0.010   4.008   5.925 -0.3125 -0.0757 -0.0289
 3391SOL    HW121809   4.669   3.952   5.914  0.5068 -1.3268  0.7012
 3391SOL    HW221810   0.080   3.945   5.937  0.8317  1.1122 -0.4056
 3392SOL     OW21811   1.497   4.010  16.469 -0.0087 -0.1732 -0.3478
 3392SOL    HW121812   1.530   3.954  16.540 -1.1199 -0.0933  0.2167
 3392SOL    HW221813   1.450   3.946  16.416 -0.6655  0.6219 -0.7047
 3393SOL     OW21814   1.608   0.044   9.445 -0.4722  0.3279  0.4137
 3393SOL    HW121815   1.516   0.017   9.445 -0.5065  0.4454  0.2684
 3393SOL    HW221816   1.612   0.121   9.501  0.6596  0.8977 -0.4460
 3394SOL     OW21817   1.238   3.905   6.675 -0.4504 -0.1111 -0.0349
 3394SOL    HW121818   1.185   3.851   6.616 -1.6062  1.3013 -0.2791
 3394SOL    HW221819   1.173   3.949   6.729 -0.1345  1.5556 -1.0270
 3395SOL     OW21820   4.346   3.615   5.393 -0.1942  0.1974  0.4852
 3395SOL    HW121821   4.281   3.557   5.433  3.1077 -2.7560  1.6028
 3395SOL    HW221822   4.377   3.663   5.470 -0.4658 -0.4213  0.9814
 3396SOL     OW21823   1.897   2.680   7.676  0.0036  0.0567  0.2738
 3396SOL    HW121824   1.837   2.750   7.648 -1.2014 -0.9306  0.3782
 3396SOL    HW221825   1.969   2.693   7.615  0.3920 -0.7842  0.5605
 3397SOL     OW21826   1.616   0.413   9.328  0.2270 -0.0654  0.3083
 3397SOL    HW121827   1.525   0.426   9.354  0.7281  1.7299  1.1675
 3397SOL    HW221828   1.647   0.360   9.403 -2.1271  1.2595  2.2025
 3398SOL     OW21829   1.038   0.608  14.453 -0.2055  0.0648 -0.4311
 3398SOL    HW121830   1.059   0.559  14.373 -0.9469  0.0306 -0.6031
 3398SOL    HW221831   1.055   0.701  14.434 -2.6881  0.5507 -0.1796
 3399SOL     OW21832   4.369   3.578  14.283 -0.4388 -0.3906  0.5165
 3399SOL    HW121833   4.358   3.593  14.377  0.5195  2.5871  0.1592
 3399SOL    HW221834   4.368   3.483  14.292  0.6092 -0.4383  0.1486
 3400SOL     OW21835   0.425   0.794   5.094  0.4601  0.0346  0.4222
 3400SOL    HW121836   0.360   0.805   5.163  1.1268  1.0852  0.8918
 3400SOL    HW221837   0.490   0.756   5.152  0.4492  1.4479  1.3669
 3401SOL     OW21838   2.336   4.726   9.366 -0.0249  0.2087  0.1916
 3401SOL    HW121839   2.384   4.649   9.396 -0.9388 -0.2225  0.5715
 3401SOL    HW221840   2.260   4.689   9.320  0.5373  0.3690 -0.8521
 3402SOL     OW21841   4.037   2.955   6.598 -0.0999  0.0458  0.4200
 3402SOL    HW121842   3.986   3.004   6.663  0.5093  1.3517 -0.0880
 3402SOL    HW221843   4.086   2.894   6.653 -1.3909  0.0973  1.6287
 3403SOL     OW21844   1.992   1.566   4.567  0.3196 -0.0195 -0.0180
 3403SOL    HW121845   2.050   1.625   4.614 -1.7465  2.7378 -0.9449
 3403SOL    HW221846   2.039   1.483   4.558 -1.7228 -1.3434  1.4130
 3404SOL     OW21847   1.797   4.067   6.803 -0.0140  0.1096 -0.1604
 3404SOL    HW121848   1.708   4.101   6.816 -1.0962 -2.2608 -1.4375
 3404SOL    HW221849   1.851   4.145   6.792  0.3679 -0.3602 -1.6001
 3405SOL     OW21850   1.415   4.339   2.854  0.5214  0.1451 -0.0915
 3405SOL    HW121851   1.451   4.363   2.769  3.7012  0.6633  1.4124
 3405SOL    HW221852   1.323   4.322   2.830 -0.4479  1.3866  2.7343
 3406SOL     OW21853   3.198   4.028   4.435  0.1036 -0.2433  0.1374
 3406SOL    HW121854   3.190   4.044   4.341  0.0207 -0.5935  0.0846
 3406SOL    HW221855   3.287   3.994   4.429 -0.1359 -1.1948  1.8859
 3407SOL     OW21856   4.234   1.241   2.287 -0.0015 -0.2676  0.3987
 3407SOL    HW121857   4.142   1.258   2.267  0.6144  0.1213 -2.0686
 3407SOL    HW221858   4.231   1.164   2.343 -0.1683 -0.3415  0.2894
 3408SOL     OW21859   0.786   3.775  12.194  0.0889 -0.0421  0.9352
 3408SOL    HW121860   0.801   3.748  12.284 -2.4579 -0.1332  1.3256
 3408SOL    HW221861   0.728   3.706  12.164  1.3706  0.7342 -3.3791
 3409SOL     OW21862   0.196   1.455   5.385 -0.2264 -0.3360 -0.2954
 3409SOL    HW121863   0.149   1.505   5.317  2.1458 -0.0264 -1.6932
 3409SOL    HW221864   0.256   1.525   5.412  1.3642 -1.4926 -0.8887
 3410SOL     OW21865   2.779   3.790   5.800  0.1090 -0.3404 -0.3460
 3410SOL    HW121866   2.702   3.828   5.843  0.2363  0.6917 -1.0301
 3410SOL    HW221867   2.795   3.719   5.862  0.1520  0.1843  0.2499
 3411SOL     OW21868   1.696   3.955   6.523 -0.2793 -0.5708  0.4856
 3411SOL    HW121869   1.748   3.985   6.598  1.2240  0.0012 -0.7728
 3411SOL    HW221870   1.612   3.975   6.565 -0.3132 -0.3969  0.3377
 3412SOL     OW21871   3.681   0.106   3.302 -0.1818  0.0975 -0.0004
 3412SOL    HW121872   3.754   0.062   3.258  0.3465  2.7783 -1.7627
 3412SOL    HW221873   3.634   0.142   3.227 -0.4675  0.5750  0.4071
 3413SOL     OW21874   4.078   3.699  10.068 -0.1589  0.4131 -0.3159
 3413SOL    HW121875   4.020   3.626  10.092 -0.8749  1.4527  1.1226
 3413SOL    HW221876   4.085   3.689   9.973  0.2995 -3.2690  0.0983
 3414SOL     OW21877   3.796   0.216   5.028 -0.0314  0.0039  0.4255
 3414SOL    HW121878   3.732   0.157   5.067  1.1260 -2.9596 -2.1684
 3414SOL    HW221879   3.753   0.300   5.044 -0.2441 -0.3887  1.8907
 3415SOL     OW21880   2.547   1.859   0.610  0.0071 -0.3240 -1.0333
 3415SOL    HW121881   2.599   1.817   0.542  0.3716 -1.1367 -0.2580
 3415SOL    HW221882   2.573   1.950   0.596  1.0878 -0.7025 -1.4836
 3416SOL     OW21883   4.024   0.838  16.207 -0.1808  0.0767 -0.0708
 3416SOL    HW121884   4.020   0.758  16.260  0.5723  0.2670  0.2792
 3416SOL    HW221885   4.018   0.796  16.121 -0.9676 -1.7139  0.8490
 3417SOL     OW21886   2.772   0.572  11.792  0.0825  0.4320  0.4191
 3417SOL    HW121887   2.859   0.533  11.804  0.6235  1.6754  0.5657
 3417SOL    HW221888   2.741   0.563  11.882  1.3875 -0.7225  0.7596
 3418SOL     OW21889   3.310   0.935   1.613  0.0911 -0.4445 -0.2071
 3418SOL    HW121890   3.308   0.981   1.529  1.8564 -0.8532 -0.4712
 3418SOL    HW221891   3.256   0.856   1.612 -1.7680  0.8389  0.1938
 3419SOL     OW21892   2.759   0.126   9.171 -0.2942 -0.5039  0.5682
 3419SOL    HW121893   2.695   0.098   9.105 -0.1510  0.2382  0.1128
 3419SOL    HW221894   2.704   0.186   9.220 -0.3529 -0.8366  0.9141
 3420SOL     OW21895   4.701   4.408   4.557 -0.2875  0.7467  1.0199
 3420SOL    HW121896   4.676   4.501   4.564  0.3041  1.2492 -3.3227
 3420SOL    HW221897   4.663   4.369   4.635 -0.8445 -1.7200 -0.4845
 3421SOL     OW21898   2.234   2.578   9.696  0.1910 -0.2203  0.2946
 3421SOL    HW121899   2.204   2.554   9.784 -1.9409 -2.2330 -1.0136
 3421SOL    HW221900   2.155   2.572   9.643  1.4373  0.9963 -1.6865
 3422SOL     OW21901   3.728   2.699   9.132  0.2754  0.0749 -0.1007
 3422SOL    HW121902   3.804   2.645   9.154 -0.3343 -1.0867 -0.8680
 3422SOL    HW221903   3.675   2.636   9.083 -1.7708  1.7788 -0.0503
 3423SOL     OW21904   2.998   3.627  16.330 -0.1339 -0.2365  0.4511
 3423SOL    HW121905   3.021   3.621  16.238 -2.2312 -0.3530 -0.0608
 3423SOL    HW221906   3.070   3.672  16.374 -0.3227  0.9678 -0.4791
 3424SOL     OW21907   1.471   0.747  12.941  0.3335 -0.4845  0.2176
 3424SOL    HW121908   1.407   0.722  12.874 -0.6273  0.5994  0.7313
 3424SOL    HW221909   1.408   0.781  13.004  2.4890  1.4724  1.3178
 3425SOL     OW21910   4.623   1.757  10.679  0.6119  0.4223  0.1602
 3425SOL    HW121911   4.544   1.798  10.714 -1.2167 -0.9994 -2.3607
 3425SOL    HW221912   4.640   1.823  10.612  2.5452  0.9184  1.1460
 3426SOL     OW21913   1.235   2.002   8.262 -0.1880  0.1872  0.5358
 3426SOL    HW121914   1.272   2.003   8.174 -1.3618  3.0338  0.0740
 3426SOL    HW221915   1.299   2.060   8.304 -2.6354  0.1137  4.3644
 3427SOL     OW21916   1.507   1.732  15.957 -0.7544  0.4382 -0.1001
 3427SOL    HW121917   1.558   1.685  16.024 -2.0517 -1.1904 -0.2565
 3427SOL    HW221918   1.421   1.693  15.969  0.6145 -2.6743 -0.4123
 3428SOL     OW21919   1.092   4.025   5.473  0.8671  0.3708  0.2173
 3428SOL    HW121920   1.005   3.984   5.475  0.9455  0.2757  1.5629
 3428SOL    HW221921   1.133   4.003   5.557 -0.0535  0.7778  0.7612
 3429SOL     OW21922   3.035   1.216   3.566  0.3847  0.3506  0.4151
 3429SOL    HW121923   3.125   1.187   3.548  0.2353 -0.7325  1.4256
 3429SOL    HW221924   2.995   1.200   3.481  2.0813  1.4108 -0.5907
 3430SOL     OW21925   4.051   3.449   5.194 -0.1700  0.2938  0.6918
 3430SOL    HW121926   4.049   3.530   5.245  1.0429 -0.1422  1.4350
 3430SOL    HW221927   4.138   3.450   5.153 -1.5516  1.8266 -2.2104
 3431SOL     OW21928   3.866   3.312   8.379 -0.0776  0.2414  0.0161
 3431SOL    HW121929   3.888   3.265   8.298 -1.1382 -0.7726  0.3280
 3431SOL    HW221930   3.928   3.264   8.434  2.0226  2.7697 -0.1445
 3432SOL     OW21931   1.184   0.518  16.780  0.5447 -0.6948  0.2108
 3432SOL    HW121932   1.183   0.611  16.802  1.0364 -0.6664  0.1161
 3432SOL    HW221933   1.090   0.505  16.777  1.0470 -4.2320 -0.0809
 3433SOL     OW21934   0.613   4.178   6.363  0.3321  0.1317  1.3853
 3433SOL    HW121935   0.608   4.268   6.393 -0.4429  0.7388 -0.5741
 3433SOL    HW221936   0.527   4.164   6.324  1.3257 -0.8617 -0.4998
 3434SOL     OW21937   1.788   1.759   4.560 -0.4840 -0.6073  0.1687
 3434SOL    HW121938   1.848   1.685   4.570  0.8217  0.4044 -0.1490
 3434SOL    HW221939   1.702   1.719   4.571 -1.4161  1.6331  0.9092
 3435SOL     OW21940   2.847   2.018   2.544 -0.3512  0.1121  0.6255
 3435SOL    HW121941   2.757   2.038   2.571 -1.1342 -0.3439 -1.6580
 3435SOL    HW221942   2.830   1.932   2.504  0.8037  0.8140 -1.3864
 3436SOL     OW21943   2.559   0.029   5.642 -0.2207 -0.5480 -0.0161
 3436SOL    HW121944   2.651   0.052   5.658 -0.4366  0.8824 -0.7907
 3436SOL    HW221945   2.566   4.670   5.651  2.0392 -0.3554  0.2763
 3437SOL     OW21946   0.572   2.337  13.742  0.0269 -0.1146 -0.1251
 3437SOL    HW121947   0.515   2.367  13.671 -1.0518 -0.7530  0.4807
 3437SOL    HW221948   0.540   2.249  13.759 -2.1277  0.9841  1.4837
 3438SOL     OW21949   2.047   2.476  17.123  0.3132 -0.1625  0.3441
 3438SOL    HW121950   1.976   2.538  17.138 -0.5144 -1.5460  2.1395
 3438SOL    HW221951   1.995   2.404  17.087 -0.3209  1.7299 -2.5332
 3439SOL     OW21952   4.639   1.751   5.712  0.1840 -0.1411  0.5436
 3439SOL    HW121953   4.681   1.685   5.768  2.1689  0.8292  0.1990
 3439SOL    HW221954   4.714   1.794   5.672 -1.6561  3.6083  1.1185
 3440SOL     OW21955   2.160   3.578   7.661 -0.6139  0.2649  0.0222
 3440SOL    HW121956   2.244   3.622   7.646 -0.8467  0.6678 -0.1031
 3440SOL    HW221957   2.190   3.488   7.678  2.2798  1.7635  2.8133
 3441SOL     OW21958   2.616   0.653  11.567  0.2141 -0.3563 -0.2105
 3441SOL    HW121959   2.669   0.722  11.528  1.7438 -0.9431  0.8244
 3441SOL    HW221960   2.672   0.617  11.636 -0.7839 -1.1016  0.2186
 3442SOL     OW21961   4.184   4.538   1.512 -0.6921 -0.3698 -0.0444
 3442SOL    HW121962   4.151   4.626   1.532  2.7263  0.1346  3.3233
 3442SOL    HW221963   4.256   4.533   1.574 -0.6837  0.8322  0.0521
 3443SOL     OW21964   3.529   1.772   5.236  0.3549  0.5164  0.8523
 3443SOL    HW121965   3.527   1.866   5.253  1.4624  0.9668 -1.4658
 3443SOL    HW221966   3.470   1.741   5.304 -0.1150 -0.1262  0.1560
 3444SOL     OW21967   1.202   0.158   0.105  0.3404  0.2713 -0.1931
 3444SOL    HW121968   1.148   0.103   0.049 -1.4865  1.4400  0.4087
 3444SOL    HW221969   1.281   0.186   0.058 -1.2363  1.2923 -2.2117
 3445SOL     OW21970   4.128   0.776  10.665 -0.3132 -0.0044  0.1784
 3445SOL    HW121971   4.079   0.854  10.639 -0.2779  0.2220  0.7953
 3445SOL    HW221972   4.144   0.799  10.756  0.6622 -3.0653  0.7918
 3446SOL     OW21973   2.800   0.569  17.133  0.0491  0.2743  0.3040
 3446SOL    HW121974   2.854   0.565  17.054 -0.7299 -0.0059 -0.2092
 3446SOL    HW221975   2.767   0.480  17.123 -0.6847  0.4417  1.2607
 3447SOL     OW21976   4.236   0.874  13.050 -0.2177  0.2644 -0.0803
 3447SOL    HW121977   4.209   0.806  12.988 -0.3931  0.5895 -0.3636
 3447SOL    HW221978   4.159   0.859  13.106 -0.8394  2.3019 -0.3739
 3448SOL     OW21979   3.580   2.987   9.006  0.1180 -0.1997  0.3721
 3448SOL    HW121980   3.544   3.044   8.938 -2.0606 -0.7623  1.0576
 3448SOL    HW221981   3.545   2.903   8.978  0.1008  0.9713 -3.0688
 3449SOL     OW21982   4.626   0.121   4.038 -0.8479  0.6926  0.5050
 3449SOL    HW121983   4.627   0.156   4.127  0.2187  1.2665  0.2592
 3449SOL    HW221984   4.543   0.074   4.032  0.6007 -1.9095  0.6436
 3450SOL     OW21985   3.853   3.222   3.058  0.5452 -0.7772  0.5425
 3450SOL    HW121986   3.807   3.189   2.980 -1.9992 -0.9483  2.1142
 3450SOL    HW221987   3.791   3.216   3.131 -1.6469 -1.2551 -1.3444
 3451SOL     OW21988   3.586   3.101  12.703 -0.3781  0.1606  0.4649
 3451SOL    HW121989   3.645   3.035  12.740 -0.6881  0.2009  1.0363
 3451SOL    HW221990   3.580   3.151  12.785  0.0733  0.4424  0.3237
 3452SOL     OW21991   4.117   2.244   1.140 -0.0033  0.4121  0.4261
 3452SOL    HW121992   4.133   2.184   1.067  0.1447 -0.0681  0.8531
 3452SOL    HW221993   4.039   2.202   1.175  1.3583 -3.8248 -1.5784
 3453SOL     OW21994   2.676   3.081   0.000  0.0408  0.2138  0.3006
 3453SOL    HW121995   2.741   3.011  17.729  1.7162  2.1631 -1.7240
 3453SOL    HW221996   2.623   3.026   0.057  1.6021  0.1119  1.6790
 3454SOL     OW21997   2.950   4.028   7.915 -0.0597 -0.4763 -0.1154
 3454SOL    HW121998   2.916   3.990   7.996  0.6266 -3.0469 -1.0280
 3454SOL    HW221999   2.884   4.095   7.900  0.7972  0.6618  1.2401
 3455SOL     OW22000   1.348   1.822   3.807  0.4330 -0.2035  0.0948
 3455SOL    HW122001   1.413   1.880   3.846  0.1522  0.8314 -0.9615
 3455SOL    HW222002   1.353   1.854   3.717  3.0598 -0.4538  0.1565
 3456SOL     OW22003   0.406   0.538   9.497 -0.0174 -0.0002  0.0449
 3456SOL    HW122004   0.375   0.516   9.409 -2.3028  0.7061  0.6879
 3456SOL    HW222005   0.478   0.588   9.459  0.2948 -0.5696 -0.1112
 3457SOL     OW22006   0.830   2.122   9.273 -0.5503 -0.1126 -0.2168
 3457SOL    HW122007   0.763   2.074   9.322  2.8111 -3.2194  1.3734
 3457SOL    HW222008   0.909   2.111   9.327 -0.2289 -0.4998 -0.7643
 3458SOL     OW22009   2.112   2.447  15.302 -0.5443  0.5826  0.0604
 3458SOL    HW122010   2.191   2.436  15.249 -0.5708 -0.2484  0.1866
 3458SOL    HW222011   2.049   2.453  15.230 -0.1498  0.7743 -0.2692
 3459SOL     OW22012   0.070   1.093   9.364  0.5589 -0.1637 -0.1187
 3459SOL    HW122013   0.128   1.108   9.438  0.2596  2.3806 -0.3930
 3459SOL    HW222014   0.032   1.009   9.390  0.8608 -0.6372 -1.1799
 3460SOL     OW22015   0.317   4.479   5.875  0.3388 -0.1063 -0.0963
 3460SOL    HW122016   0.398   4.528   5.860 -0.9291  1.9624 -0.2637
 3460SOL    HW222017   0.251   4.547   5.856  0.7307  0.3076  0.0171
 3461SOL     OW22018   2.640   0.892   4.605 -0.7006 -0.0850  0.0493
 3461SOL    HW122019   2.611   0.811   4.564  0.1692 -0.3711  0.0191
 3461SOL    HW222020   2.720   0.916   4.558 -0.2752  2.0082  1.8694
 3462SOL     OW22021   2.426   1.801   2.764  0.5953 -0.0859  0.3848
 3462SOL    HW122022   2.446   1.887   2.801 -0.2527 -0.2158  1.1375
 3462SOL    HW222023   2.348   1.779   2.815  1.5812  0.7474  2.2574
 3463SOL     OW22024   2.689   2.742   5.292  0.6837  0.6129 -0.5320
 3463SOL    HW122025   2.600   2.724   5.321  1.1027 -1.2224 -0.3694
 3463SOL    HW222026   2.742   2.706   5.363 -0.9698  0.1316  0.4584
 3464SOL     OW22027   1.220   2.673   6.542  0.2322  0.1764  0.6511
 3464SOL    HW122028   1.171   2.743   6.584 -3.3581 -0.4826 -2.4485
 3464SOL    HW222029   1.175   2.591   6.565 -1.4997  0.0494 -3.1648
 3465SOL     OW22030   3.875   2.802  10.068 -0.5262 -0.5620 -0.4445
 3465SOL    HW122031   3.820   2.784  10.144  1.2862  1.1483  1.2985
 3465SOL    HW222032   3.824   2.774   9.993 -0.9905 -0.0203 -0.3279
 3466SOL     OW22033   0.370   4.709   8.132 -0.2139 -0.2108  0.6872
 3466SOL    HW122034   0.405   4.647   8.069 -0.1382  0.1640  0.3638
 3466SOL    HW222035   0.279   4.679   8.131  0.0584 -0.9741 -0.8498
 3467SOL     OW22036   1.343   0.722   9.338  0.0340  0.5717 -0.0868
 3467SOL    HW122037   1.378   0.638   9.307 -1.0991 -0.7552  2.3056
 3467SOL    HW222038   1.266   0.737   9.283  1.3673  0.6568 -1.9391
 3468SOL     OW22039   4.105   1.835   4.140 -0.3159 -0.1604 -1.1464
 3468SOL    HW122040   4.197   1.813   4.153 -0.6618 -1.4267 -0.8774
 3468SOL    HW222041   4.101   1.926   4.112 -1.8493  0.5654  1.3696
 3469SOL     OW22042   0.335   0.396   3.671  0.2503  0.3853 -0.0449
 3469SOL    HW122043   0.247   0.435   3.670  0.5182  0.9659 -1.3361
 3469SOL    HW222044   0.325   0.376   3.578 -1.5927 -2.1930  0.7050
 3470SOL     OW22045   2.873   3.164   1.861  0.1426 -0.0454  0.2288
 3470SOL    HW122046   2.933   3.207   1.922  0.5194 -0.7352  0.3486
 3470SOL    HW222047   2.794   3.155   1.914  0.8702  0.1686  1.3454
 3471SOL     OW22048   3.203   2.735   5.242  0.0019  0.2232 -0.4307
 3471SOL    HW122049   3.149   2.804   5.279  0.1622 -1.9977  3.8787
 3471SOL    HW222050   3.258   2.771   5.171 -1.5779 -1.0380 -2.2925
 3472SOL     OW22051   4.519   4.466   8.449  0.5732 -0.1475 -0.7025
 3472SOL    HW122052   4.481   4.471   8.361 -2.9900  1.1827  0.9377
 3472SOL    HW222053   4.597   4.414   8.428  0.9159 -0.3702  1.1074
 3473SOL     OW22054   0.516   1.764   1.346  0.3474  0.3897  0.3835
 3473SOL    HW122055   0.547   1.846   1.386 -0.9314 -0.1146  2.3671
 3473SOL    HW222056   0.431   1.759   1.391  1.0720 -2.1840  1.4371
 3474SOL     OW22057   0.727   1.187   3.849  0.8416 -0.3945 -0.7124
 3474SOL    HW122058   0.808   1.210   3.803  1.0874 -1.0918 -0.6143
 3474SOL    HW222059   0.661   1.250   3.818  0.1710 -0.5921  0.3365
 3475SOL     OW22060   4.630   1.497  14.833  0.2286 -0.1262  0.1934
 3475SOL    HW122061   4.597   1.458  14.752 -1.4179 -1.8392  1.6907
 3475SOL    HW222062   4.666   1.579  14.801  0.9942 -0.7532 -0.5377
 3476SOL     OW22063   4.467   4.491   0.157  0.5302 -0.2513 -0.8016
 3476SOL    HW122064   4.500   4.459   0.240 -0.6710 -0.0755 -0.2593
 3476SOL    HW222065   4.550   4.482   0.110  1.0614 -2.0608  0.4859
 3477SOL     OW22066   4.229   1.569   3.839  0.9277  0.5765  0.0078
 3477SOL    HW122067   4.255   1.502   3.775 -0.1352  0.8117 -0.6701
 3477SOL    HW222068   4.147   1.538   3.877  0.5286  1.0083 -0.5012
 3478SOL     OW22069   3.914   3.991  13.706 -0.0729 -0.2831  0.2181
 3478SOL    HW122070   3.846   4.046  13.745 -0.4243  0.6091 -1.6774
 3478SOL    HW222071   3.880   3.975  13.618 -0.3358  2.0449 -0.1030
 3479SOL     OW22072   2.468   4.210   6.362  0.0186  0.0469 -0.1566
 3479SOL    HW122073   2.424   4.157   6.429 -0.4491  0.0655 -0.4439
 3479SOL    HW222074   2.438   4.295   6.393  3.8282  0.7599  1.5964
 3480SOL     OW22075   1.465   1.620   1.687  0.3326 -0.0334  0.9557
 3480SOL    HW122076   1.536   1.594   1.629 -0.9070 -1.6647  0.1620
 3480SOL    HW222077   1.524   1.684   1.727 -0.6232  1.4967 -0.0766
 3481SOL     OW22078   1.321   1.472   4.166  0.0347  0.0689 -0.9864
 3481SOL    HW122079   1.410   1.443   4.188 -1.5957 -3.1463  1.3153
 3481SOL    HW222080   1.344   1.508   4.081  0.6036 -1.9846 -1.7146
 3482SOL     OW22081   0.727   1.862   1.711 -0.7517 -0.5435 -0.3798
 3482SOL    HW122082   0.727   1.768   1.728 -1.1766 -0.2126  1.4804
 3482SOL    HW222083   0.822   1.866   1.714 -0.8004  0.6187 -0.4325
 3483SOL     OW22084   0.804   1.583  10.740  0.4022 -0.1790  0.2005
 3483SOL    HW122085   0.864   1.546  10.805 -0.0903  1.1763  1.4177
 3483SOL    HW222086   0.815   1.549  10.651 -0.8298 -1.7373  0.6451
 3484SOL     OW22087   1.218   1.765   3.025 -0.2091  0.0971 -0.4656
 3484SOL    HW122088   1.127   1.758   3.054 -0.3309  3.4158  0.0063
 3484SOL    HW222089   1.204   1.793   2.935 -1.1116  0.3001 -0.2590
 3485SOL     OW22090   1.217   4.133   0.688  0.1342  0.3089 -0.3539
 3485SOL    HW122091   1.153   4.084   0.636  0.4946  0.5784 -1.0517
 3485SOL    HW222092   1.189   4.223   0.671 -2.0955 -0.2733  0.2564
 3486SOL     OW22093   1.771   4.481   5.332  0.0366 -0.1831  0.5504
 3486SOL    HW122094   1.821   4.470   5.413  1.5814  0.8192 -0.2734
 3486SOL    HW222095   1.761   4.575   5.315 -0.4338 -0.6107 -1.5286
 3487SOL     OW22096   1.151   1.338   6.812 -0.6677  0.6905  0.5217
 3487SOL    HW122097   1.111   1.315   6.728  2.8928 -3.2180 -0.1271
 3487SOL    HW222098   1.235   1.293   6.800 -0.6925  1.3721 -2.0937
 3488SOL     OW22099   3.955   1.848  11.649 -0.4995  0.1181 -0.1091
 3488SOL    HW122100   3.976   1.765  11.608 -0.2879 -0.0723  0.3756
 3488SOL    HW222101   3.982   1.911  11.582 -0.2902  1.6448  1.3994
 3489SOL     OW22102   4.013   4.732   0.153  0.1359  0.3046 -0.3901
 3489SOL    HW122103   3.989   4.658   0.208  3.0199 -0.7066 -0.5090
 3489SOL    HW222104   4.073   4.690   0.092 -0.5684 -3.1163  1.2936
 3490SOL     OW22105   0.419   0.960   9.843  0.3244 -0.3948  0.4604
 3490SOL    HW122106   0.490   0.897   9.849 -0.7101 -1.6099  0.1051
 3490SOL    HW222107   0.338   0.910   9.833  0.3404 -0.6102  1.4160
 3491SOL     OW22108   0.109   2.457   0.059  0.0139 -0.7390 -0.0042
 3491SOL    HW122109   0.041   2.402   0.021 -2.0419  0.8889  1.3255
 3491SOL    HW222110   0.150   2.390   0.114 -2.0310 -3.1469 -1.4321
 3492SOL     OW22111   3.801   3.358   8.795  0.2225 -0.0535  0.2233
 3492SOL    HW122112   3.826   3.390   8.709 -1.5814 -0.7740 -0.5617
 3492SOL    HW222113   3.784   3.267   8.769 -3.9403  1.0310 -0.7237
 3493SOL     OW22114   2.432   4.094  12.333 -0.1213  0.2731 -0.0574
 3493SOL    HW122115   2.509   4.110  12.388  0.5647 -1.8362 -0.3967
 3493SOL    HW222116   2.475   4.081  12.248 -0.9973  1.8596 -0.7319
 3494SOL     OW22117   1.244   4.598  15.146 -0.2682 -0.8722 -0.4695
 3494SOL    HW122118   1.303   4.550  15.203  3.9609  0.9335 -3.3543
 3494SOL    HW222119   1.298   4.601  15.067  0.2558 -0.4869 -0.0938
 3495SOL     OW22120   0.949   0.914   7.442 -0.1208  0.3457  0.0352
 3495SOL    HW122121   0.907   0.990   7.401  0.8564  1.9850  2.0242
 3495SOL    HW222122   0.892   0.906   7.519  0.5746 -0.5769  0.4419
 3496SOL     OW22123   3.905   4.052   8.991  0.1534  0.2858  0.3516
 3496SOL    HW122124   3.934   4.139   8.966 -1.2593  0.0994 -1.9323
 3496SOL    HW222125   3.810   4.058   8.980 -0.0334  1.0517  2.4227
 3497SOL     OW22126   2.797   3.464   1.898  0.3439 -0.1412 -0.0471
 3497SOL    HW122127   2.808   3.393   1.962 -2.4969 -1.2053 -0.7026
 3497SOL    HW222128   2.882   3.448   1.858  0.5679 -2.3963  1.3304
 3498SOL     OW22129   2.434   4.152  17.579  0.3361  0.0863  0.1614
 3498SOL    HW122130   2.454   4.158  17.672  1.8800 -0.8131 -0.0932
 3498SOL    HW222131   2.507   4.095  17.552 -0.3506 -0.5921 -0.2645
 3499SOL     OW22132   2.680   3.232   5.230 -1.1051 -0.4262  0.0199
 3499SOL    HW122133   2.713   3.143   5.216  1.1440  0.1376  1.7649
 3499SOL    HW222134   2.604   3.210   5.284 -0.9680  1.3760  0.9248
 3500SOL     OW22135   2.383   2.869   1.123  0.1323 -0.3791 -0.0670
 3500SOL    HW122136   2.396   2.945   1.180 -1.3091 -0.2276  0.0570
 3500SOL    HW222137   2.357   2.919   1.046 -1.2642  1.0881  1.3450
 3501SOL     OW22138   2.666   2.882   8.175  0.3799  0.0815 -0.0798
 3501SOL    HW122139   2.627   2.810   8.125 -0.1509 -0.9777  1.8635
 3501SOL    HW222140   2.708   2.830   8.243  1.3350 -0.5092 -1.1080
 3502SOL     OW22141   1.821   0.610   9.371  0.4718  0.1690  0.4464
 3502SOL    HW122142   1.751   0.548   9.353  0.3839  0.3894  0.0291
 3502SOL    HW222143   1.860   0.573   9.450 -0.3255 -0.6750  0.4455
 3503SOL     OW22144   3.334   3.945  14.264  0.1633  0.1327 -0.1860
 3503SOL    HW122145   3.277   4.015  14.296  2.8086  1.4367  1.6582
 3503SOL    HW222146   3.419   3.989  14.271 -0.1812  0.8959 -0.7657
 3504SOL     OW22147   1.530   4.243   5.817 -0.1028 -0.3387  0.1351
 3504SOL    HW122148   1.481   4.325   5.824  0.2262 -0.1410  0.1508
 3504SOL    HW222149   1.491   4.205   5.738  2.1949  1.7420 -2.0004
 3505SOL     OW22150   2.073   2.054   7.105 -0.2184  0.2398 -0.1102
 3505SOL    HW122151   2.114   2.093   7.028  0.0900 -1.2878 -0.7274
 3505SOL    HW222152   2.149   2.006   7.138  0.0030 -0.3144 -1.4446
 3506SOL     OW22153   1.840   3.829   4.701 -0.1188 -0.7348 -0.3768
 3506SOL    HW122154   1.797   3.745   4.687  1.2495 -1.6729  1.0246
 3506SOL    HW222155   1.868   3.841   4.610  3.4517  1.7880  1.0579
 3507SOL     OW22156   0.982   3.843   6.541  0.1581  0.2077 -0.6794
 3507SOL    HW122157   0.904   3.898   6.530 -0.6833 -0.3243  2.4330
 3507SOL    HW222158   0.965   3.806   6.628  1.8084 -0.1145 -0.5001
 3508SOL     OW22159   2.649   1.685   2.686  0.0904 -0.2323 -0.2861
 3508SOL    HW122160   2.691   1.656   2.766 -0.2382 -0.2798 -0.1316
 3508SOL    HW222161   2.562   1.713   2.715  1.8993  1.5328  3.4418
 3509SOL     OW22162   1.884   2.244   0.482  0.6519  0.1984 -0.4580
 3509SOL    HW122163   1.823   2.172   0.498 -0.0138  0.3788 -2.1083
 3509SOL    HW222164   1.890   2.293   0.564 -1.4138  0.9596 -0.7577
 3510SOL     OW22165   4.632   4.530   6.549 -0.4026 -0.1853  0.0607
 3510SOL    HW122166   4.625   4.607   6.493 -3.8875  0.1103  0.9393
 3510SOL    HW222167   4.594   4.568   6.628  2.6283 -1.3464  2.0694
 3511SOL     OW22168   3.613   2.532   2.282  0.6242  0.1772  0.2426
 3511SOL    HW122169   3.612   2.499   2.192  0.8477  3.2345 -0.8879
 3511SOL    HW222170   3.587   2.452   2.328  1.7175 -1.8378 -2.6835
 3512SOL     OW22171   0.934   4.073  16.447 -0.0181 -0.1978  0.0515
 3512SOL    HW122172   0.999   4.057  16.379 -0.2879  3.2104 -0.9678
 3512SOL    HW222173   0.851   4.065  16.399 -0.3694 -0.0895  0.6406
 3513SOL     OW22174   2.761   1.314   3.315 -0.1332  0.8959  0.1468
 3513SOL    HW122175   2.820   1.245   3.285 -2.5259 -1.6092  1.1453
 3513SOL    HW222176   2.805   1.388   3.275  0.9081 -0.2283 -0.7772
 3514SOL     OW22177   0.873   2.393   1.646 -0.4339  0.1253  0.6810
 3514SOL    HW122178   0.825   2.404   1.728  2.1148 -2.5354  2.5202
 3514SOL    HW222179   0.821   2.321   1.611  0.0371  0.0798  0.0720
 3515SOL     OW22180   3.631   3.710   5.116 -0.0782  0.3554  0.2387
 3515SOL    HW122181   3.624   3.761   5.035  1.4197 -1.9138 -1.3407
 3515SOL    HW222182   3.708   3.655   5.099 -0.8729 -0.6563 -0.0387
 3516SOL     OW22183   3.563   1.971   8.404 -0.1437  0.7746 -0.3089
 3516SOL    HW122184   3.614   1.896   8.373 -3.4361 -0.8709 -1.7960
 3516SOL    HW222185   3.629   2.039   8.409 -0.4544  1.2076 -2.0484
 3517SOL     OW22186   0.141   2.088   7.858 -0.2148 -0.5819 -0.2597
 3517SOL    HW122187   0.132   1.999   7.824 -1.4186 -1.5674  2.6677
 3517SOL    HW222188   0.057   2.129   7.838  1.2409  3.4342  1.6734
 3518SOL     OW22189   3.773   2.584   8.437  0.7154 -0.4081 -0.1682
 3518SOL    HW122190   3.699   2.616   8.385  2.0869 -0.1227 -1.9275
 3518SOL    HW222191   3.719   2.547   8.507  0.2371 -1.0640 -0.8768
 3519SOL     OW22192   1.976   0.438  12.045 -0.1514  0.0535 -0.3530
 3519SOL    HW122193   2.002   0.371  11.982 -2.7480  0.5758 -1.9829
 3519SOL    HW222194   2.014   0.518  12.007 -1.1888  0.0548 -1.4043
 3520SOL     OW22195   2.709   0.548   0.235 -0.5197  0.8765  0.0397
 3520SOL    HW122196   2.796   0.583   0.212 -1.8577  3.0682 -1.6727
 3520SOL    HW222197   2.718   0.454   0.219  1.7231  1.0903 -0.0033
 3521SOL     OW22198   4.252   4.111  12.604 -0.1874 -0.3838  0.4061
 3521SOL    HW122199   4.190   4.168  12.649 -1.7376 -3.6768  2.4772
 3521SOL    HW222200   4.300   4.065  12.673 -0.0769 -0.7744  0.0689
 3522SOL     OW22201   0.016   2.991  11.708 -0.2128 -0.0583 -0.1507
 3522SOL    HW122202   4.673   3.008  11.658 -1.2535  0.1297  1.5636
 3522SOL    HW222203   0.008   3.064  11.768 -1.2988 -0.0655 -0.2862
 3523SOL     OW22204   0.860   0.844   3.072 -0.3643  0.2504 -0.0098
 3523SOL    HW122205   0.937   0.802   3.035 -0.7757 -1.1474  0.7131
 3523SOL    HW222206   0.826   0.886   2.993 -0.6276 -1.0606 -0.5928
 3524SOL     OW22207   2.795   0.398   3.515 -0.2129 -0.2687  0.0518
 3524SOL    HW122208   2.823   0.446   3.593  1.4638 -0.6372 -0.3232
 3524SOL    HW222209   2.808   0.310   3.552 -2.1556 -0.3990  0.4203
 3525SOL     OW22210   2.574   3.015  12.017  0.2117  0.2923 -1.1423
 3525SOL    HW122211   2.522   2.981  11.944  1.8966 -1.2562 -1.6228
 3525SOL    HW222212   2.630   2.942  12.043 -0.1084  0.4009 -0.1383
 3526SOL     OW22213   0.886   0.166   5.534  0.4350  0.1407  0.5126
 3526SOL    HW122214   0.963   0.205   5.576 -0.5475  2.2230  0.3990
 3526SOL    HW222215   0.886   0.207   5.447 -0.4252 -3.5315 -1.2147
 3527SOL     OW22216   2.177   1.677   5.137 -0.3631 -0.0660  0.2834
 3527SOL    HW122217   2.171   1.585   5.162 -1.5740  0.5518  2.2371
 3527SOL    HW222218   2.226   1.665   5.055  0.3236  0.7811  0.5799
 3528SOL     OW22219   4.384   1.649  16.454 -0.0906 -0.3949 -0.7705
 3528SOL    HW122220   4.315   1.716  16.455 -0.0089 -0.3404  1.3867
 3528SOL    HW222221   4.379   1.638  16.359 -0.0938  0.2850 -0.8485
 3529SOL     OW22222   1.913   2.626   2.668  0.0348  1.0527 -0.6258
 3529SOL    HW122223   1.845   2.567   2.635  0.1324 -0.4741  1.8628
 3529SOL    HW222224   1.861   2.683   2.724  0.7629 -0.1289  1.2774
 3530SOL     OW22225   2.351   3.932   5.217 -0.2205 -0.5836 -0.3054
 3530SOL    HW122226   2.277   3.875   5.239  0.5013 -0.9060  1.2852
 3530SOL    HW222227   2.332   4.019   5.251 -2.3776 -0.8978 -0.7024
 3531SOL     OW22228   2.222   2.013  17.042  0.5443 -0.0061  0.1844
 3531SOL    HW122229   2.144   2.048  17.001 -0.7051 -1.8427  0.9438
 3531SOL    HW222230   2.278   2.089  17.058  0.7345  0.1239 -1.1240
 3532SOL     OW22231   1.231   1.728   1.757  0.0528 -0.7465  0.1091
 3532SOL    HW122232   1.297   1.665   1.728 -1.1176 -1.2475 -1.4553
 3532SOL    HW222233   1.248   1.745   1.850  1.8647 -0.0230 -0.3455
 3533SOL     OW22234   4.221   2.638   1.806 -0.1171  0.1268 -0.3266
 3533SOL    HW122235   4.220   2.568   1.872  0.1262 -2.4156 -3.0563
 3533SOL    HW222236   4.161   2.694   1.855 -1.1079 -0.2480 -1.1208
 3534SOL     OW22237   2.228   3.968  12.013  0.2115  0.1682 -0.1969
 3534SOL    HW122238   2.310   3.984  11.967  1.4333  0.8208  2.2101
 3534SOL    HW222239   2.246   3.881  12.048  0.1523 -0.3591 -1.4736
 3535SOL     OW22240   3.193   2.462  10.696 -0.2143  0.3004  0.2827
 3535SOL    HW122241   3.174   2.475  10.789  1.5374 -0.2830  0.7296
 3535SOL    HW222242   3.277   2.507  10.688 -0.2734  0.4467  0.4712
 3536SOL     OW22243   0.315   0.088   6.901 -0.1332  0.3313 -0.1498
 3536SOL    HW122244   0.337   0.090   6.994  0.7431  2.4954 -0.4121
 3536SOL    HW222245   0.389   0.042   6.861 -0.5801 -0.6329  0.1165
 3537SOL     OW22246   3.102   3.344   5.380 -0.0760 -0.1111 -0.0418
 3537SOL    HW122247   3.128   3.254   5.361 -0.7092 -0.2300 -0.3584
 3537SOL    HW222248   3.028   3.337   5.441  0.1024  3.6911  0.6272
 3538SOL     OW22249   3.822   2.181  13.411  0.1985 -0.0571 -0.0464
 3538SOL    HW122250   3.850   2.247  13.347  0.0313 -0.6656 -0.7506
 3538SOL    HW222251   3.848   2.226  13.491  0.1209  2.2649 -1.3074
 3539SOL     OW22252   4.375   4.428   4.028 -0.6803 -0.4244  0.0100
 3539SOL    HW122253   4.390   4.497   4.092  3.1906 -0.5132 -0.8010
 3539SOL    HW222254   4.460   4.420   3.984  0.0437  0.9885  1.1223
 3540SOL     OW22255   0.062   1.692   8.546  0.2126 -0.0497 -0.6266
 3540SOL    HW122256   4.707   1.722   8.548 -0.6664 -2.7407  0.7752
 3540SOL    HW222257   0.056   1.609   8.593  4.7279 -0.3112 -0.5320
 3541SOL     OW22258   4.061   2.171  15.863 -0.3270  0.1761 -0.2284
 3541SOL    HW122259   4.131   2.105  15.857 -2.6486 -2.4561  1.6059
 3541SOL    HW222260   4.012   2.120  15.928 -0.0649 -0.7099 -0.7299
 3542SOL     OW22261   1.684   3.850   3.142 -0.2184 -0.0698 -0.0899
 3542SOL    HW122262   1.722   3.848   3.054 -0.6574  0.8940 -0.3141
 3542SOL    HW222263   1.703   3.937   3.179  1.8857 -0.8549  0.6074
 3543SOL     OW22264   2.940   2.744  12.204 -0.5120 -0.8931  0.1353
 3543SOL    HW122265   2.994   2.755  12.125 -2.0279 -4.8841 -1.4220
 3543SOL    HW222266   2.858   2.767  12.161 -0.6920 -3.8405 -1.0839
 3544SOL     OW22267   2.106   3.874   6.329  0.2105 -0.0489 -0.0036
 3544SOL    HW122268   2.040   3.891   6.262 -0.3149  0.5835  0.6756
 3544SOL    HW222269   2.144   3.961   6.346 -1.2453  0.6415 -0.3505
 3545SOL     OW22270   3.542   0.072   6.669  0.4543 -0.4090  0.2148
 3545SOL    HW122271   3.456   0.104   6.643 -0.3119 -1.6587  1.2148
 3545SOL    HW222272   3.521   0.031   6.753 -0.9193 -1.0830 -0.4543
 3546SOL     OW22273   1.027   0.015   7.120 -0.6516  0.2121  0.1411
 3546SOL    HW122274   1.067   0.029   7.034  0.8756 -0.4470  0.7618
 3546SOL    HW222275   1.091   4.686   7.145 -2.1210 -0.7617  1.3423
 3547SOL     OW22276   0.187   4.228  11.124 -0.0276 -0.2039  0.0599
 3547SOL    HW122277   0.127   4.178  11.180 -0.9616  1.1498  0.2718
 3547SOL    HW222278   0.244   4.164  11.083  1.7404 -0.4247  2.8613
 3548SOL     OW22279   1.346   2.487   8.129  1.1349 -0.0542  0.0739
 3548SOL    HW122280   1.375   2.562   8.181 -0.2672  0.2817  0.3664
 3548SOL    HW222281   1.293   2.524   8.058  0.2137  0.2065  0.8965
 3549SOL     OW22282   2.058   4.612   0.543  0.3052  0.3426 -0.1870
 3549SOL    HW122283   2.038   4.562   0.464  2.0000 -0.1931 -0.2859
 3549SOL    HW222284   2.007   4.561   0.606  1.4722  0.6017  0.9844
 3550SOL     OW22285   0.473   0.321  17.106 -0.1061 -0.2035  0.2681
 3550SOL    HW122286   0.438   0.311  17.017 -1.7966 -2.3440  1.1727
 3550SOL    HW222287   0.508   0.410  17.100 -1.5544  0.4431  1.2712
 3551SOL     OW22288   3.469   4.662  15.321 -0.3453  0.1145  0.5919
 3551SOL    HW122289   3.448   4.610  15.244 -2.1129  1.7193  0.0018
 3551SOL    HW222290   3.540   4.714  15.283 -1.7233  1.6747  0.1797
 3552SOL     OW22291   2.585   0.365   6.306  0.0442  0.1853 -0.1098
 3552SOL    HW122292   2.671   0.398   6.332  0.7100 -1.7973  0.2208
 3552SOL    HW222293   2.543   0.379   6.391 -0.6814  1.1120 -0.6200
 3553SOL     OW22294   1.602   2.459   0.611 -0.0345 -1.0381 -0.5317
 3553SOL    HW122295   1.663   2.528   0.583 -0.4866 -0.7737 -0.8550
 3553SOL    HW222296   1.541   2.509   0.665 -0.8643 -0.8111 -1.6746
 3554SOL     OW22297   2.033   3.548   5.360 -0.1997 -0.1086  0.5177
 3554SOL    HW122298   2.084   3.593   5.293 -2.4641 -0.7702 -1.6083
 3554SOL    HW222299   1.950   3.596   5.360 -1.4910 -2.3261  1.3423
 3555SOL     OW22300   2.684   1.491   4.649  0.3497  0.0289 -0.0293
 3555SOL    HW122301   2.625   1.416   4.641  1.0542 -0.7481  2.0656
 3555SOL    HW222302   2.612   1.553   4.639 -1.8252 -2.5506 -0.2683
 3556SOL     OW22303   1.208   3.583   0.319  0.0127  0.2930  0.1115
 3556SOL    HW122304   1.253   3.519   0.263 -1.8355  0.6000 -1.7331
 3556SOL    HW222305   1.277   3.590   0.385 -0.9348 -4.3220  1.5648
 3557SOL     OW22306   2.527   4.590   6.963  0.5185  0.0785 -0.0892
 3557SOL    HW122307   2.531   4.496   6.978  0.5766 -0.1293 -1.4332
 3557SOL    HW222308   2.621   4.606   6.954  0.5822 -0.3571 -0.1768
 3558SOL     OW22309   1.980   2.348   7.144 -0.6371 -0.0449 -0.0985
 3558SOL    HW122310   2.010   2.437   7.159 -0.6342  0.4578 -3.0902
 3558SOL    HW222311   1.977   2.314   7.233  0.3466 -1.3301 -0.5447
 3559SOL     OW22312   1.031   1.269  10.951  0.4241  0.1215 -0.1437
 3559SOL    HW122313   1.036   1.244  10.858  2.0404  1.4952 -0.4177
 3559SOL    HW222314   1.126   1.264  10.959  0.7042  3.1740 -1.4493
 3560SOL     OW22315   1.755   0.262   6.812  0.1097 -0.1628  0.3600
 3560SOL    HW122316   1.785   0.181   6.853 -1.2263 -0.3004  1.0663
 3560SOL    HW222317   1.669   0.271   6.853  0.0567  0.0059  0.2109
 3561SOL     OW22318   4.085   0.549   4.944  0.3551 -0.0245 -0.9108
 3561SOL    HW122319   4.069   0.477   4.882 -0.2859  0.2984 -1.1196
 3561SOL    HW222320   4.128   0.611   4.885 -0.3496  0.7597 -0.5966
 3562SOL     OW22321   4.005   2.694   3.612 -0.1693 -0.2828  0.6367
 3562SOL    HW122322   3.969   2.759   3.672  0.6606 -0.0156  0.8316
 3562SOL    HW222323   4.025   2.617   3.666 -0.4132 -1.7761 -1.3680
 3563SOL     OW22324   0.558   1.404   1.931  0.0277  0.2300  0.2189
 3563SOL    HW122325   0.547   1.480   1.874  2.3822  0.6977  0.3998
 3563SOL    HW222326   0.473   1.403   1.976 -0.6441 -1.4780 -1.0803
 3564SOL     OW22327   0.450   4.156   5.057 -0.1755  0.2979 -0.1417
 3564SOL    HW122328   0.410   4.237   5.026 -1.6376 -0.1613  0.5348
 3564SOL    HW222329   0.402   4.095   5.001 -0.2062  2.2832 -2.2562
 3565SOL     OW22330   1.830   3.498   8.233 -0.6216 -0.4340  0.4777
 3565SOL    HW122331   1.834   3.417   8.182  2.0849 -0.6653  1.0655
 3565SOL    HW222332   1.744   3.496   8.274 -0.0602 -1.7133  1.6116
 3566SOL     OW22333   4.223   0.712   8.315  0.3301  0.0641  0.8359
 3566SOL    HW122334   4.272   0.742   8.391 -0.6206 -0.2732  1.5728
 3566SOL    HW222335   4.148   0.770   8.326  0.8170  0.8770 -0.1448
 3567SOL     OW22336   0.678   2.584   5.129 -0.2370 -0.1863 -0.1163
 3567SOL    HW122337   0.657   2.494   5.104 -2.4051  0.4134 -0.4914
 3567SOL    HW222338   0.590   2.621   5.141  1.2088  3.3914 -0.8663
 3568SOL     OW22339   1.200   1.333   7.688 -0.1556  0.4391  0.0381
 3568SOL    HW122340   1.236   1.257   7.735 -1.8572 -0.3540  0.0440
 3568SOL    HW222341   1.114   1.303   7.661 -0.4153  0.1325  1.2038
 3569SOL     OW22342   3.873   3.717   6.851 -0.1017  0.2537 -0.4499
 3569SOL    HW122343   3.968   3.706   6.841 -0.1730  0.1508 -1.0252
 3569SOL    HW222344   3.856   3.794   6.796 -2.2919  0.6427  0.7943
 3570SOL     OW22345   2.327   3.378   9.302  0.6327 -0.1460  0.2649
 3570SOL    HW122346   2.280   3.360   9.384  1.3047 -0.9734  0.4589
 3570SOL    HW222347   2.402   3.320   9.309  1.5578  1.3289  2.6227
 3571SOL     OW22348   4.134   1.211  15.136  0.0078 -0.2692  0.0258
 3571SOL    HW122349   4.055   1.161  15.119 -1.2747  1.0726  2.1014
 3571SOL    HW222350   4.091   1.296  15.146  0.5480  0.2099 -1.6156
 3572SOL     OW22351   0.196   2.964   5.108 -0.0634  0.0632  0.4961
 3572SOL    HW122352   0.159   2.923   5.029 -0.3086  1.2100  0.0171
 3572SOL    HW222353   0.114   3.003   5.140 -0.0631 -0.0044  0.5793
 3573SOL     OW22354   1.300   4.297   7.657 -0.0840  0.4994  0.2920
 3573SOL    HW122355   1.362   4.319   7.588  0.6962 -1.0142  0.5304
 3573SOL    HW222356   1.324   4.356   7.728 -3.8607  1.5963  0.6773
 3574SOL     OW22357   2.880   4.068  16.335 -0.6486  0.1061 -0.1044
 3574SOL    HW122358   2.855   4.089  16.245  1.3742 -1.4618 -1.0405
 3574SOL    HW222359   2.803   4.018  16.362 -1.2636  1.2109  0.2067
 3575SOL     OW22360   0.510   1.703   6.167 -0.8649 -0.1387  0.1296
 3575SOL    HW122361   0.515   1.795   6.142 -1.8947 -0.3953 -0.9779
 3575SOL    HW222362   0.594   1.669   6.135  0.0890  3.0879 -0.8019
 3576SOL     OW22363   3.101   3.263   1.951  0.1506 -0.2599 -0.2130
 3576SOL    HW122364   3.143   3.298   1.873  0.2539  2.6183  1.1602
 3576SOL    HW222365   3.125   3.170   1.943  1.0110 -0.0612  0.0836
 3577SOL     OW22366   4.504   2.581   1.063 -0.5408  0.1011  0.4123
 3577SOL    HW122367   4.431   2.520   1.073 -0.1718 -0.5897 -1.1228
 3577SOL    HW222368   4.532   2.607   1.151 -2.9869 -0.1501  1.2645
 3578SOL     OW22369   0.155   1.133   5.292  0.1268 -0.4261  0.3018
 3578SOL    HW122370   0.224   1.127   5.227  0.0919 -0.0782  0.2279
 3578SOL    HW222371   0.112   1.217   5.273  1.5806  0.3781  0.5310
 3579SOL     OW22372   3.407   2.442   3.531 -0.2290 -0.1680  0.6864
 3579SOL    HW122373   3.441   2.469   3.446  0.7141 -1.0021  0.7973
 3579SOL    HW222374   3.384   2.351   3.513 -0.7171  0.2689 -0.9296
 3580SOL     OW22375   1.786   4.655   6.338 -0.4942  0.5211  0.6432
 3580SOL    HW122376   1.787   4.615   6.425  0.2108 -1.3265 -0.2072
 3580SOL    HW222377   1.860   4.715   6.329 -0.0585 -0.5177 -2.7016
 3581SOL     OW22378   0.785   1.021   0.858 -0.7859 -0.1429  0.2148
 3581SOL    HW122379   0.702   1.066   0.876 -0.2942 -0.4443  3.1101
 3581SOL    HW222380   0.757   0.953   0.796 -1.7816 -1.4015  2.0300
 3582SOL     OW22381   3.181   3.533  13.503  0.3107 -0.0733  0.2466
 3582SOL    HW122382   3.220   3.458  13.548 -2.4615 -2.2403 -0.9135
 3582SOL    HW222383   3.095   3.526  13.545 -0.6845  0.0067 -1.7714
 3583SOL     OW22384   0.686   4.044  12.282  0.4269  0.9662  0.0774
 3583SOL    HW122385   0.715   3.953  12.271  0.3601  0.8297  1.0376
 3583SOL    HW222386   0.680   4.057  12.377  1.0761 -1.5933  0.4559
 3584SOL     OW22387   1.560   3.451   1.575 -0.0547 -0.6136 -0.0813
 3584SOL    HW122388   1.558   3.437   1.480  0.6445 -1.1476 -0.0112
 3584SOL    HW222389   1.522   3.374   1.617 -1.8229  1.1924  1.6571
 3585SOL     OW22390   1.187   0.120   0.577 -0.3228  0.6699 -0.1157
 3585SOL    HW122391   1.188   0.170   0.495  2.9874 -0.8234 -0.9863
 3585SOL    HW222392   1.266   0.137   0.628 -0.6334  2.3684 -0.1934
 3586SOL     OW22393   1.027   3.997   3.406  0.4224 -0.0841  0.1788
 3586SOL    HW122394   0.942   3.991   3.450 -0.9787 -1.6176 -2.7107
 3586SOL    HW222395   1.053   4.083   3.441 -0.3571  0.2490 -0.0641
 3587SOL     OW22396   0.228   3.332   3.992  0.0383 -0.0912 -0.9771
 3587SOL    HW122397   0.295   3.390   4.027 -0.7890  0.2306  0.0570
 3587SOL    HW222398   0.228   3.351   3.898 -0.0104  4.0021 -0.1571
 3588SOL     OW22399   0.763   2.584   0.319  0.6354  0.0543  0.2081
 3588SOL    HW122400   0.791   2.500   0.354 -0.6216  0.1957  1.5484
 3588SOL    HW222401   0.680   2.565   0.274  0.3534 -0.5509  0.9892
 3589SOL     OW22402   1.592   3.347  12.540 -0.0377  0.1483 -0.4328
 3589SOL    HW122403   1.531   3.331  12.467  1.4757 -0.9688 -1.4422
 3589SOL    HW222404   1.529   3.366  12.610  1.0088 -0.1324  0.5777
 3590SOL     OW22405   4.120   2.519   0.232  1.0799 -0.4391  0.4573
 3590SOL    HW122406   4.162   2.604   0.249  1.5692 -1.1075  2.5767
 3590SOL    HW222407   4.101   2.487   0.320 -2.1913 -0.9571 -0.4201
 3591SOL     OW22408   3.815   4.031   7.357  0.1550 -0.1016 -0.3724
 3591SOL    HW122409   3.851   3.996   7.438 -0.6553  0.1889  0.1130
 3591SOL    HW222410   3.726   4.059   7.380 -1.0137 -3.0915 -1.2950
 3592SOL     OW22411   4.239   2.049   9.595 -0.2346  0.9515 -0.5052
 3592SOL    HW122412   4.277   2.029   9.680 -1.7817  0.0730 -0.0247
 3592SOL    HW222413   4.278   2.132   9.565  3.0638 -0.0397  1.1100
 3593SOL     OW22414   1.544   4.524  13.460 -0.1588  0.1432 -0.0715
 3593SOL    HW122415   1.450   4.507  13.452 -0.0543  0.0079 -1.0160
 3593SOL    HW222416   1.567   4.459  13.526  1.1802  1.1831  0.4961
 3594SOL     OW22417   0.805   3.903  15.294 -0.1883 -0.4869  0.2581
 3594SOL    HW122418   0.807   3.998  15.307 -3.5786 -0.5815  1.4527
 3594SOL    HW222419   0.736   3.869  15.351  2.1701 -2.0339  2.2034
 3595SOL     OW22420   1.277   3.576   8.565 -0.0085 -0.3883  0.1357
 3595SOL    HW122421   1.370   3.588   8.587 -0.3507  3.7915 -0.6862
 3595SOL    HW222422   1.244   3.548   8.651 -0.0933 -1.1127 -0.1378
 3596SOL     OW22423   1.501   0.506   0.482  0.7137 -0.5674  0.0646
 3596SOL    HW122424   1.535   0.595   0.491  1.7821 -0.8506 -1.1234
 3596SOL    HW222425   1.437   0.493   0.552  1.4024 -0.5916  0.6913
 3597SOL     OW22426   1.935   1.812   4.920 -0.1029 -0.2466  0.1527
 3597SOL    HW122427   1.845   1.810   4.889 -0.5495 -1.8444  1.5899
 3597SOL    HW222428   1.937   1.867   4.998  2.2221 -0.1986  0.0820
 3598SOL     OW22429   2.192   0.742   9.619  0.1512  0.5822 -0.1518
 3598SOL    HW122430   2.220   0.753   9.528 -1.5519  0.8248 -0.6463
 3598SOL    HW222431   2.269   0.767   9.670  0.0230 -0.9481  0.7964
 3599SOL     OW22432   3.406   2.798   8.905  0.1582  0.1543 -0.2776
 3599SOL    HW122433   3.408   2.796   8.810  0.1282 -1.9194 -0.2427
 3599SOL    HW222434   3.311   2.805   8.918  0.2584 -1.4221  1.3246
 3600SOL     OW22435   0.383   4.223  11.722 -0.5308 -0.2308 -0.2049
 3600SOL    HW122436   0.450   4.244  11.787 -0.0217 -3.8136  0.4433
 3600SOL    HW222437   0.412   4.257  11.637  1.6013 -1.6518 -0.0499
 3601SOL     OW22438   0.783   3.893   3.415 -0.3598 -0.0151  0.6951
 3601SOL    HW122439   0.841   3.848   3.354 -3.0559 -1.0081 -1.1171
 3601SOL    HW222440   0.690   3.882   3.395 -0.2382  1.9750 -0.9962
 3602SOL     OW22441   2.080   1.080  10.228 -0.3888 -0.0372 -0.2807
 3602SOL    HW122442   1.986   1.068  10.237 -0.5262 -0.2904 -2.0747
 3602SOL    HW222443   2.118   0.994  10.246  2.1458  0.9429 -0.8605
 3603SOL     OW22444   2.454   1.924   7.411  0.0494  0.4642  0.1436
 3603SOL    HW122445   2.424   1.917   7.320  1.3047  0.7996 -0.2896
 3603SOL    HW222446   2.489   2.013   7.408 -4.0546  2.1258  1.3678
 3604SOL     OW22447   2.741   0.758   5.354  0.2597  0.3319 -0.2785
 3604SOL    HW122448   2.773   0.714   5.276  1.4792  0.7609 -0.0189
 3604SOL    HW222449   2.728   0.690   5.420 -2.5518  0.2948 -0.8655
 3605SOL     OW22450   1.282   2.937   3.766  0.0329  0.5014 -0.0213
 3605SOL    HW122451   1.198   2.983   3.759  0.0395  0.5426  0.1826
 3605SOL    HW222452   1.334   2.998   3.817  0.2994  1.7830 -1.8038
 3606SOL     OW22453   1.575   1.908   1.353  0.2220  0.3441 -0.5284
 3606SOL    HW122454   1.592   1.814   1.361  0.2157  0.4797  0.9150
 3606SOL    HW222455   1.486   1.890   1.324 -0.8317 -0.6640  3.4574
 3607SOL     OW22456   3.673   4.345  17.406  0.2682 -0.3619 -0.1648
 3607SOL    HW122457   3.595   4.300  17.375  0.1043 -0.9102  1.0721
 3607SOL    HW222458   3.638   4.423  17.448  0.7688  1.4537 -3.1341
 3608SOL     OW22459   3.138   3.624   8.786 -0.8188  0.2392  0.1143
 3608SOL    HW122460   3.194   3.634   8.710 -1.6685  1.1419 -0.3863
 3608SOL    HW222461   3.131   3.530   8.805  2.3949  0.0663  0.3832
 3609SOL     OW22462   1.615   3.846   2.040  0.1702 -0.0088  0.5636
 3609SOL    HW122463   1.676   3.794   1.988 -0.0695 -0.5113  0.7748
 3609SOL    HW222464   1.605   3.919   1.980  0.9558 -1.6012 -1.5136
 3610SOL     OW22465   2.830   3.612   4.705  0.2112 -0.1125  0.2456
 3610SOL    HW122466   2.768   3.639   4.772  0.8622  0.7636  0.4880
 3610SOL    HW222467   2.821   3.681   4.640 -2.1287 -0.4185  0.2315
 3611SOL     OW22468   3.690   3.468  16.251  0.1013 -0.0214 -0.1863
 3611SOL    HW122469   3.703   3.378  16.222  0.0191  0.8540 -2.9597
 3611SOL    HW222470   3.610   3.500  16.209  2.8664  3.3727 -2.9079
 3612SOL     OW22471   0.718   1.408  15.788  1.0024  0.0166  0.7748
 3612SOL    HW122472   0.685   1.414  15.699 -0.6334  1.1555  1.4604
 3612SOL    HW222473   0.700   1.501  15.801  0.2394 -0.0860  0.4416
 3613SOL     OW22474   4.055   0.798   3.874  0.2226  0.2461 -0.4943
 3613SOL    HW122475   4.073   0.707   3.849 -2.1830 -0.4690  0.3108
 3613SOL    HW222476   4.138   0.824   3.912 -0.0519 -0.9572  0.9070
 3614SOL     OW22477   3.033   4.320  11.680  0.0963 -0.2998 -0.0960
 3614SOL    HW122478   3.057   4.412  11.673 -1.5138  0.1586  0.5793
 3614SOL    HW222479   2.959   4.302  11.623  1.2398  2.2031 -2.3847
 3615SOL     OW22480   4.082   0.639   5.940  0.5384 -0.2695 -0.2386
 3615SOL    HW122481   4.002   0.590   5.957  0.0353 -0.1156 -2.1316
 3615SOL    HW222482   4.143   0.588   5.994  0.7267  2.0710  1.7644
 3616SOL     OW22483   2.072   3.354  17.456 -0.0644 -0.3678 -0.1401
 3616SOL    HW122484   2.035   3.441  17.442 -0.7426 -0.5663  0.4323
 3616SOL    HW222485   2.015   3.315  17.523 -0.2469  1.0153  0.5010
 3617SOL     OW22486   0.220   1.655   6.031  0.6179 -0.4192 -0.0153
 3617SOL    HW122487   0.203   1.749   6.021  2.7330  0.1556  1.6945
 3617SOL    HW222488   0.166   1.616   5.962 -0.9213 -0.7271  1.3601
 3618SOL     OW22489   0.256   2.005   4.680  0.1147 -0.1034 -0.8544
 3618SOL    HW122490   0.194   2.046   4.619 -1.0399 -2.2053 -1.1154
 3618SOL    HW222491   0.212   1.925   4.709  0.6599 -0.8841 -2.2356
 3619SOL     OW22492   2.341   0.173   5.536 -0.2952 -0.3612 -0.1565
 3619SOL    HW122493   2.421   0.144   5.580 -0.1254  0.6030  0.1554
 3619SOL    HW222494   2.318   0.102   5.477 -0.1631 -0.8419  0.3624
 3620SOL     OW22495   1.888   2.370   8.151  0.6271 -0.3205 -0.3554
 3620SOL    HW122496   1.949   2.299   8.169 -0.0485 -1.2117 -1.5612
 3620SOL    HW222497   1.810   2.339   8.197 -0.6121  0.7965 -1.6963
 3621SOL     OW22498   1.767   0.131   8.042  0.2738  0.0405 -0.1428
 3621SOL    HW122499   1.729   0.165   7.961 -0.7046  2.4529  1.3334
 3621SOL    HW222500   1.732   0.189   8.110  1.2111  2.1526 -1.4584
 3622SOL     OW22501   2.566   3.587   1.159  0.2401  0.0392 -0.4399
 3622SOL    HW122502   2.481   3.583   1.116  1.0728 -2.7045 -1.8272
 3622SOL    HW222503   2.593   3.495   1.166  1.4480  0.5161  1.1190
 3623SOL     OW22504   3.600   1.500   5.899 -0.4518  0.0508  0.0498
 3623SOL    HW122505   3.624   1.590   5.876 -0.1179  0.0293  0.3053
 3623SOL    HW222506   3.661   1.478   5.970 -0.2094  0.3003 -0.0805
 3624SOL     OW22507   3.245   2.097   3.235 -0.1619 -0.3529 -0.1275
 3624SOL    HW122508   3.233   2.114   3.141 -1.4829 -0.1749  0.0761
 3624SOL    HW222509   3.230   2.003   3.225 -0.1118 -0.2818 -0.8774
 3625SOL     OW22510   3.890   0.506  10.788 -0.5363 -0.3494  0.0141
 3625SOL    HW122511   3.931   0.593  10.786  0.2713 -0.7144  0.5662
 3625SOL    HW222512   3.949   0.464  10.851  0.0403  2.0577  1.1169
 3626SOL     OW22513   0.649   0.749  11.516  0.3584 -1.3136  0.0397
 3626SOL    HW122514   0.693   0.826  11.551  2.6683 -1.8456 -1.6443
 3626SOL    HW222515   0.649   0.757  11.420  1.9993  3.3106  0.4507
 3627SOL     OW22516   1.581   3.283   7.473 -0.3177  0.0587  0.0324
 3627SOL    HW122517   1.592   3.261   7.565 -0.4858 -1.4183 -0.2999
 3627SOL    HW222518   1.494   3.324   7.468 -0.1880  0.6287  2.2381
 3628SOL     OW22519   4.446   1.657  16.716 -0.0692  0.2869  0.4525
 3628SOL    HW122520   4.359   1.659  16.758 -1.0984  0.6018 -1.6928
 3628SOL    HW222521   4.418   1.637  16.627 -3.2730 -0.7853  1.7003
 3629SOL     OW22522   2.877   0.559   7.605  0.2886  0.2856 -0.1078
 3629SOL    HW122523   2.890   0.650   7.578 -0.0461  0.4676  0.3476
 3629SOL    HW222524   2.917   0.562   7.692  0.3418  2.3463 -0.2048
 3630SOL     OW22525   2.397   2.491   5.585 -0.2450  0.1934 -0.2472
 3630SOL    HW122526   2.482   2.447   5.578 -0.6293 -0.4542 -0.8226
 3630SOL    HW222527   2.379   2.485   5.491  0.6853  1.6591 -0.5177
 3631SOL     OW22528   1.201   1.060   5.912  0.5847 -0.2432 -0.4862
 3631SOL    HW122529   1.160   1.058   5.998  3.4485 -1.8553  0.8270
 3631SOL    HW222530   1.235   1.150   5.910  2.3827 -0.8929  1.3751
 3632SOL     OW22531   1.176   2.478   4.779  0.3862 -0.7964  0.2457
 3632SOL    HW122532   1.214   2.392   4.760 -0.5676 -0.4714 -3.1658
 3632SOL    HW222533   1.231   2.514   4.849 -0.4845  1.7591 -0.3735
 3633SOL     OW22534   2.773   0.490  15.257 -0.0610 -0.9481 -0.0196
 3633SOL    HW122535   2.837   0.468  15.325 -1.3419  0.4381  1.6457
 3633SOL    HW222536   2.827   0.513  15.181  2.4654  2.3177  2.7477
 3634SOL     OW22537   1.026   4.720   8.240 -0.3406 -0.2537  0.3176
 3634SOL    HW122538   1.044   0.071   8.275 -3.0661  0.4042  0.1046
 3634SOL    HW222539   1.012   4.731   8.146  3.0071  2.6738  0.1433
 3635SOL     OW22540   2.789   3.738   7.374 -0.2532  0.3108  0.4467
 3635SOL    HW122541   2.828   3.803   7.431 -1.3610  1.0376  0.3758
 3635SOL    HW222542   2.794   3.776   7.286  1.9616 -1.3534 -0.1583
 3636SOL     OW22543   3.335   4.225  12.405 -0.2751  0.2706  0.0331
 3636SOL    HW122544   3.379   4.161  12.460 -0.6451  2.3244  2.7302
 3636SOL    HW222545   3.290   4.277  12.471  2.5586  1.0638  1.3191
 3637SOL     OW22546   1.544   1.591   8.132  0.3688  0.3842 -0.3533
 3637SOL    HW122547   1.626   1.546   8.153 -0.1429 -1.1031 -1.5373
 3637SOL    HW222548   1.485   1.531   8.085  0.5025 -0.3431  0.3886
 3638SOL     OW22549   2.651   1.323   5.268 -0.2731 -0.4513 -0.5102
 3638SOL    HW122550   2.679   1.265   5.197  0.1755 -0.9975  0.1085
 3638SOL    HW222551   2.738   1.329   5.308  0.6343  2.5415 -2.8985
 3639SOL     OW22552   0.235   0.766   8.022  0.0957  0.3833  0.4595
 3639SOL    HW122553   0.190   0.704   8.078 -0.4328  1.3265  1.0757
 3639SOL    HW222554   0.315   0.719   7.998 -0.0847  0.8530 -1.0811
 3640SOL     OW22555   1.983   1.075   7.181 -0.2294  0.3048  0.4543
 3640SOL    HW122556   1.888   1.069   7.164  0.0115 -0.9697 -0.4640
 3640SOL    HW222557   2.001   1.168   7.167 -1.0554  0.0968 -2.1288
 3641SOL     OW22558   0.882   2.481   3.673  0.5780  0.3616 -0.2082
 3641SOL    HW122559   0.952   2.434   3.718  0.2756 -0.5293 -0.6667
 3641SOL    HW222560   0.815   2.416   3.694  1.1082 -0.2393 -0.3516
 3642SOL     OW22561   2.173   4.167   4.410 -0.4245 -0.3599 -0.2530
 3642SOL    HW122562   2.165   4.253   4.370  1.2341  0.4163  1.1079
 3642SOL    HW222563   2.094   4.158   4.464 -1.3590 -0.1672 -1.5931
 3643SOL     OW22564   1.616   3.268  12.895  0.0231  0.1607  0.4937
 3643SOL    HW122565   1.674   3.245  12.822 -0.3726 -0.8956  0.5181
 3643SOL    HW222566   1.620   3.363  12.888 -0.9146  0.3506  2.6281
 3644SOL     OW22567   2.613   3.056   7.393 -0.1156 -0.0731 -0.2116
 3644SOL    HW122568   2.654   3.013   7.318 -1.6921 -2.1425  0.1215
 3644SOL    HW222569   2.546   3.114   7.357 -0.8755  0.6730  2.4070
 3645SOL     OW22570   1.912   4.280  17.232  0.3844 -0.3484  0.0304
 3645SOL    HW122571   1.980   4.347  17.228  0.5178 -0.5605 -1.4252
 3645SOL    HW222572   1.861   4.312  17.157 -1.4830  1.5987  2.1197
 3646SOL     OW22573   2.968   4.047  10.708 -0.3830 -0.1318  0.6137
 3646SOL    HW122574   3.034   3.998  10.757  0.7218  1.5528  0.8433
 3646SOL    HW222575   2.995   4.138  10.725  0.9020 -0.2446 -0.7317
 3647SOL     OW22576   4.117   2.181   6.618 -0.0434  0.3625 -0.6765
 3647SOL    HW122577   4.060   2.180   6.695  2.8464  1.8511  1.4555
 3647SOL    HW222578   4.167   2.262   6.628  0.8306 -0.4933  1.8575
 3648SOL     OW22579   0.694   3.794  16.438 -0.4518  0.0727  0.1366
 3648SOL    HW122580   0.717   3.744  16.359 -2.9075  1.3435 -1.3611
 3648SOL    HW222581   0.773   3.788  16.491 -0.9942  1.4825  1.0746
 3649SOL     OW22582   0.828   4.512   0.675  0.1374 -0.0308  0.2323
 3649SOL    HW122583   0.909   4.461   0.670 -0.7902 -1.5268  0.3678
 3649SOL    HW222584   0.839   4.573   0.603 -0.8010  0.4941  0.5173
 3650SOL     OW22585   0.606   3.357   8.611 -0.1457  0.3127  0.1606
 3650SOL    HW122586   0.670   3.314   8.555  0.8466  1.1901  0.6141
 3650SOL    HW222587   0.624   3.313   8.694  0.2715  1.7162  0.8154
 3651SOL     OW22588   3.852   4.591   0.486 -0.4374  0.6071 -0.1984
 3651SOL    HW122589   3.901   4.533   0.428 -0.0857 -0.2405  0.9400
 3651SOL    HW222590   3.904   4.581   0.566  1.2149 -1.0143 -1.4814
 3652SOL     OW22591   3.633   1.394   1.110 -0.4257  0.0637 -0.8005
 3652SOL    HW122592   3.704   1.457   1.105  0.1164 -0.8441 -4.3791
 3652SOL    HW222593   3.626   1.390   1.206  0.7666  0.2877 -0.7067
 3653SOL     OW22594   0.134   3.817   5.256 -0.0898 -0.5629  0.0013
 3653SOL    HW122595   0.175   3.896   5.291  0.8341 -1.9588  2.0745
 3653SOL    HW222596   0.190   3.756   5.303  1.6939 -1.5303 -3.3627
 3654SOL     OW22597   2.091   2.869   9.359 -0.1857 -0.0730  0.1828
 3654SOL    HW122598   2.100   2.815   9.437  0.1403 -0.9852 -0.4845
 3654SOL    HW222599   2.029   2.816   9.308  0.8713 -1.4480  0.3216
 3655SOL     OW22600   3.838   3.471   7.079  0.1236  0.0393 -0.8673
 3655SOL    HW122601   3.767   3.516   7.034 -0.7995 -1.2358 -0.7059
 3655SOL    HW222602   3.912   3.531   7.085 -0.4294  0.7259 -0.9026
 3656SOL     OW22603   0.516   4.194  13.903  0.3741 -0.1550 -0.1825
 3656SOL    HW122604   0.607   4.190  13.872  0.6534 -1.6075  0.8250
 3656SOL    HW222605   0.516   4.106  13.940 -2.6330  0.3474  0.9773
 3657SOL     OW22606   1.489   3.721   5.616  0.3236 -0.6126  0.1223
 3657SOL    HW122607   1.420   3.673   5.662  0.1860 -1.6915 -1.2013
 3657SOL    HW222608   1.572   3.695   5.655 -0.2787  0.1707  1.9128
 3658SOL     OW22609   0.728   0.734   3.270  0.4027  0.3564 -0.1098
 3658SOL    HW122610   0.689   0.815   3.301  0.6458  0.6270 -0.5193
 3658SOL    HW222611   0.792   0.762   3.206 -0.3619 -2.3855 -2.0572
 3659SOL     OW22612   4.668   1.076   2.407  0.4446  0.2014  0.2466
 3659SOL    HW122613   0.022   1.049   2.385 -0.3004 -2.3404  0.3900
 3659SOL    HW222614   4.640   1.001   2.458 -1.4466 -0.4707 -1.8282
 3660SOL     OW22615   3.400   2.192   4.463 -0.0010  0.0509 -0.4381
 3660SOL    HW122616   3.451   2.180   4.543 -1.5250 -3.2702  0.0280
 3660SOL    HW222617   3.361   2.105   4.457 -0.1854  0.1958 -1.2960
 3661SOL     OW22618   2.461   0.691   2.441 -0.0697  0.4184 -0.6006
 3661SOL    HW122619   2.456   0.755   2.369  0.1618  1.6973  0.5318
 3661SOL    HW222620   2.388   0.630   2.426  0.2567  0.1322 -1.0305
 3662SOL     OW22621   0.270   1.921   6.736  0.2581  0.5277 -0.2592
 3662SOL    HW122622   0.248   1.907   6.828  1.0411  3.8229  0.4106
 3662SOL    HW222623   0.311   2.007   6.734 -0.3139  0.8222  0.8775
 3663SOL     OW22624   1.785   4.524  15.878 -0.5805  0.8494 -0.1825
 3663SOL    HW122625   1.745   4.581  15.944  1.2443  0.7112  1.0348
 3663SOL    HW222626   1.790   4.585  15.805 -1.3927 -0.5857 -1.4378
 3664SOL     OW22627   4.247   3.292   8.660 -0.0751  0.1586 -0.4602
 3664SOL    HW122628   4.342   3.281   8.661  0.0347  0.8465 -2.5999
 3664SOL    HW222629   4.239   3.366   8.600 -3.4212 -0.8252 -1.2059
 3665SOL     OW22630   3.580   0.752   8.469 -0.2278  0.3184  0.0742
 3665SOL    HW122631   3.512   0.805   8.509 -1.4894 -1.1960 -0.0558
 3665SOL    HW222632   3.582   0.688   8.540  1.5416 -1.0197 -1.1815
 3666SOL     OW22633   1.911   3.157  13.095 -0.0439  0.9747 -0.5629
 3666SOL    HW122634   1.952   3.234  13.056  0.4367 -0.0306 -2.0667
 3666SOL    HW222635   1.884   3.103  13.020 -0.6778 -0.2762  0.5667
 3667SOL     OW22636   2.820   1.642   7.298 -0.0825  0.7432  0.0926
 3667SOL    HW122637   2.854   1.723   7.334 -0.1211  0.0989  1.5876
 3667SOL    HW222638   2.733   1.640   7.338  0.8941 -3.0613  2.1303
 3668SOL     OW22639   2.808   1.529   3.793 -0.0650 -0.3775  0.5761
 3668SOL    HW122640   2.745   1.552   3.861  0.6555 -1.6163  1.6523
 3668SOL    HW222641   2.766   1.445   3.777  2.0815 -1.4694  0.6837
 3669SOL     OW22642   2.880   1.935   8.651 -0.5104  0.4795  0.1969
 3669SOL    HW122643   2.918   1.996   8.714 -2.2565  0.2259  1.4998
 3669SOL    HW222644   2.884   1.976   8.565  1.0862  1.1460  0.5812
 3670SOL     OW22645   0.434   3.397  16.719 -0.1830  0.1633  0.5583
 3670SOL    HW122646   0.526   3.370  16.723 -0.5477 -1.0156  0.7455
 3670SOL    HW222647   0.443   3.470  16.658  1.1341 -0.8278 -0.4263
 3671SOL     OW22648   4.560   2.005   7.950  0.1498  0.5719 -0.1596
 3671SOL    HW122649   4.586   1.918   7.979 -0.3317  0.1463 -0.9916
 3671SOL    HW222650   4.540   1.984   7.859  0.9659 -0.8325 -0.0144
 3672SOL     OW22651   3.604   1.416   9.068  0.3879 -0.0431 -0.0785
 3672SOL    HW122652   3.634   1.482   9.131 -2.3396 -0.4360  1.6355
 3672SOL    HW222653   3.685   1.381   9.030  0.5441 -1.0451  1.1683
 3673SOL     OW22654   1.491   0.548   5.880  0.0633 -0.2952 -0.1409
 3673SOL    HW122655   1.527   0.539   5.791  1.1277 -0.7824  0.3396
 3673SOL    HW222656   1.550   0.491   5.930  0.5771 -0.5920 -1.0842
 3674SOL     OW22657   0.769   3.381   5.270 -0.0332  0.1358  0.2176
 3674SOL    HW122658   0.705   3.309   5.264 -2.9116  2.7372 -0.0873
 3674SOL    HW222659   0.809   3.378   5.183 -0.9202 -1.7471 -0.1307
 3675SOL     OW22660   1.759   2.131   5.478  0.1082 -0.4143 -0.2228
 3675SOL    HW122661   1.790   2.072   5.409  1.7628 -0.9797  0.9929
 3675SOL    HW222662   1.796   2.102   5.561 -3.3088 -0.6890  1.1894
 3676SOL     OW22663   0.928   4.160   0.957 -0.1249 -0.5067 -0.3656
 3676SOL    HW122664   1.001   4.205   1.000 -0.8050 -1.0520  1.3606
 3676SOL    HW222665   0.887   4.237   0.917  2.4071  1.7757  1.4350
 3677SOL     OW22666   0.551   3.471   2.438 -0.5256 -0.4659  0.2801
 3677SOL    HW122667   0.487   3.402   2.419 -0.8625 -0.5710  1.8177
 3677SOL    HW222668   0.631   3.419   2.443  0.5068  1.0811 -0.1037
 3678SOL     OW22669   3.595   1.072   8.732  0.2105 -0.4201  0.0016
 3678SOL    HW122670   3.512   1.027   8.741 -0.0452 -0.2110 -1.3638
 3678SOL    HW222671   3.651   1.000   8.762 -1.6391  0.0396  4.5579
 3679SOL     OW22672   0.077   4.561   7.809  0.2771  0.1223 -0.3890
 3679SOL    HW122673   0.081   4.467   7.827  0.6187  0.4725  1.3298
 3679SOL    HW222674   0.097   4.559   7.715  0.7382  1.8604 -0.3212
 3680SOL     OW22675   4.181   2.400   9.151  0.3467 -0.3514 -0.0220
 3680SOL    HW122676   4.271   2.432   9.138 -0.0813  0.4023 -1.1331
 3680SOL    HW222677   4.193   2.308   9.129 -1.6753 -0.7730  0.6370
 3681SOL     OW22678   1.106   2.083   8.671 -0.2592 -0.0803 -0.6270
 3681SOL    HW122679   1.152   2.048   8.595 -0.1724 -0.7180 -0.2849
 3681SOL    HW222680   1.181   2.125   8.714  0.0955 -1.4673  0.0921
 3682SOL     OW22681   2.482   0.408  14.710  0.3233 -0.2787  0.0213
 3682SOL    HW122682   2.566   0.453  14.702  0.3373 -0.2890  0.1184
 3682SOL    HW222683   2.453   0.411  14.801  2.1910  0.9342  0.5589
 3683SOL     OW22684   1.426   2.242   4.358  0.1722 -0.6634 -0.1812
 3683SOL    HW122685   1.348   2.186   4.364  0.6709 -1.3356 -0.0362
 3683SOL    HW222686   1.489   2.173   4.379 -0.9937 -1.0105  2.2150
 3684SOL     OW22687   3.473   3.554  11.583  0.4465  0.0420 -0.4180
 3684SOL    HW122688   3.436   3.587  11.501  1.8900 -1.1954 -1.5658
 3684SOL    HW222689   3.449   3.462  11.578  1.5777 -0.2791 -0.0331
 3685SOL     OW22690   3.587   2.539   4.086 -0.4782 -0.3223 -0.5311
 3685SOL    HW122691   3.568   2.473   4.152 -2.1468  0.6530 -0.0312
 3685SOL    HW222692   3.515   2.602   4.097 -1.4842 -0.8246 -4.1086
 3686SOL     OW22693   3.314   3.479   5.508 -0.5530  0.3858  0.0422
 3686SOL    HW122694   3.251   3.422   5.465 -1.3919  1.1291  0.2900
 3686SOL    HW222695   3.254   3.546   5.542 -0.7648  1.0784 -1.6680
 3687SOL     OW22696   2.640   0.952  12.299 -0.4947  0.0634  0.2288
 3687SOL    HW122697   2.565   0.898  12.273  0.6649 -0.6439 -1.7251
 3687SOL    HW222698   2.655   0.912  12.384 -1.1665 -1.3233 -0.2942
 3688SOL     OW22699   3.486   1.616   8.305 -0.5895  0.6118 -0.0552
 3688SOL    HW122700   3.564   1.667   8.280 -0.3747 -0.0305 -0.7077
 3688SOL    HW222701   3.519   1.538   8.349 -1.1909  0.0293 -0.6520
 3689SOL     OW22702   0.162   1.708   6.329  0.1853  1.1816 -0.4833
 3689SOL    HW122703   0.182   1.775   6.393  0.8381 -1.5647  2.1745
 3689SOL    HW222704   0.105   1.762   6.274 -0.9056 -0.1240 -0.6478
 3690SOL     OW22705   1.053   2.261   5.704 -0.1980  0.3140 -0.1187
 3690SOL    HW122706   1.048   2.212   5.623 -1.2068  1.5006 -0.7703
 3690SOL    HW222707   1.059   2.196   5.774  1.1423  2.6292  1.9211
 3691SOL     OW22708   0.783   3.580   0.352 -0.3428  0.4327 -0.1137
 3691SOL    HW122709   0.688   3.571   0.343 -0.0591 -2.2941 -0.4132
 3691SOL    HW222710   0.810   3.491   0.330  0.8425  0.5090  1.0309
 3692SOL     OW22711   3.237   4.248   3.216  0.5008 -0.0387 -0.3953
 3692SOL    HW122712   3.284   4.172   3.249  0.6169  1.4949  3.0184
 3692SOL    HW222713   3.297   4.316   3.248  2.0384 -1.5231 -0.1290
 3693SOL     OW22714   0.846   4.159   4.678  0.8842  0.0839  0.1561
 3693SOL    HW122715   0.939   4.149   4.655  0.9060 -0.0068  0.2854
 3693SOL    HW222716   0.843   4.107   4.758  1.3915 -0.9024 -0.4581
 3694SOL     OW22717   2.367   4.113   2.255 -0.8785 -0.3821  0.4412
 3694SOL    HW122718   2.444   4.166   2.230 -1.0476 -0.0807  0.5604
 3694SOL    HW222719   2.380   4.050   2.183  0.3225  1.8493 -1.3214
 3695SOL     OW22720   2.527   0.082   4.008 -0.1421 -0.2323 -0.2375
 3695SOL    HW122721   2.532   0.177   4.012  1.2327 -0.3308  0.3621
 3695SOL    HW222722   2.576   0.073   4.089  0.3757  0.4904 -0.4702
 3696SOL     OW22723   2.182   3.302   6.411  0.5457  0.1034  0.4823
 3696SOL    HW122724   2.183   3.396   6.390 -2.2992  0.7865  3.4213
 3696SOL    HW222725   2.233   3.268   6.337  0.1250  0.2732  0.1143
 3697SOL     OW22726   1.074   0.183   6.295 -0.1739  0.1562  0.0220
 3697SOL    HW122727   1.168   0.168   6.291  0.4178  3.3077  1.6716
 3697SOL    HW222728   1.063   0.242   6.221 -0.5803 -2.8674 -2.2980
 3698SOL     OW22729   2.569   0.316   4.917 -0.0792 -0.3531  0.4555
 3698SOL    HW122730   2.562   0.356   4.830  3.1380 -0.4455  0.1816
 3698SOL    HW222731   2.659   0.284   4.919 -0.0516 -0.3069 -0.2107
 3699SOL     OW22732   0.395   3.246   8.288 -0.1533  0.2517 -0.3062
 3699SOL    HW122733   0.468   3.272   8.346  0.1089  2.1957 -1.5017
 3699SOL    HW222734   0.402   3.316   8.223  0.6741  0.3906 -0.0755
 3700SOL     OW22735   4.412   4.369  16.076 -0.4289  0.1407 -0.0837
 3700SOL    HW122736   4.410   4.352  15.982 -0.9465  1.1356 -0.2458
 3700SOL    HW222737   4.502   4.346  16.099  0.0940  1.9270 -0.3890
 3701SOL     OW22738   4.437   4.657   3.161 -0.3106  0.0103 -0.4188
 3701SOL    HW122739   4.531   4.677   3.166 -0.2773  0.0536 -1.3661
 3701SOL    HW222740   4.402   4.732   3.210  0.2961 -1.3034  2.0529
 3702SOL     OW22741   1.574   2.163   2.107 -0.2702 -0.1621 -0.0420
 3702SOL    HW122742   1.518   2.118   2.044  1.0021 -1.8370  0.0262
 3702SOL    HW222743   1.516   2.239   2.120  2.1929  1.8463 -0.7067
 3703SOL     OW22744   3.402   3.041  16.516 -0.2025  0.0355  0.2953
 3703SOL    HW122745   3.461   3.112  16.492 -1.4628  1.0809  0.2478
 3703SOL    HW222746   3.416   3.031  16.610  1.1473  2.0752  0.3142
 3704SOL     OW22747   1.834   3.971   3.519  0.2224  0.3645  0.2115
 3704SOL    HW122748   1.868   3.916   3.448  0.1257  0.6837 -0.0762
 3704SOL    HW222749   1.902   3.977   3.587 -2.4020  2.5149  2.6353
 3705SOL     OW22750   3.983   2.267  14.507 -0.4635 -0.4033  0.0686
 3705SOL    HW122751   4.000   2.347  14.457 -1.0678  0.4462  1.2297
 3705SOL    HW222752   4.068   2.223  14.497  0.2487  1.0744 -0.3434
 3706SOL     OW22753   3.259   1.701  17.043  0.3008  0.8431  0.2663
 3706SOL    HW122754   3.184   1.663  17.088  1.3137  0.8173  1.9741
 3706SOL    HW222755   3.331   1.714  17.106  2.6925 -0.9184 -2.0900
 3707SOL     OW22756   0.240   1.376   7.583  0.1933  0.6679 -0.8820
 3707SOL    HW122757   0.312   1.345   7.638 -1.0035 -0.2222  0.1997
 3707SOL    HW222758   0.174   1.409   7.644  0.1404 -0.5546 -0.2800
 3708SOL     OW22759   3.852   2.711  14.713 -0.4600 -0.0742 -0.7523
 3708SOL    HW122760   3.940   2.676  14.704 -0.4505  0.3160 -2.0747
 3708SOL    HW222761   3.816   2.667  14.790 -0.1399  0.6760 -0.1754
 3709SOL     OW22762   2.679   0.357   8.847  0.1439  0.7501 -0.4246
 3709SOL    HW122763   2.587   0.344   8.824 -0.0099  1.6437 -0.2747
 3709SOL    HW222764   2.681   0.394   8.935  1.5888 -1.4446  0.4855
 3710SOL     OW22765   0.998   1.843   0.122 -0.2984  0.3562 -0.4331
 3710SOL    HW122766   0.941   1.913   0.090 -1.5821 -0.2748  0.4608
 3710SOL    HW222767   1.081   1.868   0.081 -0.0611 -1.7157 -1.2501
 3711SOL     OW22768   3.552   1.635  13.696  0.2786 -0.4354  0.5753
 3711SOL    HW122769   3.521   1.725  13.688  0.9874 -0.1898  0.6067
 3711SOL    HW222770   3.476   1.588  13.661  0.7198 -0.4643 -0.3415
 3712SOL     OW22771   3.452   1.925   8.801  0.5569  0.4603  0.3122
 3712SOL    HW122772   3.483   1.876   8.725 -0.6182 -0.8695  0.6881
 3712SOL    HW222773   3.496   1.879   8.872 -0.7748  0.0141  0.8531
 3713SOL     OW22774   0.857   1.634  14.545 -0.1170 -0.6550  0.2588
 3713SOL    HW122775   0.862   1.539  14.534 -1.6831 -0.6698 -0.3008
 3713SOL    HW222776   0.934   1.657  14.493 -0.1399  0.7257  0.8291
 3714SOL     OW22777   1.016   1.233   9.121  0.1937  0.3983 -0.5026
 3714SOL    HW122778   1.078   1.215   9.051  0.2319  0.8984 -0.5963
 3714SOL    HW222779   1.072   1.269   9.190 -1.0190 -1.0747  1.2514
 3715SOL     OW22780   3.472   0.935   2.647 -0.0235  0.1391  0.2571
 3715SOL    HW122781   3.531   0.899   2.713  0.3400  0.0740 -0.1052
 3715SOL    HW222782   3.383   0.905   2.668  0.0056 -0.2316 -0.1593
 3716SOL     OW22783   0.295   0.270   2.940  0.0012 -0.3322 -1.0634
 3716SOL    HW122784   0.390   0.274   2.950 -0.2804 -0.4590  1.7854
 3716SOL    HW222785   0.269   0.349   2.893  1.7233  0.6923 -0.2934
 3717SOL     OW22786   3.999   0.871  13.251 -0.1943 -0.0741  0.3851
 3717SOL    HW122787   3.956   0.946  13.293 -1.3560  1.4306 -3.5759
 3717SOL    HW222788   3.919   0.835  13.214 -0.5452  0.6254  0.4491
 3718SOL     OW22789   3.075   3.679  14.121  0.2194  0.4766 -0.5425
 3718SOL    HW122790   3.134   3.686  14.197 -1.9926 -1.1266  1.3471
 3718SOL    HW222791   3.007   3.742  14.145  0.7529  0.3746  1.2485
 3719SOL     OW22792   4.723   2.724   3.256 -0.6966 -0.5570 -0.1593
 3719SOL    HW122793   4.727   2.649   3.316 -0.7726 -0.6389 -0.2566
 3719SOL    HW222794   4.629   2.739   3.251 -0.2397  1.9562 -0.9698
 3720SOL     OW22795   3.884   1.644   3.872  0.3954  0.0926  0.4542
 3720SOL    HW122796   3.813   1.708   3.870  0.1298 -0.2318 -0.8853
 3720SOL    HW222797   3.893   1.638   3.967  0.0865  0.2300  0.4907
 3721SOL     OW22798   2.922   0.370  17.595  0.3800  0.0589  0.0794
 3721SOL    HW122799   2.903   0.276  17.600 -0.0720  0.1059 -0.7143
 3721SOL    HW222800   3.012   0.377  17.563  0.1296 -1.5045 -0.9681
 3722SOL     OW22801   0.737   0.639   7.748  0.8753 -0.0890  0.2103
 3722SOL    HW122802   0.828   0.643   7.780  1.0713 -0.7169 -0.2665
 3722SOL    HW222803   0.722   0.545   7.747  3.4788 -0.5729  2.9003
 3723SOL     OW22804   2.667   3.704   4.926  0.0901  0.5259  0.8583
 3723SOL    HW122805   2.670   3.655   5.008  1.3961 -1.1456 -0.1887
 3723SOL    HW222806   2.659   3.787   4.974 -1.1902  0.2135  1.1882
 3724SOL     OW22807   3.837   2.055   7.607 -0.4849  0.1277 -0.1321
 3724SOL    HW122808   3.920   2.028   7.647  0.5387  1.3248 -1.4415
 3724SOL    HW222809   3.834   1.995   7.532  2.2584  0.3493 -0.4448
 3725SOL     OW22810   3.154   0.414   6.904  0.2458 -0.3313 -0.3263
 3725SOL    HW122811   3.146   0.390   6.996  2.5531  0.1267  0.0056
 3725SOL    HW222812   3.155   0.510   6.909 -5.1162 -0.2552 -0.1166
 3726SOL     OW22813   2.669   3.507   5.136  0.1229  0.1707 -0.2162
 3726SOL    HW122814   2.680   3.412   5.132  1.2831  0.2829  0.4153
 3726SOL    HW222815   2.641   3.515   5.227  0.4939  1.0752 -0.1873
 3727SOL     OW22816   2.086   0.845  16.432  0.2000 -0.0275  0.5674
 3727SOL    HW122817   2.027   0.785  16.478  1.6258 -1.8011  0.0706
 3727SOL    HW222818   2.018   0.885  16.378  0.2372  0.2542  0.7304
 3728SOL     OW22819   3.690   4.272  15.306 -0.3180  0.0958  0.4420
 3728SOL    HW122820   3.655   4.231  15.385 -1.7786 -1.6488 -1.0897
 3728SOL    HW222821   3.620   4.262  15.241  0.0202 -0.0975  0.1081
 3729SOL     OW22822   2.524   2.521   4.629 -0.7510  0.7744  0.3358
 3729SOL    HW122823   2.492   2.542   4.542 -1.5829  1.8185  0.8801
 3729SOL    HW222824   2.616   2.539   4.614  0.2632 -3.7004  1.2743
 3730SOL     OW22825   2.707   0.421  11.467 -0.5866 -0.4793 -1.0742
 3730SOL    HW122826   2.785   0.458  11.426  0.0242  1.1272  1.4954
 3730SOL    HW222827   2.657   0.500  11.490 -0.1381 -0.3038 -0.6983
 3731SOL     OW22828   4.303   2.122   8.538 -0.0729 -0.3938  0.3574
 3731SOL    HW122829   4.239   2.154   8.474  1.6030  0.8660 -0.6856
 3731SOL    HW222830   4.295   2.026   8.540  0.2302 -0.4083  0.7247
 3732SOL     OW22831   4.004   1.831   1.254  0.0859  0.7381  0.1579
 3732SOL    HW122832   3.993   1.918   1.217 -3.5155  0.3107  0.2014
 3732SOL    HW222833   4.099   1.823   1.251  0.1044  0.8982  0.3145
 3733SOL     OW22834   3.179   0.049   7.106  0.3831 -0.7939  0.0190
 3733SOL    HW122835   3.137   0.030   7.023 -0.9326  0.4072  0.4063
 3733SOL    HW222836   3.104   0.083   7.155  0.3419  1.3273 -1.5391
 3734SOL     OW22837   1.767   0.276   5.704 -0.0175 -0.3919  0.2379
 3734SOL    HW122838   1.836   0.247   5.645 -0.1249 -1.5880  0.7107
 3734SOL    HW222839   1.786   0.224   5.782  2.9999  2.5636  1.4822
 3735SOL     OW22840   3.614   1.752   8.948 -0.0137 -0.7487 -0.1318
 3735SOL    HW122841   3.691   1.807   8.931  2.5179 -3.3532  3.0089
 3735SOL    HW222842   3.648   1.669   8.981  1.3388 -0.5519 -1.0678
 3736SOL     OW22843   2.128   4.573  10.578 -1.0692 -0.1983 -0.1336
 3736SOL    HW122844   2.118   4.647  10.518 -0.3889  0.0254  0.0294
 3736SOL    HW222845   2.039   4.541  10.594 -2.2397  1.7680 -2.7482
 3737SOL     OW22846   3.793   0.137   2.408  0.5845  0.1875  0.6836
 3737SOL    HW122847   3.858   0.083   2.454 -0.5542 -2.6020 -0.9478
 3737SOL    HW222848   3.722   0.156   2.469  0.1013 -1.3929  0.6204
 3738SOL     OW22849   4.690   1.816   9.161  0.5505 -0.1040  0.2197
 3738SOL    HW122850   4.675   1.902   9.120 -0.7566 -1.1074 -1.3956
 3738SOL    HW222851   4.634   1.832   9.237 -0.7207  2.0588 -1.1730
 3739SOL     OW22852   2.263   1.825  17.571  0.6190  0.4858  0.1860
 3739SOL    HW122853   2.225   1.845  17.485  0.3995 -2.0832 -0.3164
 3739SOL    HW222854   2.220   1.890  17.627  1.9567  2.7178 -1.3503
 3740SOL     OW22855   0.822   0.611   8.933 -0.7340  0.1744 -0.0988
 3740SOL    HW122856   0.912   0.638   8.949 -1.1945  1.2199  0.7182
 3740SOL    HW222857   0.827   0.525   8.891  0.7212  0.1968  0.0192
 3741SOL     OW22858   1.804   3.634   5.409 -0.3974 -0.2496 -0.1007
 3741SOL    HW122859   1.740   3.612   5.341  0.5353 -2.3311 -0.2678
 3741SOL    HW222860   1.771   3.571   5.472 -0.1629  1.7603  2.0414
 3742SOL     OW22861   1.313   3.082   8.205 -0.4735  0.0807 -0.4358
 3742SOL    HW122862   1.224   3.118   8.201 -0.4983  0.1363  0.6179
 3742SOL    HW222863   1.338   3.097   8.296  0.2103 -1.3201 -0.4001
 3743SOL     OW22864   1.773   1.123  14.029 -0.1712  0.2681  0.2690
 3743SOL    HW122865   1.837   1.120  14.100 -0.0029  3.3676  0.2374
 3743SOL    HW222866   1.718   1.198  14.052  0.2269  0.5759  0.2054
 3744SOL     OW22867   3.593   4.175  17.122  0.0417  0.0008  0.4537
 3744SOL    HW122868   3.652   4.125  17.066 -1.0014 -1.2822  0.4808
 3744SOL    HW222869   3.597   4.128  17.206  2.0140  0.1693  0.4382
 3745SOL     OW22870   2.012   1.479  15.610  0.3202 -0.1983 -0.5226
 3745SOL    HW122871   1.961   1.438  15.540  0.1385 -1.8245  0.5505
 3745SOL    HW222872   2.047   1.397  15.645  1.4526  0.8550  0.8254
 3746SOL     OW22873   1.921   0.096  16.464 -0.3313  0.1508 -0.3178
 3746SOL    HW122874   1.912   0.150  16.543  0.6404 -1.6382  1.0227
 3746SOL    HW222875   2.011   0.106  16.436  0.0649 -1.6476  0.3475
 3747SOL     OW22876   1.157   4.069   7.710  0.3583  0.2437 -0.2373
 3747SOL    HW122877   1.198   4.000   7.763  0.7810 -0.1128 -1.0261
 3747SOL    HW222878   1.221   4.141   7.717 -2.6145  3.0276 -1.5416
 3748SOL     OW22879   0.631   2.442   7.050  0.4458  0.0295 -0.3624
 3748SOL    HW122880   0.649   2.375   7.116 -1.9564  0.5028  0.7800
 3748SOL    HW222881   0.703   2.499   7.078  0.4012  0.3706 -0.9480
 3749SOL     OW22882   1.602   4.119   8.290  0.0710 -0.4347 -0.1127
 3749SOL    HW122883   1.618   4.163   8.373  1.1883 -1.2076  0.0744
 3749SOL    HW222884   1.548   4.044   8.315 -1.4453  1.0698  1.0818
 3750SOL     OW22885   0.510   0.396   6.913 -0.4173  0.0798  0.1888
 3750SOL    HW122886   0.521   0.360   6.825  0.2552 -1.6645  0.9923
 3750SOL    HW222887   0.596   0.427   6.942 -0.9737  2.1054 -0.3176
 3751SOL     OW22888   2.451   2.002  14.580 -0.1183  0.5952 -0.0216
 3751SOL    HW122889   2.413   1.977  14.665  0.3034  1.8258  0.5427
 3751SOL    HW222890   2.504   1.927  14.555  1.7611  1.6420  0.7757
 3752SOL     OW22891   3.583   4.693   6.281  0.5889 -0.9591 -0.2394
 3752SOL    HW122892   3.583   0.052   6.296  4.2457 -0.9586 -0.3204
 3752SOL    HW222893   3.500   4.675   6.236 -0.3611  0.3851  0.9780
 3753SOL     OW22894   0.380   2.407  15.963  0.1449  0.1077  0.1537
 3753SOL    HW122895   0.427   2.474  15.913 -1.3049 -1.1682 -2.9033
 3753SOL    HW222896   0.442   2.369  16.025 -1.0804 -1.2252  0.5562
 3754SOL     OW22897   3.629   3.952  14.251 -0.1102 -0.0375 -0.0858
 3754SOL    HW122898   3.586   4.024  14.296 -0.8838  0.0345 -0.9401
 3754SOL    HW222899   3.673   3.914  14.327  1.9265  1.1366 -0.6617
 3755SOL     OW22900   0.925   3.836  11.962 -0.2151  0.1223 -0.1786
 3755SOL    HW122901   0.904   3.755  11.915 -1.1901 -0.6932  1.6728
 3755SOL    HW222902   0.862   3.842  12.034  0.0514  3.0114 -0.1719
 3756SOL     OW22903   4.330   1.426   8.595 -0.4787 -0.0500  0.7006
 3756SOL    HW122904   4.396   1.457   8.657  0.0557 -2.3185  1.2448
 3756SOL    HW222905   4.366   1.347   8.555  0.2052  0.7709 -0.3077
 3757SOL     OW22906   0.399   3.869   0.008  0.5361 -0.3828  0.5547
 3757SOL    HW122907   0.400   3.930  17.677  2.1648 -1.8825 -0.6609
 3757SOL    HW222908   0.323   3.817  17.725 -0.1817  0.9254  0.0084
 3758SOL     OW22909   4.025   4.452   0.325 -0.0768 -0.0328  0.2811
 3758SOL    HW122910   4.086   4.437   0.253  0.4862  1.4401  0.4502
 3758SOL    HW222911   4.039   4.376   0.383 -1.5278  0.0453  0.7359
 3759SOL     OW22912   3.816   4.724   4.401 -0.3165  0.2050  0.1654
 3759SOL    HW122913   3.795   4.733   4.308 -1.2946 -2.9733  0.0549
 3759SOL    HW222914   3.898   0.036   4.403  0.5607 -1.3146  1.0556
 3760SOL     OW22915   0.582   4.700   6.250 -0.4144  0.5537 -0.2819
 3760SOL    HW122916   0.632   4.645   6.189  1.6562  0.3695  1.6057
 3760SOL    HW222917   0.552   4.636   6.314 -0.7010  0.8034 -0.1673
 3761SOL     OW22918   1.763   4.213  12.831 -0.2421  0.4049 -0.0282
 3761SOL    HW122919   1.674   4.243  12.812  0.0140  0.2708 -1.4115
 3761SOL    HW222920   1.806   4.293  12.861  2.5428 -0.2976 -2.1159
 3762SOL     OW22921   4.599   3.552   3.759 -0.3071 -0.0689 -0.0169
 3762SOL    HW122922   4.689   3.530   3.783  0.4536  3.1106  0.0220
 3762SOL    HW222923   4.570   3.485   3.698  1.4108 -1.5949  0.8551
 3763SOL     OW22924   3.409   3.890   4.075 -0.3838  0.3435 -0.3955
 3763SOL    HW122925   3.501   3.867   4.064  0.0353  1.3550  0.9982
 3763SOL    HW222926   3.405   3.935   4.159 -0.9453  0.1171 -0.2952
 3764SOL     OW22927   4.169   3.967   3.320 -0.7529 -0.2689  0.5535
 3764SOL    HW122928   4.120   4.030   3.372  1.3266  0.5592  1.5344
 3764SOL    HW222929   4.101   3.903   3.302 -0.4805 -0.7791  1.3751
 3765SOL     OW22930   0.741   0.307   0.859  0.5401 -0.0264  0.4844
 3765SOL    HW122931   0.814   0.358   0.824 -0.4848  0.2699 -1.2534
 3765SOL    HW222932   0.676   0.377   0.862  0.4068 -0.1274  0.0361
 3766SOL     OW22933   0.190   3.674   8.299 -0.1034 -0.4212 -0.4060
 3766SOL    HW122934   0.196   3.711   8.387  1.6371 -1.2114 -0.1838
 3766SOL    HW222935   0.132   3.600   8.314 -0.1407 -0.4316 -0.5952
 3767SOL     OW22936   0.109   0.170   9.937 -0.1400 -0.0866  0.2257
 3767SOL    HW122937   0.051   0.184   9.862  0.5788  1.5778 -0.0256
 3767SOL    HW222938   0.173   0.113   9.896  0.5599 -0.2490  1.5627
 3768SOL     OW22939   2.355   1.246   3.466  0.0761  0.4454  0.1804
 3768SOL    HW122940   2.272   1.294   3.462  0.1022  0.4398 -0.5018
 3768SOL    HW222941   2.360   1.226   3.559  1.2310 -0.9358 -0.1719
 3769SOL     OW22942   0.097   2.720   7.274 -0.2167 -0.3930 -0.4467
 3769SOL    HW122943   0.095   2.632   7.236  0.4246 -1.5319  2.1378
 3769SOL    HW222944   0.118   2.701   7.366 -0.3052  0.7584 -0.1893
 3770SOL     OW22945   3.616   0.459   1.212 -0.5293  0.2682 -0.2099
 3770SOL    HW122946   3.599   0.477   1.305  1.5596  0.0555  0.2158
 3770SOL    HW222947   3.652   0.371   1.205 -1.0822  0.0126  0.1657
 3771SOL     OW22948   4.353   1.980   5.094  0.7918 -0.2979 -0.2728
 3771SOL    HW122949   4.287   1.963   5.027 -0.5100  4.3608 -0.1546
 3771SOL    HW222950   4.415   2.044   5.059  0.6608 -0.2244 -0.3686
 3772SOL     OW22951   3.794   2.694  10.312  0.1082  0.2700  0.5371
 3772SOL    HW122952   3.824   2.612  10.271 -0.3144  0.1633  0.4458
 3772SOL    HW222953   3.808   2.673  10.404 -0.9665 -1.8261  0.2355
 3773SOL     OW22954   2.708   3.913  17.166 -0.2777  0.2276  0.0308
 3773SOL    HW122955   2.737   3.831  17.127  0.6006  1.2097 -1.3968
 3773SOL    HW222956   2.765   3.967  17.112  0.8919  0.1890  1.2266
 3774SOL     OW22957   3.961   2.954   7.426  0.1244 -0.1653  0.1917
 3774SOL    HW122958   4.046   2.988   7.454  0.9595 -1.5094 -0.7047
 3774SOL    HW222959   3.909   3.015   7.478 -1.3349 -0.6635 -0.6822
 3775SOL     OW22960   2.639   3.578   5.986  0.4300 -0.1058  0.2091
 3775SOL    HW122961   2.576   3.571   5.914  0.3283  1.7275  0.1300
 3775SOL    HW222962   2.592   3.631   6.050  0.7805  1.5998 -0.9542
 3776SOL     OW22963   4.424   3.625   3.381  0.0878  0.0946 -0.0789
 3776SOL    HW122964   4.417   3.649   3.289  0.6078 -0.5437 -0.2820
 3776SOL    HW222965   4.426   3.715   3.413  1.8968 -0.0553  0.2063
 3777SOL     OW22966   1.389   3.870   7.364 -0.0207 -0.2549  0.0196
 3777SOL    HW122967   1.309   3.920   7.377  0.8117  1.3993 -1.1658
 3777SOL    HW222968   1.393   3.862   7.269 -3.0249 -1.7364  0.0337
 3778SOL     OW22969   2.526   1.871   8.789 -0.2007  0.0418  0.5178
 3778SOL    HW122970   2.605   1.842   8.834 -0.0448 -0.7112 -0.2552
 3778SOL    HW222971   2.496   1.785   8.761  0.2096  0.1199 -0.1647
 3779SOL     OW22972   0.262   0.620  10.347  0.0792  0.1273 -0.3929
 3779SOL    HW122973   0.267   0.555  10.276  1.6623 -2.0903  1.7548
 3779SOL    HW222974   0.178   0.662  10.328  1.1102  2.0237 -0.6669
 3780SOL     OW22975   0.813   0.347   2.550 -0.1461 -0.4137  0.6048
 3780SOL    HW122976   0.906   0.371   2.543 -0.6309  0.9568 -1.1962
 3780SOL    HW222977   0.820   0.254   2.570  0.8155 -0.9919 -2.4121
 3781SOL     OW22978   2.523   4.680   1.678  0.0746 -0.0485 -0.1466
 3781SOL    HW122979   2.500   4.673   1.585  3.2369 -2.0628 -0.7520
 3781SOL    HW222980   2.616   4.700   1.669  0.2589 -0.8260  0.0753
 3782SOL     OW22981   1.899   2.618   1.632  0.0174  0.1637 -0.3706
 3782SOL    HW122982   1.867   2.535   1.595 -1.0572  0.5770 -0.3746
 3782SOL    HW222983   1.871   2.598   1.721 -0.6674 -0.5495 -0.7371
 3783SOL     OW22984   4.729   3.044  17.460 -0.4623 -0.0578 -0.3312
 3783SOL    HW122985   4.735   3.014  17.550 -2.4843 -0.4483 -0.3153
 3783SOL    HW222986   4.679   2.973  17.419  1.9856 -1.8603 -0.1637
 3784SOL     OW22987   1.214   1.942   7.716 -0.1328 -0.0531 -0.5272
 3784SOL    HW122988   1.124   1.975   7.710  0.2667  1.0705 -0.2655
 3784SOL    HW222989   1.238   1.988   7.636  0.5418  1.0247  0.3081
 3785SOL     OW22990   4.510   2.906  15.189 -0.4699 -0.1342 -0.1738
 3785SOL    HW122991   4.550   2.971  15.132 -0.4964 -0.0800 -0.1309
 3785SOL    HW222992   4.416   2.926  15.182 -0.0286  1.3397 -1.9215
 3786SOL     OW22993   2.147   2.856   7.165 -0.4296  0.0991 -0.4233
 3786SOL    HW122994   2.130   2.909   7.243  1.4598 -0.6639  0.5198
 3786SOL    HW222995   2.115   2.915   7.097 -1.3253  0.8026  0.6116
 3787SOL     OW22996   2.958   4.284   9.934  0.1521  0.9055 -0.7302
 3787SOL    HW122997   2.978   4.352   9.869 -0.7152  0.8785 -1.0265
 3787SOL    HW222998   2.892   4.331   9.985  1.3164  0.3081  1.3078
 3788SOL     OW22999   1.380   3.511  17.510 -0.4819  0.1217 -1.0813
 3788SOL    HW123000   1.328   3.431  17.505  0.4902 -0.5570 -0.2638
 3788SOL    HW223001   1.307   3.554  17.556 -0.8207 -1.1570 -0.4188
 3789SOL     OW23002   2.014   3.675  10.660 -0.2295 -0.7082  0.6126
 3789SOL    HW123003   2.019   3.588  10.620  0.5426  0.6692 -2.3181
 3789SOL    HW223004   1.953   3.654  10.730 -1.3001  1.9187  0.4958
 3790SOL     OW23005   0.246   4.308   4.571 -0.9621 -0.4284  0.0677
 3790SOL    HW123006   0.258   4.259   4.653  0.1545  1.6369  1.1366
 3790SOL    HW223007   0.159   4.342   4.589 -0.4188  0.3574  1.2037
 3791SOL     OW23008   3.894   0.608   6.744  0.0501 -0.1575 -0.1322
 3791SOL    HW123009   3.887   0.513   6.755  1.0325  0.0830  2.5788
 3791SOL    HW223010   3.955   0.630   6.814 -1.3247  1.6167  0.4806
 3792SOL     OW23011   4.186   0.068   7.738 -0.6118 -0.0275  0.5531
 3792SOL    HW123012   4.228   0.089   7.655 -1.4555 -2.4780 -0.4918
 3792SOL    HW223013   4.264   0.073   7.793 -1.3516  0.0734  1.5930
 3793SOL     OW23014   4.136   0.703   7.286 -0.6080  0.4646  0.1895
 3793SOL    HW123015   4.096   0.717   7.372  0.2032  2.6764  0.2081
 3793SOL    HW223016   4.135   0.608   7.278  0.2500  0.4457  0.3626
 3794SOL     OW23017   2.576   0.397  17.382  0.5248  0.5658  0.0960
 3794SOL    HW123018   2.667   0.410  17.356  0.3079 -0.4261 -1.1642
 3794SOL    HW223019   2.566   0.316  17.333  2.1780  2.2906 -3.0860
 3795SOL     OW23020   2.184   0.268   4.309 -0.2901  0.3981  0.0697
 3795SOL    HW123021   2.185   0.207   4.382  0.3879  0.0415 -0.2370
 3795SOL    HW223022   2.094   0.270   4.278 -0.1840 -0.1763 -0.2788
 3796SOL     OW23023   0.612   0.751   7.366  0.4776 -0.3871 -0.3377
 3796SOL    HW123024   0.540   0.723   7.310  0.3685  0.1320 -0.4558
 3796SOL    HW223025   0.666   0.802   7.306  0.0172  0.1573 -0.2855
 3797SOL     OW23026   0.783   0.996   5.552 -0.0664  0.0527  0.4056
 3797SOL    HW123027   0.868   1.040   5.546 -1.9066  3.3798 -1.3403
 3797SOL    HW223028   0.800   0.927   5.488 -0.0082  1.3242 -0.9601
 3798SOL     OW23029   4.145   2.249   5.705  0.0311 -0.2065  0.1135
 3798SOL    HW123030   4.140   2.295   5.789  0.4051 -1.5713  0.8777
 3798SOL    HW223031   4.190   2.169   5.732  0.8614 -0.1524 -1.1064
 3799SOL     OW23032   2.231   1.000   1.364  0.1773 -0.1429  0.2484
 3799SOL    HW123033   2.205   0.925   1.312 -0.5867  2.0062 -2.4914
 3799SOL    HW223034   2.179   0.992   1.444  0.7698 -2.0538  0.4346
 3800SOL     OW23035   0.507   0.004   6.690  0.0946  0.3764  0.4107
 3800SOL    HW123036   0.576   4.676   6.710  0.2133 -0.1046 -1.5901
 3800SOL    HW223037   0.478   4.699   6.609  0.9690 -1.4940  1.0400
 3801SOL     OW23038   2.534   1.020   4.080  0.1574  0.1483 -0.3602
 3801SOL    HW123039   2.577   0.988   4.001 -0.8256  0.0824 -0.8713
 3801SOL    HW223040   2.610   1.059   4.124 -0.3658 -1.9441  2.4361
 3802SOL     OW23041   2.307   0.667   6.888 -0.4442  0.3196  0.2502
 3802SOL    HW123042   2.229   0.720   6.907 -0.0777  0.9113  0.0857
 3802SOL    HW223043   2.356   0.723   6.828  1.4303 -0.2892  1.2457
 3803SOL     OW23044   2.112   0.606  14.756 -0.7271 -0.0446 -0.7312
 3803SOL    HW123045   2.050   0.665  14.714  0.1236  1.5082  0.1817
 3803SOL    HW223046   2.194   0.655  14.742 -0.3488 -0.3129  0.4740
 3804SOL     OW23047   0.186   1.024   2.273  0.4042 -0.2796 -0.1205
 3804SOL    HW123048   0.182   1.029   2.177  0.0893 -0.6588 -0.1261
 3804SOL    HW223049   0.271   0.983   2.290 -0.2416 -1.7260 -0.3852
 3805SOL     OW23050   3.065   2.058  16.519  0.2526  0.1436 -0.2850
 3805SOL    HW123051   3.024   2.046  16.605 -1.7267  1.0679 -1.0911
 3805SOL    HW223052   2.987   2.064  16.463  0.6389  2.5788 -0.5526
 3806SOL     OW23053   3.893   2.468  10.241 -0.7619 -0.2940  0.1728
 3806SOL    HW123054   3.854   2.406  10.179  1.9769 -1.4540 -0.3629
 3806SOL    HW223055   3.979   2.433  10.265 -0.0307  0.2351 -1.6508
 3807SOL     OW23056   2.766   4.421   7.281  0.0931  1.0945 -0.2843
 3807SOL    HW123057   2.681   4.375   7.281 -1.4026  3.8982 -1.9090
 3807SOL    HW223058   2.824   4.346   7.293 -1.9657 -0.3679  0.7291
 3808SOL     OW23059   3.245   3.958   8.853 -0.2027 -0.3742 -0.0323
 3808SOL    HW123060   3.203   3.981   8.770  0.6357  2.0870  0.2385
 3808SOL    HW223061   3.321   3.914   8.814  1.4542  1.7026  0.8319
 3809SOL     OW23062   1.494   1.237  10.286 -0.2483  0.1468 -0.0314
 3809SOL    HW123063   1.573   1.289  10.270  1.9810 -2.0316  3.8772
 3809SOL    HW223064   1.488   1.171  10.217 -1.1802  0.0552  0.1415
 3810SOL     OW23065   0.558   4.372  14.911  0.0268 -0.2556  0.2455
 3810SOL    HW123066   0.551   4.418  14.994 -1.9366  0.4002 -0.2794
 3810SOL    HW223067   0.479   4.392  14.860  0.3466  1.3192  0.3724
 3811SOL     OW23068   2.052   3.425  10.576  0.1265  0.1320 -0.4165
 3811SOL    HW123069   2.096   3.340  10.566  0.2551  0.6068 -3.6243
 3811SOL    HW223070   1.965   3.403  10.546  0.3118 -1.6818  0.3442
 3812SOL     OW23071   0.868   2.604   5.442  0.1931 -0.0105  0.5126
 3812SOL    HW123072   0.959   2.576   5.456  0.8480  0.7852 -2.1945
 3812SOL    HW223073   0.883   2.661   5.367 -2.8614 -1.1139 -0.9568
 3813SOL     OW23074   3.242   0.235  10.206 -0.0490  0.0097  0.2406
 3813SOL    HW123075   3.321   0.241  10.152  0.6786  2.2076  1.5302
 3813SOL    HW223076   3.257   0.145  10.234  1.0138 -0.2138 -1.0520
 3814SOL     OW23077   2.327   0.387   4.103  0.2223  0.0931  0.0367
 3814SOL    HW123078   2.283   0.351   4.180  2.2272  1.0529  1.6410
 3814SOL    HW223079   2.249   0.425   4.062 -1.4106  0.0290  3.0683
 3815SOL     OW23080   3.189   2.877   8.634  0.7491  0.4804  0.1715
 3815SOL    HW123081   3.149   2.840   8.712 -1.5747  1.8296 -0.3780
 3815SOL    HW223082   3.255   2.814   8.606  0.2282 -0.6246  1.4610
 3816SOL     OW23083   2.521   4.322   2.135  0.7129  0.2572 -0.3587
 3816SOL    HW123084   2.607   4.286   2.111 -0.8913 -4.0301  0.3977
 3816SOL    HW223085   2.524   4.416   2.113 -3.3464  0.6762  0.8584
 3817SOL     OW23086   3.824   1.955   3.658  0.3704 -0.0023 -0.4496
 3817SOL    HW123087   3.773   1.935   3.579  0.8302 -0.3064 -0.6691
 3817SOL    HW223088   3.913   1.982   3.637  0.7550 -0.9615 -0.0456
 3818SOL     OW23089   3.885   2.539  11.340 -0.7380  0.2686 -0.1067
 3818SOL    HW123090   3.855   2.451  11.318 -0.8703  0.0315  1.0443
 3818SOL    HW223091   3.972   2.517  11.372 -1.0410 -1.0591 -0.2147
 3819SOL     OW23092   0.647   1.094   7.855 -0.2047  0.2157 -0.5042
 3819SOL    HW123093   0.629   1.186   7.873  1.8997  0.5251 -0.0221
 3819SOL    HW223094   0.558   1.064   7.839 -0.9889  2.6054 -0.6645
 3820SOL     OW23095   2.763   2.544   8.216 -0.1101  0.3774 -0.2727
 3820SOL    HW123096   2.677   2.562   8.180  0.9240  2.1109 -1.8950
 3820SOL    HW223097   2.760   2.587   8.301  0.0856 -0.4816  0.1781
 3821SOL     OW23098   0.047   4.688   9.147 -0.7318 -0.0346  0.4357
 3821SOL    HW123099   0.139   4.707   9.129 -0.8961 -0.0179 -0.3776
 3821SOL    HW223100   0.028   4.620   9.082 -0.0326  0.5814 -0.3992
 3822SOL     OW23101   4.211   4.338   3.827  0.5209  0.4008  0.2885
 3822SOL    HW123102   4.144   4.284   3.870 -1.9041  0.5888 -3.2850
 3822SOL    HW223103   4.278   4.342   3.896  1.4460 -0.1563 -0.5785
 3823SOL     OW23104   4.027   0.227   5.221  0.5117  0.4284  0.0234
 3823SOL    HW123105   4.085   0.181   5.161  1.2074 -0.5807  1.4534
 3823SOL    HW223106   3.977   0.291   5.171  1.7747  0.1029 -1.6706
 3824SOL     OW23107   4.476   0.842   7.708 -0.1193  0.0743 -0.3504
 3824SOL    HW123108   4.423   0.768   7.739 -1.3053  0.7606 -0.7453
 3824SOL    HW223109   4.431   0.911   7.756  1.2555  0.4257  0.4378
 3825SOL     OW23110   3.575   4.466   4.642  0.4741 -0.4300 -0.4156
 3825SOL    HW123111   3.552   4.417   4.563  3.2789  1.5070 -2.4102
 3825SOL    HW223112   3.490   4.496   4.676  0.1323 -2.2351  0.2943
 3826SOL     OW23113   3.289   0.314   0.421 -0.2295 -0.5621 -0.2329
 3826SOL    HW123114   3.195   0.314   0.440 -0.1961 -0.4617 -0.0731
 3826SOL    HW223115   3.298   0.254   0.347 -0.6912 -1.1517  0.1882
 3827SOL     OW23116   0.200   2.792  15.783 -0.2376  0.4110  0.1591
 3827SOL    HW123117   0.153   2.776  15.702  0.0920  2.4007 -0.4344
 3827SOL    HW223118   0.259   2.717  15.778 -0.4929  0.2330 -0.1315
 3828SOL     OW23119   4.312   2.399   6.684 -0.5659  0.1480 -0.1422
 3828SOL    HW123120   4.384   2.369   6.738 -1.5926 -3.2454 -0.6832
 3828SOL    HW223121   4.357   2.472   6.641  0.7577 -0.4346  0.2687
 3829SOL     OW23122   1.582   0.043   9.859 -0.0228 -0.1485  0.2529
 3829SOL    HW123123   1.488   0.042   9.840 -0.1564  0.2520  0.8874
 3829SOL    HW223124   1.594   0.136   9.841 -0.2411  0.1273  1.4813
 3830SOL     OW23125   0.164   1.634   1.831  0.1314  0.5706 -0.6473
 3830SOL    HW123126   0.125   1.632   1.918  1.2203 -2.3443 -0.2361
 3830SOL    HW223127   0.089   1.601   1.781  0.0056  0.0433 -0.1117
 3831SOL     OW23128   3.280   3.186   3.722 -0.0775 -0.6860 -0.3322
 3831SOL    HW123129   3.194   3.182   3.682 -0.4144  3.1163  0.0430
 3831SOL    HW223130   3.340   3.179   3.648 -0.3512 -0.9229 -0.5301
 3832SOL     OW23131   2.173   1.175   7.892  0.4192 -0.4523  0.1513
 3832SOL    HW123132   2.258   1.206   7.923  1.5029 -2.3776 -0.8973
 3832SOL    HW223133   2.195   1.130   7.811 -1.0293  0.6415 -0.8378
 3833SOL     OW23134   1.182   0.501   4.796  0.0067 -0.1036  0.6227
 3833SOL    HW123135   1.127   0.451   4.736  0.5728  0.5689 -0.4593
 3833SOL    HW223136   1.265   0.498   4.750  1.1228 -0.8880  2.6630
 3834SOL     OW23137   4.552   2.156   4.969 -0.1655  0.0176  0.4173
 3834SOL    HW123138   4.494   2.206   4.911 -0.8063 -2.0168 -0.7267
 3834SOL    HW223139   4.551   2.201   5.053 -1.7657 -0.8654  0.8804
 3835SOL     OW23140   3.649   4.416  13.995  0.3811  1.0718  0.3428
 3835SOL    HW123141   3.689   4.346  13.942 -2.2921 -0.1687 -0.0238
 3835SOL    HW223142   3.708   4.487  13.968  2.1047 -0.6113 -0.3419
 3836SOL     OW23143   4.475   0.245  13.679  0.7163 -0.3390  0.0740
 3836SOL    HW123144   4.468   0.225  13.772 -2.3131 -0.2375 -0.1352
 3836SOL    HW223145   4.394   0.276  13.638  0.9160 -0.7709 -0.6501
 3837SOL     OW23146   4.711   4.271  10.860  0.5972 -0.0241  0.2892
 3837SOL    HW123147   4.679   4.315  10.781 -0.8110 -1.4293  0.0905
 3837SOL    HW223148   0.054   4.324  10.875  0.0970  0.5043  1.0082
 3838SOL     OW23149   0.850   0.988   4.437 -0.4655 -0.0852 -0.1122
 3838SOL    HW123150   0.803   0.948   4.363 -0.2542  0.5172 -0.5710
 3838SOL    HW223151   0.934   1.003   4.393 -0.5809  0.3910 -0.1745
 3839SOL     OW23152   1.604   1.337   1.940  0.1565 -0.6357  0.0501
 3839SOL    HW123153   1.680   1.306   1.891  1.0806 -0.9326  1.6369
 3839SOL    HW223154   1.656   1.346   2.021  1.6822  2.5746 -1.2982
 3840SOL     OW23155   0.756   1.652   7.794 -0.1292  0.4602 -0.3312
 3840SOL    HW123156   0.767   1.558   7.779  0.0543  0.6862 -1.6199
 3840SOL    HW223157   0.838   1.658   7.843 -0.9122 -0.4712  1.0824
 3841SOL     OW23158   3.123   3.274   6.790  0.0163 -0.1593  0.1004
 3841SOL    HW123159   3.091   3.351   6.838 -2.3923 -0.2248 -1.4239
 3841SOL    HW223160   3.201   3.253   6.841  0.5945  1.6878  0.0028
 3842SOL     OW23161   4.431   2.445   4.598  0.2430  0.5559  0.0520
 3842SOL    HW123162   4.507   2.502   4.586  0.1811  1.0326  1.9618
 3842SOL    HW223163   4.366   2.504   4.560  0.3810 -0.0954 -1.1984
 3843SOL     OW23164   4.669   3.779   6.464 -0.4071 -0.0749 -0.1950
 3843SOL    HW123165   4.609   3.801   6.393  1.2733  1.1659 -1.2377
 3843SOL    HW223166   4.691   3.689   6.442 -1.0197  0.5134 -3.2398
 3844SOL     OW23167   3.902   1.153   1.646 -0.1265  0.2872  0.1897
 3844SOL    HW123168   3.987   1.142   1.602  0.6235  2.8725  0.9985
 3844SOL    HW223169   3.935   1.147   1.736  0.8339 -1.4833 -0.2685
 3845SOL     OW23170   2.716   1.410  13.470  0.0601 -0.0469  0.1997
 3845SOL    HW123171   2.637   1.464  13.459 -0.4498 -0.8840 -0.2401
 3845SOL    HW223172   2.764   1.455  13.539 -0.1225 -0.2098  0.4334
 3846SOL     OW23173   0.068   1.761  12.287  0.4246 -0.3941 -0.3614
 3846SOL    HW123174   0.130   1.737  12.218  1.1437 -1.2970  0.5933
 3846SOL    HW223175   0.120   1.804  12.356 -2.1578  0.0993  1.2558
 3847SOL     OW23176   3.148   3.655   5.903 -0.1065  0.0436 -0.1238
 3847SOL    HW123177   3.117   3.600   5.831 -2.5388  1.3802 -0.0875
 3847SOL    HW223178   3.172   3.722   5.840  0.6370  0.5240  0.6730
 3848SOL     OW23179   1.197   1.444  10.702 -0.1120  0.0312  0.1087
 3848SOL    HW123180   1.218   1.419  10.792  1.3075  2.2329  0.4192
 3848SOL    HW223181   1.139   1.372  10.678 -0.7927  0.0969  1.5830
 3849SOL     OW23182   0.599   4.095   0.048 -0.0583  0.4012  0.1798
 3849SOL    HW123183   0.555   4.154   0.110  1.8748  0.1996  1.7549
 3849SOL    HW223184   0.604   4.011   0.094  0.4327 -0.6253 -1.7588
 3850SOL     OW23185   3.308   2.322  14.670 -0.4363 -1.0152  0.1819
 3850SOL    HW123186   3.214   2.312  14.684 -1.0331  2.6996 -1.0801
 3850SOL    HW223187   3.313   2.398  14.611 -1.5134  0.1309  1.5673
 3851SOL     OW23188   3.793   2.377   7.799 -0.3654  0.1741  0.3836
 3851SOL    HW123189   3.832   2.362   7.713 -0.9211  0.1423  0.1409
 3851SOL    HW223190   3.851   2.445   7.834 -1.1880 -0.4663  2.9808
 3852SOL     OW23191   2.162   4.721   7.441 -0.1069 -0.0329 -0.0634
 3852SOL    HW123192   2.192   0.074   7.462  0.1381 -0.6292  2.0928
 3852SOL    HW223193   2.188   4.680   7.523 -0.3816 -0.7605 -0.3382
 3853SOL     OW23194   3.458   4.505  15.070  0.7885 -0.1634  0.0189
 3853SOL    HW123195   3.518   4.495  14.996 -0.2388 -0.8889 -0.7105
 3853SOL    HW223196   3.448   4.418  15.106 -2.0035  1.0916  2.3307
 3854SOL     OW23197   0.369   0.316  10.273  0.5129 -0.1398  0.1292
 3854SOL    HW123198   0.405   0.355  10.353 -1.4744 -1.9226  1.8846
 3854SOL    HW223199   0.454   0.292  10.236  1.0072  0.6676  0.7229
 3855SOL     OW23200   1.387   0.768   6.694  0.5613 -0.3592  0.3455
 3855SOL    HW123201   1.471   0.792   6.655  0.7224  1.3440  1.7531
 3855SOL    HW223202   1.325   0.801   6.630  1.1303  0.9824  0.5006
 3856SOL     OW23203   3.833   0.329  17.162 -0.6449  0.3505 -0.2904
 3856SOL    HW123204   3.794   0.320  17.075  1.3002  0.2681 -1.1416
 3856SOL    HW223205   3.827   0.423  17.175  0.0248  0.4343 -0.6071
 3857SOL     OW23206   3.900   4.171   4.883  0.4534 -0.2058 -0.2905
 3857SOL    HW123207   3.829   4.164   4.819  1.5612 -1.1625 -1.4248
 3857SOL    HW223208   3.973   4.211   4.835  0.9453 -1.1578 -0.3452
 3858SOL     OW23209   2.782   1.451   4.282 -0.4874  0.1670 -0.3831
 3858SOL    HW123210   2.811   1.523   4.338 -0.1612  1.3435 -2.0662
 3858SOL    HW223211   2.791   1.383   4.349 -2.0769 -0.0035 -0.3378
 3859SOL     OW23212   1.499   4.533   3.375 -0.1436 -0.5999  0.1627
 3859SOL    HW123213   1.439   4.472   3.332 -0.8852  2.0843 -2.5343
 3859SOL    HW223214   1.580   4.485   3.358  0.7604  1.2083 -0.6588
 3860SOL     OW23215   1.052   2.308   3.815 -0.1709  0.1811  0.2327
 3860SOL    HW123216   1.138   2.316   3.774  0.3353 -2.1160  0.8390
 3860SOL    HW223217   1.021   2.221   3.788  2.0214 -0.3883 -0.4345
 3861SOL     OW23218   1.625   0.946   5.710 -0.3993  0.0040  0.3454
 3861SOL    HW123219   1.606   0.852   5.712 -1.1839  0.1439 -1.0330
 3861SOL    HW223220   1.721   0.942   5.705 -0.4065 -1.7732  1.4842
 3862SOL     OW23221   0.052   0.043  11.250 -0.7326 -0.5139  0.6722
 3862SOL    HW123222   0.090   4.706  11.201  0.1328  0.6002 -0.3285
 3862SOL    HW223223   0.125   0.087  11.294 -0.4212  1.7264 -2.0542
 3863SOL     OW23224   2.525   0.748   0.738  0.0160 -0.0544 -0.0013
 3863SOL    HW123225   2.574   0.827   0.761 -0.8340  0.0885  1.3436
 3863SOL    HW223226   2.566   0.724   0.655 -0.6620 -3.5124  0.6705
 3864SOL     OW23227   0.981   0.180   2.092 -0.0775  0.2933 -0.1369
 3864SOL    HW123228   0.981   0.267   2.132 -2.2746 -0.4235  1.4373
 3864SOL    HW223229   1.063   0.144   2.125 -0.2527  1.9593  2.1083
 3865SOL     OW23230   0.114   4.451  12.517 -0.9137 -0.3953 -0.1054
 3865SOL    HW123231   0.119   4.356  12.526 -2.8390 -0.7249 -2.5615
 3865SOL    HW223232   0.021   4.459  12.499 -0.5265  1.8137 -1.0872
 3866SOL     OW23233   0.940   3.075  15.143 -0.7286  0.7443  0.1419
 3866SOL    HW123234   1.004   3.079  15.213 -2.0038 -1.8020  1.4603
 3866SOL    HW223235   0.981   3.118  15.068  0.9356  1.2872  1.3768
 3867SOL     OW23236   2.862   3.016   3.836  0.4269  0.7190 -0.4147
 3867SOL    HW123237   2.911   3.097   3.824 -0.3795  1.3912  0.8927
 3867SOL    HW223238   2.891   3.004   3.926  1.0734 -3.6182 -1.2090
 3868SOL     OW23239   3.960   0.016  15.008  0.0241 -0.3116  0.7407
 3868SOL    HW123240   4.014   0.071  15.066  1.2394 -1.0274  0.2941
 3868SOL    HW223241   3.968   4.668  15.055 -2.6644 -0.7696  0.3749
 3869SOL     OW23242   2.529   0.215   6.709 -0.4201  0.1018 -0.0200
 3869SOL    HW123243   2.516   0.295   6.659 -0.7480  0.2953  0.3803
 3869SOL    HW223244   2.612   0.178   6.677 -1.9506 -1.2723 -2.4631
 3870SOL     OW23245   4.550   1.711   8.457  0.2408  0.0135 -0.1201
 3870SOL    HW123246   4.498   1.634   8.480 -0.3573  0.8774  1.4051
 3870SOL    HW223247   4.570   1.706   8.363 -0.3736  0.1216 -0.2560
 3871SOL     OW23248   3.931   2.129   6.343 -0.3207 -0.0517  0.1552
 3871SOL    HW123249   3.956   2.191   6.411 -1.7210 -2.3006  2.6810
 3871SOL    HW223250   3.917   2.195   6.275 -0.7318 -0.2744  0.0231
 3872SOL     OW23251   4.431   4.323  10.968  0.0925  0.7233  0.5012
 3872SOL    HW123252   4.478   4.380  10.907 -2.2610 -1.1170 -3.0442
 3872SOL    HW223253   4.510   4.301  11.016  0.1342  0.4256  0.2965
 3873SOL     OW23254   4.229   3.841   8.750  0.1254  0.0607  0.2297
 3873SOL    HW123255   4.321   3.831   8.777  0.0914 -0.8512  0.0141
 3873SOL    HW223256   4.190   3.767   8.797 -1.1057 -0.3208 -1.4067
 3874SOL     OW23257   3.298   4.606   9.826 -0.3227 -0.1705 -0.3596
 3874SOL    HW123258   3.269   4.695   9.808  2.3507  0.6036 -0.7851
 3874SOL    HW223259   3.285   4.576   9.736 -2.6278  0.3599 -0.1957
 3875SOL     OW23260   0.167   0.929   6.155 -0.5253  0.1731  0.1616
 3875SOL    HW123261   0.155   0.893   6.067 -1.0740  2.7105 -0.8110
 3875SOL    HW223262   0.252   0.897   6.186 -1.6657 -1.5635  1.4598
 3876SOL     OW23263   3.528   4.234   7.377 -0.2380 -0.0858 -0.3154
 3876SOL    HW123264   3.568   4.301   7.433  0.1994  0.0853 -0.8267
 3876SOL    HW223265   3.483   4.183   7.444  0.9173 -1.6652 -0.7320
 3877SOL     OW23266   0.585   3.222   9.664 -0.3536  0.1805  0.3108
 3877SOL    HW123267   0.513   3.186   9.716 -0.7012 -0.1370 -0.3798
 3877SOL    HW223268   0.645   3.256   9.730 -2.3288  0.7829  1.7709
 3878SOL     OW23269   3.154   1.780   1.956 -0.2644  0.0693 -0.1353
 3878SOL    HW123270   3.179   1.871   1.973 -0.7181  0.0803  0.4639
 3878SOL    HW223271   3.085   1.792   1.891  0.4963  0.3253 -0.8862
 3879SOL     OW23272   4.109   3.568   6.553  0.4784  0.4468 -0.0518
 3879SOL    HW123273   4.075   3.653   6.526  1.9034  0.4506 -1.8333
 3879SOL    HW223274   4.049   3.502   6.517  0.3545 -0.6537  2.2175
 3880SOL     OW23275   3.088   1.984   8.211 -0.6538 -0.4809  0.1420
 3880SOL    HW123276   3.134   1.902   8.228  0.5789  0.4743  1.3955
 3880SOL    HW223277   3.028   1.948   8.146  0.1663 -1.5285 -0.0241
 3881SOL     OW23278   3.004   4.034   1.928 -0.3524 -0.7059 -0.3822
 3881SOL    HW123279   2.925   4.084   1.907  2.5802  3.2883 -1.7480
 3881SOL    HW223280   2.979   3.947   1.896  1.7412 -0.8135 -1.7246
 3882SOL     OW23281   0.178   2.057   3.648  0.1966  0.0823 -0.1445
 3882SOL    HW123282   0.164   1.972   3.606 -3.1017  0.0613  0.9917
 3882SOL    HW223283   0.090   2.090   3.663  0.0742 -0.1315 -0.3860
 3883SOL     OW23284   3.584   0.254   5.601  0.6954  0.1532 -0.2972
 3883SOL    HW123285   3.660   0.262   5.544  1.1288 -0.4847  0.1815
 3883SOL    HW223286   3.612   0.314   5.670 -0.1948 -0.5031  0.6526
 3884SOL     OW23287   0.410   1.037   5.776 -0.0352  0.1562 -0.7304
 3884SOL    HW123288   0.390   1.112   5.831  0.6601 -0.2538  0.0804
 3884SOL    HW223289   0.394   1.071   5.688 -2.3174 -4.5244 -2.1467
 3885SOL     OW23290   3.364   4.113  16.265 -0.0955 -0.1694 -0.0175
 3885SOL    HW123291   3.272   4.135  16.285  0.7382  4.4591 -1.2767
 3885SOL    HW223292   3.356   4.032  16.214  0.7976 -0.1353 -0.2034
 3886SOL     OW23293   2.410   1.737   9.230  0.2239 -0.0704  0.6644
 3886SOL    HW123294   2.449   1.697   9.153 -0.8902 -0.3399  0.2421
 3886SOL    HW223295   2.376   1.670   9.289  0.5520  1.2068  2.3085
 3887SOL     OW23296   0.619   4.418  12.498 -0.1726 -0.4967  0.1651
 3887SOL    HW123297   0.616   4.513  12.514  3.2377 -0.4851  0.6069
 3887SOL    HW223298   0.682   4.385  12.561  0.1007 -2.0536 -0.9419
 3888SOL     OW23299   2.188   2.750  12.953 -0.1846  0.2384 -0.0858
 3888SOL    HW123300   2.193   2.729  12.860 -1.1338  0.7620 -0.2656
 3888SOL    HW223301   2.094   2.737  12.971  0.0966 -0.1200  1.1146
 3889SOL     OW23302   4.390   0.514  11.441  0.1881  0.0841  0.0211
 3889SOL    HW123303   4.456   0.446  11.452  0.4777  0.4697  0.6370
 3889SOL    HW223304   4.410   0.561  11.522 -0.4863  0.6057 -0.1131
 3890SOL     OW23305   4.243   2.872   7.149 -0.4762  0.1791  0.1399
 3890SOL    HW123306   4.193   2.866   7.068 -1.1225 -1.1458  0.6293
 3890SOL    HW223307   4.297   2.950   7.135 -1.2387  0.8606  1.0363
 3891SOL     OW23308   1.742   3.504   4.135 -0.1027 -0.0787 -0.4412
 3891SOL    HW123309   1.678   3.559   4.090 -0.5531 -0.1931  0.0611
 3891SOL    HW223310   1.821   3.521   4.084 -0.4149 -0.1855 -0.9663
 3892SOL     OW23311   1.154   2.903   5.715  0.3309  0.1049  0.0736
 3892SOL    HW123312   1.193   2.948   5.790 -0.2245 -1.2118  1.1568
 3892SOL    HW223313   1.223   2.839   5.696  0.6205  0.1526  0.9549
 3893SOL     OW23314   0.655   0.409   4.405 -0.0187 -0.3617 -0.7770
 3893SOL    HW123315   0.657   0.417   4.310  0.8676  1.2243 -0.6217
 3893SOL    HW223316   0.576   0.354   4.410 -2.3774  2.9012 -2.3743
 3894SOL     OW23317   4.249   0.878   8.603 -0.0626  0.3008 -0.7828
 3894SOL    HW123318   4.327   0.864   8.657  0.0640  1.5175 -0.6491
 3894SOL    HW223319   4.179   0.845   8.659 -1.5152  0.2069 -2.6829
 3895SOL     OW23320   2.478   4.067  17.172  0.0066  0.2202  0.4021
 3895SOL    HW123321   2.551   4.005  17.169  0.6897  1.1139 -1.5301
 3895SOL    HW223322   2.449   4.052  17.082 -1.2454  0.5866  0.7456
 3896SOL     OW23323   4.277   1.319   5.892 -0.5308 -0.3212  0.3357
 3896SOL    HW123324   4.285   1.324   5.988  1.8939 -2.1144  0.2191
 3896SOL    HW223325   4.350   1.262   5.872 -0.6489 -0.4507  0.2732
 3897SOL     OW23326   3.659   1.598   7.985 -0.5705  0.1829 -0.2972
 3897SOL    HW123327   3.582   1.637   7.944 -0.0572  0.8901 -0.6124
 3897SOL    HW223328   3.706   1.674   8.022 -1.0516  0.5436 -0.4252
 3898SOL     OW23329   2.617   2.957   5.138 -0.2269 -0.1580 -0.3641
 3898SOL    HW123330   2.672   2.902   5.082  0.0190 -0.8168  0.5298
 3898SOL    HW223331   2.612   2.894   5.210  2.1044  0.0832  0.0113
 3899SOL     OW23332   1.239   2.544   2.773 -0.1064 -0.5060  0.3735
 3899SOL    HW123333   1.156   2.592   2.765  0.5941  0.3741 -1.6226
 3899SOL    HW223334   1.209   2.456   2.797 -1.7362 -0.0749 -0.0617
 3900SOL     OW23335   1.717   1.328   5.611  0.3247 -0.4359  0.4675
 3900SOL    HW123336   1.668   1.300   5.688  1.2115 -0.6989  0.9387
 3900SOL    HW223337   1.760   1.409   5.637 -1.7678  1.3142 -1.4706
 3901SOL     OW23338   0.750   0.157  11.318 -0.4866  0.2075 -0.2023
 3901SOL    HW123339   0.726   0.234  11.371 -1.0633 -0.8514  1.0586
 3901SOL    HW223340   0.673   0.131  11.268 -0.4281 -0.3159 -0.0106
 3902SOL     OW23341   0.216   2.599  14.965 -0.5960  0.0248 -0.4547
 3902SOL    HW123342   0.125   2.625  14.979 -1.1336 -2.1154  0.0970
 3902SOL    HW223343   0.216   2.586  14.870  0.1607 -1.3135 -0.2817
 3903SOL     OW23344   2.869   1.106   6.237  0.2948  0.5316 -0.7926
 3903SOL    HW123345   2.925   1.144   6.305  1.0609 -0.9090 -0.6156
 3903SOL    HW223346   2.782   1.139   6.261  0.3753  1.0175 -1.1709
 3904SOL     OW23347   1.646   2.443   4.835 -0.2932  0.2972 -0.0915
 3904SOL    HW123348   1.595   2.502   4.780  0.1954  1.1765  0.3923
 3904SOL    HW223349   1.677   2.495   4.909  0.7078  0.1985 -0.4491
 3905SOL     OW23350   4.433   3.994  17.521 -0.9066 -0.3344  0.0782
 3905SOL    HW123351   4.494   4.029  17.586 -2.7094  2.1230  0.4179
 3905SOL    HW223352   4.385   3.931  17.575 -2.9543 -0.0104 -1.3675
 3906SOL     OW23353   2.683   1.121   1.397  0.1296 -1.0192  0.2711
 3906SOL    HW123354   2.718   1.209   1.416 -1.1168  0.1665 -2.8794
 3906SOL    HW223355   2.592   1.141   1.377  0.3990 -1.3909 -1.3098
 3907SOL     OW23356   0.101   2.549   1.662  0.5420  0.0492 -0.4256
 3907SOL    HW123357   0.126   2.592   1.580  0.5025  2.1684  0.6543
 3907SOL    HW223358   0.169   2.484   1.679  1.0399  0.5950 -0.3235
 3908SOL     OW23359   0.484   1.658   4.970  0.3189  0.3140  0.2544
 3908SOL    HW123360   0.538   1.694   4.900 -2.1176  0.9100 -1.3470
 3908SOL    HW223361   0.540   1.594   5.013  0.6544  0.9754  0.8005
 3909SOL     OW23362   1.018   4.657   8.891 -0.0434 -0.5780 -0.3796
 3909SOL    HW123363   1.066   4.610   8.958 -0.6318 -0.2170  0.2929
 3909SOL    HW223364   0.927   4.653   8.922 -0.0842 -0.8170 -0.5209
 3910SOL     OW23365   0.505   4.242   7.818  0.1485  0.1842  0.2319
 3910SOL    HW123366   0.454   4.323   7.829  0.8798  0.7818 -0.8523
 3910SOL    HW223367   0.446   4.175   7.852  0.8147  0.1938  1.3784
 3911SOL     OW23368   3.203   4.009   9.526  0.7480  0.1422 -0.0191
 3911SOL    HW123369   3.173   3.967   9.606 -1.4374  1.0889 -0.3451
 3911SOL    HW223370   3.197   3.934   9.467 -1.6414  1.2686 -1.2526
 3912SOL     OW23371   3.640   0.783   6.315 -0.2971 -0.3037  0.1180
 3912SOL    HW123372   3.733   0.763   6.306 -0.2390 -0.4495  1.0416
 3912SOL    HW223373   3.613   0.831   6.236  2.0178  0.2110 -0.3800
 3913SOL     OW23374   3.832   2.016   7.146 -0.1090  0.4507 -0.0500
 3913SOL    HW123375   3.750   1.976   7.174 -0.4246  0.0696 -1.5772
 3913SOL    HW223376   3.862   2.067   7.222  3.6679 -0.0652 -1.1866
 3914SOL     OW23377   3.728   4.130   5.334 -0.5883  0.0090  0.9695
 3914SOL    HW123378   3.761   4.056   5.386  0.1822  0.3396  0.9564
 3914SOL    HW223379   3.637   4.137   5.360 -1.0272  0.3163 -0.6940
 3915SOL     OW23380   3.381   0.598   2.790  0.0030  0.4856 -0.7659
 3915SOL    HW123381   3.432   0.666   2.833 -0.4559 -0.5676  1.4541
 3915SOL    HW223382   3.447   0.558   2.734 -0.2609  0.6187 -1.1715
 3916SOL     OW23383   0.202   0.532   7.539 -0.1448 -0.5417  0.3442
 3916SOL    HW123384   0.221   0.443   7.569 -2.8695 -0.9698  0.8245
 3916SOL    HW223385   0.116   0.535   7.581 -0.6306  2.5867 -0.8819
 3917SOL     OW23386   3.817   4.023  10.187 -0.5118  0.2459 -0.0151
 3917SOL    HW123387   3.890   4.026  10.125 -2.7024 -1.2007 -2.6739
 3917SOL    HW223388   3.812   3.928  10.197  0.6770  0.3758  1.9147
 3918SOL     OW23389   1.995   2.252  13.259  0.4734 -0.0435  0.0533
 3918SOL    HW123390   2.022   2.264  13.350  0.0755 -0.0245  0.1662
 3918SOL    HW223391   1.954   2.166  13.261 -0.3324  0.2964 -1.5768
 3919SOL     OW23392   2.982   2.782   4.538 -0.5440 -0.4954  0.0677
 3919SOL    HW123393   3.072   2.760   4.513 -0.2976 -0.6330  1.0811
 3919SOL    HW223394   2.964   2.851   4.473  0.8039 -0.9012 -0.7436
 3920SOL     OW23395   1.929   2.907   4.312  0.7157 -0.4952  0.1129
 3920SOL    HW123396   1.884   2.841   4.260  0.2064 -0.4761  0.5271
 3920SOL    HW223397   1.878   2.913   4.392  0.4446  1.9389 -0.2473
 3921SOL     OW23398   1.883   3.369  12.278  0.3998 -0.2481  0.4209
 3921SOL    HW123399   1.947   3.344  12.211  0.4940  4.0430 -1.1655
 3921SOL    HW223400   1.804   3.386  12.227  1.1702 -1.5661 -1.2105
 3922SOL     OW23401   3.029   2.810  11.965  0.4868  0.1394  0.5328
 3922SOL    HW123402   3.113   2.788  12.005  0.2376 -0.4660  0.7194
 3922SOL    HW223403   3.023   2.759  11.885  1.3071 -0.0010  0.5549
 3923SOL     OW23404   3.976   1.063   7.084 -0.0732  0.3693  0.2506
 3923SOL    HW123405   4.045   0.997   7.073  2.1336  2.3795  2.2552
 3923SOL    HW223406   3.934   1.074   6.998 -2.8015 -0.8118  1.4320
 3924SOL     OW23407   3.213   1.087   2.916  0.7173  0.0667 -0.1043
 3924SOL    HW123408   3.226   1.041   2.833  2.7079  0.4010  0.0338
 3924SOL    HW223409   3.167   1.023   2.971 -0.9880  1.3438 -0.0432
 3925SOL     OW23410   0.952   3.484   6.794 -0.3425  0.3311  0.0436
 3925SOL    HW123411   1.048   3.475   6.795 -0.4877 -1.1812 -0.0072
 3925SOL    HW223412   0.937   3.410   6.735 -1.9249 -0.4142  1.3998
 3926SOL     OW23413   2.494   2.768   2.609 -0.4551  0.3423 -0.5208
 3926SOL    HW123414   2.558   2.699   2.626 -1.1718 -0.2557 -0.1920
 3926SOL    HW223415   2.453   2.783   2.695 -0.5375 -0.4832 -0.4099
 3927SOL     OW23416   2.131   2.619   9.139 -0.1053  0.3372  0.3806
 3927SOL    HW123417   2.159   2.531   9.164  0.3063  0.6640  1.0709
 3927SOL    HW223418   2.049   2.630   9.187 -0.7038 -2.4589  0.0151
 3928SOL     OW23419   4.420   1.805   7.272  0.2763  0.1555  0.2755
 3928SOL    HW123420   4.512   1.830   7.269  0.2416  0.2663  0.1301
 3928SOL    HW223421   4.421   1.713   7.248 -0.6045  0.6675 -1.7081
 3929SOL     OW23422   2.735   4.256   5.927  0.4128 -0.3155 -0.1998
 3929SOL    HW123423   2.779   4.182   5.969  0.0506 -0.4292 -0.0178
 3929SOL    HW223424   2.649   4.214   5.920  0.0153  0.2644  1.2086
 3930SOL     OW23425   0.211   3.364   6.816 -0.1548 -0.3081  0.3183
 3930SOL    HW123426   0.215   3.445   6.867 -2.1112 -0.4867  0.7503
 3930SOL    HW223427   0.143   3.389   6.754  0.1928  1.2376  0.5511
 3931SOL     OW23428   1.787   0.642   6.311  0.0363  0.7318 -0.3298
 3931SOL    HW123429   1.775   0.630   6.405  1.3547  1.8100 -0.0406
 3931SOL    HW223430   1.700   0.652   6.271  0.8792 -0.1391 -2.3717
 3932SOL     OW23431   2.805   4.265  11.528  0.0715 -0.2333  0.1560
 3932SOL    HW123432   2.870   4.277  11.458  1.1249  0.3609  1.2389
 3932SOL    HW223433   2.732   4.214  11.493  0.3276 -0.9207  0.6346
 3933SOL     OW23434   2.383   1.369   4.079  0.3301  0.3492  0.6862
 3933SOL    HW123435   2.304   1.328   4.045 -0.3275  0.2144  2.3599
 3933SOL    HW223436   2.343   1.454   4.100  0.0282  0.8584 -1.8750
 3934SOL     OW23437   2.041   2.601   7.175  0.5885 -0.4104 -0.3245
 3934SOL    HW123438   1.960   2.611   7.226  1.0177 -2.3580  0.7407
 3934SOL    HW223439   2.074   2.690   7.176  2.3095 -1.0355 -2.1028
 3935SOL     OW23440   0.964   2.055   3.737  0.1438 -0.4298 -0.3379
 3935SOL    HW123441   0.948   2.012   3.653 -1.2145  0.0336 -0.3133
 3935SOL    HW223442   1.013   1.982   3.774  0.6729  0.2090  0.2201
 3936SOL     OW23443   4.071   4.388  16.417  0.1899 -0.6138 -0.0025
 3936SOL    HW123444   4.143   4.357  16.363  0.4707  0.7867 -0.4461
 3936SOL    HW223445   4.120   4.411  16.495 -0.5392 -0.8638  0.5290
 3937SOL     OW23446   1.407   0.018   7.902 -0.3007  0.4451 -0.6660
 3937SOL    HW123447   1.468   4.729   7.972 -1.9695 -1.2139  0.2108
 3937SOL    HW223448   1.388   4.665   7.872  1.1682 -0.3484  0.7298
 3938SOL     OW23449   4.726   4.475   2.095  0.3111 -0.1465 -0.1619
 3938SOL    HW123450   4.676   4.480   2.013 -0.3097  2.2265  0.3510
 3938SOL    HW223451   4.733   4.381   2.110  0.8775 -0.3356 -1.5776
 3939SOL     OW23452   0.227   1.100   6.568 -0.3854 -0.6161  0.1352
 3939SOL    HW123453   0.173   1.044   6.512 -3.4416  1.4947  0.9566
 3939SOL    HW223454   0.280   1.138   6.499 -1.8120 -0.4511 -0.8715
 3940SOL     OW23455   3.000   3.771   3.622 -0.5954 -0.5998 -0.1697
 3940SOL    HW123456   2.973   3.727   3.541 -2.0473  1.7157 -0.9456
 3940SOL    HW223457   2.991   3.863   3.600  0.0103 -1.0936 -2.6039
 3941SOL     OW23458   1.849   1.843   7.279  0.2336  0.0610 -0.2655
 3941SOL    HW123459   1.878   1.752   7.285 -0.0998 -0.0268  0.0515
 3941SOL    HW223460   1.756   1.820   7.290  0.5183 -0.2759  1.4343
 3942SOL     OW23461   2.406   0.494   0.545  0.1637  0.0592 -0.3024
 3942SOL    HW123462   2.433   0.432   0.477  0.0999 -0.6204  0.2854
 3942SOL    HW223463   2.486   0.545   0.552  0.8798 -1.0778 -0.1956
 3943SOL     OW23464   1.653   1.100  12.786  0.1887  0.1583  0.4633
 3943SOL    HW123465   1.582   1.103  12.851 -0.2043 -1.6797  0.1156
 3943SOL    HW223466   1.648   1.181  12.735 -0.7650 -0.0500  0.2267
 3944SOL     OW23467   0.359   2.841   2.223  0.1856  0.3936 -0.0944
 3944SOL    HW123468   0.398   2.926   2.244  1.8840  0.3422 -3.0056
 3944SOL    HW223469   0.319   2.856   2.138  2.3594  2.1986 -0.8008
 3945SOL     OW23470   0.413   4.356   0.111 -0.0615 -0.1871  0.2933
 3945SOL    HW123471   0.450   4.384   0.195 -0.3652 -1.9501  1.0170
 3945SOL    HW223472   0.326   4.323   0.134 -0.5676  0.9037 -0.0986
 3946SOL     OW23473   0.002   3.801   3.484 -0.2699 -0.6258 -0.4446
 3946SOL    HW123474   4.673   3.785   3.553  0.8056 -0.4940  0.6058
 3946SOL    HW223475   0.001   3.711   3.451  2.3486 -1.1412  0.8862
 3947SOL     OW23476   1.129   3.303  16.449  0.3578 -0.2503  0.6572
 3947SOL    HW123477   1.195   3.371  16.461  1.6128 -1.5714  1.3048
 3947SOL    HW223478   1.176   3.242  16.507  1.5467  0.9416  0.9517
 3948SOL     OW23479   3.231   1.740   8.239 -0.2901 -0.4336  1.0232
 3948SOL    HW123480   3.227   1.697   8.324  1.2390 -1.1808  0.7051
 3948SOL    HW223481   3.325   1.736   8.222 -0.5053  0.0914 -0.3286
 3949SOL     OW23482   3.447   2.128   2.831  0.2369 -0.0778 -0.5300
 3949SOL    HW123483   3.391   2.159   2.760  1.6527  1.3410 -1.0494
 3949SOL    HW223484   3.504   2.203   2.851 -0.7416  0.5819 -0.2007
 3950SOL     OW23485   0.937   1.145   7.627  0.2604  0.0057 -0.1430
 3950SOL    HW123486   0.907   1.055   7.643  1.3058 -0.3321 -0.0845
 3950SOL    HW223487   0.905   1.158   7.538  0.0856  0.7057  0.0234
 3951SOL     OW23488   0.715   1.561  15.358  0.4170  0.2896 -0.5375
 3951SOL    HW123489   0.807   1.542  15.340  0.1561 -0.8814 -0.6337
 3951SOL    HW223490   0.685   1.591  15.272 -0.4972 -0.9360 -0.6392
 3952SOL     OW23491   0.598   0.586  15.356  0.0335 -0.1840 -0.9347
 3952SOL    HW123492   0.649   0.563  15.434  0.1754 -2.7992 -1.7834
 3952SOL    HW223493   0.578   0.498  15.324  1.9636 -0.5454 -1.1682
 3953SOL     OW23494   1.928   2.350   5.415  0.8400 -0.0902  0.4381
 3953SOL    HW123495   1.991   2.364   5.486  1.6085  0.1945 -0.2965
 3953SOL    HW223496   1.962   2.271   5.373  1.5895  0.0035  0.8638
 3954SOL     OW23497   3.513   1.485   5.122  0.0523  0.1033  0.1007
 3954SOL    HW123498   3.548   1.498   5.210 -0.2877  0.1869  0.2214
 3954SOL    HW223499   3.426   1.448   5.138  0.0162 -0.8937 -2.3129
 3955SOL     OW23500   1.322   3.899   7.863 -0.2567 -0.1202 -0.6629
 3955SOL    HW123501   1.257   3.857   7.920 -0.3573  1.5885  0.4717
 3955SOL    HW223502   1.405   3.876   7.905 -0.6901 -0.5198 -0.0252
 3956SOL     OW23503   1.059   0.084   8.666 -0.5567  0.3248  0.5966
 3956SOL    HW123504   1.002   0.023   8.619 -0.0645  2.7310 -3.0997
 3956SOL    HW223505   1.090   0.035   8.742  0.7950 -0.8053 -0.6897
 3957SOL     OW23506   3.200   2.098   7.986  0.8019  0.2262 -0.0592
 3957SOL    HW123507   3.165   2.080   8.073  0.6401  0.9155  0.0187
 3957SOL    HW223508   3.284   2.142   8.000  0.4003  1.4312 -1.4384
 3958SOL     OW23509   4.665   3.269   3.601 -0.2498 -0.4468 -0.2146
 3958SOL    HW123510   0.011   3.220   3.610 -0.2792 -0.5348 -0.4203
 3958SOL    HW223511   4.639   3.285   3.692  0.0404  1.7976 -0.5294
 3959SOL     OW23512   0.222   0.843   1.829 -0.0583  0.5929  0.2256
 3959SOL    HW123513   0.308   0.831   1.871 -1.4901  0.6298  3.1343
 3959SOL    HW223514   0.233   0.758   1.785  1.9858  1.6860 -1.3673
 3960SOL     OW23515   0.658   1.771   4.783 -0.0532 -0.5111 -0.8449
 3960SOL    HW123516   0.686   1.759   4.692  2.8242 -0.8937  0.0817
 3960SOL    HW223517   0.717   1.839   4.816  1.2750 -2.3671  0.5880
 3961SOL     OW23518   2.555   2.767   1.398 -0.0665  0.1198 -0.5315
 3961SOL    HW123519   2.567   2.802   1.310 -1.6038  1.1975 -0.3277
 3961SOL    HW223520   2.474   2.812   1.423 -0.8159 -1.7043  0.3280
 3962SOL     OW23521   2.947   1.053   3.032  0.1206 -0.0355 -0.5368
 3962SOL    HW123522   2.952   1.115   2.959  2.2898  0.6316  0.1816
 3962SOL    HW223523   2.858   1.017   3.025 -0.1636  0.3371  1.2652
 3963SOL     OW23524   3.594   4.073  16.760  0.4367  0.4010  0.8019
 3963SOL    HW123525   3.662   4.072  16.827  0.2490  1.9971  1.0197
 3963SOL    HW223526   3.664   4.073  16.695  1.7913  0.2138  2.2622
 3964SOL     OW23527   2.959   1.526  15.684  0.6332  0.4211  0.0883
 3964SOL    HW123528   2.974   1.579  15.605  1.4607 -1.3286 -0.9266
 3964SOL    HW223529   3.008   1.583  15.743 -1.4006 -2.3980  4.4314
 3965SOL     OW23530   0.479   4.286   1.388 -0.0331 -0.2530 -0.0366
 3965SOL    HW123531   0.418   4.254   1.322  1.1789 -2.9761  0.1597
 3965SOL    HW223532   0.564   4.275   1.345 -0.3120 -0.7943 -0.4468
 3966SOL     OW23533   2.811   3.759   7.846  0.5317 -0.2977  0.2759
 3966SOL    HW123534   2.731   3.808   7.868  0.6067 -0.1548  0.2339
 3966SOL    HW223535   2.869   3.834   7.830  0.2656 -0.3185 -0.8112
 3967SOL     OW23536   2.731   0.982   2.307 -0.5488  0.3209 -0.2571
 3967SOL    HW123537   2.781   1.042   2.362 -0.8264  1.2118 -0.9826
 3967SOL    HW223538   2.794   0.965   2.238  1.7649 -1.2912  2.2271
 3968SOL     OW23539   1.833   0.071   7.553  0.1416  0.5153 -0.2262
 3968SOL    HW123540   1.785   0.011   7.497 -0.3863 -0.9889  1.8227
 3968SOL    HW223541   1.891   0.007   7.593  1.5742  0.7162 -1.9906
 3969SOL     OW23542   3.583   2.161   9.312  0.4854  0.0411 -0.2013
 3969SOL    HW123543   3.673   2.190   9.301  0.6155 -0.9920 -1.8283
 3969SOL    HW223544   3.552   2.233   9.367  1.7643 -0.5394  1.3055
 3970SOL     OW23545   1.651   1.447   6.552  0.1570  0.1504 -0.0167
 3970SOL    HW123546   1.699   1.427   6.633  0.4163 -0.6238 -0.3618
 3970SOL    HW223547   1.579   1.497   6.588  0.0240  0.3092 -0.5064
 3971SOL     OW23548   2.209   1.907  16.625  0.2523 -0.6690 -0.2766
 3971SOL    HW123549   2.247   1.994  16.640  0.2383 -0.3340 -2.2056
 3971SOL    HW223550   2.257   1.854  16.688 -0.1536  1.6479  1.9988
 3972SOL     OW23551   0.941   2.529   6.819 -0.0526 -0.2597 -0.0277
 3972SOL    HW123552   0.954   2.511   6.912 -0.1873  1.4093  0.2979
 3972SOL    HW223553   0.943   2.624   6.819  2.9798 -0.3107 -1.5471
 3973SOL     OW23554   4.108   1.795   5.806 -0.1248  0.0273 -0.0066
 3973SOL    HW123555   4.058   1.806   5.886  0.3621 -1.2524  0.4680
 3973SOL    HW223556   4.146   1.883   5.804  0.6727 -0.3344 -1.1633
 3974SOL     OW23557   4.434   0.929   2.114  0.3157  0.0324 -0.0806
 3974SOL    HW123558   4.518   0.891   2.086  1.1465  0.2498  2.1448
 3974SOL    HW223559   4.432   0.905   2.206  2.5201 -0.6792 -0.2179
 3975SOL     OW23560   2.979   4.671  16.888  0.0069 -0.2002  0.0457
 3975SOL    HW123561   3.057   4.712  16.852  0.1856 -0.2264  0.3990
 3975SOL    HW223562   3.005   4.579  16.885 -0.3732 -0.2470 -1.5762
 3976SOL     OW23563   3.897   2.969   2.122 -0.7020 -1.3834  0.7119
 3976SOL    HW123564   3.864   2.904   2.183 -2.6000 -1.5468 -0.5009
 3976SOL    HW223565   3.820   2.957   2.067 -0.4236 -1.3702  0.3216
 3977SOL     OW23566   4.140   4.723   7.251  0.1786  0.1414 -0.2111
 3977SOL    HW123567   4.076   4.655   7.274  0.9888 -0.2969  0.7364
 3977SOL    HW223568   4.118   0.049   7.321  1.2055 -1.8919  1.9419
 3978SOL     OW23569   4.582   1.616  12.326  0.1690 -0.5449  0.0225
 3978SOL    HW123570   4.656   1.676  12.329  0.2207 -0.6383  0.6913
 3978SOL    HW223571   4.623   1.539  12.287  0.0951  0.2013 -1.5352
 3979SOL     OW23572   2.400   2.784   7.474  0.5089 -0.4191  0.3658
 3979SOL    HW123573   2.429   2.782   7.383 -0.4914 -0.1301  0.0411
 3979SOL    HW223574   2.486   2.797   7.515  0.1257 -0.9400  1.3289
 3980SOL     OW23575   2.969   0.202   6.797  0.0185 -0.6117 -0.4244
 3980SOL    HW123576   3.015   0.285   6.784 -0.0568 -0.3040  1.3213
 3980SOL    HW223577   3.035   0.132   6.799  0.7339  0.0597 -0.6046
 3981SOL     OW23578   3.120   3.735  11.215 -0.4716  0.0792 -0.1212
 3981SOL    HW123579   3.136   3.820  11.174  0.6828  0.2643  0.7215
 3981SOL    HW223580   3.057   3.693  11.157  2.6083  0.6468 -3.8789
 3982SOL     OW23581   1.863   2.110   8.796 -0.4056 -0.0919  0.6581
 3982SOL    HW123582   1.925   2.178   8.824 -0.6349  0.1019  0.6954
 3982SOL    HW223583   1.924   2.042   8.766  2.0832  0.8521  3.5560
 3983SOL     OW23584   4.528   3.727  10.641 -0.9796  0.2141 -0.1920
 3983SOL    HW123585   4.548   3.633  10.644 -1.8715 -0.0023 -0.6582
 3983SOL    HW223586   4.462   3.737  10.709 -0.9133  0.7565 -0.2101
 3984SOL     OW23587   0.477   4.590   0.885 -0.0182  0.0501 -0.1112
 3984SOL    HW123588   0.468   4.667   0.942  0.3762  1.3678 -1.8460
 3984SOL    HW223589   0.458   4.525   0.952 -0.7043  1.1543  0.7804
 3985SOL     OW23590   1.002   1.819   1.627  0.1806 -0.1512  0.2792
 3985SOL    HW123591   0.984   1.737   1.580  0.8716  0.5235 -1.1383
 3985SOL    HW223592   1.071   1.789   1.685  0.4229  1.2275  0.7039
 3986SOL     OW23593   3.347   2.538  10.492 -0.4209 -0.1643 -0.1376
 3986SOL    HW123594   3.338   2.556  10.398  1.1394  2.2731  0.1939
 3986SOL    HW223595   3.272   2.480  10.507 -0.5098  0.1960  0.7555
 3987SOL     OW23596   1.505   1.144   6.116 -0.0006  0.0608 -0.6317
 3987SOL    HW123597   1.533   1.181   6.032  1.4820 -0.3420 -0.3174
 3987SOL    HW223598   1.556   1.197   6.178 -0.4381 -2.6917  2.0594
 3988SOL     OW23599   1.657   4.104   3.700  0.1232  0.7484 -0.3128
 3988SOL    HW123600   1.710   4.120   3.622  0.6993  1.2689  0.1881
 3988SOL    HW223601   1.564   4.120   3.681 -0.1976 -1.0102 -0.2549
 3989SOL     OW23602   1.049   2.226   7.986  0.2673  0.5122 -0.0822
 3989SOL    HW123603   0.982   2.220   7.918 -0.4580 -1.4575  0.8238
 3989SOL    HW223604   1.088   2.311   7.962 -0.2608  0.6917 -0.3139
 3990SOL     OW23605   3.382   2.640  10.838 -0.3690 -0.3859 -0.2393
 3990SOL    HW123606   3.342   2.692  10.768  0.5739  0.3936 -0.1946
 3990SOL    HW223607   3.464   2.626  10.790 -0.3381 -0.6881 -0.1024
 3991SOL     OW23608   1.374   0.228   9.183 -0.0894 -0.5513 -0.6140
 3991SOL    HW123609   1.403   0.264   9.267  0.9831  0.7179 -1.5244
 3991SOL    HW223610   1.322   0.153   9.213 -1.9772  0.0851 -2.3112
 3992SOL     OW23611   0.904   3.696   5.699 -0.3018  0.2944  0.3353
 3992SOL    HW123612   0.974   3.641   5.735 -0.7225 -0.4746 -0.0179
 3992SOL    HW223613   0.895   3.655   5.613  0.3157  1.3347 -0.2226
 3993SOL     OW23614   3.991   3.402   3.455  0.2686  0.1045  0.4696
 3993SOL    HW123615   4.083   3.406   3.428 -0.1387 -0.8458 -1.0901
 3993SOL    HW223616   3.993   3.467   3.525  1.7789  2.4272 -1.7458
 3994SOL     OW23617   2.621   1.809   6.078  0.0068  0.6766  0.0731
 3994SOL    HW123618   2.574   1.882   6.036 -0.3386  1.8124  2.4103
 3994SOL    HW223619   2.703   1.858   6.083  0.7065 -0.4578 -0.3800
 3995SOL     OW23620   2.281   2.617   1.137  0.5130  0.7312  0.5445
 3995SOL    HW123621   2.329   2.555   1.193  0.5001 -0.9300 -1.3001
 3995SOL    HW223622   2.339   2.690   1.115  0.6058  0.8849  1.2696
 3996SOL     OW23623   0.601   3.119   1.700  0.7357 -0.4412 -0.0282
 3996SOL    HW123624   0.645   3.034   1.710 -0.8454 -1.0180  2.1628
 3996SOL    HW223625   0.567   3.117   1.611  3.8209  0.5793 -1.2075
 3997SOL     OW23626   0.576   1.759  14.775  0.1847  0.5871  0.7065
 3997SOL    HW123627   0.536   1.676  14.803  0.8672 -0.2080 -0.6902
 3997SOL    HW223628   0.505   1.821  14.764 -1.8939 -1.8998  0.0659
 3998SOL     OW23629   1.003   2.567   2.262 -0.5755  0.0934  0.3483
 3998SOL    HW123630   0.965   2.505   2.199 -0.5307  0.8335 -0.4041
 3998SOL    HW223631   1.037   2.635   2.203  3.4438 -0.6853  1.7489
 3999SOL     OW23632   4.206   3.700   2.373  0.5081 -0.7814  0.0192
 3999SOL    HW123633   4.230   3.669   2.460 -1.8226 -4.0231 -0.5147
 3999SOL    HW223634   4.195   3.793   2.391  0.9200 -0.4735 -1.3023
 4000SOL     OW23635   4.506   1.586   4.326 -0.0578 -0.6028 -0.2071
 4000SOL    HW123636   4.428   1.536   4.347 -0.8589  0.6511 -0.1964
 4000SOL    HW223637   4.543   1.599   4.413 -0.9290 -2.4673  0.4389
 4001SOL     OW23638   4.507   3.577  12.201 -0.2274 -0.1513 -0.5140
 4001SOL    HW123639   4.560   3.628  12.262 -1.5658  1.6011 -0.8273
 4001SOL    HW223640   4.419   3.600  12.230  1.1721  0.7483  2.9858
 4002SOL     OW23641   1.668   3.534  12.835 -0.0867 -0.1218 -0.1045
 4002SOL    HW123642   1.610   3.610  12.831  0.3957  0.4044  3.8106
 4002SOL    HW223643   1.746   3.573  12.874 -1.3398  2.7162 -0.4364
 4003SOL     OW23644   1.244   1.317   5.838 -0.0785  0.5497 -0.0755
 4003SOL    HW123645   1.282   1.400   5.810 -0.3131  0.0224 -1.9534
 4003SOL    HW223646   1.153   1.343   5.853  0.0411  2.2384 -2.2331
 4004SOL     OW23647   2.235   3.114   1.145 -0.1561  0.0083 -0.3717
 4004SOL    HW123648   2.161   3.074   1.101 -0.5047 -0.3233  0.5105
 4004SOL    HW223649   2.203   3.162   1.222 -0.5914 -2.0001  0.7091
 4005SOL     OW23650   2.067   1.569   6.206  0.0031  0.0399  0.4134
 4005SOL    HW123651   2.133   1.591   6.141  0.1130  1.2881  0.9540
 4005SOL    HW223652   2.069   1.654   6.250  2.5574  0.3317 -0.2275
 4006SOL     OW23653   3.018   2.943   8.436  0.0589  0.2715  0.4397
 4006SOL    HW123654   3.058   2.903   8.513 -2.3462  0.2162  1.6564
 4006SOL    HW223655   2.954   3.008   8.468  0.0530  0.3316  0.3074
 4007SOL     OW23656   0.643   0.381  16.817  0.2895 -0.0648  0.1458
 4007SOL    HW123657   0.562   0.329  16.817 -0.5931  1.3090  1.0038
 4007SOL    HW223658   0.695   0.308  16.784 -1.2270 -0.8581 -0.4691
 4008SOL     OW23659   2.307   3.824   4.563 -0.6782 -0.6567 -0.3973
 4008SOL    HW123660   2.350   3.884   4.625 -4.2308  1.2414  0.2026
 4008SOL    HW223661   2.255   3.877   4.503 -0.2383 -0.6163 -0.7495
 4009SOL     OW23662   1.426   2.970   9.003  0.5861  0.0297 -0.1703
 4009SOL    HW123663   1.513   2.931   8.997  0.6903  0.0391  1.2942
 4009SOL    HW223664   1.418   2.962   9.098  0.8603 -1.7107 -0.2902
 4010SOL     OW23665   3.976   3.155  14.579 -0.0631 -0.4058  0.0110
 4010SOL    HW123666   3.996   3.087  14.514  1.1766  0.2680 -0.3044
 4010SOL    HW223667   3.906   3.206  14.538  1.3159  1.6378  0.2552
 4011SOL     OW23668   2.476   0.917   4.804  0.1993  1.3110 -0.8275
 4011SOL    HW123669   2.503   0.844   4.859 -2.2100  0.4152 -0.8160
 4011SOL    HW223670   2.535   0.910   4.729  2.0460 -1.0316  0.8477
 4012SOL     OW23671   0.612   0.607  10.304 -0.7765  0.4910 -0.1983
 4012SOL    HW123672   0.558   0.649  10.372  0.3179  0.5080  0.6659
 4012SOL    HW223673   0.591   0.659  10.227 -2.3833 -0.4624 -0.3984
 4013SOL     OW23674   3.555   0.452   2.623 -0.8929  0.2585  0.2635
 4013SOL    HW123675   3.649   0.452   2.642 -0.4853  0.6560 -1.7564
 4013SOL    HW223676   3.542   0.357   2.621 -0.3596  0.2245 -1.3907
 4014SOL     OW23677   1.664   2.975   6.215  0.2942 -0.1205  0.4095
 4014SOL    HW123678   1.701   2.892   6.244  3.0764  1.2768  0.8350
 4014SOL    HW223679   1.596   2.940   6.158 -0.2839  0.2109  0.8997
 4015SOL     OW23680   3.274   1.520   2.230  0.4950  0.0354 -0.8579
 4015SOL    HW123681   3.314   1.527   2.144  0.4841 -0.4780 -0.9068
 4015SOL    HW223682   3.201   1.580   2.218  0.8564  0.9589  1.4696
 4016SOL     OW23683   0.839   3.603  11.446  0.5848  0.0475  0.3865
 4016SOL    HW123684   0.852   3.594  11.540  1.6513 -0.6034  0.1842
 4016SOL    HW223685   0.910   3.665  11.428 -0.1222  1.1707  1.4804
 4017SOL     OW23686   0.330   1.447   2.094  0.5155  0.1023  0.6016
 4017SOL    HW123687   0.326   1.400   2.177  0.1100  0.7533  0.9520
 4017SOL    HW223688   0.241   1.431   2.062  0.5502  1.4894 -0.1921
 4018SOL     OW23689   3.022   0.775   8.399 -0.4458 -0.4178 -0.0784
 4018SOL    HW123690   3.068   0.763   8.316 -0.9234 -1.4299 -0.2087
 4018SOL    HW223691   3.013   0.683   8.425 -3.9422  0.1778  0.8283
 4019SOL     OW23692   2.084   3.903   7.575 -0.1779  0.2834  0.5370
 4019SOL    HW123693   1.992   3.927   7.586 -0.0193  2.3027 -2.4151
 4019SOL    HW223694   2.140   3.960   7.628  0.4821  0.2082 -0.0682
 4020SOL     OW23695   2.831   0.842  10.743  0.4548  0.3368 -0.0328
 4020SOL    HW123696   2.914   0.796  10.759  0.3072 -0.0005 -0.2537
 4020SOL    HW223697   2.858   0.924  10.701  0.5592 -0.4300 -1.4424
 4021SOL     OW23698   2.340   1.404  15.843  0.0307 -0.6361  0.6032
 4021SOL    HW123699   2.432   1.383  15.828  0.0095  0.8128 -1.6602
 4021SOL    HW223700   2.308   1.408  15.752 -1.8172 -1.2748  1.2316
 4022SOL     OW23701   2.577   0.367   4.003  0.1288 -0.3550  0.1240
 4022SOL    HW123702   2.484   0.374   4.023 -0.0910  0.1928 -1.1013
 4022SOL    HW223703   2.609   0.381   4.092  1.4183  0.5315 -0.4704
 4023SOL     OW23704   2.963   1.018   3.744  0.0834 -0.0623 -0.1171
 4023SOL    HW123705   2.970   0.945   3.682 -3.0225 -1.5805  1.3099
 4023SOL    HW223706   2.988   1.089   3.685 -0.5542 -0.0310 -0.3550
 4024SOL     OW23707   3.713   0.086   7.571  0.2797 -0.0917 -0.2928
 4024SOL    HW123708   3.766   0.140   7.630  0.5076 -0.4962 -0.1265
 4024SOL    HW223709   3.635   0.141   7.562  0.0683 -0.5741 -1.3500
 4025SOL     OW23710   4.299   2.860   2.956 -0.3668 -0.0024  0.2540
 4025SOL    HW123711   4.284   2.954   2.966 -0.3086 -0.1458  1.7708
 4025SOL    HW223712   4.394   2.857   2.971 -0.7151 -0.9788  2.2580
 4026SOL     OW23713   2.025   0.510   6.255  0.5551 -0.4799  0.1034
 4026SOL    HW123714   1.961   0.561   6.305  0.1898 -0.0056 -0.8467
 4026SOL    HW223715   1.977   0.509   6.172 -0.6284 -2.7467  0.8069
 4027SOL     OW23716   1.551   1.626   0.148 -0.5263 -0.1230 -0.2627
 4027SOL    HW123717   1.480   1.657   0.091 -1.4181  0.4773  1.1823
 4027SOL    HW223718   1.526   1.665   0.231 -1.3792 -0.0188 -0.5635
 4028SOL     OW23719   3.145   4.295   4.808  0.0780 -0.2695 -0.1550
 4028SOL    HW123720   3.171   4.204   4.795  0.0050 -0.2959 -0.1173
 4028SOL    HW223721   3.050   4.291   4.803  0.0171 -1.2145  1.4793
 4029SOL     OW23722   1.829   1.114   5.906  0.5627  0.0673 -0.2531
 4029SOL    HW123723   1.858   1.064   5.829  1.0361  0.2026 -0.1582
 4029SOL    HW223724   1.837   1.050   5.977 -1.4524  0.1672  0.0634
 4030SOL     OW23725   0.650   2.765  14.281  0.0476 -0.7775 -0.5715
 4030SOL    HW123726   0.697   2.848  14.293  0.2845 -1.0151  0.1589
 4030SOL    HW223727   0.701   2.697  14.325  1.1124 -0.3631 -1.1686
 4031SOL     OW23728   4.444   1.120   1.015  0.5115 -0.1406  0.7741
 4031SOL    HW123729   4.453   1.118   0.919  0.1326  0.5065  0.7217
 4031SOL    HW223730   4.410   1.210   1.012 -2.6644 -1.3241  1.0115
 4032SOL     OW23731   1.761   3.508   8.822 -0.1623  0.4814  0.1684
 4032SOL    HW123732   1.793   3.594   8.851 -0.4006 -0.7628  4.0852
 4032SOL    HW223733   1.846   3.476   8.789 -0.5114 -0.3058  0.0416
 4033SOL     OW23734   2.796   2.798   8.685 -0.5270  0.4401  0.0729
 4033SOL    HW123735   2.791   2.765   8.775 -1.0223 -2.5709 -1.0326
 4033SOL    HW223736   2.824   2.886   8.708 -0.7085  1.0858 -2.1767
 4034SOL     OW23737   0.621   2.533   3.960  0.0153 -0.4073  0.3817
 4034SOL    HW123738   0.715   2.545   3.971  0.4332 -0.4642 -3.3072
 4034SOL    HW223739   0.623   2.459   3.900 -1.3078  0.8998 -1.2744
 4035SOL     OW23740   2.543   1.974   4.903 -0.3223 -0.2837 -0.0603
 4035SOL    HW123741   2.464   1.967   4.850 -1.0269  1.6675  0.7593
 4035SOL    HW223742   2.543   1.880   4.921 -1.5978 -0.3093 -0.2447
 4036SOL     OW23743   1.897   2.314   9.238  0.2710  0.2437 -0.6611
 4036SOL    HW123744   1.823   2.285   9.185 -0.6519  2.1032 -0.4083
 4036SOL    HW223745   1.858   2.327   9.325  0.4165 -2.4058 -0.1902
 4037SOL     OW23746   0.338   2.000   9.147 -0.7922 -0.0045  0.0791
 4037SOL    HW123747   0.277   1.985   9.075 -0.3314 -1.0576 -0.0914
 4037SOL    HW223748   0.416   1.948   9.127  0.7318  2.9188 -1.4572
 4038SOL     OW23749   4.434   2.691   4.252  0.9474  0.0996 -0.2539
 4038SOL    HW123750   4.440   2.641   4.171 -0.3147 -0.1375 -0.2103
 4038SOL    HW223751   4.346   2.730   4.252  1.2760  0.8001  1.9000
 4039SOL     OW23752   1.538   1.280  11.498  0.6566  0.0108 -0.2414
 4039SOL    HW123753   1.499   1.365  11.520  1.2800  0.0849  0.5655
 4039SOL    HW223754   1.611   1.295  11.438  1.1821  1.6851  0.8298
 4040SOL     OW23755   3.539   4.311   3.563  0.1086  0.6790  0.5799
 4040SOL    HW123756   3.572   4.343   3.479 -1.2607 -2.1319 -1.0422
 4040SOL    HW223757   3.444   4.302   3.555  0.3098 -1.4346  0.7387
 4041SOL     OW23758   3.522   2.399   9.482 -0.4815 -0.0218 -0.2031
 4041SOL    HW123759   3.565   2.464   9.427  2.6250 -0.9633  1.1421
 4041SOL    HW223760   3.494   2.452   9.557  1.9054 -1.7121  1.8731
 4042SOL     OW23761   2.644   0.478   9.080  0.1689 -0.9427 -0.5947
 4042SOL    HW123762   2.679   0.553   9.127 -2.4647 -1.2639  1.9307
 4042SOL    HW223763   2.563   0.516   9.046  0.6680 -0.7698 -1.5852
 4043SOL     OW23764   4.688   2.149  15.478 -0.1286  0.7024 -0.6196
 4043SOL    HW123765   0.040   2.111  15.486  0.0013  0.9102 -1.1053
 4043SOL    HW223766   4.692   2.193  15.393 -1.1313  1.2558 -0.3793
 4044SOL     OW23767   4.689   4.259   8.418  0.8012  0.7201  0.1518
 4044SOL    HW123768   4.693   4.169   8.388  1.3871  0.6950  0.3048
 4044SOL    HW223769   0.045   4.285   8.410 -0.0466  2.9208 -2.4546
 4045SOL     OW23770   2.935   3.515   3.961  0.0052  0.6757  0.1436
 4045SOL    HW123771   2.935   3.553   4.049 -1.4806  0.0574  0.4141
 4045SOL    HW223772   3.026   3.506   3.933  0.5496  2.1058  1.4101
 4046SOL     OW23773   4.179   4.518   5.093 -0.0833 -0.0122 -0.1632
 4046SOL    HW123774   4.168   4.505   5.187 -1.4934 -1.9801 -0.5980
 4046SOL    HW223775   4.148   4.436   5.054 -1.9308  1.0069 -0.8405
 4047SOL     OW23776   3.093   4.609   3.399  0.2541  0.5641  0.0317
 4047SOL    HW123777   3.068   4.664   3.325  0.2034  0.3935 -0.0790
 4047SOL    HW223778   3.051   4.524   3.384 -1.4459  1.5656 -0.7578
 4048SOL     OW23779   4.455   3.179  11.149  0.3287  0.2134  0.2992
 4048SOL    HW123780   4.527   3.160  11.089  1.0620  0.9940  0.9402
 4048SOL    HW223781   4.511   3.215  11.217  2.8487  0.2264 -1.7501
 4049SOL     OW23782   0.683   4.202   7.338 -0.0464  0.2288 -0.1079
 4049SOL    HW123783   0.648   4.123   7.296  0.9131  0.2076 -0.8638
 4049SOL    HW223784   0.648   4.180   7.424 -0.6301 -0.5361 -0.5421
 4050SOL     OW23785   3.069   1.550   4.152 -0.2696 -0.2764 -0.1519
 4050SOL    HW123786   3.043   1.631   4.108 -0.4096  0.7685  1.8520
 4050SOL    HW223787   2.984   1.519   4.183  0.1824 -0.9235  0.4339
 4051SOL     OW23788   0.453   1.003   3.829 -0.4545  0.5227  0.2372
 4051SOL    HW123789   0.371   0.979   3.786 -0.6919 -0.6029  1.3356
 4051SOL    HW223790   0.503   0.977   3.751 -0.1727  1.0083  0.2557
 4052SOL     OW23791   3.693   4.733   1.833  0.1018 -0.4829 -0.1203
 4052SOL    HW123792   3.656   0.007   1.920  0.0585  2.0339 -0.4287
 4052SOL    HW223793   3.672   0.081   1.792  2.8031  0.5501  0.6503
 4053SOL     OW23794   2.467   2.399   5.146  0.8947  0.4621 -0.2504
 4053SOL    HW123795   2.513   2.324   5.183  0.7361  2.4635  3.9424
 4053SOL    HW223796   2.539   2.459   5.127  1.0620  0.0856 -0.8262
 4054SOL     OW23797   3.766   0.339  16.037  0.1706  0.4995 -0.1980
 4054SOL    HW123798   3.749   0.407  16.102  0.4332 -0.9313  1.4056
 4054SOL    HW223799   3.842   0.288  16.068 -0.3660 -0.4699 -0.4568
 4055SOL     OW23800   3.001   1.355   8.171  0.4216 -0.0684  0.1357
 4055SOL    HW123801   2.916   1.364   8.213  0.1751  2.0654 -0.8612
 4055SOL    HW223802   3.018   1.446   8.147 -0.2569 -0.6570 -2.5575
 4056SOL     OW23803   4.577   2.807   2.004  0.5874  0.1281 -0.5213
 4056SOL    HW123804   4.521   2.738   2.039  2.3254  0.2641  2.6403
 4056SOL    HW223805   4.530   2.823   1.923  0.3876  2.0317 -0.0523
 4057SOL     OW23806   4.600   3.225   4.199  0.2051  0.3739  0.0229
 4057SOL    HW123807   4.660   3.154   4.177  0.7403  0.7755  0.1798
 4057SOL    HW223808   4.641   3.276   4.270  1.6790  0.2447 -0.7260
 4058SOL     OW23809   3.280   1.531   1.433  0.9440  0.6747 -0.3949
 4058SOL    HW123810   3.338   1.549   1.359  1.9194 -1.3116 -0.1116
 4058SOL    HW223811   3.236   1.616   1.435  0.0616  0.1848  0.9924
 4059SOL     OW23812   2.264   3.730   7.431 -0.3131 -0.1815  0.7169
 4059SOL    HW123813   2.185   3.779   7.455  0.1814  0.4954  0.9684
 4059SOL    HW223814   2.311   3.784   7.369 -2.7241  0.2593 -0.7274
 4060SOL     OW23815   1.450   1.002   4.283  0.2510  0.2710  0.1279
 4060SOL    HW123816   1.410   0.921   4.313  0.4424  0.2922  0.4434
 4060SOL    HW223817   1.486   1.029   4.367 -0.4031 -1.5397  0.9992
 4061SOL     OW23818   4.726   3.434   1.674  0.3276 -0.6412  0.1049
 4061SOL    HW123819   4.678   3.494   1.732 -0.5450  1.3026 -2.6088
 4061SOL    HW223820   4.716   3.349   1.717  2.9829 -1.7674 -1.5375
 4062SOL     OW23821   1.685   1.534   1.528 -0.0145  0.0715 -0.2913
 4062SOL    HW123822   1.619   1.470   1.503 -0.2517  0.6594 -1.1683
 4062SOL    HW223823   1.740   1.533   1.449 -0.1000 -0.2712 -0.3453
 4063SOL     OW23824   1.434   0.394   3.868  0.5434  0.3467  0.4831
 4063SOL    HW123825   1.343   0.410   3.845  1.0085  0.0390 -1.6049
 4063SOL    HW223826   1.477   0.368   3.786  1.7359  1.1539  0.8542
 4064SOL     OW23827   2.942   1.721   3.652 -0.0536  0.3269 -0.4204
 4064SOL    HW123828   2.885   1.655   3.690  1.2759  1.8208  4.2428
 4064SOL    HW223829   2.916   1.738   3.562 -1.5147  0.1540 -0.0331
 4065SOL     OW23830   2.634   3.481   8.181  0.0536  0.0579  0.6485
 4065SOL    HW123831   2.604   3.464   8.270  1.9012  2.4175  1.7423
 4065SOL    HW223832   2.646   3.392   8.147 -0.6092 -0.4139  1.6491
 4066SOL     OW23833   2.611   2.442   3.488 -0.1442  0.4315 -0.8667
 4066SOL    HW123834   2.682   2.380   3.502  0.9559  1.6611 -1.0066
 4066SOL    HW223835   2.616   2.490   3.571  0.5995 -2.1821  0.5759
 4067SOL     OW23836   0.488   3.985   3.780 -0.2269 -0.4212 -0.6923
 4067SOL    HW123837   0.425   4.008   3.848  0.7072  0.3515 -0.1015
 4067SOL    HW223838   0.449   4.039   3.710 -0.7747 -0.7452 -0.6385
 4068SOL     OW23839   2.652   3.178   8.187 -0.5664  0.0025  0.0615
 4068SOL    HW123840   2.667   3.084   8.196 -1.1794 -0.1099 -0.0916
 4068SOL    HW223841   2.604   3.180   8.104 -1.0671  1.7697  0.3956
 4069SOL     OW23842   2.094   0.696   7.229 -0.4048  0.2488 -0.6122
 4069SOL    HW123843   2.034   0.623   7.212 -0.7921  0.3210  0.4604
 4069SOL    HW223844   2.109   0.719   7.137 -0.1967  1.0121 -0.3896
 4070SOL     OW23845   4.113   0.887  15.666  0.0380  0.6824  0.1065
 4070SOL    HW123846   4.188   0.942  15.643  0.4433  0.2595  0.4277
 4070SOL    HW223847   4.041   0.951  15.663 -0.9368 -0.5401 -2.3675
 4071SOL     OW23848   1.500   4.318   9.934 -0.7496  0.1498  0.3688
 4071SOL    HW123849   1.559   4.392   9.917 -1.2507  0.7296  1.1432
 4071SOL    HW223850   1.543   4.257   9.874 -0.3278  0.2142  0.6091
 4072SOL     OW23851   0.400   3.044   8.981  0.7880 -0.0054 -0.2622
 4072SOL    HW123852   0.308   3.027   9.003  1.6809 -2.5253  1.5067
 4072SOL    HW223853   0.444   3.014   9.060 -1.9161  0.0933  1.2911
 4073SOL     OW23854   2.038   3.268   5.952 -0.4247  0.1203 -0.1202
 4073SOL    HW123855   1.990   3.300   5.876 -0.2271 -0.5667 -0.5266
 4073SOL    HW223856   2.125   3.297   5.928 -0.5219 -0.1967 -0.8430
 4074SOL     OW23857   2.622   4.474   2.542 -0.4250  0.8199  0.5576
 4074SOL    HW123858   2.570   4.396   2.564 -0.9423  0.8816 -0.4511
 4074SOL    HW223859   2.554   4.541   2.536 -1.0954  0.2972  2.3728
 4075SOL     OW23860   1.684   3.184   2.193  0.0025 -0.0953  0.1138
 4075SOL    HW123861   1.724   3.125   2.129  0.4839 -0.1060  0.4289
 4075SOL    HW223862   1.682   3.270   2.151 -1.4468 -0.4785 -0.5698
 4076SOL     OW23863   3.451   1.273   7.244 -0.3294  0.2746 -0.3240
 4076SOL    HW123864   3.436   1.300   7.153 -0.4839  0.4851 -0.2357
 4076SOL    HW223865   3.414   1.345   7.296 -0.7506  0.4469 -0.8608
 4077SOL     OW23866   1.496   0.047  17.539 -0.0340 -0.5119 -0.4016
 4077SOL    HW123867   1.424   4.723  17.522 -1.0148  0.8256 -1.0258
 4077SOL    HW223868   1.572   4.734  17.569 -0.7395 -1.4122 -0.0898
 4078SOL     OW23869   1.504   1.804   3.557 -0.2080 -0.4729 -0.7225
 4078SOL    HW123870   1.430   1.852   3.521  1.3301  1.8740 -0.7138
 4078SOL    HW223871   1.574   1.869   3.551 -0.3378 -0.4407 -1.9025
 4079SOL     OW23872   2.079   1.032  15.523 -0.0574 -0.3860 -0.5799
 4079SOL    HW123873   2.070   0.945  15.562  0.3538 -0.0034  0.3867
 4079SOL    HW223874   2.140   1.024  15.450  1.3212  0.5369  0.4745
 4080SOL     OW23875   4.618   1.571   2.520  0.1501 -0.4251  0.0592
 4080SOL    HW123876   4.545   1.619   2.560  1.5973  1.4882  0.4355
 4080SOL    HW223877   4.576   1.488   2.501 -0.5158  0.0243 -0.4417
 4081SOL     OW23878   4.082   2.951  12.486 -0.3424 -0.1250 -0.3575
 4081SOL    HW123879   4.033   2.942  12.569  0.9596  0.0171  0.4207
 4081SOL    HW223880   4.104   2.858  12.480  0.7282  0.1583 -0.6650
 4082SOL     OW23881   3.388   2.603   8.050 -0.3812 -0.1770  0.5432
 4082SOL    HW123882   3.459   2.542   8.067 -0.3786 -0.2647  0.2101
 4082SOL    HW223883   3.322   2.546   8.010  0.9588  0.2143 -2.2294
 4083SOL     OW23884   4.435   2.406   8.045  0.5768 -0.9578 -0.0221
 4083SOL    HW123885   4.482   2.327   8.020 -1.4546 -1.7433 -1.3566
 4083SOL    HW223886   4.436   2.454   7.962 -0.6925 -2.0250 -0.6523
 4084SOL     OW23887   2.367   0.538  13.315  0.0232 -0.1395  0.3932
 4084SOL    HW123888   2.303   0.513  13.248 -0.1292 -2.3032  1.3268
 4084SOL    HW223889   2.455   0.510  13.290 -0.3128 -1.3686  0.5647
 4085SOL     OW23890   2.820   3.847  10.894  0.2597  0.2314  0.1707
 4085SOL    HW123891   2.735   3.804  10.885 -1.5064  3.1039  3.3655
 4085SOL    HW223892   2.801   3.908  10.965 -0.8029  0.2559 -0.1421
 4086SOL     OW23893   3.300   3.738   8.174  0.0797 -0.4022  0.3956
 4086SOL    HW123894   3.236   3.682   8.130 -0.5071  0.6490 -0.0700
 4086SOL    HW223895   3.362   3.762   8.105  0.5137  1.0621  1.2831
 4087SOL     OW23896   3.441   1.827   1.856  0.0255  0.3465  1.0853
 4087SOL    HW123897   3.431   1.733   1.869  0.3456  0.4170  1.8289
 4087SOL    HW223898   3.522   1.853   1.900  0.5005  0.0456  0.3977
 4088SOL     OW23899   1.262   4.617  17.540  0.8366 -0.5510 -0.0026
 4088SOL    HW123900   1.220   4.703  17.539 -0.5487 -1.2356  0.1697
 4088SOL    HW223901   1.190   4.562  17.510  1.9346 -1.4973 -0.9246
 4089SOL     OW23902   4.020   2.011   6.108  0.1293  0.1363  0.2285
 4089SOL    HW123903   4.026   2.027   6.202  1.4266 -1.7789  0.4568
 4089SOL    HW223904   4.092   2.071   6.085 -2.0910  2.7122  0.0224
 4090SOL     OW23905   2.751   3.841  12.454  0.3993  0.0808 -0.1749
 4090SOL    HW123906   2.733   3.833  12.361  2.6668  0.1998 -0.6195
 4090SOL    HW223907   2.720   3.930  12.472  1.9502  0.8193 -1.1810
 4091SOL     OW23908   1.372   0.795   3.672 -0.0865  0.3800 -0.2873
 4091SOL    HW123909   1.446   0.738   3.652 -0.7169  0.2614 -2.3422
 4091SOL    HW223910   1.300   0.732   3.681  1.5519 -1.2678  1.2596
 4092SOL     OW23911   4.659   2.183   2.462 -0.5974 -0.1183  0.0999
 4092SOL    HW123912   0.007   2.210   2.499  0.9755 -1.9804 -2.1047
 4092SOL    HW223913   4.664   2.088   2.452  0.5788  0.1172 -1.4528
 4093SOL     OW23914   0.121   0.239   9.048  0.9041 -0.1335 -0.8997
 4093SOL    HW123915   0.038   0.222   9.003  0.8140  0.2402 -0.8682
 4093SOL    HW223916   0.180   0.196   8.986  1.2685 -2.5668  1.1198
 4094SOL     OW23917   4.685   0.709   8.762  0.0715 -0.0268 -0.5351
 4094SOL    HW123918   4.641   0.652   8.825 -1.3625 -1.1193 -2.5049
 4094SOL    HW223919   0.036   0.721   8.800  0.7219  1.6555 -2.5546
 4095SOL     OW23920   0.508   3.598   9.344 -0.1136 -1.0061 -0.1551
 4095SOL    HW123921   0.592   3.562   9.317  0.4020  0.1894 -0.1564
 4095SOL    HW223922   0.455   3.539   9.290 -1.2447 -1.7334  1.7498
 4096SOL     OW23923   3.875   3.678  11.250  0.6473 -0.3108 -0.5758
 4096SOL    HW123924   3.822   3.603  11.223  0.3932  0.3052 -1.7527
 4096SOL    HW223925   3.826   3.739  11.195 -2.9066  0.8817  3.8420
 4097SOL     OW23926   3.689   1.837   3.842 -0.2405  0.1821 -0.1542
 4097SOL    HW123927   3.601   1.860   3.811  0.1075 -0.2372 -1.4405
 4097SOL    HW223928   3.740   1.895   3.785 -0.0714  0.5034  0.3171
 4098SOL     OW23929   4.578   2.965  15.451  0.3627 -0.4750 -0.0560
 4098SOL    HW123930   4.548   2.936  15.365  1.5836 -0.9179 -0.3289
 4098SOL    HW223931   4.515   2.910  15.499 -0.8093 -0.3271 -1.4255
 4099SOL     OW23932   1.379   0.377   5.324 -0.1216 -0.3138 -0.0799
 4099SOL    HW123933   1.338   0.292   5.341  1.4260 -1.2364 -0.9211
 4099SOL    HW223934   1.445   0.381   5.393 -0.6176  2.2349  0.2599
 4100SOL     OW23935   0.742   3.007   8.217  0.8710 -0.6221  0.5155
 4100SOL    HW123936   0.743   2.920   8.258  0.6140 -0.9190 -0.1111
 4100SOL    HW223937   0.747   2.984   8.124  0.4974 -2.0688  0.8460
 4101SOL     OW23938   2.318   2.838   3.435 -0.4319 -0.7558 -0.4201
 4101SOL    HW123939   2.352   2.823   3.524 -1.9811 -3.2778 -0.2495
 4101SOL    HW223940   2.283   2.749   3.430  1.2678 -1.3277 -1.9736
 4102SOL     OW23941   2.642   3.097   4.805 -0.2067 -0.4629 -0.2905
 4102SOL    HW123942   2.609   3.168   4.861  0.0467 -0.8573  0.3531
 4102SOL    HW223943   2.585   3.023   4.825  0.8195 -2.0232 -3.0910
 4103SOL     OW23944   2.343   2.168   7.249 -0.2021  0.1219 -0.5141
 4103SOL    HW123945   2.385   2.181   7.165  1.8315 -2.1939  0.1548
 4103SOL    HW223946   2.368   2.250   7.293 -0.9963  1.2635 -2.1974
 4104SOL     OW23947   1.162   2.831   1.518 -0.1011  0.4874 -0.3077
 4104SOL    HW123948   1.121   2.754   1.557 -0.0432 -0.1562 -1.5059
 4104SOL    HW223949   1.187   2.805   1.429 -0.8427 -0.3523 -0.2765
 4105SOL     OW23950   0.724   4.135   8.422 -0.4195 -1.0642 -0.3789
 4105SOL    HW123951   0.790   4.066   8.426  1.4472  0.8112  1.3629
 4105SOL    HW223952   0.681   4.121   8.338 -0.0785 -3.3546 -0.1494
 4106SOL     OW23953   0.908   4.686   6.389 -0.1525  0.3778  0.6196
 4106SOL    HW123954   0.841   0.018   6.404 -0.6148  0.1075 -0.2431
 4106SOL    HW223955   0.972   0.011   6.353 -1.6481  0.4998 -1.8228
 4107SOL     OW23956   0.632   3.797  15.484  0.0330 -0.1738 -0.6417
 4107SOL    HW123957   0.566   3.859  15.453 -2.9981 -3.0658  0.0861
 4107SOL    HW223958   0.585   3.735  15.540 -0.7321  2.1146  1.2145
 4108SOL     OW23959   1.065   3.663   7.428  0.2913 -0.2020  0.1269
 4108SOL    HW123960   1.124   3.722   7.475 -1.7670  0.5243  1.8106
 4108SOL    HW223961   1.080   3.679   7.335 -0.4387 -0.7402 -0.0824
 4109SOL     OW23962   2.886   2.137   3.082  0.1560 -0.5726 -0.1480
 4109SOL    HW123963   2.892   2.108   3.173  4.3461  1.2749  0.1727
 4109SOL    HW223964   2.953   2.082   3.041  0.0030 -0.4926 -0.5027
 4110SOL     OW23965   0.077   2.964   9.891  0.2697 -0.0616  0.3273
 4110SOL    HW123966   0.031   2.901   9.947  0.1138 -0.3218 -0.0950
 4110SOL    HW223967   0.121   3.027   9.948  0.2484  0.5645 -0.3533
 4111SOL     OW23968   0.876   1.795   6.145  0.0779  0.1946 -0.4157
 4111SOL    HW123969   0.825   1.723   6.107  2.7545 -0.1855 -3.2386
 4111SOL    HW223970   0.957   1.792   6.096  0.0275  0.5029 -0.5162
 4112SOL     OW23971   1.725   1.246   1.055  0.0981 -0.1359 -0.5493
 4112SOL    HW123972   1.771   1.252   0.971 -0.4001  0.4718 -0.7787
 4112SOL    HW223973   1.635   1.248   1.022 -0.5962  1.0608  1.4404
 4113SOL     OW23974   1.670   0.286   7.237  0.1459  0.1857  0.2175
 4113SOL    HW123975   1.712   0.353   7.182  0.3564  0.9502  1.2946
 4113SOL    HW223976   1.737   0.225   7.265 -0.4347 -0.4496  0.2155
 4114SOL     OW23977   1.506   4.489   8.746 -0.4298  0.4167  0.2935
 4114SOL    HW123978   1.420   4.452   8.764  0.4485 -1.5119  0.5654
 4114SOL    HW223979   1.477   4.547   8.676 -0.1490 -1.1154 -1.0890
 4115SOL     OW23980   0.365   3.989  11.424 -0.2931 -0.1780 -0.1799
 4115SOL    HW123981   0.456   3.965  11.437  0.3417  2.4863  0.3025
 4115SOL    HW223982   0.315   3.909  11.410 -1.8614  0.6206  0.8122
 4116SOL     OW23983   2.869   4.533   9.153 -0.0294  0.2538  0.0639
 4116SOL    HW123984   2.853   4.484   9.073 -0.1998  0.8704 -0.2737
 4116SOL    HW223985   2.780   4.527   9.188 -0.7235  1.8687 -1.4310
 4117SOL     OW23986   2.024   2.662   3.464 -0.0469 -0.1377  0.0027
 4117SOL    HW123987   1.948   2.606   3.449 -1.7722  1.8238  1.3632
 4117SOL    HW223988   2.046   2.677   3.372  2.3527  0.4066  0.6642
 4118SOL     OW23989   2.001   2.099   2.874 -0.4037  0.1243  0.1689
 4118SOL    HW123990   1.963   2.013   2.890  1.1270 -0.3624  1.1536
 4118SOL    HW223991   1.959   2.108   2.789 -1.4033 -0.3172  0.6253
 4119SOL     OW23992   2.182   3.583   6.280 -0.3823  0.6016 -0.4260
 4119SOL    HW123993   2.136   3.600   6.198  0.7271 -1.7693 -1.5224
 4119SOL    HW223994   2.177   3.669   6.321 -0.6801 -0.2050  1.2517
 4120SOL     OW23995   4.719   4.684   2.561 -0.3921  0.6086 -0.0103
 4120SOL    HW123996   4.652   4.724   2.506 -1.9547 -0.5221  1.0506
 4120SOL    HW223997   0.045   0.021   2.565 -1.1887  1.4526 -2.8484
 4121SOL     OW23998   1.506   0.677   9.754  0.6071 -0.0235 -0.3545
 4121SOL    HW123999   1.441   0.697   9.820  1.5106 -1.9600  1.1312
 4121SOL    HW224000   1.480   0.745   9.692  0.5978  1.6929  1.5567
 4122SOL     OW24001   4.091   1.798   3.750  0.1438  0.1186  0.7279
 4122SOL    HW124002   4.019   1.737   3.765 -0.7236  0.7651 -0.8583
 4122SOL    HW224003   4.169   1.746   3.771 -0.2914 -0.5993  0.5924
 4123SOL     OW24004   3.601   2.587  14.902 -0.0730  0.8157  0.2533
 4123SOL    HW124005   3.537   2.653  14.877 -0.5515 -0.0292 -0.7466
 4123SOL    HW224006   3.650   2.632  14.971 -1.5609  2.0385  0.4901
 4124SOL     OW24007   1.528   2.036   2.718  0.0987 -0.1126 -0.8193
 4124SOL    HW124008   1.494   2.119   2.683  1.0942  1.5448  2.1106
 4124SOL    HW224009   1.570   1.994   2.643  0.5564  1.0484 -1.2292
 4125SOL     OW24010   3.963   2.793   4.183  0.2618 -1.0774 -0.3082
 4125SOL    HW124011   3.898   2.858   4.156 -1.4938 -1.9620  1.8229
 4125SOL    HW224012   3.944   2.708   4.143  1.9240 -2.8245  2.6304
 4126SOL     OW24013   3.595   2.691  16.293 -0.1093  0.1644 -0.2404
 4126SOL    HW124014   3.621   2.664  16.381 -0.9751 -1.1473 -0.3795
 4126SOL    HW224015   3.591   2.613  16.239 -0.9340  0.0867 -0.0727
 4127SOL     OW24016   1.978   4.505   2.145 -0.5009 -0.6545 -0.0291
 4127SOL    HW124017   1.978   4.596   2.175 -0.5181 -0.7807  0.3578
 4127SOL    HW224018   2.070   4.479   2.157 -0.6534 -1.0959  0.1979
 4128SOL     OW24019   1.798   4.184   7.175  0.2894 -0.7740  0.1995
 4128SOL    HW124020   1.888   4.214   7.188 -1.4212  3.6497  1.7656
 4128SOL    HW224021   1.818   4.110   7.118  0.9603  0.9483 -1.7984
 4129SOL     OW24022   1.234   2.058   4.386  0.0050  0.5811  0.3541
 4129SOL    HW124023   1.158   2.044   4.444 -1.2805 -0.4062 -1.5541
 4129SOL    HW224024   1.226   1.975   4.338 -0.0465  1.0738 -0.4792
 4130SOL     OW24025   1.485   2.669   1.274 -0.5608  0.3313 -0.2196
 4130SOL    HW124026   1.394   2.664   1.303 -0.6373 -0.5521 -0.5831
 4130SOL    HW224027   1.506   2.583   1.237  1.7433  0.7013  0.2429
 4131SOL     OW24028   0.669   1.672  15.109 -0.4269 -0.6408 -0.0946
 4131SOL    HW124029   0.734   1.739  15.086 -0.7434 -0.3736 -0.2128
 4131SOL    HW224030   0.645   1.632  15.025 -0.3164 -1.4292  0.2543
 4132SOL     OW24031   1.315   4.436   3.191 -0.3300 -0.4174 -0.5513
 4132SOL    HW124032   1.254   4.380   3.144  0.0322  1.3609 -3.1448
 4132SOL    HW224033   1.277   4.522   3.173  1.3296  0.4950  0.2768
 4133SOL     OW24034   1.959   1.687  11.040  0.4145 -0.2952 -0.1618
 4133SOL    HW124035   2.024   1.749  11.009 -2.1099  1.7618 -1.4001
 4133SOL    HW224036   2.002   1.652  11.118  0.6002 -0.5433 -0.3761
 4134SOL     OW24037   4.397   3.186   0.964  0.1178  0.6497 -0.4960
 4134SOL    HW124038   4.476   3.221   1.006 -1.2300  0.5563  2.0765
 4134SOL    HW224039   4.396   3.099   1.004 -0.3894  1.7801  1.9728
 4135SOL     OW24040   1.493   3.361   0.515  0.0638 -0.2972 -0.6375
 4135SOL    HW124041   1.468   3.387   0.426 -2.9826  0.5072  0.4747
 4135SOL    HW224042   1.468   3.269   0.511  1.9579 -0.8070 -0.8420
 4136SOL     OW24043   1.247   1.294  10.382 -0.1108 -0.1302  0.1790
 4136SOL    HW124044   1.338   1.286  10.355  0.1022  0.8751  0.6010
 4136SOL    HW224045   1.228   1.200  10.371  0.4308 -0.1976 -0.1887
 4137SOL     OW24046   4.478   3.762   7.429 -0.3732 -0.1688  0.0277
 4137SOL    HW124047   4.490   3.679   7.475  2.2212 -0.0773 -0.4464
 4137SOL    HW224048   4.439   3.825   7.489 -1.3688  0.0528 -0.8409
 4138SOL     OW24049   0.410   0.610  16.932 -0.7903  0.1803  0.2495
 4138SOL    HW124050   0.349   0.675  16.898  0.0980  1.7533  1.6288
 4138SOL    HW224051   0.483   0.613  16.870 -1.1888  0.0742 -0.2227
 4139SOL     OW24052   1.733   1.936  13.673 -0.0322 -0.0580  0.8355
 4139SOL    HW124053   1.685   1.900  13.748  0.6922 -2.1216  0.2914
 4139SOL    HW224054   1.683   2.016  13.654 -1.2408 -0.9462  0.2653
 4140SOL     OW24055   4.122   0.867   2.169 -0.4918 -0.1757  0.4534
 4140SOL    HW124056   4.034   0.904   2.172 -0.4721 -0.0481 -0.7877
 4140SOL    HW224057   4.167   0.906   2.094 -1.8562  0.4553 -0.0357
 4141SOL     OW24058   0.483   3.827   9.129  0.0532  0.3075  0.3604
 4141SOL    HW124059   0.511   3.774   9.204  2.1153 -1.4029 -1.5860
 4141SOL    HW224060   0.525   3.775   9.060 -0.0624  0.8930 -0.1487
 4142SOL     OW24061   0.439   2.135   6.767 -0.1464  0.0433 -0.4858
 4142SOL    HW124062   0.499   2.143   6.842  0.2117  0.9876 -0.8647
 4142SOL    HW224063   0.481   2.186   6.697 -1.9847 -0.0278 -1.6431
 4143SOL     OW24064   2.712   1.407   2.620  0.6690 -0.4817  0.3801
 4143SOL    HW124065   2.704   1.365   2.705 -1.9618 -0.3176  0.2000
 4143SOL    HW224066   2.687   1.497   2.638 -0.0580 -1.1415  2.5974
 4144SOL     OW24067   4.037   4.560   0.682 -0.1550  0.2511  0.0642
 4144SOL    HW124068   4.096   4.486   0.667  1.1580  1.3160  0.0088
 4144SOL    HW224069   4.084   4.628   0.729 -0.8596 -0.7063  2.1708
 4145SOL     OW24070   1.283   1.889   2.765  0.5486 -0.2879 -0.2837
 4145SOL    HW124071   1.299   1.825   2.696 -0.9819 -0.3619 -0.5796
 4145SOL    HW224072   1.366   1.935   2.773  2.3559 -3.2126 -2.0360
 4146SOL     OW24073   1.783   2.592   7.285  0.3259  0.5589  0.3554
 4146SOL    HW124074   1.722   2.580   7.357 -0.1970 -0.7313 -0.3021
 4146SOL    HW224075   1.725   2.643   7.229 -0.7247 -1.2021 -0.1633
 4147SOL     OW24076   0.386   3.013  16.509 -0.5012  0.3562 -0.1789
 4147SOL    HW124077   0.440   3.000  16.586  1.1178 -0.3640 -1.4204
 4147SOL    HW224078   0.321   2.943  16.516 -0.1214 -0.0181 -0.3966
 4148SOL     OW24079   0.221   0.381   9.257 -0.2207  0.1786 -0.0434
 4148SOL    HW124080   0.194   0.329   9.182 -0.3755 -2.9131  2.1634
 4148SOL    HW224081   0.314   0.397   9.239 -0.1033 -0.5599 -0.1008
 4149SOL     OW24082   4.608   2.647   8.397 -0.1006  0.3711  0.0604
 4149SOL    HW124083   4.672   2.606   8.455  1.1383  3.0368  0.5760
 4149SOL    HW224084   4.644   2.638   8.309 -3.0463 -1.1500 -0.9738
 4150SOL     OW24085   2.453   3.959   2.022 -0.4962 -0.3393  0.3014
 4150SOL    HW124086   2.445   3.890   1.956  1.0257 -0.8242  0.6301
 4150SOL    HW224087   2.540   3.991   1.999 -0.3438 -2.6893 -2.3287
 4151SOL     OW24088   0.850   3.398   8.267  0.8182 -0.1785  0.0770
 4151SOL    HW124089   0.808   3.322   8.307 -1.1654  0.8907  0.0250
 4151SOL    HW224090   0.855   3.377   8.174 -3.9456  2.6336 -0.7969
 4152SOL     OW24091   3.699   0.429   2.005  0.0470  0.2963 -0.1423
 4152SOL    HW124092   3.683   0.380   1.925 -1.2957  1.0807 -0.3598
 4152SOL    HW224093   3.721   0.354   2.061 -0.2821  0.9976  0.9417
 4153SOL     OW24094   3.203   1.164   9.994 -0.3498  0.3149  0.3177
 4153SOL    HW124095   3.138   1.095   9.983 -0.5264  0.3263  1.2568
 4153SOL    HW224096   3.273   1.106  10.025  0.4354  0.7326 -0.6586
 4154SOL     OW24097   4.589   4.660   6.766 -0.1848 -0.2726 -0.0854
 4154SOL    HW124098   4.669   4.682   6.814  0.3294  1.8048 -1.8885
 4154SOL    HW224099   4.521   4.659   6.833  0.2226  1.0730  0.3460
 4155SOL     OW24100   0.916   3.194   2.035 -0.7243  0.3315 -0.1886
 4155SOL    HW124101   0.948   3.260   2.097  1.4738 -0.6458 -0.2915
 4155SOL    HW224102   0.956   3.230   1.955  1.3306 -0.1338  0.6405
 4156SOL     OW24103   3.526   3.449   8.728 -0.0006  0.0757  0.1445
 4156SOL    HW124104   3.605   3.440   8.675 -1.0063 -1.8618 -1.0014
 4156SOL    HW224105   3.561   3.482   8.811  0.3522  2.6445 -1.0115
 4157SOL     OW24106   0.832   0.238  17.705  0.9946  0.1998  0.3813
 4157SOL    HW124107   0.832   0.149  17.741 -1.4465  0.6951  1.6126
 4157SOL    HW224108   0.752   0.242  17.652  2.6656 -0.7756 -2.2107
 4158SOL     OW24109   0.865   0.662  11.325 -0.2020  0.5232  0.5138
 4158SOL    HW124110   0.885   0.744  11.280 -1.2128  1.4133  1.6831
 4158SOL    HW224111   0.938   0.657  11.387  0.6200  0.0372 -0.4859
 4159SOL     OW24112   1.129   1.049  10.352 -0.3286 -0.0974  0.0791
 4159SOL    HW124113   1.168   1.001  10.426  1.8394  0.0446 -0.9663
 4159SOL    HW224114   1.042   1.009  10.346  0.4804 -1.9209  0.5087
 4160SOL     OW24115   4.271   4.064   6.948  0.1703  0.4977  0.3607
 4160SOL    HW124116   4.202   4.026   6.893  0.8885 -0.5742  0.2117
 4160SOL    HW224117   4.265   4.151   6.907 -1.6650  0.3766  0.3829
 4161SOL     OW24118   1.948   3.793  13.849 -0.1927  0.2431 -0.6709
 4161SOL    HW124119   1.996   3.834  13.777  0.4298 -2.0021 -1.5162
 4161SOL    HW224120   1.961   3.699  13.835  2.1666  0.8399 -2.4831
 4162SOL     OW24121   2.865   3.202   9.229  0.1398 -0.3594  0.5577
 4162SOL    HW124122   2.925   3.127   9.233 -0.2817 -0.8309 -1.8414
 4162SOL    HW224123   2.907   3.255   9.297 -0.7050 -2.6514  2.8357
 4163SOL     OW24124   1.203   0.284  12.752  0.7513  0.0784  0.1301
 4163SOL    HW124125   1.247   0.266  12.669 -1.9871  1.7525 -1.6878
 4163SOL    HW224126   1.115   0.299  12.717 -0.1925  1.4329  3.0712
 4164SOL     OW24127   3.797   3.118   8.659 -0.3577  0.1171 -0.3967
 4164SOL    HW124128   3.868   3.139   8.599 -1.1780  0.0372 -1.3972
 4164SOL    HW224129   3.732   3.066   8.612 -1.1631  0.4795  0.2975
 4165SOL     OW24130   2.690   0.479   3.108 -0.6061 -0.3888 -0.2655
 4165SOL    HW124131   2.645   0.409   3.156 -0.9536 -0.4767 -0.7271
 4165SOL    HW224132   2.662   0.558   3.155  0.1822 -0.0506 -0.3700
 4166SOL     OW24133   0.841   1.080   2.504 -0.0895  0.0279  0.4463
 4166SOL    HW124134   0.823   1.151   2.443 -0.1541  0.5372  1.0566
 4166SOL    HW224135   0.874   1.016   2.441 -0.0683 -0.0580  0.5436
 4167SOL     OW24136   2.543   0.587   6.145 -0.5508 -0.1702  0.1533
 4167SOL    HW124137   2.591   0.515   6.186  0.6802 -1.3395 -3.2884
 4167SOL    HW224138   2.450   0.568   6.157 -0.2804 -1.2197  0.6267
 4168SOL     OW24139   0.122   0.714   3.997 -0.4378  0.2947 -0.9792
 4168SOL    HW124140   0.182   0.698   3.924 -2.3677 -3.4662 -1.7669
 4168SOL    HW224141   0.045   0.667   3.962  0.0479 -2.0577  1.1018
 4169SOL     OW24142   2.891   4.301  17.500 -0.7613 -0.9076 -0.0581
 4169SOL    HW124143   2.829   4.372  17.518 -0.0806 -0.8214  1.9657
 4169SOL    HW224144   2.904   4.265  17.588 -1.2921  1.2006  0.8927
 4170SOL     OW24145   1.614   3.990   1.745  0.4093  0.6547  0.2210
 4170SOL    HW124146   1.521   3.979   1.762  0.0464  1.0675 -1.5425
 4170SOL    HW224147   1.611   4.083   1.721 -0.6372 -0.0246 -2.2161
 4171SOL     OW24148   2.647   1.990  10.372  0.1403 -0.4172 -0.0678
 4171SOL    HW124149   2.703   1.912  10.375  0.0636 -0.5363 -1.5258
 4171SOL    HW224150   2.563   1.948  10.355  0.4420 -1.1130  0.1823
 4172SOL     OW24151   0.488   0.201   8.573  0.4414 -0.7008 -0.7191
 4172SOL    HW124152   0.544   0.216   8.649 -0.1035  0.4261 -0.5492
 4172SOL    HW224153   0.482   0.106   8.571  0.3644 -0.6889 -1.1964
 4173SOL     OW24154   3.691   3.527   5.996 -0.0283 -0.5234  0.4473
 4173SOL    HW124155   3.617   3.581   5.968 -1.2964 -2.7095 -0.4355
 4173SOL    HW224156   3.736   3.535   5.912 -2.4314  0.4373 -0.7305
 4174SOL     OW24157   1.932   4.071   4.528 -0.1655  0.0680  0.3237
 4174SOL    HW124158   1.859   4.089   4.469  0.0780 -0.8961 -0.2825
 4174SOL    HW224159   1.975   4.000   4.480  0.0314  0.7563 -0.5114
 4175SOL     OW24160   2.551   3.083   6.379  0.1530  0.2090 -0.0206
 4175SOL    HW124161   2.628   3.091   6.323 -0.0546 -3.1574 -0.7599
 4175SOL    HW224162   2.592   3.111   6.461 -0.7487 -0.8033  0.7734
 4176SOL     OW24163   0.653   0.718   9.728 -0.3124  0.1156 -0.5676
 4176SOL    HW124164   0.589   0.674   9.784 -0.4352 -0.1658 -0.9256
 4176SOL    HW224165   0.599   0.737   9.651  1.2585 -0.2847 -1.7726
 4177SOL     OW24166   1.306   2.891  14.637 -0.1481  0.1074 -0.1718
 4177SOL    HW124167   1.327   2.932  14.721  1.1813  0.7705 -0.8417
 4177SOL    HW224168   1.210   2.891  14.641 -0.1284 -1.3077  0.4271
 4178SOL     OW24169   3.014   3.950   5.069  0.2920  0.2268  0.0602
 4178SOL    HW124170   3.002   3.989   4.982  0.3647 -0.3043 -0.1867
 4178SOL    HW224171   2.942   3.994   5.114  1.0294  0.8112  0.6644
 4179SOL     OW24172   3.193   4.564   7.939  0.1506 -0.2595 -0.2595
 4179SOL    HW124173   3.288   4.557   7.937  0.2787  0.9730  1.0842
 4179SOL    HW224174   3.172   4.572   8.032  1.3468  0.0907 -0.0198
 4180SOL     OW24175   2.065   1.245  15.679  0.1136 -0.0966  0.1665
 4180SOL    HW124176   2.075   1.173  15.617  0.1384 -0.7176  0.8869
 4180SOL    HW224177   2.144   1.222  15.728  0.9811 -2.7207 -2.4450
 4181SOL     OW24178   0.284   0.244   4.984  0.4336  0.2121  0.6962
 4181SOL    HW124179   0.373   0.260   4.951  0.7198 -2.3861  0.2782
 4181SOL    HW224180   0.276   0.315   5.049 -0.3218  1.3667 -0.6576
 4182SOL     OW24181   1.040   2.548   8.672 -0.3067 -0.3672  0.3340
 4182SOL    HW124182   0.954   2.573   8.639  0.4926  1.0851 -0.7050
 4182SOL    HW224183   1.024   2.458   8.699  1.4931  0.3438  3.8143
 4183SOL     OW24184   3.301   3.658   6.403 -0.5975  0.1344 -0.2531
 4183SOL    HW124185   3.281   3.746   6.436 -1.0869  0.0417 -0.3000
 4183SOL    HW224186   3.318   3.671   6.310  0.1729  0.8318 -0.0109
 4184SOL     OW24187   4.289   3.085   0.376  0.0062 -0.0374 -0.5409
 4184SOL    HW124188   4.232   3.147   0.421  2.3691  2.1089 -0.5368
 4184SOL    HW224189   4.319   3.125   0.294 -2.4711 -1.2580 -2.0447
 4185SOL     OW24190   0.775   0.092   1.947  0.0851 -0.1414  0.4071
 4185SOL    HW124191   0.841   0.125   2.009  0.5999 -0.5184  0.0600
 4185SOL    HW224192   0.827   0.044   1.883  1.0525 -0.6281  1.5400
 4186SOL     OW24193   1.353   2.508   6.081 -0.1662  0.3142 -0.0472
 4186SOL    HW124194   1.324   2.456   6.156 -1.3934 -2.2319 -2.2602
 4186SOL    HW224195   1.272   2.553   6.056  0.4579  1.2395 -0.3902
 4187SOL     OW24196   1.614   3.395   4.365  0.3144  0.6991  0.2693
 4187SOL    HW124197   1.543   3.376   4.304  0.3040  1.3112  0.0913
 4187SOL    HW224198   1.688   3.414   4.307  1.8581 -0.3974  1.8538
 4188SOL     OW24199   4.469   0.313   8.613 -0.1297 -0.4348  0.7723
 4188SOL    HW124200   4.393   0.311   8.671 -0.1568 -0.8375  0.7179
 4188SOL    HW224201   4.542   0.289   8.671  0.8203  0.1998 -0.1445
 4189SOL     OW24202   0.638   4.286  12.176  0.1486  0.0821  0.0307
 4189SOL    HW124203   0.680   4.207  12.210  1.9307  0.7751 -0.5383
 4189SOL    HW224204   0.647   4.346  12.251 -3.0369  0.0689  0.4398
 4190SOL     OW24205   0.656   4.443   8.480 -0.2399 -0.4643 -0.6138
 4190SOL    HW124206   0.582   4.499   8.503  0.2558 -0.0189 -0.0867
 4190SOL    HW224207   0.609   4.362   8.459 -0.4409 -0.2198 -1.1026
 4191SOL     OW24208   2.678   0.019   5.175  0.6962 -0.5446  0.2517
 4191SOL    HW124209   2.599   0.073   5.172  2.5198  2.1512  0.7544
 4191SOL    HW224210   2.748   0.066   5.219  0.3781  1.2137 -1.1311
 4192SOL     OW24211   3.026   2.754   2.384  0.0175  0.2152 -0.4218
 4192SOL    HW124212   3.092   2.758   2.454 -1.2221  0.6004  0.7122
 4192SOL    HW224213   3.068   2.811   2.319 -0.0005 -0.1827 -0.7852
 4193SOL     OW24214   0.316   1.790   1.537 -0.8454  0.5382  0.8726
 4193SOL    HW124215   0.260   1.716   1.514  0.2273  0.0493 -0.2259
 4193SOL    HW224216   0.300   1.787   1.631 -0.2651  0.1031  0.9574
 4194SOL     OW24217   0.332   3.239   7.440 -0.1248 -0.1976 -0.1746
 4194SOL    HW124218   0.278   3.279   7.372 -1.6956 -0.2817  1.0249
 4194SOL    HW224219   0.268   3.222   7.509  0.0926 -1.5454 -0.3016
 4195SOL     OW24220   0.102   0.942   6.421  0.2373  0.4862  0.9500
 4195SOL    HW124221   0.120   0.929   6.328 -3.6911 -1.5049  0.4549
 4195SOL    HW224222   0.019   0.896   6.430 -0.1954  1.8853  3.8630
 4196SOL     OW24223   3.798   3.884  13.418  0.0163  0.5706 -0.2491
 4196SOL    HW124224   3.745   3.870  13.497  1.9399 -0.9919  0.7612
 4196SOL    HW224225   3.843   3.800  13.412 -0.1500  0.5812 -1.7142
 4197SOL     OW24226   0.031   3.301   8.631 -0.2692 -0.0574 -0.0622
 4197SOL    HW124227   0.074   3.380   8.663 -0.9331  0.8398 -1.3917
 4197SOL    HW224228   4.690   3.338   8.588  0.5835  0.9229 -0.7504
 4198SOL     OW24229   1.562   0.342  11.677  0.0785  0.3167  0.4415
 4198SOL    HW124230   1.484   0.307  11.634 -0.6085  0.2877  1.6811
 4198SOL    HW224231   1.598   0.406  11.616  2.3358 -0.5845  0.8359
 4199SOL     OW24232   1.621   0.402   6.084  0.0005  0.0799 -0.1152
 4199SOL    HW124233   1.593   0.489   6.110 -0.9073  0.1365 -1.2444
 4199SOL    HW224234   1.678   0.377   6.156 -2.0452  0.2251  1.5534
 4200SOL     OW24235   0.245   4.550   2.193  0.0073 -0.4749  0.5004
 4200SOL    HW124236   0.159   4.534   2.152 -0.1871 -1.3579  1.2722
 4200SOL    HW224237   0.288   4.468   2.169  0.0061 -0.1660 -0.5959
 4201SOL     OW24238   3.012   1.225   6.448  0.0934 -0.2356 -0.0400
 4201SOL    HW124239   3.028   1.306   6.497  0.3462 -0.2735 -0.0597
 4201SOL    HW224240   3.100   1.189   6.460 -0.5606 -1.3576  1.3555
 4202SOL     OW24241   4.408   1.109   8.564 -0.3526  0.2468  0.5162
 4202SOL    HW124242   4.420   1.147   8.477  3.5109 -0.0066  0.9501
 4202SOL    HW224243   4.346   1.039   8.545 -1.2613  0.8948  1.0945
 4203SOL     OW24244   1.209   4.538   7.114 -0.6379  0.3008  0.2424
 4203SOL    HW124245   1.189   4.456   7.160  0.5828 -1.7829 -2.9833
 4203SOL    HW224246   1.219   4.509   7.023 -2.4822  1.6544 -0.4141
 4204SOL     OW24247   0.211   1.786   4.850  0.1141  0.2486  0.2401
 4204SOL    HW124248   0.131   1.831   4.876 -0.7529 -1.4822  0.5630
 4204SOL    HW224249   0.270   1.819   4.918 -0.6463 -0.8497  1.4336
 4205SOL     OW24250   2.801   1.514   2.351  0.6172 -0.2701 -0.5299
 4205SOL    HW124251   2.760   1.470   2.277 -0.6587 -0.9416  0.5878
 4205SOL    HW224252   2.842   1.442   2.399  0.7302  1.5875  2.2060
 4206SOL     OW24253   3.844   2.558   4.000  0.3803 -0.1226 -0.5207
 4206SOL    HW124254   3.754   2.559   4.031  0.9947  0.1518  1.2821
 4206SOL    HW224255   3.827   2.602   3.917  1.4465  0.6682 -0.3244
 4207SOL     OW24256   0.855   3.932   5.584 -1.1134 -0.6594 -0.4902
 4207SOL    HW124257   0.760   3.935   5.589 -1.0343  0.7379  0.3208
 4207SOL    HW224258   0.886   3.854   5.630 -2.0182 -0.5009  0.3926
 4208SOL     OW24259   4.034   3.350   2.690 -0.3460 -0.2999  0.7123
 4208SOL    HW124260   3.945   3.384   2.701 -0.2004  0.6471 -1.0999
 4208SOL    HW224261   4.008   3.264   2.721  0.3450 -0.3276  1.2036
 4209SOL     OW24262   0.031   0.851  13.793 -0.3436 -0.3160  0.8833
 4209SOL    HW124263   0.058   0.788  13.725  1.8778  1.1772  0.3669
 4209SOL    HW224264   0.113   0.875  13.836 -0.6484 -0.9106  1.7818
 4210SOL     OW24265   1.589   3.745   9.342 -0.1801  0.2798  0.0766
 4210SOL    HW124266   1.608   3.838   9.354  0.1596  0.2160  0.0199
 4210SOL    HW224267   1.625   3.742   9.254  1.3198  0.6367  0.6834
 4211SOL     OW24268   0.270   0.009   2.841  0.1543 -0.3555  0.6949
 4211SOL    HW124269   0.278   0.010   2.746  0.6009 -1.8657  0.7054
 4211SOL    HW224270   0.270   0.099   2.874 -0.1862 -0.3375  0.6478
 4212SOL     OW24271   1.499   4.585   4.100 -0.6428 -0.1997 -0.7042
 4212SOL    HW124272   1.518   4.660   4.157 -0.8286 -1.0106  0.4119
 4212SOL    HW224273   1.413   4.609   4.064 -0.6013 -0.5712 -1.0568
 4213SOL     OW24274   1.715   3.766  12.671  0.1148  0.3835  0.3025
 4213SOL    HW124275   1.723   3.674  12.645 -0.3481 -0.0440  1.6642
 4213SOL    HW224276   1.760   3.780  12.755  0.2358  0.5024  0.2176
 4214SOL     OW24277   0.471   1.384   4.653  0.0266  0.3081 -0.4745
 4214SOL    HW124278   0.496   1.406   4.563  0.8370 -1.4280 -0.6909
 4214SOL    HW224279   0.399   1.444   4.670  0.0460  0.5161 -1.1456
 4215SOL     OW24280   1.612   2.198   1.154  0.0893 -0.5460  0.3571
 4215SOL    HW124281   1.526   2.190   1.111  1.3257 -1.4027 -1.9594
 4215SOL    HW224282   1.588   2.244   1.234  0.0436 -0.5367  0.3380
 4216SOL     OW24283   1.213   3.854   5.284 -0.0193  0.2175  0.0666
 4216SOL    HW124284   1.306   3.846   5.307  0.2956 -1.3492 -1.6896
 4216SOL    HW224285   1.187   3.929   5.337 -0.8571  0.4261 -0.6411
 4217SOL     OW24286   0.032   1.457  15.649  0.1445  0.4364  0.1014
 4217SOL    HW124287   0.117   1.472  15.606 -0.7577  0.1043 -1.7975
 4217SOL    HW224288   0.037   1.362  15.653  1.8047  0.6314  2.9216
 4218SOL     OW24289   3.666   0.476  15.244  0.0751  0.1366 -0.4831
 4218SOL    HW124290   3.729   0.514  15.183 -0.3966 -0.9184 -1.6123
 4218SOL    HW224291   3.589   0.524  15.214 -0.0948 -0.5754 -1.1847
 4219SOL     OW24292   1.237   4.462   7.870 -0.3346  0.6540 -0.4894
 4219SOL    HW124293   1.195   4.397   7.926 -1.1994  2.2229  0.6519
 4219SOL    HW224294   1.319   4.472   7.917 -1.5028  1.1999  1.4419
 4220SOL     OW24295   0.394   3.361  12.216  0.8419  0.1198  0.1742
 4220SOL    HW124296   0.398   3.314  12.133  3.0922 -0.7762  0.7814
 4220SOL    HW224297   0.324   3.313  12.261  1.1731 -0.7034 -0.2049
 4221SOL     OW24298   4.487   4.362   6.979  0.0601  0.4571  0.4512
 4221SOL    HW124299   4.460   4.454   6.986  1.2765  0.9263 -1.0819
 4221SOL    HW224300   4.430   4.330   6.909 -2.3251  0.2948  2.4546
 4222SOL     OW24301   2.950   1.102   8.202 -0.9548  0.1372 -0.0240
 4222SOL    HW124302   3.011   1.088   8.274 -0.4092 -1.7509 -0.8472
 4222SOL    HW224303   2.962   1.193   8.174 -0.5926  0.3854  0.9380
 4223SOL     OW24304   2.552   1.092   2.580 -0.3005 -0.0785 -0.2566
 4223SOL    HW124305   2.583   1.153   2.648 -1.6456 -0.1685  0.4408
 4223SOL    HW224306   2.572   1.141   2.501  2.0496  0.3060  0.5756
 4224SOL     OW24307   2.833   4.540   7.786 -0.4646 -0.6605  0.1523
 4224SOL    HW124308   2.808   4.622   7.742  0.3164  0.1756  1.2610
 4224SOL    HW224309   2.767   4.538   7.855  0.7133  1.4514  1.3632
 4225SOL     OW24310   1.181   0.770   4.857 -0.3295  0.5709  0.1923
 4225SOL    HW124311   1.162   0.677   4.867  0.9703  0.3571  0.6361
 4225SOL    HW224312   1.267   0.783   4.895 -1.1672 -1.1580  2.6503
 4226SOL     OW24313   1.611   2.403   8.764  0.1460 -0.0490  0.4849
 4226SOL    HW124314   1.630   2.375   8.674  1.8484  2.0760  0.1892
 4226SOL    HW224315   1.638   2.495   8.769 -0.3584  0.3131 -3.6479
 4227SOL     OW24316   3.510   3.120   7.851 -0.3386  0.8602 -0.4234
 4227SOL    HW124317   3.462   3.041   7.875  0.2465  0.6483  0.0561
 4227SOL    HW224318   3.443   3.185   7.828 -1.0594  0.1485 -0.3131
 4228SOL     OW24319   4.429   0.311   8.203 -0.4481 -0.2573  0.1579
 4228SOL    HW124320   4.345   0.355   8.195 -0.2315 -0.1569 -1.6279
 4228SOL    HW224321   4.466   0.330   8.117  2.1168 -0.2795  1.2271
 4229SOL     OW24322   0.517   3.924   3.351 -0.2032 -0.3326 -0.0499
 4229SOL    HW124323   0.559   3.995   3.304  0.7797 -0.4576  0.6448
 4229SOL    HW224324   0.468   3.885   3.278 -0.4040 -0.1600 -0.0055
 4230SOL     OW24325   0.592   4.644   2.265 -0.3290 -0.3315  0.4604
 4230SOL    HW124326   0.605   4.688   2.181 -2.1292  2.4915  1.6597
 4230SOL    HW224327   0.631   4.557   2.254 -0.8146 -0.3664 -0.9668
 4231SOL     OW24328   1.267   0.920  15.116 -0.2620 -0.4100  0.1564
 4231SOL    HW124329   1.329   0.993  15.122 -0.4445 -0.2142 -0.3419
 4231SOL    HW224330   1.313   0.863  15.177  1.7225 -0.1248 -1.0972
 4232SOL     OW24331   1.420   0.849   8.590 -0.0069 -0.4697 -0.6989
 4232SOL    HW124332   1.447   0.835   8.499 -0.3419 -1.2910 -0.6709
 4232SOL    HW224333   1.346   0.788   8.594  0.6106 -1.1822 -0.1546
 4233SOL     OW24334   2.271   3.073   9.071  0.3668  0.7050 -0.1112
 4233SOL    HW124335   2.223   2.992   9.050 -1.6400  1.4360  1.6769
 4233SOL    HW224336   2.191   3.102   9.116  0.4718  0.2681  0.3658
 4234SOL     OW24337   3.704   4.446   3.356  0.6849 -0.1052 -0.1540
 4234SOL    HW124338   3.743   4.373   3.309  1.4176 -0.9026  1.7178
 4234SOL    HW224339   3.644   4.487   3.293  1.1125  0.9835  0.1436
 4235SOL     OW24340   1.109   2.064   1.793  0.2933  0.7493 -0.5644
 4235SOL    HW124341   1.042   2.061   1.724 -0.1503 -1.5914 -0.0356
 4235SOL    HW224342   1.051   2.061   1.869  1.6817 -1.6965  0.4065
 4236SOL     OW24343   1.000   1.496   6.946  0.2479 -0.4307  0.5740
 4236SOL    HW124344   1.055   1.436   6.895 -1.6279 -2.0788  0.4807
 4236SOL    HW224345   1.051   1.518   7.024 -0.7634  1.0484  0.8164
 4237SOL     OW24346   2.269   1.384   2.722  0.4411  0.2404  0.3588
 4237SOL    HW124347   2.323   1.399   2.645 -3.3475  0.6781 -2.2606
 4237SOL    HW224348   2.319   1.315   2.766 -0.1854 -0.3157  0.2041
 4238SOL     OW24349   2.451   1.008   5.767  0.5370  0.1802  0.0405
 4238SOL    HW124350   2.506   0.956   5.708  0.1616  0.0559 -0.2014
 4238SOL    HW224351   2.512   1.016   5.841  0.5698  1.9905 -0.1841
 4239SOL     OW24352   2.959   3.447   3.266 -0.4507 -0.5713 -0.8572
 4239SOL    HW124353   2.992   3.365   3.229 -0.0324 -1.8952  2.4161
 4239SOL    HW224354   2.905   3.471   3.191 -1.0898  1.0355  0.1239
 4240SOL     OW24355   1.309   2.971   4.378 -0.1808  0.5769  0.0384
 4240SOL    HW124356   1.389   2.956   4.328 -0.5573 -0.5308 -0.2417
 4240SOL    HW224357   1.348   2.974   4.466  0.9379  0.0498 -0.4415
 4241SOL     OW24358   0.497   3.573   9.652 -0.2008  0.2150 -0.2461
 4241SOL    HW124359   0.591   3.572   9.634 -0.2453 -3.0134 -0.3780
 4241SOL    HW224360   0.467   3.608   9.569 -1.0708  2.7476  1.1426
 4242SOL     OW24361   1.579   1.173   9.113 -0.0302 -0.0715 -0.2880
 4242SOL    HW124362   1.567   1.215   9.027  1.3895  1.1381  0.1066
 4242SOL    HW224363   1.611   1.240   9.173  0.3678 -0.5004 -0.0247
 4243SOL     OW24364   0.062   2.527  13.530 -0.3247 -0.0478 -0.0016
 4243SOL    HW124365   4.716   2.479  13.518  0.3791 -1.3944  0.6483
 4243SOL    HW224366   0.085   2.546  13.439  0.6916 -1.2256  0.0190
 4244SOL     OW24367   0.839   1.714   5.475 -0.1882  0.1698 -0.0759
 4244SOL    HW124368   0.753   1.675   5.461 -0.1011 -0.2480  0.5667
 4244SOL    HW224369   0.901   1.642   5.466  0.3033  0.7944 -1.6805
 4245SOL     OW24370   1.622   3.294   6.675  0.0241  0.0645  0.1228
 4245SOL    HW124371   1.655   3.341   6.599 -0.1264  1.2351  0.7797
 4245SOL    HW224372   1.547   3.349   6.698  0.2325 -1.0977  3.7010
 4246SOL     OW24373   3.735   4.237  13.809 -0.3341  0.0799  0.3845
 4246SOL    HW124374   3.670   4.168  13.793  0.8900 -0.8327 -0.6293
 4246SOL    HW224375   3.737   4.281  13.724 -1.5305  0.2041  0.4118
 4247SOL     OW24376   1.482   1.357  14.330  0.4111 -0.3729 -0.3669
 4247SOL    HW124377   1.569   1.348  14.371 -0.0434 -2.1441  0.2030
 4247SOL    HW224378   1.433   1.330  14.408 -0.0920 -1.5203 -1.0998
 4248SOL     OW24379   3.361   1.594  16.748  0.0695  0.3275  0.0225
 4248SOL    HW124380   3.301   1.610  16.820 -0.8295 -1.2180 -0.3869
 4248SOL    HW224381   3.307   1.534  16.697 -2.3414  1.2667  1.4874
 4249SOL     OW24382   3.679   0.788  16.441 -0.1079  0.5570 -0.0782
 4249SOL    HW124383   3.658   0.838  16.362  1.6213  1.7405  0.2156
 4249SOL    HW224384   3.643   0.845  16.509 -3.3573 -1.3038 -0.2311
 4250SOL     OW24385   4.299   1.267  12.571  0.0974  0.1072 -0.3809
 4250SOL    HW124386   4.316   1.207  12.644 -0.5459  2.1563  1.4756
 4250SOL    HW224387   4.226   1.228  12.524  0.4951  0.8454 -1.5999
 4251SOL     OW24388   2.822   2.033   0.100 -0.1804  0.2507  0.7985
 4251SOL    HW124389   2.889   1.969   0.122  0.7457  0.4210 -1.4830
 4251SOL    HW224390   2.802   2.061   0.190 -1.4434 -2.2327  1.2934
 4252SOL     OW24391   2.655   2.495   7.751  0.4264 -0.1072  0.2934
 4252SOL    HW124392   2.698   2.469   7.669  0.5699  2.2625 -0.4050
 4252SOL    HW224393   2.722   2.511   7.817  0.4251  1.5048 -0.0911
 4253SOL     OW24394   0.810   0.618  14.622  0.7719 -0.0590 -0.8367
 4253SOL    HW124395   0.887   0.645  14.573  0.6045 -0.2883 -1.2214
 4253SOL    HW224396   0.857   0.590  14.701  0.3254  1.9607  0.1542
 4254SOL     OW24397   0.320   0.732   2.878  0.3747 -0.0216  0.6713
 4254SOL    HW124398   0.283   0.731   2.790 -0.5207 -0.9345  1.0560
 4254SOL    HW224399   0.413   0.720   2.860  0.4569 -1.8096  2.2178
 4255SOL     OW24400   3.920   0.833   4.788  0.2857  0.1513  0.5821
 4255SOL    HW124401   3.935   0.741   4.808  0.6324  0.1031  0.1037
 4255SOL    HW224402   3.825   0.843   4.797  0.1373 -0.4566 -0.3551
 4256SOL     OW24403   4.290   3.586   3.866 -0.3353 -0.1849 -0.1540
 4256SOL    HW124404   4.366   3.644   3.875 -0.5563  0.0299  0.3145
 4256SOL    HW224405   4.291   3.543   3.952  2.9893 -0.2852 -0.2295
 4257SOL     OW24406   3.984   2.374   7.078  0.4031 -0.1835  0.7229
 4257SOL    HW124407   3.969   2.435   7.005  0.8951 -1.5066 -0.4769
 4257SOL    HW224408   4.077   2.380   7.102  0.5947 -0.3416  0.0357
 4258SOL     OW24409   1.725   1.568   6.313 -0.1712 -0.5209  0.5580
 4258SOL    HW124410   1.802   1.618   6.341  0.0545 -0.1166 -0.7521
 4258SOL    HW224411   1.705   1.525   6.396  2.7552 -0.3113  1.3853
 4259SOL     OW24412   1.751   3.249   4.076  0.0579 -0.0759  0.3551
 4259SOL    HW124413   1.662   3.215   4.065 -0.2073  0.9806 -0.7611
 4259SOL    HW224414   1.734   3.343   4.075 -0.6942 -0.2139  0.0534
 4260SOL     OW24415   3.557   3.292   1.586 -0.1564 -0.3602  0.6428
 4260SOL    HW124416   3.627   3.237   1.624  0.1139 -1.6658 -1.7536
 4260SOL    HW224417   3.509   3.230   1.532  0.2471 -0.6415  0.6007
 4261SOL     OW24418   1.145   4.442  11.978 -0.0176  0.4611  0.4173
 4261SOL    HW124419   1.238   4.453  11.959  0.4033  0.4191  2.4404
 4261SOL    HW224420   1.157   4.352  12.008 -1.6376  0.9601  2.5422
 4262SOL     OW24421   4.605   3.261   5.335  0.5497  0.4902 -0.3109
 4262SOL    HW124422   4.530   3.235   5.389  1.8966  1.1966  1.8865
 4262SOL    HW224423   4.590   3.353   5.311 -3.2846 -0.2481 -0.7412
 4263SOL     OW24424   2.954   2.789   3.678  0.3301  0.4728 -0.2589
 4263SOL    HW124425   2.907   2.865   3.712  0.1089  0.6064 -0.8783
 4263SOL    HW224426   2.935   2.796   3.585 -3.8767 -0.7368  0.4850
 4264SOL     OW24427   1.654   3.706   9.096  0.1660 -0.7516  0.2361
 4264SOL    HW124428   1.627   3.617   9.072 -2.2456 -0.1649  0.7271
 4264SOL    HW224429   1.731   3.718   9.041 -0.9649  1.4921 -0.8706
 4265SOL     OW24430   1.931   3.029   6.432  0.3343 -0.3478  0.5689
 4265SOL    HW124431   1.945   3.117   6.466 -1.4538  0.4602 -0.8295
 4265SOL    HW224432   1.927   3.037   6.337 -1.7396  2.6569  0.9306
 4266SOL     OW24433   3.904   0.182   7.358  0.2632  0.2235 -0.2516
 4266SOL    HW124434   3.865   0.148   7.277  1.7334 -1.8310 -0.0703
 4266SOL    HW224435   3.853   0.133   7.422 -1.3147 -0.9360 -2.3920
 4267SOL     OW24436   1.212   3.439   8.790  0.3424 -0.1717 -0.2186
 4267SOL    HW124437   1.280   3.381   8.823 -0.0441 -0.6398 -0.2470
 4267SOL    HW224438   1.138   3.413   8.845 -0.7304 -0.1856 -1.6760
 4268SOL     OW24439   3.412   0.916  12.087  0.8520 -0.3600 -0.0978
 4268SOL    HW124440   3.403   0.928  12.182 -0.1431 -1.7940 -0.0228
 4268SOL    HW224441   3.426   1.007  12.060 -0.4066 -0.3178 -0.5885
 4269SOL     OW24442   2.192   0.316  13.000  0.3969 -0.1954  0.3777
 4269SOL    HW124443   2.136   0.248  13.038 -1.6736  0.6088 -1.2192
 4269SOL    HW224444   2.174   0.304  12.906  0.5601  4.0649 -0.1786
 4270SOL     OW24445   2.057   4.360   6.013  0.2315 -0.1275 -0.2856
 4270SOL    HW124446   2.112   4.438   6.003  1.1855 -0.7039  0.6047
 4270SOL    HW224447   1.978   4.389   5.966  0.6744 -0.7310 -1.3914
 4271SOL     OW24448   2.811   4.234   6.558  0.3735 -0.1387  0.3883
 4271SOL    HW124449   2.803   4.171   6.487  2.5449  1.6583 -1.4428
 4271SOL    HW224450   2.797   4.172   6.630 -2.7216  0.0211 -0.0938
 4272SOL     OW24451   3.659   1.540   3.719 -0.0014 -0.1420 -0.1818
 4272SOL    HW124452   3.682   1.633   3.720 -2.1710  0.3948 -0.3915
 4272SOL    HW224453   3.596   1.538   3.647  0.7488  0.6675 -0.8574
 4273SOL     OW24454   0.214   3.592   6.448  0.1805 -0.1315  0.3402
 4273SOL    HW124455   0.220   3.620   6.540 -2.3703 -0.5580  0.6216
 4273SOL    HW224456   0.256   3.506   6.461  0.2813  0.0140  0.9877
 4274SOL     OW24457   4.197   4.703   0.855 -0.2179 -0.8562 -0.8129
 4274SOL    HW124458   4.146   0.037   0.896  1.7157  0.8786 -1.3453
 4274SOL    HW224459   4.280   4.721   0.899 -0.0105 -1.5859 -0.8989
 4275SOL     OW24460   2.907   3.641  15.276  0.2868  0.4456 -0.1284
 4275SOL    HW124461   2.961   3.649  15.197 -0.3742  1.6455 -0.4563
 4275SOL    HW224462   2.896   3.730  15.310  1.7430  0.7493 -0.4373
 4276SOL     OW24463   4.417   2.542   3.684  0.1311 -0.1186  0.0763
 4276SOL    HW124464   4.403   2.560   3.777 -2.1641  1.4716 -0.5821
 4276SOL    HW224465   4.454   2.623   3.648  1.4835 -1.0684 -0.6669
 4277SOL     OW24466   0.573   0.226   9.869 -0.0647  0.2154 -0.6151
 4277SOL    HW124467   0.633   0.229   9.795  0.2643  0.0256 -0.3598
 4277SOL    HW224468   0.492   0.246   9.823  0.2111 -0.2480 -1.3134
 4278SOL     OW24469   3.440   1.168   9.138 -0.1185 -0.3761 -0.2613
 4278SOL    HW124470   3.480   1.248   9.105 -0.4352 -0.1349 -0.0600
 4278SOL    HW224471   3.405   1.130   9.057  1.6024 -1.1170 -0.6457
 4279SOL     OW24472   4.399   3.634   9.367  0.3059 -0.0070 -0.0598
 4279SOL    HW124473   4.386   3.694   9.293  0.0415 -1.7932 -1.4617
 4279SOL    HW224474   4.312   3.594   9.370 -1.0549  2.7840 -1.2277
 4280SOL     OW24475   4.343   3.364  10.780  0.0283 -0.0511  0.4969
 4280SOL    HW124476   4.425   3.335  10.740 -0.0543  1.9386 -1.1373
 4280SOL    HW224477   4.312   3.276  10.801  0.3085 -0.4819 -0.9322
 4281SOL     OW24478   0.411   2.371   3.190 -0.3262 -0.0359  0.2109
 4281SOL    HW124479   0.318   2.363   3.212  0.0184 -0.8216  1.3957
 4281SOL    HW224480   0.450   2.330   3.267 -1.1643 -0.5233  0.3732
 4282SOL     OW24481   0.089   1.725   0.652  0.3280  0.6109 -0.3057
 4282SOL    HW124482   0.130   1.775   0.723  1.1095  0.2256 -0.4835
 4282SOL    HW224483   0.007   1.774   0.646 -0.1131  0.1371  1.7484
 4283SOL     OW24484   4.327   0.461   2.682 -0.8561  0.0240 -0.2733
 4283SOL    HW124485   4.294   0.494   2.766 -0.0146 -1.1683  0.5378
 4283SOL    HW224486   4.403   0.408   2.707  0.9855  3.4113  1.2364
 4284SOL     OW24487   0.215   0.813   9.864  0.0074 -0.8529 -0.3871
 4284SOL    HW124488   0.237   0.721   9.852  2.8852 -0.1457 -0.6256
 4284SOL    HW224489   0.122   0.800   9.880  0.0864  0.4764  1.1894
 4285SOL     OW24490   3.250   2.772   4.459 -0.0400  0.2021  0.2769
 4285SOL    HW124491   3.315   2.777   4.528 -1.9731 -1.0378  2.1890
 4285SOL    HW224492   3.255   2.855   4.411 -1.1102  0.3217  0.3559
 4286SOL     OW24493   3.037   0.244  11.544 -0.4849  0.1478  0.0751
 4286SOL    HW124494   3.043   0.179  11.474 -0.3314  0.8879 -0.6079
 4286SOL    HW224495   3.066   0.194  11.620 -2.5075 -0.9715  0.1073
 4287SOL     OW24496   0.349   3.378  14.626 -0.0510  0.0353 -0.1320
 4287SOL    HW124497   0.279   3.349  14.685  0.9911 -0.9946  0.5888
 4287SOL    HW224498   0.309   3.440  14.565  1.1648  0.3250 -0.6350
 4288SOL     OW24499   3.652   4.557   0.701 -0.5976  0.3209 -0.5043
 4288SOL    HW124500   3.726   4.508   0.664 -0.4411  0.0501  0.1648
 4288SOL    HW224501   3.693   4.587   0.782  0.7693 -1.5070 -0.5190
 4289SOL     OW24502   3.154   3.502   0.979  0.8356  0.3821  0.0247
 4289SOL    HW124503   3.120   3.518   1.067 -0.8086 -0.7236 -0.3955
 4289SOL    HW224504   3.243   3.471   0.999  0.6063 -1.0495 -1.1863
 4290SOL     OW24505   2.816   2.760   4.958 -0.0832  0.0574 -0.8078
 4290SOL    HW124506   2.763   2.683   4.935 -0.4049  0.5487 -1.7047
 4290SOL    HW224507   2.898   2.746   4.910  0.2274 -0.6878 -0.0596
 4291SOL     OW24508   4.072   0.529   1.801  0.0688 -0.2961 -0.0177
 4291SOL    HW124509   4.062   0.613   1.755 -0.9475 -0.8549 -0.8156
 4291SOL    HW224510   4.034   0.556   1.885  0.2353 -0.8669  0.2418
 4292SOL     OW24511   1.696   3.806   5.777  0.2581 -0.7152 -0.1172
 4292SOL    HW124512   1.720   3.888   5.736 -2.1741 -0.3378 -0.7431
 4292SOL    HW224513   1.640   3.841   5.845 -0.0246 -0.8609 -0.2748
 4293SOL     OW24514   1.918   0.221  13.135  0.3446  0.1350  0.2102
 4293SOL    HW124515   1.867   0.288  13.181 -0.2843  1.2052 -2.0759
 4293SOL    HW224516   1.980   0.194  13.203 -0.2635 -0.1390  0.6595
 4294SOL     OW24517   1.387   1.434  10.080 -0.3035  1.0336  0.2193
 4294SOL    HW124518   1.419   1.360  10.132 -0.9594 -1.8884 -3.5296
 4294SOL    HW224519   1.338   1.395  10.007  1.4849  1.7401 -1.3560
 4295SOL     OW24520   3.259   1.507   3.101  0.2336 -0.3038 -0.8514
 4295SOL    HW124521   3.252   1.545   3.189 -2.3104 -1.0348 -0.7375
 4295SOL    HW224522   3.276   1.574   3.035 -1.2142  0.0786 -0.8328
 4296SOL     OW24523   1.431   2.351   9.129 -0.1181  0.0200  0.6632
 4296SOL    HW124524   1.375   2.395   9.065 -1.7000 -0.6778  1.5798
 4296SOL    HW224525   1.363   2.337   9.195 -0.8003 -1.8804 -0.4441
 4297SOL     OW24526   1.574   3.641   2.649 -0.4703 -0.3626 -0.4282
 4297SOL    HW124527   1.624   3.587   2.588  0.1827  0.6737 -0.8135
 4297SOL    HW224528   1.636   3.711   2.671  0.3856 -1.3752  0.3841
 4298SOL     OW24529   2.898   1.558   5.594 -0.1766 -0.4721 -0.1759
 4298SOL    HW124530   2.808   1.530   5.611  0.3747 -2.1668  0.0113
 4298SOL    HW224531   2.936   1.470   5.584 -1.8457 -1.2661  0.5029
 4299SOL     OW24532   2.369   0.525   7.945  0.3433  0.1396  0.4387
 4299SOL    HW124533   2.448   0.512   7.893  0.3215  0.7953  0.2416
 4299SOL    HW224534   2.306   0.559   7.882 -0.6130 -0.8930  0.8297
 4300SOL     OW24535   3.968   1.402   1.566  0.2979 -0.7885  0.2232
 4300SOL    HW124536   3.901   1.461   1.532  0.4968  0.1688  1.4722
 4300SOL    HW224537   3.903   1.338   1.596 -0.3346 -0.8396 -1.2619
 4301SOL     OW24538   1.722   4.207  14.706 -0.2901 -0.1547 -0.1283
 4301SOL    HW124539   1.816   4.194  14.719 -0.5648 -4.2131 -2.2761
 4301SOL    HW224540   1.684   4.129  14.746  0.2376  0.3686  1.4037
 4302SOL     OW24541   1.902   2.671   9.233  0.1656  0.9579  0.0839
 4302SOL    HW124542   1.841   2.608   9.194  0.6299 -0.4190  1.5696
 4302SOL    HW224543   1.833   2.723   9.274  0.3589  1.7562 -0.5999
 4303SOL     OW24544   3.975   3.779  15.428  0.0105 -0.3836 -0.3072
 4303SOL    HW124545   3.938   3.721  15.362  2.2912 -1.4042 -0.6869
 4303SOL    HW224546   3.898   3.776  15.485 -0.9696 -1.7234 -1.6939
 4304SOL     OW24547   2.940   0.217   7.811  0.3491  0.1762 -0.3891
 4304SOL    HW124548   3.003   0.287   7.830 -0.9764  1.3497 -0.3189
 4304SOL    HW224549   2.989   0.136   7.821  0.2386  0.1911  0.2488
 4305SOL     OW24550   2.366   2.731   4.163  0.2368  0.5837 -0.0552
 4305SOL    HW124551   2.431   2.790   4.203  1.5613  0.7003 -2.4200
 4305SOL    HW224552   2.289   2.787   4.174 -0.3456  0.0966 -1.6937
 4306SOL     OW24553   3.835   1.708   7.382 -0.3803  0.0794 -0.8236
 4306SOL    HW124554   3.834   1.614   7.401 -1.4482 -0.2853 -2.6271
 4306SOL    HW224555   3.774   1.744   7.446  1.3680  0.4402  0.6361
 4307SOL     OW24556   3.539   4.485   6.460  0.2633 -0.5329  0.4531
 4307SOL    HW124557   3.629   4.459   6.479  1.1340  1.2429 -1.2402
 4307SOL    HW224558   3.559   4.549   6.391 -0.6550 -0.1830  0.5076
 4308SOL     OW24559   0.146   4.255   7.949 -0.0645 -0.2404  0.4626
 4308SOL    HW124560   0.067   4.281   7.996  0.0342 -0.3930  0.7129
 4308SOL    HW224561   0.169   4.183   8.006  0.1399 -0.5985 -0.0685
 4309SOL     OW24562   2.915   4.303   6.956  0.2620 -0.4294 -0.3619
 4309SOL    HW124563   2.847   4.368   6.969 -0.3520 -1.0551 -0.4595
 4309SOL    HW224564   2.963   4.334   6.880 -0.6906  0.7516 -0.4735
 4310SOL     OW24565   2.423   0.267   3.153 -0.0526 -0.6312 -0.5039
 4310SOL    HW124566   2.363   0.275   3.080  1.2068 -1.7373 -1.6657
 4310SOL    HW224567   2.374   0.314   3.220  0.8485  1.3937 -1.2751
 4311SOL     OW24568   3.793   3.095  17.601 -0.8328 -0.3906 -0.5688
 4311SOL    HW124569   3.770   3.012  17.644 -0.0798 -0.3174 -0.0199
 4311SOL    HW224570   3.719   3.147  17.630 -0.0782  0.5240 -0.2988
 4312SOL     OW24571   1.376   1.107  16.251 -0.1513  0.3374  0.3715
 4312SOL    HW124572   1.294   1.090  16.298  0.1581 -0.6257  0.5718
 4312SOL    HW224573   1.379   1.200  16.271 -0.7559  0.3294  0.4790
 4313SOL     OW24574   3.552   2.821   4.966 -0.0282  0.0402  0.2717
 4313SOL    HW124575   3.567   2.731   4.941 -0.4834  0.2665 -0.7961
 4313SOL    HW224576   3.462   2.817   4.997 -0.2347  0.8125 -0.2271
 4314SOL     OW24577   3.373   2.548   9.650 -0.2214 -0.3646  0.6936
 4314SOL    HW124578   3.413   2.624   9.692  0.3614  0.1106 -0.7262
 4314SOL    HW224579   3.281   2.559   9.674 -0.1516 -1.2306  1.3675
 4315SOL     OW24580   4.628   3.425   6.890 -0.1076 -0.0748  0.1299
 4315SOL    HW124581   4.609   3.519   6.893 -0.4293 -0.1350  0.0049
 4315SOL    HW224582   4.664   3.425   6.801 -0.6866  3.5091 -0.1165
 4316SOL     OW24583   2.885   0.682   3.325 -0.4680  0.4024  0.3173
 4316SOL    HW124584   2.818   0.627   3.366  1.8100 -1.4197  1.6045
 4316SOL    HW224585   2.831   0.720   3.255  1.2925 -0.1557 -1.3459
 4317SOL     OW24586   3.948   2.356   7.542  0.2224 -0.5439  0.4326
 4317SOL    HW124587   3.908   2.341   7.457 -0.4417  2.1910  0.2734
 4317SOL    HW224588   3.986   2.444   7.539 -1.3444  0.1727  1.1416
 4318SOL     OW24589   3.584   3.018  15.692 -0.2459  0.4332  0.2361
 4318SOL    HW124590   3.665   3.010  15.642  0.4615  0.1934  1.4113
 4318SOL    HW224591   3.597   3.109  15.720  1.8241 -0.1173  1.0362
 4319SOL     OW24592   3.681   0.565  16.638  1.0440  0.8079 -0.3734
 4319SOL    HW124593   3.697   0.621  16.562  3.3473 -0.6270 -0.9327
 4319SOL    HW224594   3.701   0.479  16.600 -2.2424 -0.7583  1.4663
 4320SOL     OW24595   3.532   4.567   8.820 -0.1259 -0.3383 -0.1059
 4320SOL    HW124596   3.441   4.537   8.825 -0.3490  0.4448  0.4568
 4320SOL    HW224597   3.527   4.647   8.769  0.2553  0.4852  1.1573
 4321SOL     OW24598   2.057   4.258   8.606  0.1114 -0.2959  0.4246
 4321SOL    HW124599   2.135   4.216   8.645  1.2344  1.8315  0.4652
 4321SOL    HW224600   2.092   4.331   8.555  1.2350  0.0598  1.7005
 4322SOL     OW24601   0.299   0.533  13.455  0.1718 -0.3500  0.5309
 4322SOL    HW124602   0.331   0.512  13.367 -0.3909 -1.6687  0.6463
 4322SOL    HW224603   0.273   0.445  13.482 -1.3907 -0.3255 -0.8947
 4323SOL     OW24604   2.727   0.481   5.462  0.5088  0.4152 -0.1173
 4323SOL    HW124605   2.821   0.461   5.468  0.8250  1.2042 -2.4742
 4323SOL    HW224606   2.701   0.465   5.553 -1.4612 -1.5427 -1.0492
 4324SOL     OW24607   1.146   1.265  17.508  0.0310 -0.0587 -0.1809
 4324SOL    HW124608   1.105   1.237  17.590  0.3321  1.0309  0.3474
 4324SOL    HW224609   1.230   1.290  17.547  0.0215 -1.3732  0.6780
 4325SOL     OW24610   2.053   0.895  17.307 -0.3883 -0.5037 -0.0541
 4325SOL    HW124611   2.114   0.940  17.249  0.1536 -1.7198 -0.4182
 4325SOL    HW224612   1.995   0.969  17.325  0.6470 -0.0424  1.3281
 4326SOL     OW24613   1.720   2.593   6.547  0.0814  0.0902 -0.1640
 4326SOL    HW124614   1.636   2.609   6.504  1.7381  0.6699 -3.2207
 4326SOL    HW224615   1.701   2.621   6.636 -3.2331  0.5204 -1.0265
 4327SOL     OW24616   2.062   4.594   3.506 -0.2540 -0.2517  0.1541
 4327SOL    HW124617   2.014   4.545   3.573 -1.5318  0.7284 -0.0627
 4327SOL    HW224618   1.998   4.662   3.487 -0.6891 -0.8807 -0.6188
 4328SOL     OW24619   1.352   0.881   0.513 -0.6200  0.3167  0.0594
 4328SOL    HW124620   1.427   0.841   0.469  0.3863  0.9239  1.2135
 4328SOL    HW224621   1.307   0.928   0.443  0.0820  2.2429  0.9074
 4329SOL     OW24622   2.449   0.842  12.126 -0.4499  0.6287  0.1314
 4329SOL    HW124623   2.380   0.908  12.124  1.2593  2.4138 -0.7926
 4329SOL    HW224624   2.447   0.800  12.040  0.8596 -0.6563  0.7290
 4330SOL     OW24625   3.102   2.195   3.796 -0.0898  0.0882 -0.7097
 4330SOL    HW124626   3.036   2.262   3.775  0.7702  0.3247 -2.6769
 4330SOL    HW224627   3.143   2.228   3.875 -1.3479  1.2140 -0.5340
 4331SOL     OW24628   0.290   4.147   2.563  0.1704 -0.1404  0.0031
 4331SOL    HW124629   0.377   4.154   2.603 -0.8104  0.1899  2.1062
 4331SOL    HW224630   0.248   4.226   2.598  0.5596 -0.4799  1.2267
 4332SOL     OW24631   3.315   2.092   9.148 -0.8059 -0.0951 -0.5922
 4332SOL    HW124632   3.406   2.081   9.175 -0.8201 -2.0242 -1.3173
 4332SOL    HW224633   3.309   2.179   9.187 -1.4113 -1.4264  2.3042
 4333SOL     OW24634   2.010   1.753   6.944 -0.8093 -0.8812  0.3953
 4333SOL    HW124635   2.090   1.720   6.904 -0.7990  0.4920 -0.7479
 4333SOL    HW224636   2.038   1.743   7.035 -0.9719 -1.1947  0.4107
 4334SOL     OW24637   4.726   2.555   7.903  0.4230  0.0462 -0.0994
 4334SOL    HW124638   4.648   2.561   7.848 -0.0096  1.4288  0.6842
 4334SOL    HW224639   0.054   2.505   7.851  3.9375  1.9197  2.4376
 4335SOL     OW24640   3.223   3.772   6.810 -0.5696  0.1316 -0.4457
 4335SOL    HW124641   3.314   3.778   6.780  0.1280 -0.3787  1.5999
 4335SOL    HW224642   3.223   3.699   6.872 -3.0306  1.9449  1.6588
 4336SOL     OW24643   2.228   2.043   2.733 -0.4365 -0.3041  0.4358
 4336SOL    HW124644   2.185   2.044   2.648  0.6022 -0.3176 -0.0923
 4336SOL    HW224645   2.170   1.986   2.784  0.0872 -0.3055  1.0352
 4337SOL     OW24646   0.178   4.192  11.892 -0.2216  0.1402  0.5603
 4337SOL    HW124647   0.190   4.266  11.951 -1.5431  1.9160 -1.4044
 4337SOL    HW224648   0.243   4.209  11.824  0.2755  0.7016  1.1803
 4338SOL     OW24649   1.506   4.391  11.428 -0.0364  0.4271  0.7071
 4338SOL    HW124650   1.595   4.362  11.450  0.8388  2.8007  0.2785
 4338SOL    HW224651   1.466   4.307  11.407  0.2518  0.9797 -2.0988
 4339SOL     OW24652   3.810   1.215   6.849 -0.6665  0.0970 -0.0624
 4339SOL    HW124653   3.793   1.303   6.883 -0.1429 -1.6317  4.5735
 4339SOL    HW224654   3.892   1.234   6.804 -0.4451  0.9468  0.7134
 4340SOL     OW24655   1.488   0.795  10.122 -0.1981  0.1233  0.3229
 4340SOL    HW124656   1.568   0.847  10.107  1.1442 -1.5672  1.6398
 4340SOL    HW224657   1.419   0.861  10.115  0.1260  0.2005 -2.4003
 4341SOL     OW24658   1.439   4.352   0.751 -0.0273  0.8113  0.6410
 4341SOL    HW124659   1.476   4.322   0.668 -3.5413 -0.9238 -0.3055
 4341SOL    HW224660   1.343   4.356   0.742 -0.0367  1.0188  0.8141
 4342SOL     OW24661   1.602   0.795   4.529  0.4677  0.2536  0.2817
 4342SOL    HW124662   1.608   0.884   4.493 -0.4935  0.4662  0.6388
 4342SOL    HW224663   1.600   0.748   4.446  1.2528 -3.5054  2.3952
 4343SOL     OW24664   0.541   0.677   3.941 -0.6729  0.8188  0.0278
 4343SOL    HW124665   0.476   0.683   3.871 -1.5261  1.1247  0.8522
 4343SOL    HW224666   0.509   0.732   4.012 -1.1252 -0.5084  0.8544
 4344SOL     OW24667   4.270   1.280   0.036 -0.0036  0.3820  0.2302
 4344SOL    HW124668   4.221   1.339   0.093 -0.3899 -1.0607  1.3926
 4344SOL    HW224669   4.244   1.308  17.690  0.0929  2.9080  0.9967
 4345SOL     OW24670   2.869   2.311   2.745  0.3448 -0.0849 -0.1964
 4345SOL    HW124671   2.825   2.395   2.761  1.2284  0.4398 -0.5281
 4345SOL    HW224672   2.796   2.249   2.757  0.6198 -0.0779  1.5747
 4346SOL     OW24673   3.331   2.781   8.225  0.1481 -0.3308 -0.0089
 4346SOL    HW124674   3.237   2.777   8.242  0.4140  0.9856  1.7983
 4346SOL    HW224675   3.331   2.722   8.150 -0.5189 -1.5926  0.9877
 4347SOL     OW24676   2.037   3.859   1.996  0.0658 -0.5957 -1.0296
 4347SOL    HW124677   2.123   3.880   1.961  0.6619 -1.1844  0.0859
 4347SOL    HW224678   2.049   3.776   2.041 -0.7898 -0.2204 -0.1182
 4348SOL     OW24679   0.224   1.271   7.203 -0.6749 -0.2846  0.2995
 4348SOL    HW124680   0.171   1.289   7.126 -0.7257 -0.0078  0.4003
 4348SOL    HW224681   0.176   1.212   7.260 -1.6657  0.6566  0.4340
 4349SOL     OW24682   3.021   2.210   6.897  0.0902 -0.3391  0.2216
 4349SOL    HW124683   2.962   2.247   6.831 -0.0594  1.7573  1.5047
 4349SOL    HW224684   3.094   2.179   6.844  0.1200 -0.7701  0.5175
 4350SOL     OW24685   1.676   4.579   5.746 -0.0428  0.3664  0.1287
 4350SOL    HW124686   1.606   4.598   5.683  1.1449  1.4057 -0.8820
 4350SOL    HW224687   1.629   4.577   5.830 -1.0102  0.9535 -0.3976
 4351SOL     OW24688   3.801   1.144  16.526 -0.3890  0.1147 -0.5332
 4351SOL    HW124689   3.873   1.185  16.575  2.4124 -3.0204 -2.0825
 4351SOL    HW224690   3.839   1.056  16.527 -1.0444 -0.1442  1.7213
 4352SOL     OW24691   4.563   4.449   1.866 -0.2732  0.2637 -0.4192
 4352SOL    HW124692   4.525   4.373   1.911  1.1149  0.2190  0.7118
 4352SOL    HW224693   4.625   4.402   1.810 -0.6934 -1.2898  0.4162
 4353SOL     OW24694   4.204   1.256   1.437 -0.4528  0.0687 -0.0160
 4353SOL    HW124695   4.128   1.312   1.421 -0.2067 -0.6324 -3.7098
 4353SOL    HW224696   4.207   1.259   1.532  1.6055 -0.5798 -0.0619
 4354SOL     OW24697   3.525   3.704   5.845 -0.3073 -0.2811  0.0196
 4354SOL    HW124698   3.452   3.764   5.829 -0.3181  0.0445  1.2934
 4354SOL    HW224699   3.528   3.662   5.759  1.2100 -1.8069  0.8290
 4355SOL     OW24700   3.713   4.151  10.802  0.2856 -0.1152 -0.5757
 4355SOL    HW124701   3.704   4.057  10.818  0.7350 -0.1379 -0.4771
 4355SOL    HW224702   3.790   4.177  10.852 -2.1620  0.5747  2.8214
 4356SOL     OW24703   1.543   4.020   7.679 -0.2225  0.2365 -0.1475
 4356SOL    HW124704   1.516   4.003   7.769  1.2042  0.7924  0.3957
 4356SOL    HW224705   1.537   4.116   7.676  0.0645  0.1656 -3.2008
 4357SOL     OW24706   1.207   4.561   8.455  0.5032  0.2728 -0.3637
 4357SOL    HW124707   1.284   4.595   8.500  2.2966 -1.3952 -2.1763
 4357SOL    HW224708   1.199   4.630   8.389  2.1096  0.8501  0.0477
 4358SOL     OW24709   4.291   3.784   7.208 -0.0540  0.0586  0.4004
 4358SOL    HW124710   4.316   3.788   7.115 -0.0502  2.2898  0.4951
 4358SOL    HW224711   4.373   3.768   7.255  0.1154 -2.6439 -0.8441
 4359SOL     OW24712   0.870   4.626   1.502  0.5416  0.6203 -0.0281
 4359SOL    HW124713   0.918   4.692   1.552  1.3148  1.3198 -1.6993
 4359SOL    HW224714   0.782   4.660   1.521  0.1998  0.0667 -0.6243
 4360SOL     OW24715   2.066   2.669   3.194 -0.0945  1.0639  0.4859
 4360SOL    HW124716   1.996   2.648   3.132 -0.2993 -0.6358  1.3000
 4360SOL    HW224717   2.114   2.739   3.150 -0.0060  0.4548 -0.3899
 4361SOL     OW24718   2.244   0.902   6.296  0.4616 -0.4079  0.0147
 4361SOL    HW124719   2.232   0.833   6.231 -2.8371  0.2733 -0.1030
 4361SOL    HW224720   2.335   0.889   6.323  0.7041  0.5142 -0.3676
 4362SOL     OW24721   4.659   4.567  17.484  0.0315 -0.6501  0.6960
 4362SOL    HW124722   4.625   4.652  17.459  1.0991 -0.3912  0.0943
 4362SOL    HW224723   4.728   4.582  17.548 -2.0628  2.0061  2.2987
 4363SOL     OW24724   1.226   2.134   5.311  0.3156  0.6009 -0.3708
 4363SOL    HW124725   1.266   2.084   5.381 -1.3112  0.2246  0.2960
 4363SOL    HW224726   1.136   2.143   5.344 -0.0770  0.3998 -1.3816
 4364SOL     OW24727   0.709   2.489   8.257  0.0823 -0.0758  0.0668
 4364SOL    HW124728   0.754   2.490   8.172 -0.8224 -1.2404 -0.4301
 4364SOL    HW224729   0.620   2.456   8.243  0.0888 -0.2362  0.4074
 4365SOL     OW24730   1.486   0.967   2.792 -0.1216  0.6926 -0.3840
 4365SOL    HW124731   1.444   1.037   2.843  0.5645  1.9482 -1.5182
 4365SOL    HW224732   1.576   0.995   2.807 -1.1785  4.1844 -0.5011
 4366SOL     OW24733   4.700   0.736  12.751  0.0925 -0.4891  0.3037
 4366SOL    HW124734   0.022   0.691  12.689  0.5462 -2.6714  2.3156
 4366SOL    HW224735   0.026   0.735  12.824  0.2825 -1.8340  0.1236
 4367SOL     OW24736   3.887   1.806   2.734 -0.4051 -0.3546 -0.7297
 4367SOL    HW124737   3.907   1.754   2.812 -0.2083  0.5816 -0.1594
 4367SOL    HW224738   3.801   1.836   2.761 -0.0278  1.1540 -1.2150
 4368SOL     OW24739   1.661   1.564   8.515  0.2873  0.0891  0.6107
 4368SOL    HW124740   1.722   1.584   8.444 -0.2943  1.0937  0.3935
 4368SOL    HW224741   1.702   1.625   8.576 -1.8576  0.6674  1.4774
 4369SOL     OW24742   3.268   4.300   3.607 -0.5443  0.0222  0.1323
 4369SOL    HW124743   3.233   4.315   3.695 -0.5345  3.5084 -0.4541
 4369SOL    HW224744   3.266   4.205   3.607 -1.4475  0.0422 -1.6266
 4370SOL     OW24745   1.269   2.969  10.758 -0.1503  0.5555  0.2624
 4370SOL    HW124746   1.325   2.891  10.747 -3.4656 -1.8221  0.3162
 4370SOL    HW224747   1.270   2.995  10.850  1.7983 -0.1774  0.4569
 4371SOL     OW24748   4.074   3.106   1.171  0.1665  0.1603 -0.1667
 4371SOL    HW124749   4.119   3.030   1.134 -1.0647 -0.8118  0.3548
 4371SOL    HW224750   3.992   3.063   1.194  1.2147 -0.7488  1.8216
 4372SOL     OW24751   3.868   4.051  11.050 -0.3479  0.8934 -0.3189
 4372SOL    HW124752   3.906   4.120  11.105  2.8457 -0.7287 -0.4485
 4372SOL    HW224753   3.924   4.055  10.972 -0.5020  0.1403 -0.4714
 4373SOL     OW24754   2.334   3.323  13.023  0.3865 -0.0172  0.1852
 4373SOL    HW124755   2.401   3.279  12.969  0.7831 -0.1039  0.7426
 4373SOL    HW224756   2.363   3.413  13.009  1.3697 -0.8842 -3.6367
 4374SOL     OW24757   4.613   4.305  17.308 -0.0342 -0.1605 -0.0149
 4374SOL    HW124758   4.563   4.351  17.375 -1.2521 -0.6538 -0.5853
 4374SOL    HW224759   4.677   4.371  17.281  1.1324 -1.2582  0.0533
 4375SOL     OW24760   2.258   3.208   4.600  0.1693  0.2336 -0.0649
 4375SOL    HW124761   2.240   3.260   4.522 -0.1978  0.6118  0.2696
 4375SOL    HW224762   2.325   3.146   4.571 -2.0377 -1.5358 -1.4366
 4376SOL     OW24763   0.591   0.214  10.131 -0.0715  0.3790 -0.1018
 4376SOL    HW124764   0.577   0.239  10.040  0.4288 -1.1603 -0.6013
 4376SOL    HW224765   0.683   0.233  10.152  0.5052 -2.9784  0.3757
 4377SOL     OW24766   4.654   2.360   3.924 -0.1303 -0.2221 -0.3591
 4377SOL    HW124767   4.727   2.307   3.955  0.1142 -0.2549 -0.9787
 4377SOL    HW224768   4.621   2.314   3.847  1.4496 -2.0608  0.0560
 4378SOL     OW24769   3.434   0.973  17.700 -0.3145 -0.3146  0.1651
 4378SOL    HW124770   3.345   0.942  17.717 -0.7501  1.1588  0.6245
 4378SOL    HW224771   3.466   0.905  17.641  1.1412 -0.7569  1.4695
 4379SOL     OW24772   2.183   0.570  11.259 -0.2802  0.6481 -0.3397
 4379SOL    HW124773   2.129   0.525  11.324 -1.2230  0.0271 -1.5453
 4379SOL    HW224774   2.248   0.605  11.319  0.7131  1.2286 -1.7621
 4380SOL     OW24775   1.603   1.760  17.588 -0.0166 -0.8154 -0.8334
 4380SOL    HW124776   1.594   1.669  17.617 -1.7699 -0.4018 -0.1160
 4380SOL    HW224777   1.513   1.776  17.559  0.0668  0.2203 -0.4947
 4381SOL     OW24778   4.491   4.041   0.190 -0.2943  0.1069 -0.3882
 4381SOL    HW124779   4.460   3.950   0.192  1.3284 -0.4164  0.9498
 4381SOL    HW224780   4.430   4.080   0.253  0.9758  2.1775 -0.4615
 4382SOL     OW24781   0.613   1.885   3.695  0.2064 -0.0485  0.0615
 4382SOL    HW124782   0.654   1.932   3.767 -0.5313 -1.6654  1.5455
 4382SOL    HW224783   0.519   1.897   3.714  0.6068 -0.5309  2.3455
 4383SOL     OW24784   3.636   0.229  14.874 -0.4182  0.2030  0.2386
 4383SOL    HW124785   3.670   0.231  14.964  0.2415  2.0434 -0.0599
 4383SOL    HW224786   3.684   0.153  14.841 -1.1350 -0.3145  0.3740
 4384SOL     OW24787   1.165   0.701   0.870  0.8146 -0.2551  0.3758
 4384SOL    HW124788   1.152   0.618   0.915 -2.9971 -0.6987 -1.5660
 4384SOL    HW224789   1.084   0.707   0.819 -0.1419  2.2307  2.2135
 4385SOL     OW24790   2.844   0.303   8.629 -0.1336 -0.5154 -0.7548
 4385SOL    HW124791   2.817   0.347   8.710  2.0111 -1.5754  0.5454
 4385SOL    HW224792   2.761   0.281   8.587  0.5237 -3.0149 -0.7534
 4386SOL     OW24793   0.449   1.772   8.593  0.0861 -0.1940 -0.3673
 4386SOL    HW124794   0.364   1.732   8.614 -1.0236  0.7530 -3.0339
 4386SOL    HW224795   0.507   1.696   8.590 -0.2711 -0.3564 -3.2048
 4387SOL     OW24796   2.276   1.047   4.125 -0.3252  0.1490 -0.5006
 4387SOL    HW124797   2.370   1.061   4.115 -0.1974 -0.9835 -0.8128
 4387SOL    HW224798   2.235   1.121   4.080  2.1026  3.0157  1.9735
 4388SOL     OW24799   4.130   3.307  14.078  0.4487 -0.2138  0.1242
 4388SOL    HW124800   4.216   3.284  14.112  0.1028 -0.8654  0.5486
 4388SOL    HW224801   4.106   3.229  14.028  1.5051 -0.6758  0.3582
 4389SOL     OW24802   4.590   2.391  14.352  0.3485 -0.3704 -0.5016
 4389SOL    HW124803   4.523   2.324  14.369  1.1899 -0.3509  2.8251
 4389SOL    HW224804   4.668   2.358  14.396 -1.4249 -2.0896  1.3522
 4390SOL     OW24805   1.682   2.655   8.559 -0.3714  0.4922  0.9727
 4390SOL    HW124806   1.752   2.719   8.553 -1.0363  1.1882  0.6177
 4390SOL    HW224807   1.720   2.571   8.533 -2.4128 -0.9542  2.6162
 4391SOL     OW24808   1.431   1.782   5.197 -0.3281  0.0860 -0.4639
 4391SOL    HW124809   1.429   1.877   5.184 -0.8154 -0.0465 -1.3713
 4391SOL    HW224810   1.484   1.756   5.121 -1.6225 -1.0884 -0.9569
 4392SOL     OW24811   2.701   3.479  12.417 -0.0298  0.2011  0.0753
 4392SOL    HW124812   2.754   3.460  12.494  0.6810  0.9118 -0.2401
 4392SOL    HW224813   2.733   3.405  12.366 -1.6540  1.3739 -2.6592
 4393SOL     OW24814   3.686   3.114   1.355  0.4953 -0.0128  0.2064
 4393SOL    HW124815   3.591   3.112   1.367  0.4509  1.1804  0.0953
 4393SOL    HW224816   3.712   3.205   1.373  0.2952  0.4467 -1.8373
 4394SOL     OW24817   2.886   4.143   4.927 -0.4517 -0.1616  0.5736
 4394SOL    HW124818   2.813   4.109   4.874  1.2086 -1.6361 -0.7900
 4394SOL    HW224819   2.854   4.177   5.010 -6.0174  2.8825 -2.8431
 4395SOL     OW24820   0.271   0.562  12.358 -0.4531  0.5699  0.1201
 4395SOL    HW124821   0.352   0.612  12.353  0.6520 -1.3855 -1.5382
 4395SOL    HW224822   0.297   0.493  12.420 -1.9754  0.6476  0.8483
 4396SOL     OW24823   0.435   0.821   6.180 -0.4791  0.2963 -0.0420
 4396SOL    HW124824   0.525   0.844   6.203 -0.4846  0.0354  0.2427
 4396SOL    HW224825   0.459   0.796   6.091 -0.8418 -2.2071  0.5466
 4397SOL     OW24826   2.832   4.032   3.549  0.1066  0.3524  0.8026
 4397SOL    HW124827   2.750   4.028   3.598 -0.4825  3.1140  0.0318
 4397SOL    HW224828   2.862   4.120   3.574 -2.3741  1.7370 -1.1430
 4398SOL     OW24829   4.306   0.666   7.806  0.1485  0.7579  0.2405
 4398SOL    HW124830   4.286   0.671   7.900 -1.4597  3.3983 -0.2552
 4398SOL    HW224831   4.224   0.627   7.776  1.3570 -2.2800  0.9045
 4399SOL     OW24832   3.774   2.525   2.886  0.1736 -0.7575 -0.4043
 4399SOL    HW124833   3.799   2.596   2.826 -0.5414  0.1507  0.3770
 4399SOL    HW224834   3.760   2.582   2.962 -1.1591 -0.9767 -0.4845
 4400SOL     OW24835   2.683   2.524   2.780  0.3168  0.5077 -0.0390
 4400SOL    HW124836   2.590   2.513   2.759  0.4147  0.4365 -0.4470
 4400SOL    HW224837   2.682   2.517   2.875  0.7404  1.6436  0.0446
 4401SOL     OW24838   0.667   0.767   0.730 -0.0560 -0.0810 -0.0821
 4401SOL    HW124839   0.581   0.806   0.742 -0.0003 -0.4934  1.6814
 4401SOL    HW224840   0.682   0.769   0.635 -1.8630  2.6950 -0.3013
 4402SOL     OW24841   2.826   0.030   8.098  0.6406 -0.0424 -0.4790
 4402SOL    HW124842   2.854   0.063   8.184 -1.4181 -0.8450  0.4931
 4402SOL    HW224843   2.799   0.112   8.055 -0.9209 -0.4193 -0.2277
 4403SOL     OW24844   1.452   2.887   6.010  0.0038  0.7188  0.2557
 4403SOL    HW124845   1.374   2.834   6.003  1.4882 -1.5854  1.1648
 4403SOL    HW224846   1.441   2.958   5.946 -2.5322  0.2381  0.1829
 4404SOL     OW24847   3.604   2.359   6.212  0.5253  0.6437  0.4177
 4404SOL    HW124848   3.551   2.319   6.281  2.2682  0.1865  1.4988
 4404SOL    HW224849   3.549   2.432   6.184  0.1119 -0.5373 -1.8731
 4405SOL     OW24850   2.329   0.500   0.123 -0.0496 -0.3634 -0.0649
 4405SOL    HW124851   2.391   0.469   0.056 -0.7975 -2.8751  0.4231
 4405SOL    HW224852   2.360   0.455   0.201 -2.5199 -1.4629  0.2670
 4406SOL     OW24853   0.562   4.580   0.537 -0.7609 -0.2475 -0.2468
 4406SOL    HW124854   0.597   4.586   0.625 -1.3866 -0.8903  0.0408
 4406SOL    HW224855   0.512   4.661   0.524 -1.6046 -1.2046 -2.9481
 4407SOL     OW24856   3.593   4.717   2.932 -0.6886  0.0788 -0.1872
 4407SOL    HW124857   3.541   4.639   2.911 -0.5058 -0.4495  1.3342
 4407SOL    HW224858   3.670   4.690   2.881  0.0818  0.9954  0.4964
 4408SOL     OW24859   0.353   1.907   8.377 -0.5431 -0.0144 -0.0639
 4408SOL    HW124860   0.394   1.885   8.461 -1.9197 -2.7160 -0.1373
 4408SOL    HW224861   0.309   1.989   8.400 -2.4011 -1.3159  1.0037
 4409SOL     OW24862   1.807   3.513  12.556 -0.1321 -0.2743 -0.6169
 4409SOL    HW124863   1.734   3.458  12.527 -2.8118  3.5206 -1.0001
 4409SOL    HW224864   1.860   3.530  12.478 -2.0398  1.7278 -1.4699
 4410SOL     OW24865   3.862   3.232   6.940 -0.7497  0.0349  0.1812
 4410SOL    HW124866   3.770   3.223   6.964 -0.8618  0.1000 -0.2247
 4410SOL    HW224867   3.868   3.326   6.956  0.2715 -0.1355  0.8321
 4411SOL     OW24868   1.163   4.266   5.760 -0.1097  0.4887  0.0302
 4411SOL    HW124869   1.181   4.177   5.791 -0.2174  0.1295 -0.9356
 4411SOL    HW224870   1.069   4.263   5.738 -0.1283  3.1051 -0.2309
 4412SOL     OW24871   0.441   0.206   9.424  0.0036  0.4250 -0.0476
 4412SOL    HW124872   0.527   0.246   9.433  1.5041 -3.2586  1.7847
 4412SOL    HW224873   0.412   0.219   9.333  1.3947  3.8866  0.0198
 4413SOL     OW24874   1.138   2.737   2.114 -0.2622  0.0723 -0.1837
 4413SOL    HW124875   1.134   2.832   2.125  0.2410 -0.1725  2.0888
 4413SOL    HW224876   1.220   2.720   2.160  0.4656  2.5543 -0.5688
 4414SOL     OW24877   0.732   1.373   5.896 -0.3419 -0.1856 -0.0976
 4414SOL    HW124878   0.772   1.383   5.810 -0.3098 -3.1513 -0.4275
 4414SOL    HW224879   0.813   1.350   5.941 -0.2755  1.0863  0.4371
 4415SOL     OW24880   3.317   3.611   8.596  0.3930  0.6599 -0.8117
 4415SOL    HW124881   3.353   3.550   8.660 -0.4537  0.7765 -0.2249
 4415SOL    HW224882   3.319   3.570   8.509  1.7961  0.1595 -0.5386
 4416SOL     OW24883   0.583   0.509   0.900  0.0276  0.7742 -0.5790
 4416SOL    HW124884   0.587   0.587   0.845  1.3470  1.8391  1.0220
 4416SOL    HW224885   0.534   0.548   0.972 -1.1335 -0.4788 -0.6946
 4417SOL     OW24886   0.258   0.254   4.097 -0.1696 -0.1256  0.1117
 4417SOL    HW124887   0.274   0.342   4.061  0.4188 -0.2660  0.0233
 4417SOL    HW224888   0.196   0.222   4.032 -0.2772  1.9169 -0.7887
 4418SOL     OW24889   3.207   3.828   2.931 -0.3495  0.0779  0.8779
 4418SOL    HW124890   3.271   3.790   2.992  1.3365 -0.2992 -1.1226
 4418SOL    HW224891   3.255   3.908   2.908 -1.2768  0.7330  1.2034
 4419SOL     OW24892   0.654   3.344   7.805 -0.3248 -0.2416 -0.2880
 4419SOL    HW124893   0.575   3.362   7.754 -0.4814  3.1295  1.1836
 4419SOL    HW224894   0.690   3.268   7.759 -1.4391 -0.4285 -0.8272
 4420SOL     OW24895   1.132   4.538   6.550  0.3025  0.4531  0.3214
 4420SOL    HW124896   1.103   4.546   6.459 -1.2335  2.9985  1.0100
 4420SOL    HW224897   1.060   4.581   6.597 -1.2030 -2.7229  0.8731
 4421SOL     OW24898   0.287   4.272   9.206 -0.7937  0.1016 -0.1018
 4421SOL    HW124899   0.357   4.212   9.179 -1.1412  0.1382 -1.0804
 4421SOL    HW224900   0.211   4.240   9.157 -1.2237  2.7348 -1.1259
 4422SOL     OW24901   3.690   0.064   8.539  0.3778  0.3078  0.2305
 4422SOL    HW124902   3.693   4.720   8.487 -0.9939  1.1256 -1.0768
 4422SOL    HW224903   3.783   0.074   8.563  0.0893 -0.0381  1.4904
 4423SOL     OW24904   1.081   0.942   6.685  0.4989 -0.2560  0.3082
 4423SOL    HW124905   1.054   1.031   6.662  2.6017  0.2073 -0.4345
 4423SOL    HW224906   1.099   0.911   6.596  0.7397  0.1670  0.2026
 4424SOL     OW24907   1.618   3.854  13.976  0.0562  0.6862  0.5322
 4424SOL    HW124908   1.701   3.879  13.935 -0.2698  0.1930 -0.4399
 4424SOL    HW224909   1.551   3.901  13.926  1.1368  1.1089 -0.5263
 4425SOL     OW24910   0.078   1.385  12.171  0.7702 -0.5985  0.2739
 4425SOL    HW124911   0.050   1.298  12.197 -1.3209 -0.0985 -0.2873
 4425SOL    HW224912   0.124   1.419  12.248 -0.1928  1.6599 -0.1592
 4426SOL     OW24913   3.749   4.685  17.537  0.1883 -0.1426  0.2833
 4426SOL    HW124914   3.784   0.002  17.609  1.8272 -0.2796 -0.4106
 4426SOL    HW224915   3.701   4.613  17.579 -0.6596 -0.0076 -0.4486
 4427SOL     OW24916   1.329   1.514   5.560 -0.2026  0.2452 -0.0003
 4427SOL    HW124917   1.416   1.485   5.534 -1.1992 -0.4662 -2.4898
 4427SOL    HW224918   1.318   1.592   5.505  0.6164  0.5038  0.1974
 4428SOL     OW24919   2.792   4.474   3.091  0.3014 -0.4311 -0.5199
 4428SOL    HW124920   2.732   4.518   3.029 -0.0878  1.0099  0.8897
 4428SOL    HW224921   2.743   4.478   3.173  1.1376  0.3209 -0.0604
 4429SOL     OW24922   1.909   0.101   5.480  0.4249  0.2188  0.2622
 4429SOL    HW124923   1.972   0.029   5.466  2.2094  1.9812 -0.7779
 4429SOL    HW224924   1.822   0.072   5.453  0.5727 -0.7190  0.7772
 4430SOL     OW24925   3.128   1.294   7.478 -0.1224 -0.0674  0.2570
 4430SOL    HW124926   3.168   1.380   7.492 -0.3216 -0.2564  1.9257
 4430SOL    HW224927   3.204   1.239   7.496  1.5096  1.4777 -1.8089
 4431SOL     OW24928   3.946   0.849   4.152 -0.3592 -0.5198 -0.2218
 4431SOL    HW124929   3.986   0.792   4.086 -2.0229  1.3960 -2.8392
 4431SOL    HW224930   3.920   0.781   4.215  2.5927 -1.2775  0.2133
 4432SOL     OW24931   1.929   0.242   4.233 -0.0650 -0.3569  0.5874
 4432SOL    HW124932   1.919   0.165   4.290 -0.6633 -0.2268  0.6574
 4432SOL    HW224933   1.887   0.207   4.154  0.3840 -0.9996  0.6275
 4433SOL     OW24934   0.423   3.251  11.959 -0.4364 -0.2750 -0.6370
 4433SOL    HW124935   0.420   3.290  11.872  1.8920  0.3321 -0.4351
 4433SOL    HW224936   0.515   3.259  11.985 -0.6396 -0.6061  0.1772
 4434SOL     OW24937   0.995   3.263   7.674 -0.2916  0.3438  0.3917
 4434SOL    HW124938   1.069   3.203   7.675 -0.7716 -0.2347  0.6778
 4434SOL    HW224939   0.929   3.200   7.702 -2.2926  1.7020 -1.2729
 4435SOL     OW24940   3.162   3.364   2.200 -0.7146 -0.5591  0.2270
 4435SOL    HW124941   3.253   3.379   2.175 -0.0927 -0.2444  2.6419
 4435SOL    HW224942   3.132   3.331   2.115  0.9755  0.1841 -0.6542
 4436SOL     OW24943   2.101   3.215  10.350  0.4826  0.3115 -0.1731
 4436SOL    HW124944   2.021   3.246  10.307 -1.3219 -0.1532  2.8432
 4436SOL    HW224945   2.080   3.128  10.385 -0.5326  0.4329 -0.4596
 4437SOL     OW24946   2.435   2.606   8.448 -0.6449 -0.7645 -0.4989
 4437SOL    HW124947   2.462   2.552   8.522  0.1724 -1.1419 -1.0743
 4437SOL    HW224948   2.440   2.546   8.374  2.7772  1.6412 -2.1860
 4438SOL     OW24949   2.026   4.281   7.339  0.1372  0.0086 -0.1473
 4438SOL    HW124950   2.012   4.376   7.336  1.9296  0.2739  0.1125
 4438SOL    HW224951   1.959   4.260   7.404  1.2499 -0.6097  0.7903
 4439SOL     OW24952   1.992   4.216   3.855  0.1454  0.2530  0.2961
 4439SOL    HW124953   2.048   4.183   3.784  0.7377  1.1984  0.3195
 4439SOL    HW224954   1.931   4.146   3.875  0.6735 -0.8876 -2.0264
 4440SOL     OW24955   2.262   3.482   3.198 -0.4880  1.1011 -0.0858
 4440SOL    HW124956   2.339   3.430   3.173  0.0440  1.0919  1.5919
 4440SOL    HW224957   2.303   3.567   3.215  0.2304  0.2579  2.4600
 4441SOL     OW24958   0.833   1.748   4.536 -0.0683  0.3931  0.5122
 4441SOL    HW124959   0.871   1.823   4.582  1.2186  0.2196 -0.2733
 4441SOL    HW224960   0.907   1.708   4.490 -0.6280 -1.2456  1.0165
 4442SOL     OW24961   2.744   0.314   6.970  0.2724 -0.3229 -0.4705
 4442SOL    HW124962   2.803   0.244   6.942 -1.9293 -2.7392  0.9568
 4442SOL    HW224963   2.723   0.284   7.059  1.5537 -1.4437 -0.5359
 4443SOL     OW24964   0.709   1.300   9.106 -0.0764  0.0339 -0.2769
 4443SOL    HW124965   0.802   1.306   9.084  0.3780 -1.1971  1.3063
 4443SOL    HW224966   0.709   1.361   9.180 -0.0902 -1.6775  1.1333
 4444SOL     OW24967   3.097   4.104   6.752 -0.5079 -0.1827  0.5930
 4444SOL    HW124968   3.047   4.154   6.817  0.3342 -0.6594  1.6201
 4444SOL    HW224969   3.175   4.160   6.747  0.1117 -1.1719 -0.6142
 4445SOL     OW24970   1.748   0.989  15.021 -0.0279 -0.0777  0.0091
 4445SOL    HW124971   1.659   1.005  15.053  0.9018 -0.1251  2.5870
 4445SOL    HW224972   1.775   0.924  15.085  0.6601 -0.5571 -0.7663
 4446SOL     OW24973   1.224   0.431  16.528 -0.1233  0.3965  0.2309
 4446SOL    HW124974   1.236   0.453  16.620  0.2679 -3.2113  1.0049
 4446SOL    HW224975   1.165   0.356  16.529 -1.1092  1.1797  1.1946
 4447SOL     OW24976   0.223   3.553  14.468  0.0310  0.0118 -0.0273
 4447SOL    HW124977   0.187   3.626  14.517 -0.2578  0.8958 -1.5951
 4447SOL    HW224978   0.157   3.559  14.399  0.6057  0.4849 -0.5328
 4448SOL     OW24979   3.972   1.987  12.209  0.1325  0.3205  0.2284
 4448SOL    HW124980   3.915   2.058  12.237 -0.6894  0.1444 -1.0268
 4448SOL    HW224981   3.921   1.940  12.143  3.9017 -2.3097 -0.8198
 4449SOL     OW24982   3.453   3.496   5.105  0.3426 -0.3340 -0.2344
 4449SOL    HW124983   3.362   3.508   5.132  0.4057  0.7219 -0.4883
 4449SOL    HW224984   3.479   3.584   5.078  0.6827  0.0771  1.4071
 4450SOL     OW24985   1.614   3.226   6.294 -0.5783  0.0705 -0.0164
 4450SOL    HW124986   1.687   3.254   6.349 -0.4732 -0.6003  0.1820
 4450SOL    HW224987   1.625   3.131   6.298 -0.1771 -0.0208 -2.9018
 4451SOL     OW24988   4.360   2.647   2.442 -0.4686  0.1799 -1.0456
 4451SOL    HW124989   4.269   2.644   2.469 -0.0523  0.6593  0.3924
 4451SOL    HW224990   4.387   2.555   2.448  1.4237  0.9249  2.0550
 4452SOL     OW24991   1.771   3.192  12.659 -0.1598  0.1715 -0.0762
 4452SOL    HW124992   1.832   3.174  12.588 -0.5552 -1.4421  0.0127
 4452SOL    HW224993   1.713   3.250  12.609 -0.6991 -1.0560 -0.8818
 4453SOL     OW24994   0.099   3.552   3.901 -0.2950  0.3651 -0.1295
 4453SOL    HW124995   0.189   3.575   3.927  0.0499 -2.1533  0.9587
 4453SOL    HW224996   0.051   3.616   3.953 -1.3078 -1.2567  0.9194
 4454SOL     OW24997   2.551   2.299  14.768  0.0610  0.5518  0.0925
 4454SOL    HW124998   2.498   2.327  14.693  0.1542 -0.1882 -0.2461
 4454SOL    HW224999   2.611   2.238  14.726 -2.3681 -0.0332 -2.5578
 4455SOL     OW25000   1.042   2.612   7.423  0.4769 -0.1989  0.1733
 4455SOL    HW125001   1.075   2.655   7.345  1.3021  1.0912  1.2369
 4455SOL    HW225002   1.118   2.568   7.461 -0.8048  1.8803  5.1103
 4456SOL     OW25003   4.574   3.467   8.103  0.7253 -0.1869  0.1505
 4456SOL    HW125004   4.619   3.448   8.021 -0.7915  0.8638 -0.9207
 4456SOL    HW225005   4.582   3.392   8.161 -1.0949 -0.6088 -0.1267
 4457SOL     OW25006   0.692   1.927   7.657  0.3318  0.1683  0.0893
 4457SOL    HW125007   0.677   1.835   7.633  1.9184  0.4503 -1.9565
 4457SOL    HW225008   0.598   1.945   7.660  0.5102  1.4312 -2.2430
 4458SOL     OW25009   1.842   4.539  14.888 -0.1858  0.0255 -0.1272
 4458SOL    HW125010   1.835   4.605  14.956  0.3442 -0.5961  0.5291
 4458SOL    HW225011   1.861   4.460  14.939 -0.2029  0.3495  0.3814
 4459SOL     OW25012   1.021   0.712   9.479  0.0694  0.4197  0.6118
 4459SOL    HW125013   0.975   0.746   9.556 -2.3041 -0.8339 -0.2394
 4459SOL    HW225014   1.068   0.788   9.445 -1.6912  1.9657  1.6082
 4460SOL     OW25015   4.485   3.193   5.739  0.1564 -0.3751 -0.7698
 4460SOL    HW125016   4.413   3.160   5.793  0.3044 -1.2085 -1.0867
 4460SOL    HW225017   4.449   3.195   5.650  0.0554  1.4895 -0.6883
 4461SOL     OW25018   1.692   1.535   3.090  0.2929  0.3869  0.0707
 4461SOL    HW125019   1.648   1.614   3.058 -1.0998 -1.6232 -2.9975
 4461SOL    HW225020   1.690   1.549   3.185 -1.9380  0.3385  0.0343
 4462SOL     OW25021   4.600   3.219  11.931  0.1671 -0.4166  0.5284
 4462SOL    HW125022   4.516   3.178  11.911 -0.2306  0.1318  1.0864
 4462SOL    HW225023   4.579   3.306  11.965 -1.2954 -0.2223 -0.8989
 4463SOL     OW25024   1.167   1.193  13.377  0.0314  0.3979 -0.0041
 4463SOL    HW125025   1.203   1.248  13.446 -0.7777  1.1319 -0.1709
 4463SOL    HW225026   1.247   1.181  13.326  0.1382 -1.7269  0.6449
 4464SOL     OW25027   2.713   4.335  17.056 -0.1912  0.5910  0.0858
 4464SOL    HW125028   2.751   4.364  16.973  1.9629  0.2266  0.9389
 4464SOL    HW225029   2.750   4.248  17.070 -0.0661  0.4746 -0.9514
 4465SOL     OW25030   2.753   4.092  10.519 -0.4576 -0.2680  0.4267
 4465SOL    HW125031   2.823   4.072  10.582 -0.0976 -1.3045 -0.2878
 4465SOL    HW225032   2.684   4.126  10.575 -0.1678 -1.7880  1.6961
 4466SOL     OW25033   3.354   3.328  11.594  0.0772 -0.3136 -0.0774
 4466SOL    HW125034   3.267   3.305  11.561 -0.1674  0.4088  0.0676
 4466SOL    HW225035   3.347   3.297  11.684 -0.3405 -2.0215 -0.6985
 4467SOL     OW25036   2.762   4.518  17.615 -0.4913 -0.0694  0.0040
 4467SOL    HW125037   2.694   4.544  17.553 -1.5891  0.6015  1.4925
 4467SOL    HW225038   2.712   4.486  17.689  0.6662  0.4153  0.9979
 4468SOL     OW25039   1.580   0.086   3.507  0.5818  0.1111 -0.6035
 4468SOL    HW125040   1.498   0.052   3.470 -1.1834 -0.7804  4.0851
 4468SOL    HW225041   1.634   0.007   3.503 -0.0150 -0.3123 -0.3809
 4469SOL     OW25042   2.066   0.730   3.434 -0.3223 -0.1389  0.9341
 4469SOL    HW125043   2.072   0.820   3.403 -3.4372  0.1209  1.1349
 4469SOL    HW225044   2.054   0.679   3.354  1.0856  0.2220  0.4943
 4470SOL     OW25045   3.535   2.918   6.253  0.0179  0.1420 -0.6758
 4470SOL    HW125046   3.606   2.969   6.214  1.0664 -0.8450 -0.0214
 4470SOL    HW225047   3.479   2.907   6.176  2.1478 -2.8701 -1.7554
 4471SOL     OW25048   1.399   2.899   7.719  0.5574 -0.0212  0.0796
 4471SOL    HW125049   1.474   2.852   7.683  0.1159 -1.6569  1.2881
 4471SOL    HW225050   1.433   2.934   7.802 -0.7751  2.8380 -0.5857
 4472SOL     OW25051   0.270   4.381   8.926  0.2766  0.0608  0.9343
 4472SOL    HW125052   0.249   4.393   9.019  0.3710  1.9664  0.7108
 4472SOL    HW225053   0.193   4.418   8.883  2.1640  1.4896 -1.2050
 4473SOL     OW25054   2.798   2.030   7.759  0.5216 -0.4693 -0.0699
 4473SOL    HW125055   2.703   2.032   7.774  0.6820  0.2871  0.7680
 4473SOL    HW225056   2.816   1.944   7.720  0.9039 -1.0759  1.4715
 4474SOL     OW25057   0.991   0.145   1.078 -0.8025 -0.1408 -0.7244
 4474SOL    HW125058   0.981   0.052   1.058 -0.6046 -0.5889  1.2102
 4474SOL    HW225059   1.005   0.181   0.990 -0.9722 -1.6869 -1.3810
 4475SOL     OW25060   0.489   1.137   5.143 -0.3197  0.0774  0.1244
 4475SOL    HW125061   0.519   1.053   5.108  0.5603 -0.1843  1.4594
 4475SOL    HW225062   0.463   1.181   5.063  0.3142 -3.4403 -2.0038
 4476SOL     OW25063   1.500   4.634   9.166 -0.0558 -0.0953 -0.5313
 4476SOL    HW125064   1.497   4.716   9.215  1.9412 -0.9850  1.0552
 4476SOL    HW225065   1.407   4.610   9.168  0.6597 -2.8131 -0.9276
 4477SOL     OW25066   3.538   4.133   6.034 -0.1650  0.2108 -0.0843
 4477SOL    HW125067   3.579   4.047   6.022  0.9790  0.7554 -0.0439
 4477SOL    HW225068   3.511   4.158   5.945  0.0588 -0.5037 -0.3561
 4478SOL     OW25069   1.807   3.694   6.433 -0.1021 -0.3003 -0.1428
 4478SOL    HW125070   1.802   3.786   6.460 -1.0249  0.1659 -1.8598
 4478SOL    HW225071   1.768   3.696   6.345 -1.3561 -2.5991  0.3811
 4479SOL     OW25072   1.581   2.608   5.479  0.1390 -0.4312  0.2999
 4479SOL    HW125073   1.605   2.516   5.492 -1.7611 -0.9413  0.2812
 4479SOL    HW225074   1.667   2.647   5.464  0.3595 -0.8146  0.5708
 4480SOL     OW25075   2.711   4.688   4.677 -0.8363 -0.3079 -0.2214
 4480SOL    HW125076   2.661   4.609   4.655  0.6036 -1.5501  0.9986
 4480SOL    HW225077   2.776   4.649   4.735 -0.7251  0.5299  0.2123
 4481SOL     OW25078   3.732   2.889  15.973 -1.0836 -0.1701  0.0178
 4481SOL    HW125079   3.639   2.870  15.959 -0.8336 -0.3904 -1.3680
 4481SOL    HW225080   3.756   2.960  15.914  2.1562 -0.4073  1.0825
 4482SOL     OW25081   0.950   1.440   1.969 -0.1164  0.0286  0.0903
 4482SOL    HW125082   1.020   1.375   1.961 -0.3676  0.0803 -2.7071
 4482SOL    HW225083   0.936   1.445   2.063 -2.4644  1.7697 -0.3574
 4483SOL     OW25084   0.440   2.856  15.525 -0.1602  0.3685  0.2522
 4483SOL    HW125085   0.490   2.819  15.452 -1.2664 -0.8692  0.1210
 4483SOL    HW225086   0.355   2.822  15.495  0.2425 -0.6111  0.2157
 4484SOL     OW25087   0.534   3.562   4.180 -0.1497 -0.2347  0.2139
 4484SOL    HW125088   0.509   3.514   4.259  0.0719  0.9368  0.9917
 4484SOL    HW225089   0.589   3.630   4.218  1.2496 -1.4951  0.4333
 4485SOL     OW25090   2.226   2.579  13.786 -0.0319 -0.4973  0.0606
 4485SOL    HW125091   2.147   2.629  13.769 -0.6293 -1.1192  0.9954
 4485SOL    HW225092   2.233   2.609  13.876 -2.6427 -0.3106  0.1933
 4486SOL     OW25093   2.544   4.646  15.020  0.2996  0.2903  0.0998
 4486SOL    HW125094   2.477   4.691  15.072  0.6398  0.0665  0.7419
 4486SOL    HW225095   2.613   4.639  15.087 -0.5029  2.0768  1.1077
 4487SOL     OW25096   4.669   4.038   3.684  0.2018 -0.6431  0.3129
 4487SOL    HW125097   4.631   4.101   3.623  0.9669  0.1887  0.6895
 4487SOL    HW225098   4.612   3.961   3.678  0.0862 -0.3793 -1.9051
 4488SOL     OW25099   2.030   0.309   3.053 -0.4293 -0.2576  0.2547
 4488SOL    HW125100   2.094   0.312   2.982  0.2663 -2.4926  0.8054
 4488SOL    HW225101   1.954   0.335   3.001  0.1483  0.5297 -0.2068
 4489SOL     OW25102   1.478   2.394  13.899 -0.2244 -0.6887 -0.3857
 4489SOL    HW125103   1.495   2.487  13.884 -1.1871 -0.6394 -1.1549
 4489SOL    HW225104   1.416   2.382  13.827 -2.7396  1.5363  1.4331
 4490SOL     OW25105   1.759   0.398  15.811 -0.2589  0.9296 -0.0564
 4490SOL    HW125106   1.782   0.491  15.806  1.6726  0.3776 -1.5454
 4490SOL    HW225107   1.695   0.388  15.740 -0.1754  0.2702 -0.0409
 4491SOL     OW25108   3.011   1.472   1.953 -0.1691  0.5021  0.2060
 4491SOL    HW125109   3.034   1.553   1.999  0.1066  0.3570  0.3249
 4491SOL    HW225110   2.930   1.508   1.917 -0.8090 -2.3311 -1.1760
 4492SOL     OW25111   2.149   0.877  17.554 -0.6130  0.0120  0.2520
 4492SOL    HW125112   2.120   0.851  17.467 -0.0099 -2.0376  0.6796
 4492SOL    HW225113   2.198   0.957  17.533  0.2386  0.0672  2.5047
 4493SOL     OW25114   2.630   1.582   9.068 -0.2509 -0.2813  0.3677
 4493SOL    HW125115   2.699   1.646   9.089 -0.4232  0.3703 -1.0754
 4493SOL    HW225116   2.679   1.506   9.038  0.5671  1.1533 -1.9829
 4494SOL     OW25117   3.110   0.121  11.778  0.0481  0.0009  0.6812
 4494SOL    HW125118   3.155   0.063  11.840 -0.5820 -1.2391 -0.0300
 4494SOL    HW225119   3.113   0.203  11.827  0.3273  0.2834  0.1894
 4495SOL     OW25120   1.034   4.077  11.842 -0.7101  0.4737  0.3947
 4495SOL    HW125121   0.990   4.131  11.909  0.9662 -0.6620  2.4225
 4495SOL    HW225122   0.998   3.991  11.862  2.2434 -0.4684  1.6884
 4496SOL     OW25123   1.614   3.768  14.792  0.4682 -0.2685  0.1824
 4496SOL    HW125124   1.575   3.844  14.835 -1.1694  0.2744 -2.2225
 4496SOL    HW225125   1.695   3.805  14.757 -0.2008  1.9499  0.9529
 4497SOL     OW25126   2.612   0.469  12.818 -0.3429 -0.2336 -0.3972
 4497SOL    HW125127   2.663   0.461  12.737 -0.9126 -2.0559 -0.5756
 4497SOL    HW225128   2.621   0.563  12.835 -0.6273 -0.2307 -0.2724
 4498SOL     OW25129   4.431   4.315   3.647 -0.1431  0.0029  0.1543
 4498SOL    HW125130   4.345   4.332   3.684  0.2764  1.9623  0.2238
 4498SOL    HW225131   4.480   4.386   3.688 -0.2046 -0.1945  0.5713
 4499SOL     OW25132   4.140   3.245   6.881  0.2428 -0.5800 -0.0829
 4499SOL    HW125133   4.154   3.278   6.969 -1.4737  0.2728 -0.1265
 4499SOL    HW225134   4.045   3.238   6.891  0.2735  1.3948  1.4953
 4500SOL     OW25135   0.705   3.345   6.637 -0.3426 -0.6006 -0.1032
 4500SOL    HW125136   0.699   3.422   6.693  0.9282 -0.9452  0.4899
 4500SOL    HW225137   0.630   3.292   6.665  0.1483 -1.2430 -0.0245
 4501SOL     OW25138   2.973   4.216   4.426  0.1777 -0.1275  0.7164
 4501SOL    HW125139   3.046   4.162   4.456 -0.2872 -0.0230  2.0494
 4501SOL    HW225140   2.935   4.239   4.511  0.3694 -1.4545  1.1627
 4502SOL     OW25141   2.253   1.688   7.799 -0.4067 -0.0602 -0.2108
 4502SOL    HW125142   2.168   1.730   7.810 -0.6855 -0.4481 -0.9445
 4502SOL    HW225143   2.295   1.754   7.744  1.0384 -0.3026  0.6107
 4503SOL     OW25144   1.272   2.782  11.218 -0.1620 -0.0772 -0.2878
 4503SOL    HW125145   1.200   2.719  11.213  0.0687 -0.2719 -1.2296
 4503SOL    HW225146   1.283   2.794  11.312 -1.0912  1.3738 -0.3624
 4504SOL     OW25147   3.311   0.554  14.748 -0.1332  0.5065  0.3609
 4504SOL    HW125148   3.281   0.464  14.763  0.7642 -0.1169 -1.6369
 4504SOL    HW225149   3.262   0.572  14.668  0.4059  0.8940  0.1171
 4505SOL     OW25150   1.243   2.401  14.108 -0.2888  0.2029 -0.3886
 4505SOL    HW125151   1.281   2.350  14.180 -0.1937  1.8935  0.7693
 4505SOL    HW225152   1.307   2.396  14.037  0.6756  1.0971  0.4177
 4506SOL     OW25153   1.146   3.388   4.936  0.0330 -0.0831 -0.2093
 4506SOL    HW125154   1.180   3.471   4.967  1.0747  0.7261 -3.5579
 4506SOL    HW225155   1.227   3.338   4.943 -0.1373 -0.1337  1.4900
 4507SOL     OW25156   4.181   0.395   3.209  0.3204  0.4513  0.1413
 4507SOL    HW125157   4.199   0.312   3.254  0.1549  0.6588  0.5859
 4507SOL    HW225158   4.248   0.448   3.251  1.1741 -1.5269  1.2597
 4508SOL     OW25159   3.407   1.165   4.777  0.1074 -0.2771 -0.4016
 4508SOL    HW125160   3.363   1.130   4.855  2.3792  0.5282  1.2323
 4508SOL    HW225161   3.349   1.117   4.718 -0.5390  2.2100 -1.8119
 4509SOL     OW25162   1.098   2.073   0.293 -0.2397  0.2316 -0.1624
 4509SOL    HW125163   1.189   2.055   0.269 -0.1119  1.6824 -0.7795
 4509SOL    HW225164   1.047   2.067   0.212  1.1568 -2.3760 -0.8352
 4510SOL     OW25165   2.542   3.462   2.390 -0.1204 -0.3544  0.4377
 4510SOL    HW125166   2.510   3.552   2.377  1.0003  0.3534  2.6001
 4510SOL    HW225167   2.565   3.460   2.483 -2.7431  1.4941  1.1361
 4511SOL     OW25168   0.771   1.591   1.841  0.4438  0.2573 -0.0481
 4511SOL    HW125169   0.749   1.520   1.781  0.1221 -1.2813  1.8865
 4511SOL    HW225170   0.854   1.559   1.878  0.2632 -1.2125 -0.9492
 4512SOL     OW25171   2.856   1.126   4.304 -0.4111 -0.1612 -0.3468
 4512SOL    HW125172   2.841   1.214   4.268 -0.8032 -0.0586  0.0742
 4512SOL    HW225173   2.950   1.110   4.296  0.2870  3.0502  1.4819
 4513SOL     OW25174   1.177   0.765  17.463  0.0502 -0.1399 -0.1746
 4513SOL    HW125175   1.193   0.715  17.543 -1.2943 -0.5582 -0.1613
 4513SOL    HW225176   1.188   0.854  17.495 -0.1565 -1.0036  2.2613
 4514SOL     OW25177   4.242   3.648   4.154 -0.1656  0.4204  0.1345
 4514SOL    HW125178   4.195   3.728   4.132 -0.2816  0.5317  0.7937
 4514SOL    HW225179   4.329   3.666   4.117 -0.4689 -0.3109 -0.9345
 4515SOL     OW25180   1.970   4.199   3.295  0.3145 -0.6886 -0.9958
 4515SOL    HW125181   2.000   4.124   3.347 -0.8442 -0.0496  0.5828
 4515SOL    HW225182   2.042   4.262   3.306 -0.9334  0.9741 -2.3708
 4516SOL     OW25183   1.694   4.402  14.533  0.0058  0.0789  0.0423
 4516SOL    HW125184   1.776   4.427  14.575 -0.8322  2.9270 -0.0443
 4516SOL    HW225185   1.671   4.337  14.600  2.4715 -0.2646  0.5744
 4517SOL     OW25186   0.820   1.678   2.548 -0.3493  0.5120 -0.3903
 4517SOL    HW125187   0.748   1.741   2.557 -1.1308 -0.6791  1.5772
 4517SOL    HW225188   0.784   1.611   2.606  2.3905  1.7263  2.6765
 4518SOL     OW25189   3.411   2.658   2.648 -0.2096 -0.0827 -0.3682
 4518SOL    HW125190   3.413   2.702   2.563 -0.6618  0.3541 -0.1502
 4518SOL    HW225191   3.319   2.631   2.652  0.1285 -0.8839  2.1362
 4519SOL     OW25192   4.118   3.207   9.733  0.4146 -0.4908 -0.1772
 4519SOL    HW125193   4.128   3.292   9.774  0.6050 -0.7632  0.3438
 4519SOL    HW225194   4.036   3.184   9.776 -0.2004 -0.5567 -1.3867
 4520SOL     OW25195   4.113   1.289   4.446  0.9331 -0.1239 -0.4176
 4520SOL    HW125196   4.201   1.268   4.478  0.0502 -1.9878  0.7695
 4520SOL    HW225197   4.091   1.206   4.404 -0.4694  1.0090 -1.9315
 4521SOL     OW25198   1.149   4.523   0.897  0.3257  0.2325 -0.0830
 4521SOL    HW125199   1.081   4.579   0.935 -0.4318 -0.7838  0.0638
 4521SOL    HW225200   1.219   4.587   0.907 -0.9092  1.9262 -2.1819
 4522SOL     OW25201   2.622   0.709  15.774 -0.3583 -0.0783 -0.5771
 4522SOL    HW125202   2.542   0.667  15.742  0.1676 -0.7956 -0.9271
 4522SOL    HW225203   2.671   0.705  15.692  2.4293  1.2557  1.0294
 4523SOL     OW25204   2.333   0.148   1.221 -0.3643 -0.1675  0.1363
 4523SOL    HW125205   2.371   0.123   1.137 -1.0153 -0.3914 -0.0894
 4523SOL    HW225206   2.246   0.111   1.206 -1.2292  0.7028  2.9772
 4524SOL     OW25207   3.898   2.782   4.970 -0.1314 -0.4541  0.4206
 4524SOL    HW125208   3.887   2.744   4.883 -0.9361  3.0134 -0.9858
 4524SOL    HW225209   3.854   2.865   4.954  0.4105 -0.1819  0.3577
 4525SOL     OW25210   2.169   4.025  14.348 -0.3928 -0.1144  0.1714
 4525SOL    HW125211   2.076   4.048  14.338 -0.4321 -0.7144 -0.9273
 4525SOL    HW225212   2.167   3.931  14.330  0.2138 -0.0767 -0.0788
 4526SOL     OW25213   1.622   2.081   8.244 -1.0431  0.8514  0.6095
 4526SOL    HW125214   1.596   1.994   8.275 -1.6842  1.4465  1.6955
 4526SOL    HW225215   1.687   2.075   8.173 -2.9770 -0.2173 -1.0699
 4527SOL     OW25216   1.725   4.507   9.524  0.1553  0.6706 -0.1262
 4527SOL    HW125217   1.689   4.580   9.473 -0.9940 -0.9733 -1.6980
 4527SOL    HW225218   1.720   4.545   9.612  0.7401  0.0471  0.1735
 4528SOL     OW25219   3.622   0.646  16.898  0.7868 -0.6268 -0.2899
 4528SOL    HW125220   3.527   0.639  16.895  0.8936 -1.7407 -1.0059
 4528SOL    HW225221   3.647   0.642  16.806 -1.0335  1.1283 -0.8702
 4529SOL     OW25222   0.721   4.232   2.969 -0.4035 -0.0748 -0.2318
 4529SOL    HW125223   0.678   4.153   3.001  1.1731 -0.9969 -0.3916
 4529SOL    HW225224   0.657   4.247   2.900  0.5023 -1.9805 -1.4868
 4530SOL     OW25225   3.420   3.821   1.119 -0.1116  0.1928 -0.1275
 4530SOL    HW125226   3.477   3.790   1.189  1.7537  1.6709 -0.9618
 4530SOL    HW225227   3.368   3.886   1.166 -1.3442 -2.3331  1.9699
 4531SOL     OW25228   2.420   4.583   3.924  0.6995  0.3906 -0.6554
 4531SOL    HW125229   2.459   4.670   3.933 -0.9632  0.9342  1.2551
 4531SOL    HW225230   2.340   4.588   3.976  1.0627 -0.9170  0.0333
 4532SOL     OW25231   0.673   3.038  12.460  0.3240  0.2035  0.8148
 4532SOL    HW125232   0.694   2.965  12.518 -0.1118  0.0289  0.7580
 4532SOL    HW225233   0.583   3.047  12.491 -0.7470 -0.4924 -2.0077
 4533SOL     OW25234   1.631   1.373   6.938 -0.0956  0.1969  0.1704
 4533SOL    HW125235   1.542   1.366   6.972 -0.4320  3.0981 -0.1164
 4533SOL    HW225236   1.633   1.469   6.939  0.1229  0.1723  1.9426
 4534SOL     OW25237   2.379   3.953   3.807  0.0377 -0.1640 -0.2767
 4534SOL    HW125238   2.416   3.866   3.790  0.3996 -0.1574  0.4804
 4534SOL    HW225239   2.376   3.953   3.903 -2.1305  1.7151 -0.3408
 4535SOL     OW25240   0.256   1.430  10.124  0.5820  0.3564 -0.1775
 4535SOL    HW125241   0.319   1.489  10.165 -0.2730  1.2754 -0.1855
 4535SOL    HW225242   0.219   1.394  10.205  3.0154  0.5669  1.0402
 4536SOL     OW25243   0.429   2.916  13.792 -0.1089  0.5212 -0.0614
 4536SOL    HW125244   0.489   2.926  13.866  0.3480  0.2975 -0.4008
 4536SOL    HW225245   0.472   2.841  13.750 -2.6919 -0.0463 -1.6553
 4537SOL     OW25246   0.812   0.967  11.566 -0.5292  0.3842 -0.2393
 4537SOL    HW125247   0.835   0.964  11.659 -1.1118 -0.0018 -0.1132
 4537SOL    HW225248   0.848   1.055  11.552 -0.1265  0.2462 -0.0677
 4538SOL     OW25249   3.284   2.699   7.029 -0.7507  0.0893  0.1997
 4538SOL    HW125250   3.247   2.786   7.014 -0.6812  0.4890  2.3485
 4538SOL    HW225251   3.334   2.707   7.110  1.1862  0.4530 -1.0382
 4539SOL     OW25252   2.711   3.681  11.758 -0.1188 -0.0080  0.1514
 4539SOL    HW125253   2.718   3.718  11.670  0.9100 -1.3256 -0.3256
 4539SOL    HW225254   2.616   3.668  11.760 -0.0828 -0.3044 -0.0613
 4540SOL     OW25255   3.005   3.867  15.062 -0.3831 -0.1235  0.2886
 4540SOL    HW125256   3.058   3.790  15.080  1.0090  0.8873  0.4699
 4540SOL    HW225257   3.008   3.865  14.967  0.8654 -2.0858  0.3760
 4541SOL     OW25258   2.396   0.120  13.752 -0.4479  0.2729 -0.5355
 4541SOL    HW125259   2.360   0.039  13.717 -3.1324  0.9046  0.7860
 4541SOL    HW225260   2.352   0.104  13.836  1.4736 -0.9591  0.2499
 4542SOL     OW25261   4.170   4.377  12.318 -0.6977 -0.0587  0.0356
 4542SOL    HW125262   4.110   4.452  12.312 -0.3142  0.2607  0.1895
 4542SOL    HW225263   4.172   4.352  12.226  2.7781 -0.2896  0.1892
 4543SOL     OW25264   2.360   4.274   8.850  0.3216 -0.5135  0.8026
 4543SOL    HW125265   2.291   4.336   8.872  0.3065  0.9279 -3.3409
 4543SOL    HW225266   2.335   4.202   8.909 -0.1043 -0.8531  0.2055
 4544SOL     OW25267   4.273   0.869   3.303  0.0890 -0.2826 -0.1437
 4544SOL    HW125268   4.214   0.909   3.366  0.3215  0.3297 -0.3174
 4544SOL    HW225269   4.331   0.824   3.364  0.2473  0.8198  0.5239
 4545SOL     OW25270   2.748   0.315   2.084  0.1022 -0.2717  0.3279
 4545SOL    HW125271   2.742   0.237   2.029  0.1513 -0.6316  0.8300
 4545SOL    HW225272   2.699   0.377   2.030  0.1212 -1.1658 -0.7020
 4546SOL     OW25273   3.601   2.564   4.882 -0.2123  0.6816  0.0191
 4546SOL    HW125274   3.549   2.484   4.895  0.5392  0.0647 -0.7698
 4546SOL    HW225275   3.692   2.534   4.887 -0.1810  0.6367 -0.9662
 4547SOL     OW25276   3.717   0.977  12.530 -0.0853 -0.0138 -0.3841
 4547SOL    HW125277   3.755   0.894  12.562 -0.6106 -0.0202  0.2066
 4547SOL    HW225278   3.798   1.015  12.495 -0.3356  1.2941  0.4897
 4548SOL     OW25279   4.645   3.349   4.984 -0.1148  0.1819 -0.3926
 4548SOL    HW125280   4.720   3.289   4.985 -2.1774 -2.2651  4.4861
 4548SOL    HW225281   4.623   3.346   5.077  0.8203 -2.5756 -0.2471
 4549SOL     OW25282   2.866   1.105   6.650 -0.4385 -0.1122  0.2276
 4549SOL    HW125283   2.912   1.023   6.664  0.8291  0.5155 -0.2600
 4549SOL    HW225284   2.919   1.140   6.578  0.8330  0.6771  1.5477
 4550SOL     OW25285   0.768   0.744   8.557  0.1343 -0.0687 -0.0293
 4550SOL    HW125286   0.755   0.806   8.484  1.8667 -1.0330 -1.1569
 4550SOL    HW225287   0.675   0.731   8.575  0.2961 -0.8672  0.2189
 4551SOL     OW25288   4.629   1.635  10.917 -0.3449  0.2975 -0.3464
 4551SOL    HW125289   4.575   1.566  10.880  0.2657 -0.5583  0.3793
 4551SOL    HW225290   4.648   1.687  10.838  0.0109 -2.1795 -1.8707
 4552SOL     OW25291   3.015   2.401   1.375  0.2678 -0.3663 -0.2916
 4552SOL    HW125292   3.061   2.483   1.395 -0.6600 -0.2599  1.3688
 4552SOL    HW225293   2.944   2.401   1.439  0.7195 -0.9934  0.2127
 4553SOL     OW25294   1.391   1.580   7.311  0.1566  0.5599 -0.0436
 4553SOL    HW125295   1.453   1.510   7.291  0.5788  1.5517 -2.2285
 4553SOL    HW225296   1.373   1.550   7.400  0.3109  0.3063 -0.0980
 4554SOL     OW25297   2.569   0.166  13.389  0.4168 -0.3684  0.1367
 4554SOL    HW125298   2.632   0.181  13.460 -0.0198 -0.0598  0.4571
 4554SOL    HW225299   2.586   0.232  13.323 -0.6899  0.3752  0.5801
 4555SOL     OW25300   3.181   2.750   5.865  0.0832  0.3202 -0.3756
 4555SOL    HW125301   3.199   2.731   5.773 -1.9698 -1.6041 -0.3770
 4555SOL    HW225302   3.119   2.683   5.893  0.7858 -0.1359  0.0988
 4556SOL     OW25303   2.432   1.477  13.098  0.0786  0.3316 -0.3089
 4556SOL    HW125304   2.349   1.525  13.100  0.1699  0.5030 -0.7849
 4556SOL    HW225305   2.425   1.423  13.019 -0.5350  2.2124 -1.5307
 4557SOL     OW25306   2.602   0.091  17.444 -0.2819  0.4806 -0.3927
 4557SOL    HW125307   2.574   0.002  17.423  2.2862 -0.1562 -1.1406
 4557SOL    HW225308   2.633   0.123  17.359 -0.7836  0.8852 -0.4250
 4558SOL     OW25309   1.090   3.211   5.332  0.0963 -0.1591  0.4336
 4558SOL    HW125310   1.044   3.199   5.249  0.3769  0.5229  0.1803
 4558SOL    HW225311   1.029   3.163   5.388 -0.4082  2.6289  2.3366
 4559SOL     OW25312   2.114   2.250   7.360  0.1703 -0.0142 -0.4573
 4559SOL    HW125313   2.083   2.166   7.394  1.7118 -0.4472 -0.1342
 4559SOL    HW225314   2.183   2.210   7.306 -2.2142 -0.9419 -2.8183
 4560SOL     OW25315   0.944   3.210   8.571 -0.5101  0.0645 -0.6540
 4560SOL    HW125316   1.020   3.159   8.544 -1.0969 -1.2068  0.1065
 4560SOL    HW225317   0.960   3.216   8.665 -3.9164  0.0482 -0.0793
 4561SOL     OW25318   0.773   1.365   7.762 -1.1341 -0.1902 -0.2019
 4561SOL    HW125319   0.779   1.276   7.726 -1.0123 -0.0640 -0.4984
 4561SOL    HW225320   0.864   1.363   7.792 -0.4165 -0.8984 -2.3935
 4562SOL     OW25321   3.463   2.110   8.152 -0.0350  0.3641  0.2473
 4562SOL    HW125322   3.427   2.070   8.231 -0.8829 -0.5301 -0.5905
 4562SOL    HW225323   3.551   2.073   8.143  0.3881  1.7377 -1.3765
 4563SOL     OW25324   1.495   4.321   2.171  0.1582  0.4094 -0.2967
 4563SOL    HW125325   1.589   4.307   2.181 -0.1473  0.1299  2.2939
 4563SOL    HW225326   1.457   4.233   2.170  1.4697 -0.1726  1.2628
 4564SOL     OW25327   4.102   2.760  16.796 -0.0228 -0.4951 -0.1900
 4564SOL    HW125328   4.129   2.792  16.882 -0.4999  2.0906 -0.9781
 4564SOL    HW225329   4.062   2.679  16.826  0.9380 -0.3761  1.3878
 4565SOL     OW25330   2.959   3.263  15.928 -0.0313  0.0599 -0.0613
 4565SOL    HW125331   2.939   3.253  16.021 -2.6956  2.3254 -0.3792
 4565SOL    HW225332   2.950   3.358  15.919  1.2329  0.0603 -1.2728
 4566SOL     OW25333   2.771   0.067   1.933  0.1986 -0.2583 -0.3746
 4566SOL    HW125334   2.849   0.073   1.878 -1.3164 -1.3516 -2.6343
 4566SOL    HW225335   2.712   0.006   1.888  3.0632 -2.6729 -0.8010
 4567SOL     OW25336   0.341   0.762  15.663  0.0372  0.0770 -0.0570
 4567SOL    HW125337   0.254   0.792  15.638  0.0764 -0.3466 -0.6992
 4567SOL    HW225338   0.382   0.803  15.587  0.3106 -1.3108 -0.6487
 4568SOL     OW25339   3.298   1.095   3.527 -0.0713  0.1989  0.1720
 4568SOL    HW125340   3.281   1.002   3.537 -1.8400  0.3915 -1.1874
 4568SOL    HW225341   3.296   1.098   3.432  0.6941 -1.8999  0.0831
 4569SOL     OW25342   3.984   2.556  11.077 -0.2757 -0.3754 -0.0464
 4569SOL    HW125343   3.989   2.461  11.088 -2.8668 -0.5950 -0.8815
 4569SOL    HW225344   3.983   2.579  11.170 -2.0045 -1.7727  0.2895
 4570SOL     OW25345   0.108   3.748   7.929  0.2365  0.1059 -0.4373
 4570SOL    HW125346   0.043   3.818   7.940  1.2917  1.1291 -0.7773
 4570SOL    HW225347   0.067   3.675   7.884  1.3021 -1.3249  0.9272
 4571SOL     OW25348   0.620   4.100   7.563 -0.7252  0.2363 -0.1762
 4571SOL    HW125349   0.610   4.140   7.649 -1.2859  2.2681 -1.1834
 4571SOL    HW225350   0.537   4.053   7.557 -0.6528 -0.0957  1.5791
 4572SOL     OW25351   1.566   4.208   6.354  0.3493  0.0339 -0.5665
 4572SOL    HW125352   1.550   4.214   6.448 -0.2985 -0.7112 -0.6302
 4572SOL    HW225353   1.501   4.273   6.327 -1.3635 -1.5776 -0.2972
 4573SOL     OW25354   1.557   1.684   9.673 -0.8148  0.4260  0.1201
 4573SOL    HW125355   1.545   1.698   9.767 -1.6391 -0.4275  0.1386
 4573SOL    HW225356   1.633   1.628   9.659  0.2029  1.4869  1.3903
 4574SOL     OW25357   2.293   2.166   4.009 -0.2229  0.1375 -0.9653
 4574SOL    HW125358   2.359   2.104   3.978  0.6986 -0.3434  1.9679
 4574SOL    HW225359   2.245   2.174   3.927 -0.1943  1.6013 -0.8373
 4575SOL     OW25360   4.509   1.450   9.093 -0.1357  0.1484 -0.4189
 4575SOL    HW125361   4.528   1.521   9.154 -3.5865  0.0768  0.7635
 4575SOL    HW225362   4.553   1.379   9.140 -0.5710 -0.1205 -0.4110
 4576SOL     OW25363   1.444   1.049   5.067  0.0318 -0.4895 -0.2547
 4576SOL    HW125364   1.524   1.096   5.090  0.6005 -0.5086 -2.1494
 4576SOL    HW225365   1.380   1.095   5.121 -0.6626 -0.5660 -1.0087
 4577SOL     OW25366   2.487   2.619   9.541  0.5606 -0.0821  0.0940
 4577SOL    HW125367   2.485   2.715   9.540 -0.8345 -0.1064 -0.5329
 4577SOL    HW225368   2.422   2.598   9.608 -2.1778 -0.2001 -2.5825
 4578SOL     OW25369   1.574   3.574   5.255 -0.1757  0.5373  0.2208
 4578SOL    HW125370   1.513   3.510   5.291  1.3535  0.0020  1.8753
 4578SOL    HW225371   1.596   3.554   5.164  1.4201 -0.8085  0.8810
 4579SOL     OW25372   0.801   0.163  13.014 -0.4573  0.2317 -0.3037
 4579SOL    HW125373   0.729   0.132  13.069 -0.3019  0.8652  0.2549
 4579SOL    HW225374   0.861   0.093  13.041  0.7140  1.7418  0.9974
 4580SOL     OW25375   4.554   0.082   2.380  0.1095 -0.4543  0.7001
 4580SOL    HW125376   4.467   0.093   2.418 -0.5102 -5.5243  0.7921
 4580SOL    HW225377   4.570   0.172   2.351  0.6507 -0.6127  0.5004
 4581SOL     OW25378   3.678   2.092   6.638  0.1506  0.8522 -0.1181
 4581SOL    HW125379   3.680   2.185   6.661  0.4518  1.0242 -0.8406
 4581SOL    HW225380   3.723   2.051   6.712 -1.7836  0.0302  0.5881
 4582SOL     OW25381   3.451   3.916   7.796  0.0935 -0.4174  1.0005
 4582SOL    HW125382   3.417   4.005   7.799  0.0195 -0.4221  0.3444
 4582SOL    HW225383   3.483   3.899   7.884  2.5091  0.1833  0.2562
 4583SOL     OW25384   1.865   4.327  15.646 -0.1907 -0.5680  0.0481
 4583SOL    HW125385   1.803   4.368  15.707 -2.3099 -1.4851 -1.4807
 4583SOL    HW225386   1.821   4.243  15.631  0.8346 -1.3522  1.4069
 4584SOL     OW25387   3.843   4.513  15.196  0.1477  0.0321 -0.3227
 4584SOL    HW125388   3.782   4.457  15.244 -0.4184  0.7644 -0.1807
 4584SOL    HW225389   3.926   4.480  15.229 -0.0416 -0.8015 -0.6777
 4585SOL     OW25390   3.869   1.278   8.227 -0.0298  0.3543 -0.2758
 4585SOL    HW125391   3.829   1.260   8.142  1.7855  2.2994 -1.5317
 4585SOL    HW225392   3.834   1.203   8.275 -0.7570  0.4246 -0.6981
 4586SOL     OW25393   0.710   2.241   5.443  0.1524  0.2085 -0.1465
 4586SOL    HW125394   0.651   2.168   5.424  0.7043 -0.4166  0.5685
 4586SOL    HW225395   0.718   2.265   5.350 -0.7478 -0.0416 -0.2898
 4587SOL     OW25396   0.880   4.283  11.974  0.2787  0.2633  0.4135
 4587SOL    HW125397   0.965   4.324  11.990 -0.0269  0.4122  1.5976
 4587SOL    HW225398   0.829   4.351  11.930 -1.7365 -1.0764  0.6666
 4588SOL     OW25399   3.062   1.344  12.010 -0.5368  0.1270  0.2193
 4588SOL    HW125400   3.095   1.265  11.967  0.3184  0.8509 -0.4295
 4588SOL    HW225401   2.967   1.335  12.000 -0.7118  0.5531  1.4405
 4589SOL     OW25402   3.079   4.414   2.399 -0.0470 -0.3170  0.5852
 4589SOL    HW125403   3.027   4.358   2.457 -0.8014  0.1985  0.4206
 4589SOL    HW225404   3.145   4.452   2.457 -0.2337  0.0703  0.5447
 4590SOL     OW25405   4.089   2.240  11.430  0.4406  0.1988 -0.3465
 4590SOL    HW125406   4.069   2.234  11.523  0.1243  1.1239 -0.3503
 4590SOL    HW225407   4.112   2.333  11.430 -0.9861  0.5409  0.9443
 4591SOL     OW25408   0.588   1.545   5.382 -0.7677 -0.1001 -0.1788
 4591SOL    HW125409   0.496   1.570   5.385 -0.9431 -0.8894  1.2261
 4591SOL    HW225410   0.594   1.473   5.445  0.5366  1.3845  1.3908
 4592SOL     OW25411   2.620   1.261   4.175  0.2102 -0.5586  0.6269
 4592SOL    HW125412   2.555   1.301   4.116  1.2786  0.3479  0.0546
 4592SOL    HW225413   2.692   1.324   4.172  1.1733 -1.5826  2.7802
 4593SOL     OW25414   0.761   0.557   6.009  0.0417  0.0951  0.1923
 4593SOL    HW125415   0.730   0.504   6.083  1.5803  3.6849  3.4001
 4593SOL    HW225416   0.755   0.487   5.945  1.1753 -0.1658  0.3778
 4594SOL     OW25417   4.580   1.157   8.295 -0.1656 -0.1945  0.2429
 4594SOL    HW125418   4.574   1.236   8.241 -0.3112  0.2639  0.9332
 4594SOL    HW225419   4.562   1.091   8.228  2.7618  0.1429 -0.8780
 4595SOL     OW25420   2.530   2.592  11.708 -0.2130  0.1108 -0.2858
 4595SOL    HW125421   2.481   2.511  11.722 -0.2444  0.6657  2.9679
 4595SOL    HW225422   2.485   2.636  11.636  0.8662 -0.6952 -1.4525
 4596SOL     OW25423   1.525   4.032  12.194  0.0255  0.9372  0.4977
 4596SOL    HW125424   1.541   4.123  12.218 -0.8870  0.7431  1.8505
 4596SOL    HW225425   1.484   3.986  12.268  1.2020 -1.0238 -0.0695
 4597SOL     OW25426   2.569   2.213   7.485  0.4342  0.2410 -0.1779
 4597SOL    HW125427   2.564   2.198   7.579  0.3702 -3.9490 -0.8744
 4597SOL    HW225428   2.518   2.294   7.482 -0.1761 -0.1284  0.3788
 4598SOL     OW25429   1.513   1.285   2.728 -0.1931 -0.0757 -0.7796
 4598SOL    HW125430   1.440   1.239   2.688 -0.0384  0.2003 -1.3763
 4598SOL    HW225431   1.488   1.270   2.819 -0.3150  0.9712 -0.6399
 4599SOL     OW25432   2.638   4.311   6.927  0.2731 -0.1795  0.3630
 4599SOL    HW125433   2.619   4.227   6.969 -1.3360  1.5686  3.1742
 4599SOL    HW225434   2.618   4.285   6.837 -2.0851 -0.6391  1.0124
 4600SOL     OW25435   2.967   2.636   9.524  0.7314 -0.3595 -0.0711
 4600SOL    HW125436   2.934   2.680   9.602 -0.8348  0.4124 -1.1516
 4600SOL    HW225437   3.019   2.564   9.559  0.2398 -0.2894  0.7942
 4601SOL     OW25438   3.056   2.275   9.263  0.0200  0.1339 -0.3886
 4601SOL    HW125439   2.990   2.334   9.299  0.2301  0.7062 -0.9355
 4601SOL    HW225440   3.125   2.303   9.322  0.4221  0.5786 -1.0683
 4602SOL     OW25441   2.842   1.482   8.564 -0.3086 -0.2403  0.2729
 4602SOL    HW125442   2.816   1.533   8.640 -1.4810 -1.7606  0.8724
 4602SOL    HW225443   2.933   1.470   8.591  0.9938  1.1757 -3.4046
 4603SOL     OW25444   1.672   1.065   7.123  0.3404  0.4666  0.0054
 4603SOL    HW125445   1.647   1.037   7.035  1.8630  1.5275 -0.7726
 4603SOL    HW225446   1.650   0.986   7.172  0.6279  1.4622  1.7717
 4604SOL     OW25447   1.259   2.970  15.081  0.2023  0.2748  0.1837
 4604SOL    HW125448   1.204   2.990  15.157  0.6919 -0.0193  0.6123
 4604SOL    HW225449   1.302   2.895  15.123 -2.1845 -1.4361 -0.3984
 4605SOL     OW25450   0.481   1.831   6.479  0.6293 -0.3774  0.1183
 4605SOL    HW125451   0.555   1.863   6.428 -1.0333 -0.1902 -2.1389
 4605SOL    HW225452   0.513   1.753   6.525 -0.3324 -1.9670 -1.9090
 4606SOL     OW25453   2.230   0.785   4.087 -0.4264  0.7712  0.0866
 4606SOL    HW125454   2.247   0.878   4.098 -0.9445  0.8447  0.2545
 4606SOL    HW225455   2.138   0.794   4.111 -0.6756  0.6021 -0.8010
 4607SOL     OW25456   4.473   2.021  14.228  0.6517  0.0340 -0.2686
 4607SOL    HW125457   4.413   2.089  14.258  0.7886  0.0837 -0.1120
 4607SOL    HW225458   4.446   2.026  14.136  0.8219 -1.3722 -0.3935
 4608SOL     OW25459   1.052   3.156   7.186  0.6153  0.3282  0.3103
 4608SOL    HW125460   0.970   3.195   7.158  0.8669  0.4283 -0.2960
 4608SOL    HW225461   1.091   3.232   7.229 -0.1142  1.6610 -1.4179
 4609SOL     OW25462   0.919   1.394   4.535 -0.3406  0.0373  0.4460
 4609SOL    HW125463   0.892   1.314   4.579 -0.1712 -0.0774  0.3421
 4609SOL    HW225464   0.941   1.364   4.446 -0.3322  0.5436  0.2738
 4610SOL     OW25465   3.389   0.305   6.785 -0.0958  0.6227 -0.2487
 4610SOL    HW125466   3.354   0.253   6.712 -0.9139 -0.0742  0.6343
 4610SOL    HW225467   3.312   0.344   6.826  0.9859  2.8064 -0.3309
 4611SOL     OW25468   1.728   2.633   5.083  0.3024 -0.3073 -0.2809
 4611SOL    HW125469   1.814   2.669   5.100  0.2271 -0.6063  0.7435
 4611SOL    HW225470   1.736   2.548   5.126 -0.0522 -2.0468 -3.6321
 4612SOL     OW25471   4.367   2.629   3.235 -0.3295  0.5465 -0.4142
 4612SOL    HW125472   4.383   2.723   3.232  1.6594  0.1707 -1.5679
 4612SOL    HW225473   4.282   2.630   3.279  0.4081  0.0799  1.0589
 4613SOL     OW25474   0.003   0.302  11.129  0.1958  0.0510 -0.5903
 4613SOL    HW125475   4.658   0.261  11.099  0.6471 -0.1300 -1.5620
 4613SOL    HW225476   0.040   0.228  11.178 -0.9904  0.6584  1.2413
 4614SOL     OW25477   2.753   0.509   8.438  0.2883 -0.2812  0.1543
 4614SOL    HW125478   2.673   0.545   8.400 -0.7556 -0.4124  2.2474
 4614SOL    HW225479   2.753   0.553   8.523 -0.4824 -2.2831  1.1946
 4615SOL     OW25480   2.161   2.086  17.500  0.1565  0.3300 -0.8339
 4615SOL    HW125481   2.157   2.150  17.430 -0.2697 -1.1868 -2.1907
 4615SOL    HW225482   2.084   2.031  17.486 -0.1149  0.7800 -1.0959
 4616SOL     OW25483   3.519   0.911   6.092  0.5550 -0.4267  0.7565
 4616SOL    HW125484   3.487   0.999   6.110 -1.8316 -0.7946 -1.6386
 4616SOL    HW225485   3.436   0.867   6.072  1.2509 -2.1118  1.5651
 4617SOL     OW25486   3.423   2.982   4.154  0.7755  0.8189  0.0201
 4617SOL    HW125487   3.359   2.969   4.225  1.3219 -0.3370  0.2964
 4617SOL    HW225488   3.361   2.997   4.082  1.3314 -0.4114 -0.7236
 4618SOL     OW25489   2.840   1.168   2.529 -0.2086  0.2414 -0.5344
 4618SOL    HW125490   2.792   1.249   2.515 -0.1391 -0.0459 -2.4379
 4618SOL    HW225491   2.924   1.206   2.555  0.1137 -0.6999 -0.2018
 4619SOL     OW25492   1.930   4.414  10.245 -0.4119  0.1026 -0.5937
 4619SOL    HW125493   2.014   4.454  10.224 -0.5118  1.2554  1.1594
 4619SOL    HW225494   1.883   4.475  10.302  0.1138  1.1839 -1.3246
 4620SOL     OW25495   2.158   2.856   2.990  0.0306 -0.1855 -0.2706
 4620SOL    HW125496   2.086   2.914   2.964  1.2724  1.0202 -1.0303
 4620SOL    HW225497   2.239   2.908   2.990  0.8196 -1.4415 -1.8690
 4621SOL     OW25498   2.553   4.553  17.446  0.6169  0.0185 -0.1485
 4621SOL    HW125499   2.476   4.522  17.494  0.8078  1.2356  0.9492
 4621SOL    HW225500   2.560   4.481  17.385  0.7806 -0.4655  0.4410
 4622SOL     OW25501   3.332   2.787  16.408 -0.5782  0.3213 -0.6664
 4622SOL    HW125502   3.365   2.869  16.446  0.0542  0.8052 -2.2421
 4622SOL    HW225503   3.408   2.775  16.350 -0.0311 -2.1081  0.5688
 4623SOL     OW25504   4.552   1.860  16.868 -0.1901  0.2612 -0.1039
 4623SOL    HW125505   4.536   1.796  16.798 -0.9942 -1.0911  1.3082
 4623SOL    HW225506   4.625   1.910  16.831  2.1303 -2.8422  0.3034
 4624SOL     OW25507   0.654   0.338  12.878  1.0202 -0.1090  0.3674
 4624SOL    HW125508   0.737   0.315  12.920  0.2778 -0.3177  1.7119
 4624SOL    HW225509   0.600   0.373  12.948 -0.5021  0.7623 -1.2563
 4625SOL     OW25510   1.537   3.499   0.040  0.2621  0.4028 -0.0802
 4625SOL    HW125511   1.601   3.562   0.006  1.0287 -0.3352 -0.0075
 4625SOL    HW225512   1.492   3.477  17.701  1.7132  0.7588 -0.9792
 4626SOL     OW25513   3.351   0.687   1.266  0.2095 -0.1212 -0.7154
 4626SOL    HW125514   3.257   0.690   1.283  0.2161  0.6508 -0.8238
 4626SOL    HW225515   3.394   0.640   1.338  2.6875  0.8290 -1.5606
 4627SOL     OW25516   4.699   2.881  11.114  0.5233 -0.8854  0.2580
 4627SOL    HW125517   0.028   2.839  11.171  1.5213  1.4078  0.7888
 4627SOL    HW225518   4.625   2.882  11.174 -0.4770 -1.6581 -0.9666
 4628SOL     OW25519   2.453   2.198   4.706  0.1022 -0.5084 -0.5532
 4628SOL    HW125520   2.514   2.254   4.754 -1.9772 -1.4079  3.1081
 4628SOL    HW225521   2.509   2.202   4.628  0.3481  0.5934 -0.3213
 4629SOL     OW25522   1.015   3.295   4.664 -0.1420 -0.2012  0.7084
 4629SOL    HW125523   0.936   3.241   4.667  1.2713 -2.3416 -0.5954
 4629SOL    HW225524   1.064   3.251   4.733  1.5418 -2.4673 -1.9268
 4630SOL     OW25525   1.134   4.294   1.622  0.1067 -0.9615 -0.4926
 4630SOL    HW125526   1.177   4.210   1.606  3.9755  0.8595  0.2956
 4630SOL    HW225527   1.139   4.281   1.717  1.8994 -0.2653 -0.4783
 4631SOL     OW25528   3.770   4.026  16.957 -0.1827  0.2109 -0.4699
 4631SOL    HW125529   3.850   4.006  17.005 -0.7261  3.2882  1.7284
 4631SOL    HW225530   3.732   3.939  16.949  0.1472 -0.0757  1.2437
 4632SOL     OW25531   3.936   4.184   7.164  0.3113  0.3428 -0.7553
 4632SOL    HW125532   3.896   4.133   7.234 -1.4507  0.1843 -1.8809
 4632SOL    HW225533   3.862   4.202   7.106 -0.0252  0.0314 -0.4179
 4633SOL     OW25534   4.318   3.068  10.855 -0.5039  0.3363  0.1626
 4633SOL    HW125535   4.338   2.976  10.874 -2.1946  0.0741  0.6762
 4633SOL    HW225536   4.337   3.106  10.940 -2.2617  0.9754  0.2683
 4634SOL     OW25537   4.578   2.494   3.353 -0.1760 -0.0948  0.3880
 4634SOL    HW125538   4.580   2.415   3.298  2.4934  1.1356 -1.2773
 4634SOL    HW225539   4.498   2.531   3.314 -0.1438 -0.4774 -0.0448
 4635SOL     OW25540   1.609   0.295   2.345 -0.0218 -0.0158  0.0523
 4635SOL    HW125541   1.590   0.389   2.357 -0.2354 -0.1391  0.6684
 4635SOL    HW225542   1.590   0.285   2.251 -1.4400  1.2541  0.1820
 4636SOL     OW25543   4.610   3.521  16.138  0.3700  0.4087  0.1433
 4636SOL    HW125544   4.643   3.509  16.049 -1.2677 -2.9369 -0.0066
 4636SOL    HW225545   4.534   3.463  16.130  0.8311 -0.5966  2.9230
 4637SOL     OW25546   3.828   2.343   8.137  0.3908 -0.0733 -0.4886
 4637SOL    HW125547   3.847   2.411   8.073  1.0949 -2.3811 -2.7239
 4637SOL    HW225548   3.890   2.360   8.209 -1.0515  4.1555 -0.2186
 4638SOL     OW25549   4.485   2.402  15.588  0.2345  0.2655 -0.2755
 4638SOL    HW125550   4.520   2.344  15.521  0.5362 -0.7091  0.7291
 4638SOL    HW225551   4.563   2.445  15.623  0.4958  0.7331 -1.4454
 4639SOL     OW25552   0.561   2.254   6.531  0.2289  0.4177  0.1485
 4639SOL    HW125553   0.498   2.295   6.472 -1.5800 -0.1508  1.6806
 4639SOL    HW225554   0.596   2.327   6.582  0.8716 -0.4508  0.9677
 4640SOL     OW25555   0.663   0.023   8.015 -0.2640 -0.0966 -0.1611
 4640SOL    HW125556   0.667   4.669   8.049  0.4321  0.0933  0.2747
 4640SOL    HW225557   0.606   0.003   7.941 -0.3925 -1.5422  0.3271
 4641SOL     OW25558   0.039   0.533  17.055  0.0786  0.6973 -0.7226
 4641SOL    HW125559   0.021   0.626  17.047  2.1658  1.0241 -1.5264
 4641SOL    HW225560   0.023   0.509  17.147  0.6344  0.8636 -0.5882
 4642SOL     OW25561   3.987   0.322   4.818  0.4293  0.0286  0.6498
 4642SOL    HW125562   3.939   0.305   4.737  1.1009  1.0031  0.0459
 4642SOL    HW225563   3.935   0.268   4.878 -0.5395 -0.8687 -0.9810
 4643SOL     OW25564   1.959   3.367  12.752  0.4540 -0.0645 -0.4613
 4643SOL    HW125565   1.896   3.301  12.723 -1.3798  1.5811 -0.1466
 4643SOL    HW225566   1.917   3.440  12.706  0.7058  0.8022  0.6845
 4644SOL     OW25567   3.448   3.535   7.429 -0.0637 -0.6476  0.2670
 4644SOL    HW125568   3.415   3.567   7.345  0.7251 -2.5807 -0.7945
 4644SOL    HW225569   3.406   3.593   7.492  0.3479 -0.5309  0.4328
 4645SOL     OW25570   2.871   0.326   5.686 -0.7068 -0.0896  0.2981
 4645SOL    HW125571   2.946   0.362   5.733  1.1567 -2.3548 -0.9080
 4645SOL    HW225572   2.807   0.317   5.756  0.5536  1.6665  1.6715
 4646SOL     OW25573   0.079   1.820  13.408  0.4334  0.5376 -0.5473
 4646SOL    HW125574   0.116   1.732  13.419 -0.6012  0.1083 -0.5411
 4646SOL    HW225575   0.121   1.852  13.328  0.8694 -2.9821 -1.7007
 4647SOL     OW25576   1.502   1.334   7.266 -0.0986 -0.6958 -0.0303
 4647SOL    HW125577   1.585   1.288   7.279  0.4647  0.5372  0.7264
 4647SOL    HW225578   1.436   1.285   7.315 -2.5609  2.0491 -0.5724
 4648SOL     OW25579   0.948   3.467   8.494 -0.5486 -0.0721  0.3576
 4648SOL    HW125580   0.930   3.382   8.534  1.6562  0.4285  2.4123
 4648SOL    HW225581   0.897   3.454   8.414 -0.2027 -1.2063  0.3329
 4649SOL     OW25582   1.282   2.039   2.170  0.4976  0.4768  0.5345
 4649SOL    HW125583   1.217   2.109   2.169 -0.7592 -0.6812 -0.9626
 4649SOL    HW225584   1.316   2.030   2.259 -0.9970 -1.5449  0.8923
 4650SOL     OW25585   4.297   4.078  10.870 -0.0581 -0.5346  0.1788
 4650SOL    HW125586   4.340   4.157  10.903  0.8027 -1.8040  2.1054
 4650SOL    HW225587   4.366   4.011  10.864  0.4812 -0.1883  2.2962
 4651SOL     OW25588   2.626   1.549   8.130  0.2090 -0.0940  0.4128
 4651SOL    HW125589   2.653   1.515   8.045 -0.8434  3.3593 -1.3162
 4651SOL    HW225590   2.672   1.503   8.199  1.6416  2.5717  1.2535
 4652SOL     OW25591   2.920   3.264   8.663 -0.4456 -0.0135 -0.0760
 4652SOL    HW125592   2.867   3.184   8.666  1.6099 -1.3109  0.9372
 4652SOL    HW225593   2.998   3.238   8.711  0.5816  1.2491 -1.0849
 4653SOL     OW25594   0.976   1.497   7.859  0.0024  0.4331  0.3009
 4653SOL    HW125595   0.968   1.441   7.936  0.8430  1.0016  0.8039
 4653SOL    HW225596   1.000   1.577   7.906  0.0835  0.7575 -0.2916
 4654SOL     OW25597   1.529   1.388  16.245  0.2116 -0.1329 -0.6989
 4654SOL    HW125598   1.506   1.416  16.334 -2.4424 -2.3630 -0.6686
 4654SOL    HW225599   1.559   1.472  16.210 -0.6386 -0.3906 -2.0404
 4655SOL     OW25600   1.041   3.374   7.372 -0.4221 -0.0026  0.2974
 4655SOL    HW125601   1.025   3.459   7.414 -0.5853  0.9873 -1.7845
 4655SOL    HW225602   0.992   3.315   7.429  1.1089 -1.0779  0.4780
 4656SOL     OW25603   2.148   1.498  10.831 -0.2564 -0.2780 -0.3787
 4656SOL    HW125604   2.198   1.465  10.756 -0.7871 -1.1874 -0.3429
 4656SOL    HW225605   2.184   1.586  10.842  0.8919 -0.9137  1.0818
 4657SOL     OW25606   3.296   3.772   6.117  0.2223 -0.1800 -0.1138
 4657SOL    HW125607   3.379   3.792   6.073  0.1515  2.6741  1.0950
 4657SOL    HW225608   3.243   3.730   6.049  1.3526 -2.3674  0.3596
 4658SOL     OW25609   2.925   4.195   3.062  0.0411 -0.7115  0.0802
 4658SOL    HW125610   2.968   4.213   3.145 -3.1428 -0.2273  1.6251
 4658SOL    HW225611   2.871   4.272   3.045  0.7353 -0.1556  0.3885
 4659SOL     OW25612   1.608   3.466   5.829 -0.0887 -0.3987 -0.2917
 4659SOL    HW125613   1.523   3.496   5.796  0.0951 -0.4639 -0.8231
 4659SOL    HW225614   1.597   3.493   5.920  2.0723  0.7980 -0.3708
 4660SOL     OW25615   1.441   3.908   8.357 -0.7418 -0.6082 -0.0501
 4660SOL    HW125616   1.396   3.861   8.427 -0.2935 -1.2233 -0.1782
 4660SOL    HW225617   1.527   3.868   8.361 -1.9948 -3.3399 -0.5918
 4661SOL     OW25618   4.165   1.894  12.407 -0.5117 -0.2124 -0.0436
 4661SOL    HW125619   4.103   1.920  12.338  1.1211 -0.5257 -1.6442
 4661SOL    HW225620   4.197   1.808  12.379  0.6838  0.2251 -0.0177
 4662SOL     OW25621   4.619   0.847   0.727  0.2038 -0.1968 -0.4404
 4662SOL    HW125622   4.579   0.764   0.702 -0.7598  0.0331  0.3173
 4662SOL    HW225623   4.622   0.884   0.638  0.4306 -0.1779 -0.4230
 4663SOL     OW25624   2.288   2.175   5.828  0.1205 -0.1880 -0.1937
 4663SOL    HW125625   2.261   2.190   5.738 -1.3827  0.3414  0.3377
 4663SOL    HW225626   2.241   2.250   5.865 -0.2582 -0.0922 -0.8723
 4664SOL     OW25627   1.097   3.228   9.022  0.3855 -0.2646  0.2417
 4664SOL    HW125628   1.028   3.264   8.967  2.3742  1.2939 -1.2565
 4664SOL    HW225629   1.050   3.192   9.097  1.0942 -0.0230  0.7952
 4665SOL     OW25630   0.297   1.539   0.859 -0.3224  0.1082  0.2645
 4665SOL    HW125631   0.261   1.627   0.863  2.7090  1.4229 -0.9669
 4665SOL    HW225632   0.393   1.548   0.864 -0.1474 -2.1323  1.1519
 4666SOL     OW25633   2.933   1.608  16.834 -0.2077  0.4320  0.4242
 4666SOL    HW125634   2.887   1.664  16.898  0.1034  1.2310 -0.0499
 4666SOL    HW225635   2.946   1.658  16.753 -0.3860  1.0462  0.7743
 4667SOL     OW25636   3.584   4.165   2.712 -0.4684  0.3483 -0.3607
 4667SOL    HW125637   3.489   4.164   2.701 -0.3456 -2.3054 -1.1257
 4667SOL    HW225638   3.607   4.114   2.634 -0.1935 -2.5102  1.6111
 4668SOL     OW25639   0.663   4.419   9.736  0.6187  0.2316 -0.1630
 4668SOL    HW125640   0.600   4.466   9.681  0.3603 -0.2514 -0.2761
 4668SOL    HW225641   0.635   4.463   9.816  0.6642  0.5614 -0.3282
 4669SOL     OW25642   2.953   2.747  11.714 -0.1499 -0.2506 -0.9215
 4669SOL    HW125643   2.860   2.762  11.732  0.3864 -1.7919  3.1873
 4669SOL    HW225644   2.945   2.677  11.649 -1.7879  0.0535 -1.0435
 4670SOL     OW25645   2.842   0.258   5.212  0.3131  0.7208 -0.3394
 4670SOL    HW125646   2.902   0.331   5.226  2.4462 -0.2278 -4.3708
 4670SOL    HW225647   2.846   0.220   5.300  1.3231 -0.3455 -0.8428
 4671SOL     OW25648   1.115   2.591  11.329 -0.5441  0.5691  0.2746
 4671SOL    HW125649   1.041   2.531  11.332  0.9112 -1.1244  2.3670
 4671SOL    HW225650   1.157   2.568  11.412 -0.9031  0.2141  0.3630
 4672SOL     OW25651   2.970   1.406   7.258  0.3285 -0.1103  0.5305
 4672SOL    HW125652   3.024   1.367   7.327  0.1811 -1.3030 -0.0331
 4672SOL    HW225653   2.914   1.465   7.308 -2.9622 -0.7343 -2.4042
 4673SOL     OW25654   2.036   1.163   2.769  0.1281  0.0743 -0.4091
 4673SOL    HW125655   2.113   1.219   2.759 -0.4476  0.9962  0.2831
 4673SOL    HW225656   2.017   1.117   2.687  1.0765  2.5377 -2.0264
 4674SOL     OW25657   1.431   0.266   8.676  0.1044 -0.5585 -0.1927
 4674SOL    HW125658   1.438   0.227   8.763  0.0574  2.0394  0.9911
 4674SOL    HW225659   1.507   0.324   8.677 -0.3869  0.0946 -0.6903
 4675SOL     OW25660   2.912   0.829   7.550 -0.3603 -0.2150  0.3219
 4675SOL    HW125661   3.000   0.861   7.531 -0.1796  0.1114  1.7366
 4675SOL    HW225662   2.901   0.874   7.634  2.8276  0.6470  0.2482
 4676SOL     OW25663   2.246   0.926  15.311  0.3052 -0.3074 -0.1392
 4676SOL    HW125664   2.231   0.838  15.344 -0.1046 -0.8293 -1.7349
 4676SOL    HW225665   2.335   0.911  15.278  0.1118 -0.9742 -0.3495
 4677SOL     OW25666   2.675   0.665  16.643 -0.4425  0.5571 -0.0684
 4677SOL    HW125667   2.612   0.698  16.707 -1.9234 -4.0279  0.7848
 4677SOL    HW225668   2.753   0.685  16.694 -0.2481  1.0337 -0.5481
 4678SOL     OW25669   4.731   3.483   7.859  0.4352  0.0057 -0.0564
 4678SOL    HW125670   4.729   3.423   7.785 -3.3178 -1.7506  1.4277
 4678SOL    HW225671   0.074   3.451   7.902  0.5034 -0.3301 -0.4314
 4679SOL     OW25672   2.766   3.324   3.938  0.0271  0.2892  0.1013
 4679SOL    HW125673   2.703   3.347   4.006 -0.2702  1.0575 -0.4354
 4679SOL    HW225674   2.820   3.403   3.946  1.3633 -0.6207  0.0758
 4680SOL     OW25675   2.508   1.868  12.210  0.4646 -0.1795  0.0615
 4680SOL    HW125676   2.434   1.835  12.158  0.8781 -1.2430  0.1477
 4680SOL    HW225677   2.550   1.787  12.240 -0.1791 -0.5166  0.0458
 4681SOL     OW25678   2.506   0.401  17.687 -0.1026 -0.1072  0.1998
 4681SOL    HW125679   2.498   0.394  17.592  0.0025  1.9640  0.0351
 4681SOL    HW225680   2.591   0.445  17.686  0.3877 -1.1111 -2.2347
 4682SOL     OW25681   3.114   1.568   2.727  0.3664  0.1884  0.0280
 4682SOL    HW125682   3.045   1.505   2.710  0.8330 -0.3473  0.1097
 4682SOL    HW225683   3.158   1.577   2.642  0.5786  0.3096  0.1497
 4683SOL     OW25684   0.303   3.191   7.015  0.7641 -0.2871  0.0596
 4683SOL    HW125685   0.288   3.251   7.089 -1.2407  0.6378 -1.0879
 4683SOL    HW225686   0.304   3.251   6.940 -0.5543 -0.5982 -0.2192
 4684SOL     OW25687   2.626   4.412   0.077  0.3719 -0.3788 -0.0391
 4684SOL    HW125688   2.682   4.417   0.155 -0.6158 -0.1063  0.6564
 4684SOL    HW225689   2.589   4.324   0.084  2.0887 -1.2298 -1.6433
 4685SOL     OW25690   2.963   1.684   1.096  0.6684  0.2385  0.6173
 4685SOL    HW125691   2.917   1.675   1.180  0.2327 -1.3289  0.2039
 4685SOL    HW225692   2.903   1.756   1.074  0.4017  0.0729  0.7999
 4686SOL     OW25693   2.527   1.246   4.616 -0.2151  0.1421 -0.1989
 4686SOL    HW125694   2.491   1.273   4.532  1.0554 -0.8224 -1.0548
 4686SOL    HW225695   2.569   1.164   4.590 -0.7416 -0.5894  1.2354
 4687SOL     OW25696   0.532   1.129   9.374  0.1132  0.6273 -0.4429
 4687SOL    HW125697   0.611   1.077   9.386 -0.7229 -0.4956  0.1394
 4687SOL    HW225698   0.571   1.215   9.393 -1.8813  0.9404  2.1566
 4688SOL     OW25699   2.836   0.102   2.926 -0.4116  0.1066  0.5184
 4688SOL    HW125700   2.895   0.163   2.971 -1.0083  0.5970  0.6396
 4688SOL    HW225701   2.902   0.033   2.916  0.7788  1.6369 -2.3692
 4689SOL     OW25702   0.822   2.247   6.275  0.3442 -0.4139 -0.1040
 4689SOL    HW125703   0.844   2.201   6.355 -2.7099 -1.0710  0.3777
 4689SOL    HW225704   0.797   2.172   6.220  1.5051 -1.1746  0.4177
 4690SOL     OW25705   3.623   0.899   2.374  0.3243 -0.4231 -0.2844
 4690SOL    HW125706   3.645   0.949   2.453 -1.0126  0.7677 -0.6457
 4690SOL    HW225707   3.592   0.818   2.415  1.3729 -1.5790 -1.8101
 4691SOL     OW25708   2.455   2.895   9.575  0.5806 -0.2345  0.1247
 4691SOL    HW125709   2.404   2.920   9.498 -0.4722  0.5627  1.0792
 4691SOL    HW225710   2.390   2.916   9.642 -1.0705  0.4919 -1.6780
 4692SOL     OW25711   3.721   2.018   9.550 -0.0691 -0.1405 -0.2830
 4692SOL    HW125712   3.685   2.066   9.475 -0.4203 -0.1299 -0.1069
 4692SOL    HW225713   3.811   2.052   9.553  1.2573 -3.7625  0.7163
 4693SOL     OW25714   0.276   3.798   3.593 -0.0820  0.0254  0.2636
 4693SOL    HW125715   0.237   3.713   3.618 -0.0064 -0.2391 -0.5187
 4693SOL    HW225716   0.255   3.791   3.500  2.1014  1.7893 -0.3547
 4694SOL     OW25717   2.400   3.555   8.020 -0.4160  0.5723 -0.2532
 4694SOL    HW125718   2.399   3.494   8.093  0.0181  3.0851  1.8213
 4694SOL    HW225719   2.492   3.555   7.994 -0.0050  0.1648  1.2387
 4695SOL     OW25720   3.787   3.222   7.552 -0.1975 -0.1599 -0.2382
 4695SOL    HW125721   3.784   3.256   7.463  1.9949 -1.4697 -0.8121
 4695SOL    HW225722   3.701   3.180   7.550 -1.0563  1.6097  0.0708
 4696SOL     OW25723   1.815   1.570   7.277  0.3151  0.1128  0.4323
 4696SOL    HW125724   1.894   1.540   7.232 -0.5088  0.3063 -1.1617
 4696SOL    HW225725   1.775   1.486   7.301  1.1422 -0.5910 -0.6301
 4697SOL     OW25726   4.207   2.532   6.143 -0.0654 -0.2966  0.4623
 4697SOL    HW125727   4.302   2.544   6.150 -0.0263 -0.8656  1.0134
 4697SOL    HW225728   4.183   2.613   6.100 -1.3182 -0.9036  0.0390
 4698SOL     OW25729   0.703   1.634   3.659 -0.3880 -0.4960  0.1873
 4698SOL    HW125730   0.650   1.595   3.728  0.5016 -2.0547 -0.0151
 4698SOL    HW225731   0.672   1.725   3.663  1.2261  0.1681 -2.3689
 4699SOL     OW25732   4.399   0.273   5.014  0.0111  0.2302 -0.1368
 4699SOL    HW125733   4.324   0.219   5.039 -0.5134  0.2047 -1.7579
 4699SOL    HW225734   4.472   0.212   5.010 -1.2491 -1.3318  0.3584
 4700SOL     OW25735   1.544   3.475   8.974 -0.5643 -0.5987 -0.3718
 4700SOL    HW125736   1.505   3.389   8.955 -0.7826 -0.8167  1.0326
 4700SOL    HW225737   1.607   3.481   8.902 -1.4703 -0.2202 -1.1261
 4701SOL     OW25738   3.878   2.277   4.578  1.0227 -0.0685 -0.6191
 4701SOL    HW125739   3.860   2.328   4.657  1.4698 -1.5763  0.4648
 4701SOL    HW225740   3.970   2.301   4.565  1.6200 -0.6346  2.5518
 4702SOL     OW25741   2.191   0.607   7.732 -0.1984 -0.7730 -0.4822
 4702SOL    HW125742   2.109   0.579   7.691  0.5183 -0.8991 -1.8475
 4702SOL    HW225743   2.169   0.695   7.760 -0.4266 -1.3860  1.2409
 4703SOL     OW25744   2.205   2.808   2.438  0.0210  0.6530  0.1102
 4703SOL    HW125745   2.289   2.774   2.406  0.6274  2.0049  0.2803
 4703SOL    HW225746   2.234   2.871   2.504  0.8940 -0.0531  0.4032
 4704SOL     OW25747   0.168   2.266   2.973  0.1612  0.1780  0.0418
 4704SOL    HW125748   0.183   2.294   3.063  0.3406  1.8085 -0.4989
 4704SOL    HW225749   0.201   2.343   2.926 -0.1599  0.3893  0.1650
 4705SOL     OW25750   3.696   4.126   2.965  0.3559 -0.1379  0.2116
 4705SOL    HW125751   3.670   4.211   3.000  1.3198 -1.1291  3.3134
 4705SOL    HW225752   3.672   4.135   2.872 -0.1132 -0.1544  0.3305
 4706SOL     OW25753   2.820   0.251   4.941 -0.2073 -0.0635  0.1948
 4706SOL    HW125754   2.822   0.248   5.036 -0.1818 -1.1500  0.1610
 4706SOL    HW225755   2.906   0.212   4.928  0.5916  1.4143  0.9822
 4707SOL     OW25756   1.933   1.010   0.213  0.1101 -0.1515 -0.0610
 4707SOL    HW125757   1.892   1.056   0.140 -1.3347  0.1172  0.9180
 4707SOL    HW225758   1.937   0.923   0.175  2.6817 -0.9169  2.0027
 4708SOL     OW25759   2.984   4.624   3.680  0.2084  0.4565 -0.0276
 4708SOL    HW125760   2.899   4.595   3.647  1.0681 -2.1649  0.1219
 4708SOL    HW225761   3.036   4.605   3.602 -2.1600  1.1281 -1.7679
 4709SOL     OW25762   3.497   4.213  15.992  0.1338 -0.4983  0.1988
 4709SOL    HW125763   3.462   4.188  16.077  0.4561 -0.8798  0.2199
 4709SOL    HW225764   3.521   4.302  16.018 -2.6080  0.2238  0.1971
 4710SOL     OW25765   4.641   3.275   6.220 -0.5751 -0.1581  0.3834
 4710SOL    HW125766   4.727   3.299   6.184 -1.2178  0.9597 -0.4103
 4710SOL    HW225767   4.622   3.203   6.161 -0.6606 -0.0208  0.2433
 4711SOL     OW25768   1.134   2.167   2.911 -0.4496  0.0198 -0.1887
 4711SOL    HW125769   1.219   2.125   2.926  0.4281  1.4881 -1.0831
 4711SOL    HW225770   1.146   2.207   2.825  2.7765 -0.5105 -0.0002
 4712SOL     OW25771   2.903   2.843   1.950  0.2089 -0.2691  0.8426
 4712SOL    HW125772   2.862   2.897   2.017  1.1387  0.7001  0.6372
 4712SOL    HW225773   2.979   2.897   1.926  0.1340  0.6739  2.7759
 4713SOL     OW25774   0.366   1.886   3.848 -0.2005  0.2178 -0.1661
 4713SOL    HW125775   0.327   1.836   3.777  1.3569  0.0079 -0.8831
 4713SOL    HW225776   0.373   1.821   3.918  0.3502 -0.5852 -0.9695
 4714SOL     OW25777   2.412   3.010   2.047  0.4067  0.2980 -0.0087
 4714SOL    HW125778   2.375   2.940   1.993 -0.4001 -0.1607  1.1529
 4714SOL    HW225779   2.494   2.967   2.073  0.8241  0.5319 -0.9380
 4715SOL     OW25780   4.045   1.662   8.039  0.5366 -0.5754 -0.3943
 4715SOL    HW125781   4.077   1.709   8.117  0.6452 -1.6186  0.1840
 4715SOL    HW225782   4.026   1.580   8.084  0.1568 -0.6569 -0.7113
 4716SOL     OW25783   0.564   0.286   6.676 -0.0736 -0.3786  0.1549
 4716SOL    HW125784   0.539   0.193   6.673 -4.1878  0.8351 -2.2488
 4716SOL    HW225785   0.532   0.296   6.586  0.7545  1.0695  0.0279
 4717SOL     OW25786   4.675   1.849   7.231  0.2224  0.2514  0.2711
 4717SOL    HW125787   0.007   1.861   7.297 -0.4370  1.1206  0.8073
 4717SOL    HW225788   4.712   1.884   7.150  1.7435  0.3842  1.0195
 4718SOL     OW25789   0.483   2.264   2.516 -0.7075  0.0862 -0.0652
 4718SOL    HW125790   0.496   2.357   2.500  2.4501 -0.4597 -0.6397
 4718SOL    HW225791   0.482   2.255   2.611  0.5983  1.9429  0.1305
 4719SOL     OW25792   4.338   3.169  11.789 -0.0157  0.5725  0.0612
 4719SOL    HW125793   4.266   3.161  11.727  0.3070  1.9178 -0.4841
 4719SOL    HW225794   4.315   3.255  11.823 -1.4938 -0.4718  1.7455
 4720SOL     OW25795   0.219   3.772   6.006 -0.2638 -0.4088 -0.9031
 4720SOL    HW125796   0.212   3.706   6.075  2.3386 -0.7785 -0.9911
 4720SOL    HW225797   0.291   3.812   6.054 -2.1496  1.5365  0.3359
 4721SOL     OW25798   4.071   0.025   2.443 -0.7147  0.3057  0.0700
 4721SOL    HW125799   4.138   4.722   2.500 -2.4452 -0.8797  1.2993
 4721SOL    HW225800   4.094   0.117   2.458 -0.4165  0.8598 -3.6919
 4722SOL     OW25801   1.581   2.110   8.820 -0.3584 -0.6927  0.3231
 4722SOL    HW125802   1.664   2.149   8.790 -2.1238  0.9799 -2.3986
 4722SOL    HW225803   1.516   2.157   8.768  1.6730  0.5522 -1.1158
 4723SOL     OW25804   4.265   3.005  15.102 -0.4414 -0.3881  0.6718
 4723SOL    HW125805   4.224   3.071  15.046  0.6025  1.0906  1.6419
 4723SOL    HW225806   4.189   2.962  15.141 -1.1032 -0.3023 -0.5028
 4724SOL     OW25807   1.822   1.374   7.638 -0.6049  0.4608 -0.4125
 4724SOL    HW125808   1.897   1.428   7.664  0.2972 -0.6414 -0.6783
 4724SOL    HW225809   1.834   1.296   7.693  0.9245  1.0668  0.1302
 4725SOL     OW25810   1.628   3.632  15.053  0.5994 -0.5033 -0.2260
 4725SOL    HW125811   1.681   3.712  15.045 -0.1263  0.1653  1.7407
 4725SOL    HW225812   1.622   3.619  14.958  1.7579 -1.3021 -0.1863
 4726SOL     OW25813   4.126   2.042  10.249  0.5046  0.1490  0.1379
 4726SOL    HW125814   4.190   2.076  10.311  1.6354 -1.5187 -0.1103
 4726SOL    HW225815   4.097   2.123  10.208 -0.2863 -0.7753 -1.1098
 4727SOL     OW25816   4.136   4.054   1.994 -0.0549 -0.0731 -0.5725
 4727SOL    HW125817   4.133   4.002   1.913  0.5617 -0.1059 -0.5756
 4727SOL    HW225818   4.156   3.982   2.054  1.4736  1.1739  0.4126
 4728SOL     OW25819   3.050   3.914  16.169 -0.2100  0.8295 -0.4584
 4728SOL    HW125820   3.010   3.962  16.241  1.1445  1.4771 -0.1224
 4728SOL    HW225821   2.986   3.931  16.100 -2.8891  0.3756  1.9629
 4729SOL     OW25822   2.086   1.503  12.242 -0.1924  0.5804  0.1020
 4729SOL    HW125823   2.121   1.579  12.288  0.4744 -0.1375  0.7672
 4729SOL    HW225824   2.065   1.544  12.158 -1.2765 -0.7593 -0.2767
 4730SOL     OW25825   0.148   0.850   4.230 -0.1734  0.0619  0.2916
 4730SOL    HW125826   0.084   0.813   4.290 -0.0597  0.6045  0.7395
 4730SOL    HW225827   0.137   0.800   4.149 -1.1826  1.4449 -0.4262
 4731SOL     OW25828   1.294   0.002   4.382 -0.3730  0.2406  0.1281
 4731SOL    HW125829   1.226   0.069   4.389 -0.5543  0.0694  0.0233
 4731SOL    HW225830   1.252   4.674   4.324  1.0296 -1.8273  1.3910
 4732SOL     OW25831   3.151   3.965  12.819 -0.4975 -0.3167 -0.4694
 4732SOL    HW125832   3.242   3.993  12.828 -1.2801  1.8798  0.5357
 4732SOL    HW225833   3.178   3.876  12.794 -2.7742 -1.1288 -0.0018
 4733SOL     OW25834   3.960   3.458   9.509  0.4400  0.2201  0.0871
 4733SOL    HW125835   3.958   3.544   9.550  1.8483 -0.0356  0.6906
 4733SOL    HW225836   3.866   3.444   9.496  0.1810  1.8999  0.2098
 4734SOL     OW25837   2.645   1.267   2.876 -0.3174  0.3479  0.5646
 4734SOL    HW125838   2.641   1.332   2.946 -3.1601  1.4455 -0.6078
 4734SOL    HW225839   2.641   1.194   2.938  0.7635  2.0956  2.7093
 4735SOL     OW25840   0.447   2.499   9.475  0.5278  0.0809 -0.2587
 4735SOL    HW125841   0.469   2.407   9.488  0.0468  0.1438  1.0656
 4735SOL    HW225842   0.406   2.495   9.389  0.6366 -0.5229 -0.2824
 4736SOL     OW25843   2.900   3.366  11.656  0.0948 -0.1917 -0.3622
 4736SOL    HW125844   2.957   3.304  11.701 -1.1253 -0.1732  1.1812
 4736SOL    HW225845   2.906   3.441  11.714 -0.1666  0.1767 -0.8135
 4737SOL     OW25846   4.657   2.046   8.514 -0.8956 -0.2581 -0.1711
 4737SOL    HW125847   4.674   1.952   8.509  0.2244 -0.0990  0.8187
 4737SOL    HW225848   4.731   2.080   8.463  0.0684  0.9886  2.0698
 4738SOL     OW25849   0.316   0.917   7.436 -0.5444 -0.3422 -0.3692
 4738SOL    HW125850   0.380   0.875   7.494  0.1166  0.8422 -0.2592
 4738SOL    HW225851   0.237   0.903   7.488 -1.1631  1.4993 -0.8394
 4739SOL     OW25852   0.763   2.289   7.238 -0.3418 -0.4953  0.2807
 4739SOL    HW125853   0.789   2.254   7.323  1.3151 -0.1735 -0.0771
 4739SOL    HW225854   0.779   2.383   7.250 -0.5885 -0.6388  1.7691
 4740SOL     OW25855   0.083   1.388   8.692  0.0491  0.3075  0.3707
 4740SOL    HW125856   0.059   1.333   8.766 -0.2198  0.2334  0.2267
 4740SOL    HW225857   0.151   1.438   8.738 -0.0667  1.6419 -0.9176
 4741SOL     OW25858   2.370   2.559  16.673 -0.4537 -0.3311 -0.2452
 4741SOL    HW125859   2.385   2.633  16.732  1.8510  0.1691 -1.4681
 4741SOL    HW225860   2.455   2.517  16.682 -0.1557  0.3271  0.0114
 4742SOL     OW25861   4.730   2.614   8.156 -0.2428 -0.7607  0.2483
 4742SOL    HW125862   0.077   2.657   8.175 -0.4070 -0.2515 -0.1868
 4742SOL    HW225863   0.005   2.600   8.063  2.3983  1.2888  0.2520
 4743SOL     OW25864   3.619   2.785   4.262 -0.7068  0.4085 -0.0618
 4743SOL    HW125865   3.546   2.842   4.240 -0.1285  2.4543  3.1798
 4743SOL    HW225866   3.690   2.844   4.234 -1.0591  1.1577  0.5904
 4744SOL     OW25867   1.278   2.030  17.064  0.3690 -0.0019 -0.6402
 4744SOL    HW125868   1.256   1.958  17.005  3.7628 -1.8777  0.3816
 4744SOL    HW225869   1.352   1.985  17.106 -0.0545 -1.0732 -1.0416
 4745SOL     OW25870   0.263   0.465   8.908 -0.0930  0.1610 -0.0714
 4745SOL    HW125871   0.185   0.439   8.957  0.4360 -1.1296  0.0680
 4745SOL    HW225872   0.233   0.554   8.888 -2.1056 -0.7828 -1.2482
 4746SOL     OW25873   1.580   1.879   5.604 -0.0361  0.1601 -0.2195
 4746SOL    HW125874   1.564   1.933   5.682  1.3078  0.6523 -0.2794
 4746SOL    HW225875   1.513   1.924   5.552 -0.6005  0.7050  0.9827
 4747SOL     OW25876   2.763   0.137   3.603  0.1261  0.6456 -0.7064
 4747SOL    HW125877   2.783   0.050   3.569  0.4276  0.7850 -0.8771
 4747SOL    HW225878   2.667   0.133   3.596  0.0650 -2.0223  1.4133
 4748SOL     OW25879   2.411   3.425  17.038 -0.8770  1.2268 -0.0281
 4748SOL    HW125880   2.343   3.376  17.084  0.4814  0.8262  1.5643
 4748SOL    HW225881   2.489   3.414  17.094  0.5450 -1.5923 -2.5926
 4749SOL     OW25882   1.454   0.857   9.553  0.5589  0.3129  0.1413
 4749SOL    HW125883   1.393   0.821   9.488  0.0433  1.2045  0.1377
 4749SOL    HW225884   1.520   0.894   9.494 -0.7842  4.0439  1.0219
 4750SOL     OW25885   1.848   2.267   6.013 -0.7831 -0.0416  0.0317
 4750SOL    HW125886   1.887   2.254   5.927 -0.4455 -2.3236  0.5345
 4750SOL    HW225887   1.896   2.201   6.062  2.1058  1.5325 -0.6640
 4751SOL     OW25888   3.686   4.501   1.703  0.4056 -0.1986  0.8987
 4751SOL    HW125889   3.778   4.477   1.695  0.2713  0.4569 -2.4010
 4751SOL    HW225890   3.698   4.585   1.747  2.0810  0.2268 -0.3660
 4752SOL     OW25891   1.795   3.311   1.840  0.1024 -0.4112 -0.0445
 4752SOL    HW125892   1.752   3.372   1.900  1.9900  0.8594  0.0231
 4752SOL    HW225893   1.868   3.280   1.893 -0.2872 -2.2646 -0.6089
 4753SOL     OW25894   4.250   1.942   2.495 -0.3335  0.0333 -0.4530
 4753SOL    HW125895   4.245   2.024   2.544 -1.3943  0.9793 -2.1576
 4753SOL    HW225896   4.189   1.958   2.424 -3.1526 -0.9490  1.7637
 4754SOL     OW25897   3.323   0.044   8.312  0.2082  0.1627 -0.0905
 4754SOL    HW125898   3.275   4.722   8.253 -2.3391 -0.1978  2.3867
 4754SOL    HW225899   3.416   0.029   8.294  0.1556  0.9598 -1.0705
 4755SOL     OW25900   4.335   2.507   8.680 -0.2763 -0.2184  0.1909
 4755SOL    HW125901   4.380   2.575   8.732  1.0141 -0.0829 -1.0878
 4755SOL    HW225902   4.406   2.446   8.661 -0.9182 -0.6103 -0.9324
 4756SOL     OW25903   4.702   0.959  14.471  0.1923 -0.7032  0.0499
 4756SOL    HW125904   4.679   0.897  14.540  1.5269 -0.3799  0.7798
 4756SOL    HW225905   4.665   1.037  14.514  0.8029 -0.1765 -0.3818
 4757SOL     OW25906   2.872   3.907   2.815 -0.3478 -0.2491 -0.5953
 4757SOL    HW125907   2.802   3.964   2.783 -2.0407 -1.8098  0.3782
 4757SOL    HW225908   2.879   3.928   2.909 -0.8598  2.2049 -1.0871
 4758SOL     OW25909   3.460   4.105   4.695  0.1311 -0.2847  0.2642
 4758SOL    HW125910   3.457   4.141   4.606 -0.2160 -0.0854  0.3600
 4758SOL    HW225911   3.374   4.064   4.691  0.1532 -0.0485 -2.7707
 4759SOL     OW25912   4.083   0.480   5.426  0.9501  0.3023  0.4060
 4759SOL    HW125913   4.042   0.443   5.347 -0.1182 -0.0980  1.1494
 4759SOL    HW225914   4.043   0.566   5.424 -0.0323 -0.1610  0.0093
 4760SOL     OW25915   3.118   1.761   1.417 -0.5577 -0.1214 -0.7196
 4760SOL    HW125916   3.031   1.797   1.435 -0.1165  0.4232  0.3197
 4760SOL    HW225917   3.148   1.810   1.341 -0.4857  0.0537 -0.5785
 4761SOL     OW25918   0.418   2.567   5.173  0.1483 -0.0813 -0.1065
 4761SOL    HW125919   0.390   2.498   5.234 -2.0429 -0.0022 -1.0319
 4761SOL    HW225920   0.330   2.583   5.139  0.2216 -0.9630 -0.7084
 4762SOL     OW25921   2.944   2.044   3.602 -0.1985  0.0212  0.1693
 4762SOL    HW125922   2.907   1.990   3.673  0.6893 -1.0902 -0.2051
 4762SOL    HW225923   3.012   2.101   3.637 -0.8308  0.0746  1.3188
 4763SOL     OW25924   3.987   3.227   5.888 -0.3899  0.0869 -0.1777
 4763SOL    HW125925   3.950   3.273   5.963  3.0890  5.4738 -1.7391
 4763SOL    HW225926   3.929   3.264   5.821 -0.2891  0.4393 -0.0670
 4764SOL     OW25927   4.256   2.003   7.157 -0.0667 -0.2627 -0.1880
 4764SOL    HW125928   4.209   2.037   7.233 -0.1108  0.8498 -0.7153
 4764SOL    HW225929   4.304   1.933   7.202 -1.3073 -2.7916 -2.7621
 4765SOL     OW25930   0.291   2.499   9.207 -0.2634  0.1905 -0.1792
 4765SOL    HW125931   0.258   2.570   9.153 -1.0015 -0.1493 -0.1633
 4765SOL    HW225932   0.223   2.432   9.200  1.4529 -1.5083 -0.5804
 4766SOL     OW25933   0.392   0.921  11.210  0.2994 -0.2243  0.4488
 4766SOL    HW125934   0.459   0.965  11.263 -0.9860  1.4389  0.7220
 4766SOL    HW225935   0.447   0.855  11.169  0.2565  0.6065 -0.9643
 4767SOL     OW25936   0.570   4.175   4.781  0.2198  0.5506 -0.1313
 4767SOL    HW125937   0.573   4.134   4.867 -2.2439  1.9650  0.6165
 4767SOL    HW225938   0.656   4.149   4.747 -1.1592  0.7317 -3.7248
 4768SOL     OW25939   2.743   0.929   8.903  0.0441  0.1959  0.3580
 4768SOL    HW125940   2.743   1.024   8.909 -1.5027  0.0725  2.4683
 4768SOL    HW225941   2.831   0.911   8.870 -1.0204  1.4069 -3.1100
 4769SOL     OW25942   3.665   0.517  14.911  0.1550  0.2055  0.4136
 4769SOL    HW125943   3.732   0.552  14.969  0.0918  1.0570 -0.0309
 4769SOL    HW225944   3.676   0.425  14.933 -0.1064 -0.5171 -2.3840
 4770SOL     OW25945   1.431   0.518   6.404  0.2471  0.1648  0.2961
 4770SOL    HW125946   1.481   0.522   6.486 -1.4410  0.0680  1.3292
 4770SOL    HW225947   1.367   0.584   6.429  1.6693  1.6759 -0.0775
 4771SOL     OW25948   3.312   3.132  11.839 -0.4161  0.5660 -0.0210
 4771SOL    HW125949   3.327   3.046  11.800  0.5696  0.4094  0.6841
 4771SOL    HW225950   3.379   3.147  11.906  0.4268  1.8383 -1.1439
 4772SOL     OW25951   0.496   1.400   2.981  0.1479  0.5787 -0.3468
 4772SOL    HW125952   0.536   1.332   2.927 -0.2209 -1.3853  1.8702
 4772SOL    HW225953   0.530   1.377   3.067  0.5117  0.9394 -0.3935
 4773SOL     OW25954   1.892   3.904   5.433 -0.3220  0.0011  0.3827
 4773SOL    HW125955   1.918   3.926   5.344  0.5358 -2.2236  0.1068
 4773SOL    HW225956   1.882   3.810   5.425 -2.0067  0.2229 -0.2554
 4774SOL     OW25957   1.590   4.650  11.373 -0.0738 -0.1243  0.8119
 4774SOL    HW125958   1.552   4.565  11.397  0.3809 -0.9267 -1.2297
 4774SOL    HW225959   1.593   4.647  11.277  1.7046 -1.2369  0.9038
 4775SOL     OW25960   1.284   1.522   4.432  0.1188 -0.1467  0.3923
 4775SOL    HW125961   1.265   1.507   4.340 -0.2409  0.3964  0.3763
 4775SOL    HW225962   1.269   1.436   4.470 -0.6533  0.3011  1.1081
 4776SOL     OW25963   1.844   1.277   1.802  0.1984  0.4417 -0.0124
 4776SOL    HW125964   1.912   1.232   1.852 -1.4372 -0.9151  0.9877
 4776SOL    HW225965   1.887   1.259   1.718  0.6417  0.9390  0.1094
 4777SOL     OW25966   1.506   0.367   2.100 -0.3250 -0.2649  0.3219
 4777SOL    HW125967   1.447   0.442   2.094 -0.8701 -0.7002  0.1607
 4777SOL    HW225968   1.445   0.295   2.084 -0.2046  0.0037 -1.3507
 4778SOL     OW25969   1.118   0.158  16.803  0.1369 -0.4706 -0.2287
 4778SOL    HW125970   1.105   0.194  16.891  1.3700  0.0498 -0.2441
 4778SOL    HW225971   1.124   0.065  16.823  0.3934 -0.1304  1.2501
 4779SOL     OW25972   1.710   4.654   1.826 -0.4044 -0.3919 -0.7085
 4779SOL    HW125973   1.669   4.619   1.906 -0.1924  1.9106  0.4051
 4779SOL    HW225974   1.634   4.692   1.782 -0.3988 -1.1330 -1.3614
 4780SOL     OW25975   1.896   3.629   2.942  0.0784  0.8108  0.1492
 4780SOL    HW125976   1.940   3.705   2.904 -0.4955  0.1713 -1.7974
 4780SOL    HW225977   1.959   3.599   3.007 -0.1337 -0.5849 -0.2828
 4781SOL     OW25978   1.267   0.937   3.234  0.3933 -0.4815  0.3041
 4781SOL    HW125979   1.358   0.954   3.259  1.5003 -1.5325 -3.1584
 4781SOL    HW225980   1.267   0.879   3.158 -3.5415 -1.6407  1.2182
 4782SOL     OW25981   2.964   4.274   0.661  0.0970  0.1526  0.6262
 4782SOL    HW125982   3.015   4.317   0.730  0.2647  0.9434  0.0106
 4782SOL    HW225983   2.899   4.342   0.645  0.4166  0.6469  1.4339
 4783SOL     OW25984   3.584   2.548  16.926 -0.1990 -0.4394  0.7130
 4783SOL    HW125985   3.583   2.568  17.019  0.1828  2.8475  0.0135
 4783SOL    HW225986   3.639   2.623  16.901 -0.8173 -0.9557 -2.1475
 4784SOL     OW25987   4.222   2.385  13.370  0.1077 -0.4833  0.1612
 4784SOL    HW125988   4.297   2.436  13.339 -1.1737  0.8452 -0.7773
 4784SOL    HW225989   4.208   2.351  13.282 -2.7832 -1.4845  1.0167
 4785SOL     OW25990   3.823   2.738   2.298 -0.1440  0.3615 -0.4372
 4785SOL    HW125991   3.761   2.673   2.265 -0.2959  0.8208 -1.0715
 4785SOL    HW225992   3.759   2.785   2.352 -0.4183 -0.5528  0.0251
 4786SOL     OW25993   3.689   4.339   8.916  0.8057  0.4614  0.0003
 4786SOL    HW125994   3.653   4.289   8.989  3.6677 -0.3928  0.8352
 4786SOL    HW225995   3.644   4.424   8.920 -1.8326 -1.1011  2.6822
 4787SOL     OW25996   4.368   3.565  14.554  0.1153 -0.0690  0.4510
 4787SOL    HW125997   4.388   3.583  14.645 -1.0533 -0.1801  0.7301
 4787SOL    HW225998   4.448   3.525  14.521 -0.3546  0.8539 -1.8787
 4788SOL     OW25999   3.628   0.464  14.048  0.2467 -0.3955 -0.2444
 4788SOL    HW126000   3.708   0.516  14.038 -2.3141  2.8170 -3.8154
 4788SOL    HW226001   3.636   0.399  13.979  0.9939  0.6092 -1.1011
 4789SOL     OW26002   1.994   3.125   4.186 -0.5410 -0.1344 -0.1130
 4789SOL    HW126003   1.905   3.155   4.170  0.1359  1.1802 -1.4918
 4789SOL    HW226004   1.978   3.044   4.234 -1.2240 -0.0754 -0.2424
 4790SOL     OW26005   2.940   1.733   3.350  0.2025  0.2932 -0.0721
 4790SOL    HW126006   2.923   1.699   3.262  2.3541  0.4159 -0.5373
 4790SOL    HW226007   3.031   1.704   3.356  0.2310  0.2810 -0.5612
 4791SOL     OW26008   1.332   2.074  15.563 -0.1667  0.2285 -0.4252
 4791SOL    HW126009   1.390   2.112  15.498  0.7872 -0.4153  0.0567
 4791SOL    HW226010   1.318   2.134  15.636  1.9290  1.8006 -1.3156
 4792SOL     OW26011   2.870   1.417   8.952  0.1085 -0.2441  0.2923
 4792SOL    HW126012   2.891   1.461   8.870  0.4278  0.6989  0.8819
 4792SOL    HW226013   2.955   1.428   8.994  0.3223 -0.2426 -0.1487
 4793SOL     OW26014   3.410   3.116   1.389 -0.3447  0.1299 -0.3186
 4793SOL    HW126015   3.370   3.050   1.444  0.0792  0.8561  0.8568
 4793SOL    HW226016   3.333   3.159   1.353 -1.1318  0.1175  1.3591
 4794SOL     OW26017   2.773   4.140   6.268  0.1205 -0.3152  0.2808
 4794SOL    HW126018   2.779   4.236   6.262 -0.9753 -0.3567 -1.6636
 4794SOL    HW226019   2.794   4.108   6.180  2.5558 -1.0825  1.1474
 4795SOL     OW26020   1.797   0.399   2.071  0.5958 -0.0337 -0.0593
 4795SOL    HW126021   1.838   0.313   2.067 -0.7581 -0.6510 -0.5064
 4795SOL    HW226022   1.703   0.383   2.076  0.7755 -0.9819  0.2720
 4796SOL     OW26023   2.778   1.174   8.907  0.7454 -1.3850  0.4483
 4796SOL    HW126024   2.712   1.213   8.850  0.2256 -1.4374  1.0258
 4796SOL    HW226025   2.820   1.251   8.944  0.2238 -0.9548  0.1344
 4797SOL     OW26026   2.719   0.717  12.512  0.0745 -0.3685 -0.1927
 4797SOL    HW126027   2.767   0.674  12.441 -1.1792  3.0107 -3.0980
 4797SOL    HW226028   2.761   0.669  12.583 -0.3806  0.6250  0.7460
 4798SOL     OW26029   0.958   4.644   1.850  0.7530  0.0233 -0.1358
 4798SOL    HW126030   0.913   4.564   1.823 -0.9557 -0.0363  2.8677
 4798SOL    HW226031   1.051   4.619   1.853  0.9653  0.8947  0.6268
 4799SOL     OW26032   4.218   1.469   2.065  0.3461 -0.2067  0.0755
 4799SOL    HW126033   4.170   1.526   2.005 -2.4585 -0.1385  2.3697
 4799SOL    HW226034   4.147   1.435   2.120  0.1804  1.0720  0.6505
 4800SOL     OW26035   3.560   4.464   8.473 -0.3449 -0.4537  0.1819
 4800SOL    HW126036   3.485   4.413   8.443  0.6285 -0.6511 -1.8728
 4800SOL    HW226037   3.507   4.541   8.495 -1.0246 -1.0639  0.6735
 4801SOL     OW26038   3.470   3.111   2.122 -0.0366 -0.8226 -0.4433
 4801SOL    HW126039   3.440   3.047   2.186  0.4252 -0.5104  0.0918
 4801SOL    HW226040   3.524   3.064   2.058  2.4679  1.3047  0.0889
 4802SOL     OW26041   1.164   0.126  10.988  0.2119 -0.3798 -0.1822
 4802SOL    HW126042   1.118   0.059  10.937 -0.4655  1.2774 -1.7373
 4802SOL    HW226043   1.085   0.151  11.036  1.2058  2.5174 -0.0813
 4803SOL     OW26044   4.668   0.516  11.266  0.1551  0.0535 -0.0230
 4803SOL    HW126045   4.691   0.437  11.217  0.8943 -0.9253  1.9030
 4803SOL    HW226046   4.635   0.480  11.349  3.2048  0.3571  1.3335
 4804SOL     OW26047   3.832   1.708   2.498  0.4879  0.6994  0.0130
 4804SOL    HW126048   3.796   1.630   2.539 -1.1301  1.8688  0.8364
 4804SOL    HW226049   3.881   1.748   2.570  2.9544 -0.8254 -0.8451
 4805SOL     OW26050   0.672   1.876   8.182 -0.2206 -0.3319  0.4749
 4805SOL    HW126051   0.655   1.791   8.222  0.7401 -0.7644 -0.0267
 4805SOL    HW226052   0.764   1.859   8.161 -0.5578  1.1573 -2.2546
 4806SOL     OW26053   3.261   3.097   7.275 -0.1521  0.0759  0.2207
 4806SOL    HW126054   3.329   3.164   7.275  0.6998 -0.8083 -2.0764
 4806SOL    HW226055   3.286   3.054   7.357  3.3867  3.0501  0.7035
 4807SOL     OW26056   0.096   0.150   7.424  0.5145  0.4773  0.3099
 4807SOL    HW126057   0.134   0.221   7.373 -0.2965  3.1553  3.3918
 4807SOL    HW226058   0.037   0.113   7.358 -0.4597  1.3639  0.6669
 4808SOL     OW26059   2.577   2.676   3.351  0.0033  0.0013 -0.5513
 4808SOL    HW126060   2.535   2.737   3.411 -0.1819  0.4908 -1.1761
 4808SOL    HW226061   2.557   2.589   3.386  0.7253 -0.6950 -1.8410
 4809SOL     OW26062   0.067   4.404  13.191 -0.1801  0.0762 -0.3314
 4809SOL    HW126063   0.133   4.368  13.131 -0.7931 -0.8978 -0.4175
 4809SOL    HW226064   0.017   4.327  13.215 -1.5052  0.8366 -0.6577
 4810SOL     OW26065   4.720   4.158   5.258 -0.1457  0.5043 -0.3856
 4810SOL    HW126066   0.053   4.119   5.312 -1.8243 -2.2386 -0.2135
 4810SOL    HW226067   0.020   4.246   5.250 -0.6929  0.5406 -2.5288
 4811SOL     OW26068   3.507   1.249   2.943 -0.5821  0.0537 -0.6739
 4811SOL    HW126069   3.423   1.208   2.922 -0.3975 -1.2898  1.1698
 4811SOL    HW226070   3.502   1.260   3.038 -0.9389 -1.9690 -0.4547
 4812SOL     OW26071   3.873   0.304   4.558 -0.0291  0.8564  0.4476
 4812SOL    HW126072   3.817   0.242   4.511  1.1204 -1.2353  1.8213
 4812SOL    HW226073   3.952   0.297   4.505  0.2215 -0.5404  0.9965
 4813SOL     OW26074   1.129   0.458   1.330 -0.2795 -0.4856  0.0853
 4813SOL    HW126075   1.072   0.530   1.359 -2.5317 -0.5751 -4.0886
 4813SOL    HW226076   1.076   0.383   1.354 -1.3482  0.4403  0.6257
 4814SOL     OW26077   1.888   4.066   8.401  0.1693 -0.4972  0.5921
 4814SOL    HW126078   1.921   4.103   8.319  0.7510  0.7033  1.3638
 4814SOL    HW226079   1.927   4.122   8.468 -1.6092  1.6410 -0.1445
 4815SOL     OW26080   3.307   0.667   3.958  0.0772 -0.4225 -0.2968
 4815SOL    HW126081   3.259   0.750   3.963  1.7915  0.5183  0.4186
 4815SOL    HW226082   3.396   0.698   3.943 -0.0058 -0.1332 -0.1994
 4816SOL     OW26083   4.440   2.514   1.696 -0.1416 -0.0993 -0.2726
 4816SOL    HW126084   4.360   2.546   1.739 -0.2006 -0.5119 -0.0794
 4816SOL    HW226085   4.432   2.533   1.603 -1.9349  0.7457  0.0523
 4817SOL     OW26086   0.209   2.644   5.807 -0.2200  0.1122  0.1576
 4817SOL    HW126087   0.226   2.624   5.715 -0.5347 -0.8700  0.3232
 4817SOL    HW226088   0.266   2.719   5.826  0.0777 -0.6174  2.0940
 4818SOL     OW26089   1.564   3.016   6.834  0.3950 -0.1971 -0.6683
 4818SOL    HW126090   1.590   3.107   6.823 -0.6246  0.2311  0.4734
 4818SOL    HW226091   1.522   2.996   6.750 -2.7258  1.9310  0.3849
 4819SOL     OW26092   2.061   2.585   1.903  0.2018 -0.4836  0.7542
 4819SOL    HW126093   2.076   2.652   1.969  3.0874 -0.0190 -0.3774
 4819SOL    HW226094   2.141   2.573   1.851 -1.0394  0.6684 -1.4187
 4820SOL     OW26095   2.361   2.510   2.778  0.4886  0.2455 -0.3951
 4820SOL    HW126096   2.326   2.499   2.867 -0.0619 -2.1809 -0.9268
 4820SOL    HW226097   2.299   2.579   2.754 -0.0815  0.5846  2.0240
 4821SOL     OW26098   3.487   3.261   7.265  0.1411 -0.3539 -0.1525
 4821SOL    HW126099   3.505   3.221   7.350  1.5932 -0.1378 -0.3637
 4821SOL    HW226100   3.502   3.349   7.297 -0.8428 -0.9373  1.9680
 4822SOL     OW26101   4.681   4.583  10.956  0.0799  0.0419 -1.0253
 4822SOL    HW126102   0.015   4.560  10.895  1.2680 -1.2604  0.8126
 4822SOL    HW226103   4.624   4.636  10.900  0.1257  1.1089 -0.0590
 4823SOL     OW26104   1.528   2.227  10.856 -1.5144 -0.5812 -0.0343
 4823SOL    HW126105   1.497   2.183  10.935 -0.4971 -4.9816 -2.0418
 4823SOL    HW226106   1.594   2.160  10.836  0.6831  0.9901  2.0474
 4824SOL     OW26107   3.613   0.623   4.228  0.2490 -0.1236 -0.2301
 4824SOL    HW126108   3.526   0.594   4.198  0.1011  0.2585 -0.1711
 4824SOL    HW226109   3.618   0.707   4.182  0.4390  0.8030  1.5082
 4825SOL     OW26110   4.068   4.227   2.347 -0.0608  0.0462 -0.4573
 4825SOL    HW126111   4.109   4.269   2.272  1.3864 -2.9164 -1.2882
 4825SOL    HW226112   4.077   4.300   2.408  0.6437 -1.4858  1.2636
 4826SOL     OW26113   4.435   4.253   7.234 -0.4408 -0.5667 -0.2568
 4826SOL    HW126114   4.340   4.263   7.238 -0.2550  0.9048  0.2282
 4826SOL    HW226115   4.461   4.308   7.160 -1.3718 -1.4499 -1.2351
 4827SOL     OW26116   1.471   1.904   7.951 -0.4040 -0.2040 -0.2578
 4827SOL    HW126117   1.509   1.865   8.030 -0.9097  0.0812  0.1180
 4827SOL    HW226118   1.403   1.961   7.985  0.8754  1.8247 -1.0586
 4828SOL     OW26119   1.200   2.277   4.160 -0.1130 -0.1739 -0.3408
 4828SOL    HW126120   1.239   2.236   4.237  0.0447 -1.0840 -0.9117
 4828SOL    HW226121   1.132   2.216   4.132  0.9887 -1.0833 -1.0118
 4829SOL     OW26122   3.327   0.075  15.497  0.8727  0.1443  0.6389
 4829SOL    HW126123   3.364   0.019  15.428  1.2229  0.7060  0.3697
 4829SOL    HW226124   3.406   0.123  15.521  0.9712  1.5134 -2.3663
 4830SOL     OW26125   2.474   0.354   0.308  0.5160 -0.0319  0.5586
 4830SOL    HW126126   2.491   0.260   0.307 -0.4440 -0.2245  1.9407
 4830SOL    HW226127   2.565   0.380   0.292  0.1162 -0.0798 -1.7657
 4831SOL     OW26128   3.139   0.368   6.458  0.3672 -0.2562  0.2975
 4831SOL    HW126129   3.108   0.446   6.504  1.1670 -0.1684  0.6878
 4831SOL    HW226130   3.226   0.402   6.439 -0.5046  2.5273  1.3275
 4832SOL     OW26131   4.269   0.937   3.996  0.3478 -0.1986  0.2598
 4832SOL    HW126132   4.346   0.883   4.013 -0.1418 -0.3950  1.7918
 4832SOL    HW226133   4.258   0.970   4.085 -0.2728 -1.2960  0.5876
 4833SOL     OW26134   2.879   4.356  16.830  0.0839 -0.1867 -0.2060
 4833SOL    HW126135   2.928   4.381  16.909 -0.8121 -3.0845  1.2960
 4833SOL    HW226136   2.905   4.265  16.815  0.5032 -0.7885  4.1276
 4834SOL     OW26137   3.578   3.736  14.084 -0.0665 -0.1563  0.0547
 4834SOL    HW126138   3.595   3.821  14.126 -2.5008  0.3184  0.0406
 4834SOL    HW226139   3.567   3.684  14.163  0.7670  0.6815  0.7357
 4835SOL     OW26140   2.058   4.240   8.253  0.4300 -0.2695  0.9698
 4835SOL    HW126141   1.997   4.230   8.180 -0.3195 -0.7514  1.6654
 4835SOL    HW226142   2.051   4.334   8.273 -0.6537  0.0375 -0.8082
 4836SOL     OW26143   4.252   2.633  15.397 -0.2427 -0.5051  0.6747
 4836SOL    HW126144   4.293   2.561  15.348 -1.7667 -0.1410 -1.1579
 4836SOL    HW226145   4.206   2.575  15.458 -0.2038  0.3750  1.5397
 4837SOL     OW26146   0.631   2.351  16.103 -0.7505  0.2302 -0.4770
 4837SOL    HW126147   0.709   2.326  16.152 -0.2471  3.0811  0.1514
 4837SOL    HW226148   0.629   2.447  16.110  0.0101  0.0384  2.4395
 4838SOL     OW26149   0.979   2.418   4.432  0.2114  0.2908  0.0721
 4838SOL    HW126150   1.041   2.486   4.407  0.2591  0.5568  0.9074
 4838SOL    HW226151   0.902   2.469   4.457 -0.4437 -0.7777  0.2426
 4839SOL     OW26152   4.385   2.930  12.565 -0.5216  0.3630 -0.2803
 4839SOL    HW126153   4.312   2.969  12.516  0.0392  0.5779 -0.9494
 4839SOL    HW226154   4.386   2.986  12.643  0.8635 -0.6683  0.4227
 4840SOL     OW26155   4.648   3.408  14.283  0.1130  0.2791  0.2544
 4840SOL    HW126156   4.687   3.494  14.271  0.1828  0.1098 -0.7256
 4840SOL    HW226157   4.628   3.413  14.376  0.2997  0.2499  0.2961
 4841SOL     OW26158   4.694   1.329   9.282  0.0194  0.0205 -0.1338
 4841SOL    HW126159   0.001   1.247   9.306  1.2006  0.7206  0.1628
 4841SOL    HW226160   4.705   1.381   9.362 -0.4169 -0.4969  0.2661
 4842SOL     OW26161   1.504   4.441   3.683  0.3888  1.2835 -0.2835
 4842SOL    HW126162   1.561   4.364   3.681 -0.3803  0.7387 -0.7954
 4842SOL    HW226163   1.446   4.420   3.756 -0.9731 -1.7488 -2.2859
 4843SOL     OW26164   3.832   1.467   4.335  0.2859 -0.3350 -0.1122
 4843SOL    HW126165   3.798   1.537   4.280 -0.3321 -0.1043  0.5592
 4843SOL    HW226166   3.915   1.441   4.293  1.3581  0.0014  1.7922
 4844SOL     OW26167   2.561   2.171   5.296  0.0919  0.0954  0.1863
 4844SOL    HW126168   2.587   2.218   5.376  1.0784  2.0006 -1.2655
 4844SOL    HW226169   2.648   2.139   5.272 -0.9484 -1.2196 -1.8267
 4845SOL     OW26170   3.642   1.605  16.752 -0.5407 -0.1177  0.1465
 4845SOL    HW126171   3.647   1.514  16.781 -3.1475 -0.4351 -0.4125
 4845SOL    HW226172   3.552   1.599  16.719  0.1413 -0.9977 -1.5393
 4846SOL     OW26173   4.174   1.787  15.627  0.0560  0.5805 -0.2806
 4846SOL    HW126174   4.110   1.836  15.679  0.0336 -1.1917  1.3487
 4846SOL    HW226175   4.247   1.779  15.689 -0.3511 -3.1269 -0.2946
 4847SOL     OW26176   0.340   1.162   9.140  0.3226  0.4665 -0.4195
 4847SOL    HW126177   0.325   1.251   9.171 -1.9744 -0.1094  0.0761
 4847SOL    HW226178   0.368   1.129   9.225  0.2212  0.3717 -0.4228
 4848SOL     OW26179   0.850   2.288   3.279  0.2096 -0.1032  0.2457
 4848SOL    HW126180   0.809   2.358   3.329 -0.8841 -1.5288  1.3483
 4848SOL    HW226181   0.914   2.341   3.231 -2.1804  0.6288 -2.0943
 4849SOL     OW26182   0.766   0.646   4.485  0.8935 -0.6660 -0.5086
 4849SOL    HW126183   0.743   0.562   4.445 -2.4421  1.4487 -3.0071
 4849SOL    HW226184   0.735   0.703   4.415 -1.6424  0.0684  1.2075
 4850SOL     OW26185   4.481   4.604  17.237 -0.0840 -0.3407  0.4008
 4850SOL    HW126186   4.401   4.582  17.284 -0.5775 -0.2791 -0.4091
 4850SOL    HW226187   4.462   4.562  17.153  1.6232 -0.4948  0.0801
 4851SOL     OW26188   3.197   1.876   8.584  0.7591 -0.3632 -0.2601
 4851SOL    HW126189   3.129   1.863   8.650  0.4623 -0.0127 -0.5023
 4851SOL    HW226190   3.265   1.822   8.625 -0.7552 -3.0650 -1.2983
 4852SOL     OW26191   0.930   4.164   2.450 -0.2325  0.2148  0.7599
 4852SOL    HW126192   0.957   4.229   2.384  1.2978  0.6373  1.8067
 4852SOL    HW226193   0.950   4.084   2.402 -1.3158 -0.6259  1.7301
 4853SOL     OW26194   1.393   2.040   9.024 -0.6660  0.2007  0.0985
 4853SOL    HW126195   1.413   2.055   9.116  0.6408 -1.3159  0.0609
 4853SOL    HW226196   1.467   2.081   8.979  0.7622 -2.5618 -0.0952
 4854SOL     OW26197   4.013   0.773   6.536  0.0187 -0.3520  0.2901
 4854SOL    HW126198   4.092   0.723   6.514  1.9309  2.6970  0.1841
 4854SOL    HW226199   3.973   0.709   6.594 -1.7095  0.4884  0.0324
 4855SOL     OW26200   4.121   0.129  13.613  0.5118 -0.1464  0.3622
 4855SOL    HW126201   4.168   0.213  13.616  1.7490 -0.7877 -0.7144
 4855SOL    HW226202   4.101   0.108  13.522  0.0996 -0.4072  0.5143
 4856SOL     OW26203   1.815   1.177   2.994 -0.4457  0.1304 -0.1831
 4856SOL    HW126204   1.901   1.217   3.001 -1.1223  1.2729  1.4837
 4856SOL    HW226205   1.820   1.137   2.907  0.6956 -0.1035  0.0005
 4857SOL     OW26206   1.424   1.575   3.947 -0.1031 -0.2712  0.3748
 4857SOL    HW126207   1.432   1.551   3.854  0.2554 -1.5594  0.7309
 4857SOL    HW226208   1.372   1.655   3.942 -0.5331 -0.5731 -0.0094
 4858SOL     OW26209   4.399   4.034   2.263  0.6253 -0.4724 -0.3025
 4858SOL    HW126210   4.450   3.979   2.323  0.7769 -2.4043 -2.2023
 4858SOL    HW226211   4.451   4.015   2.185  0.2181 -2.3875 -0.1044
 4859SOL     OW26212   2.039   1.865   5.922  0.1247  0.3629  0.0546
 4859SOL    HW126213   2.111   1.816   5.962  0.4891  0.2568 -0.7226
 4859SOL    HW226214   2.074   1.951   5.897  0.2913 -0.5066 -2.7466
 4860SOL     OW26215   4.389   2.612   2.809 -0.3093  0.3573  0.5491
 4860SOL    HW126216   4.475   2.640   2.779  0.4613 -1.8905  0.6527
 4860SOL    HW226217   4.354   2.700   2.824 -1.3015  0.1097 -0.3420
 4861SOL     OW26218   1.096   2.558   9.171  0.0414  0.1582 -0.1915
 4861SOL    HW126219   1.094   2.542   9.077  0.8269 -0.0737 -0.1681
 4861SOL    HW226220   1.006   2.564   9.203 -0.1118 -2.1090 -0.1699
 4862SOL     OW26221   1.924   0.810   3.657  0.9702 -0.5671  0.0284
 4862SOL    HW126222   1.919   0.714   3.654  2.0345 -0.7288  3.5495
 4862SOL    HW226223   1.991   0.825   3.590  1.6969  1.2515  1.1693
 4863SOL     OW26224   1.475   3.769   7.594  0.3671  0.3248  0.2005
 4863SOL    HW126225   1.467   3.786   7.500  3.8686  0.6267 -0.0425
 4863SOL    HW226226   1.449   3.856   7.625  1.2932  0.1340  1.4923
 4864SOL     OW26227   1.704   3.420   7.274  0.6312  0.7218 -0.4668
 4864SOL    HW126228   1.687   3.361   7.347  1.7907 -0.1802 -0.9232
 4864SOL    HW226229   1.727   3.356   7.207 -0.4284 -0.4636  0.3071
 4865SOL     OW26230   1.070   0.401   2.489  0.1478  0.7605 -0.4869
 4865SOL    HW126231   1.124   0.479   2.480  0.6426  0.5063  0.3051
 4865SOL    HW226232   1.136   0.335   2.509  0.1676  0.1038 -2.7286
 4866SOL     OW26233   4.185   0.653   4.692  0.0689  0.0481 -0.0829
 4866SOL    HW126234   4.134   0.708   4.632 -0.5522  1.4895  1.7704
 4866SOL    HW226235   4.262   0.704   4.718 -0.7400  0.5927  1.2133
 4867SOL     OW26236   0.832   3.793   8.076 -0.5117  0.3349 -0.6201
 4867SOL    HW126237   0.784   3.753   8.148  1.0477 -3.0767 -1.4976
 4867SOL    HW226238   0.763   3.761   8.018  1.4332 -0.1805 -2.6483
 4868SOL     OW26239   2.863   0.545   7.290 -0.1770 -0.3565 -0.1530
 4868SOL    HW126240   2.874   0.592   7.373 -0.7815  0.3209 -0.4553
 4868SOL    HW226241   2.779   0.512   7.322 -0.6277 -1.7147 -2.7293
 4869SOL     OW26242   2.303   4.195   5.298  0.0158 -0.3469 -0.3713
 4869SOL    HW126243   2.209   4.183   5.288  0.5396 -1.7334 -3.4523
 4869SOL    HW226244   2.309   4.263   5.366 -0.1513  0.2291 -0.9403
 4870SOL     OW26245   1.158   2.306   3.518 -0.6125 -0.3756  0.4202
 4870SOL    HW126246   1.222   2.303   3.447 -1.2358  1.1898 -0.2031
 4870SOL    HW226247   1.086   2.274   3.465 -0.8501 -0.9685  1.1055
 4871SOL     OW26248   4.648   3.845  14.877  0.0121 -0.7324  0.2411
 4871SOL    HW126249   4.714   3.816  14.940  0.6664 -0.0948 -0.1443
 4871SOL    HW226250   4.660   3.940  14.875  1.2236 -0.9088 -0.6036
 4872SOL     OW26251   3.354   3.590   3.379  0.3818  0.6661 -0.1944
 4872SOL    HW126252   3.383   3.595   3.470 -0.0496 -1.7361  0.0747
 4872SOL    HW226253   3.366   3.498   3.356 -0.5637  0.8775 -1.5183
 4873SOL     OW26254   2.545   3.607  16.888 -0.7483 -0.0854 -0.1753
 4873SOL    HW126255   2.515   3.603  16.797  0.4754 -2.3169 -0.4975
 4873SOL    HW226256   2.497   3.532  16.923 -0.0376  0.5297  2.1557
 4874SOL     OW26257   2.437   2.017   6.424 -0.0005  0.2631  0.2422
 4874SOL    HW126258   2.479   1.968   6.494  0.3715 -0.1476 -0.2761
 4874SOL    HW226259   2.386   2.087   6.466 -0.1245 -0.8226  1.8879
 4875SOL     OW26260   0.607   2.552   5.441 -0.2937  0.2474  0.2067
 4875SOL    HW126261   0.701   2.569   5.431  0.1010 -2.8572 -1.1989
 4875SOL    HW226262   0.587   2.550   5.347 -2.0515  0.1950  0.5815
 4876SOL     OW26263   0.326   2.363  15.110 -0.7935 -0.7433  0.1109
 4876SOL    HW126264   0.418   2.386  15.127 -1.6859  1.7257  1.6126
 4876SOL    HW226265   0.303   2.439  15.056 -0.6346 -2.3061 -2.1537
 4877SOL     OW26266   2.939   0.458  10.737  0.1928  0.0919 -0.6391
 4877SOL    HW126267   3.005   0.509  10.689 -1.3741  0.4781 -2.3918
 4877SOL    HW226268   2.984   0.422  10.813 -1.3721 -0.3921  0.0569
 4878SOL     OW26269   0.282   3.658  13.266  0.3509  0.0286 -0.7327
 4878SOL    HW126270   0.325   3.583  13.224 -1.6158 -0.9513 -1.0266
 4878SOL    HW226271   0.348   3.726  13.257  1.1362 -0.6495 -0.1500
 4879SOL     OW26272   0.595   1.303   6.914 -0.1936 -0.0145 -0.0004
 4879SOL    HW126273   0.518   1.347   6.950 -1.0974  0.1013 -2.0662
 4879SOL    HW226274   0.646   1.382   6.898 -1.4766  0.3132 -2.4694
 4880SOL     OW26275   1.643   2.387  15.189 -0.3972  0.2409 -0.2538
 4880SOL    HW126276   1.635   2.413  15.281  0.8856 -0.6265  0.1076
 4880SOL    HW226277   1.571   2.441  15.155  0.7151  3.4233  2.5333
 4881SOL     OW26278   2.724   0.270   7.965  0.0172 -0.0118  0.0812
 4881SOL    HW126279   2.799   0.259   7.906  1.4980 -1.3512  2.2320
 4881SOL    HW226280   2.664   0.323   7.912 -0.1871 -0.2852  0.0395
 4882SOL     OW26281   3.312   4.108   2.460  0.0087  0.0220 -0.4953
 4882SOL    HW126282   3.230   4.104   2.410  0.4446 -0.8413 -1.1430
 4882SOL    HW226283   3.359   4.027   2.439 -2.8713 -2.0362  0.8234
 4883SOL     OW26284   2.556   3.342   7.716  0.1897 -0.1088  0.5676
 4883SOL    HW126285   2.544   3.415   7.655  1.1025  0.5229  1.1352
 4883SOL    HW226286   2.643   3.367   7.748  0.8615 -1.5541 -0.1461
 4884SOL     OW26287   0.288   3.432   3.458 -0.1687  0.0513 -0.2819
 4884SOL    HW126288   0.376   3.468   3.445  0.3599 -1.1558 -0.0335
 4884SOL    HW226289   0.287   3.356   3.400  3.2102 -0.8753  0.8546
 4885SOL     OW26290   2.888   2.105  14.422 -0.0537  0.6244  0.2414
 4885SOL    HW126291   2.855   2.128  14.335  2.5177 -0.3611 -1.0057
 4885SOL    HW226292   2.978   2.108  14.388 -0.5945  1.0010 -1.1268
 4886SOL     OW26293   0.963   1.080  13.518  0.0821 -0.6133  0.0825
 4886SOL    HW126294   0.997   1.047  13.601 -0.1555 -1.5069 -0.1741
 4886SOL    HW226295   1.031   1.131  13.474 -0.9320  1.2942  0.7264
 4887SOL     OW26296   2.498   4.390   2.900 -0.6715 -0.2594 -0.4990
 4887SOL    HW126297   2.566   4.453   2.875  1.4396 -1.9734  0.8877
 4887SOL    HW226298   2.480   4.357   2.812 -1.2084  0.4062 -0.6388
 4888SOL     OW26299   4.700   3.044   5.606 -0.7804  0.0004  0.1717
 4888SOL    HW126300   4.615   3.088   5.615 -1.5666 -1.3560 -0.5839
 4888SOL    HW226301   0.015   3.068   5.683  1.0118 -2.1854 -0.3234
 4889SOL     OW26302   1.305   3.032   1.206  0.5302  0.2741  0.3124
 4889SOL    HW126303   1.377   3.032   1.143 -1.4317 -0.6758 -1.9266
 4889SOL    HW226304   1.348   3.036   1.291 -0.3030  2.2005  0.6604
 4890SOL     OW26305   1.677   2.714  13.667 -0.3972  0.0370  0.0720
 4890SOL    HW126306   1.773   2.708  13.674 -0.4239  0.5317  0.9093
 4890SOL    HW226307   1.648   2.681  13.752 -0.7856  1.3335  0.4474
 4891SOL     OW26308   3.012   0.035   6.166  0.1335 -0.1549 -0.2231
 4891SOL    HW126309   3.022   4.680   6.136  0.6301  0.5889 -2.3053
 4891SOL    HW226310   3.016   0.073   6.079 -0.8726 -0.0567 -0.2261
 4892SOL     OW26311   3.612   3.885   3.740 -0.0175  0.4251 -0.3588
 4892SOL    HW126312   3.614   3.953   3.672 -0.9838  2.7513  1.9523
 4892SOL    HW226313   3.666   3.815   3.703 -1.3129 -1.4547  1.3472
 4893SOL     OW26314   2.437   0.438   6.519  0.3508 -0.0028  0.3383
 4893SOL    HW126315   2.363   0.448   6.579 -0.5313  2.2096 -1.1019
 4893SOL    HW226316   2.385   0.422   6.441  1.8439  0.9228 -0.8427
 4894SOL     OW26317   1.986   3.244   2.004 -0.4003  0.2800  0.0888
 4894SOL    HW126318   2.010   3.159   1.966 -0.0621 -0.0347  0.9976
 4894SOL    HW226319   2.068   3.276   2.043 -0.4382  0.0034  0.4025
 4895SOL     OW26320   4.665   3.337  16.781  0.1916  0.0158 -0.1272
 4895SOL    HW126321   4.691   3.426  16.758  3.1570 -0.0544  2.9958
 4895SOL    HW226322   0.008   3.320  16.832 -0.5532 -3.9428 -0.3291
 4896SOL     OW26323   1.417   2.942   3.489  0.1807 -0.0094  0.4183
 4896SOL    HW126324   1.443   2.864   3.538  0.1354  0.1647  0.7187
 4896SOL    HW226325   1.322   2.932   3.500  0.0027  1.6889  0.3666
 4897SOL     OW26326   4.187   0.005   2.708 -0.1337  0.0093  0.5454
 4897SOL    HW126327   4.259   4.722   2.769  0.4329  0.6816  0.0829
 4897SOL    HW226328   4.159   0.087   2.748  0.2150 -0.9041  2.7070
 4898SOL     OW26329   3.497   1.777   3.178 -0.0255  0.8599 -0.0572
 4898SOL    HW126330   3.518   1.696   3.133 -1.1763 -1.0235  2.7677
 4898SOL    HW226331   3.570   1.833   3.149 -0.2584  0.3016 -1.7155
 4899SOL     OW26332   1.814   1.165   5.420  0.1130  0.3469 -0.2104
 4899SOL    HW126333   1.811   1.227   5.493  1.7789 -0.9342  0.9474
 4899SOL    HW226334   1.904   1.178   5.389  0.2868 -1.0692 -0.3137
 4900SOL     OW26335   0.766   4.046  12.854  0.0936 -0.2937  0.0176
 4900SOL    HW126336   0.846   4.078  12.895  0.3374 -1.0395  0.1166
 4900SOL    HW226337   0.710   4.046  12.932 -0.3290  1.8141 -0.2796
 4901SOL     OW26338   1.776   0.580   7.805 -0.3558 -0.9273  0.1553
 4901SOL    HW126339   1.822   0.613   7.883 -2.8640  1.0050  0.8151
 4901SOL    HW226340   1.755   0.659   7.757  1.2633 -0.8085 -0.3697
 4902SOL     OW26341   3.181   0.082  16.786 -0.4698  0.4293 -0.7741
 4902SOL    HW126342   3.269   0.111  16.810  0.2919 -1.4412 -1.3481
 4902SOL    HW226343   3.135   0.156  16.746 -0.1689  1.0352 -0.0248
 4903SOL     OW26344   2.340   1.274   1.581 -0.4958 -0.1509  0.1843
 4903SOL    HW126345   2.281   1.345   1.609  0.8762  1.4221 -0.9099
 4903SOL    HW226346   2.357   1.230   1.664 -1.2320 -0.8784 -0.0547
 4904SOL     OW26347   2.972   2.455   1.791 -0.0610  0.1185 -0.0549
 4904SOL    HW126348   3.023   2.515   1.846 -1.3830 -1.9152  3.4064
 4904SOL    HW226349   2.918   2.522   1.749 -1.9622  0.3542  2.7410
 4905SOL     OW26350   3.969   1.744   6.221  0.5937  0.1749  0.3247
 4905SOL    HW126351   3.909   1.758   6.295 -1.5416  1.5055 -1.6572
 4905SOL    HW226352   3.975   1.829   6.178  0.6107  0.4397  0.8508
 4906SOL     OW26353   2.046   1.592   8.119  0.2654  0.3754 -0.3247
 4906SOL    HW126354   2.044   1.605   8.214 -0.9039  1.7106 -0.5335
 4906SOL    HW226355   2.128   1.546   8.102  0.3879  0.5103 -0.1017
 4907SOL     OW26356   0.105   4.711  12.638  0.0664 -0.0016  0.1609
 4907SOL    HW126357   0.060   4.630  12.612  0.9500 -0.3934 -0.1233
 4907SOL    HW226358   0.198   4.688  12.640 -0.1600 -1.1713 -1.7039
 4908SOL     OW26359   4.628   0.396   7.349  0.3947 -0.1700  0.1142
 4908SOL    HW126360   4.671   0.480   7.339 -0.1236 -0.2214 -2.5579
 4908SOL    HW226361   4.646   0.347   7.268  2.8697 -2.5133  2.0720
 4909SOL     OW26362   3.662   2.865   8.610  0.0982  0.6373 -0.2092
 4909SOL    HW126363   3.644   2.779   8.574  0.9140  0.6780 -0.6959
 4909SOL    HW226364   3.685   2.837   8.699 -1.6718  0.2950  0.1566
 4910SOL     OW26365   1.635   2.208   4.128  0.1940 -0.6509 -0.1901
 4910SOL    HW126366   1.594   2.229   4.211 -0.0048  1.0862 -0.7239
 4910SOL    HW226367   1.553   2.201   4.080  0.6801 -0.1033 -1.1143
 4911SOL     OW26368   1.922   4.539   8.269 -0.1173  0.2709 -0.2143
 4911SOL    HW126369   1.877   4.609   8.315 -0.9282 -1.1947  1.2179
 4911SOL    HW226370   1.855   4.508   8.209  0.1844 -0.3313 -0.2499
 4912SOL     OW26371   4.227   2.937  16.482  0.2729  0.3254 -0.4925
 4912SOL    HW126372   4.312   2.962  16.520 -2.0352  2.1810  3.4800
 4912SOL    HW226373   4.221   2.853  16.528  0.2162  0.9726  0.6681
 4913SOL     OW26374   2.579   2.085  16.993 -0.0040 -0.1781  0.5094
 4913SOL    HW126375   2.504   2.126  16.949  1.5895 -2.5936 -4.5558
 4913SOL    HW226376   2.626   2.049  16.918 -2.8147  0.7512 -1.7238
 4914SOL     OW26377   3.950   3.746   2.486 -0.0236  0.4606  0.1046
 4914SOL    HW126378   4.017   3.762   2.419 -0.8398 -1.1325 -1.0975
 4914SOL    HW226379   3.897   3.682   2.437  1.2757  0.3640 -1.1677
 4915SOL     OW26380   1.282   1.966   3.544  0.1385  0.3920  0.7327
 4915SOL    HW126381   1.221   1.933   3.478  0.5467 -1.0498  1.0683
 4915SOL    HW226382   1.278   2.060   3.526  0.7542  0.5012  1.1735
 4916SOL     OW26383   0.104   0.153   3.900  0.3439  0.2699 -0.0594
 4916SOL    HW126384   0.059   0.163   3.816  2.2047 -2.1874 -1.3468
 4916SOL    HW226385   0.032   0.175   3.959  0.1887 -1.2246  0.2985
 4917SOL     OW26386   3.973   2.571  16.958 -0.3715 -0.3347  0.3871
 4917SOL    HW126387   3.972   2.477  16.940  0.4161 -0.4052  0.7199
 4917SOL    HW226388   3.932   2.570  17.045  2.1119 -2.9516  1.5199
 4918SOL     OW26389   1.444   0.327   4.157  0.5011 -0.1645 -0.6583
 4918SOL    HW126390   1.537   0.343   4.172  0.9259 -1.3864 -2.0430
 4918SOL    HW226391   1.434   0.375   4.075 -0.5334  1.2282  0.2997
 4919SOL     OW26392   1.984   3.607   1.435  0.3411 -0.0098 -0.2321
 4919SOL    HW126393   1.902   3.657   1.433  0.3339  0.0475  1.4589
 4919SOL    HW226394   1.973   3.549   1.360  2.3612  2.1278 -2.1863
 4920SOL     OW26395   1.809   3.153   5.561  0.6188 -0.6262 -0.7536
 4920SOL    HW126396   1.787   3.239   5.597  0.7255 -1.3681  1.0909
 4920SOL    HW226397   1.787   3.086   5.626 -1.7701  0.1992 -0.6913
 4921SOL     OW26398   1.764   0.438   8.074 -0.6452 -0.0030 -0.3258
 4921SOL    HW126399   1.765   0.395   7.989 -2.4313 -0.1016 -0.2984
 4921SOL    HW226400   1.703   0.382   8.122  0.0707 -1.0095 -0.5930
 4922SOL     OW26401   4.386   1.068   7.893 -0.1647 -0.5170 -0.3485
 4922SOL    HW126402   4.414   1.011   7.965 -1.2986  0.9537  1.2699
 4922SOL    HW226403   4.454   1.135   7.899 -0.1572 -0.4950 -0.7033
 4923SOL     OW26404   3.954   0.221   7.705 -0.2115  0.5361 -0.7603
 4923SOL    HW126405   4.031   0.169   7.728 -0.6957  0.8170  1.4932
 4923SOL    HW226406   3.993   0.293   7.655 -3.2700  1.1074 -2.3499
 4924SOL     OW26407   2.549   0.772   7.265  0.0928  0.4602 -0.2196
 4924SOL    HW126408   2.566   0.692   7.214  2.3135  0.1828  0.9213
 4924SOL    HW226409   2.473   0.746   7.317 -0.2466  0.1927 -0.8523
 4925SOL     OW26410   0.577   0.738   5.941  0.5498  0.0066 -0.2016
 4925SOL    HW126411   0.642   0.668   5.949  1.2215  0.5771 -0.7628
 4925SOL    HW226412   0.587   0.768   5.851  2.6475 -1.4821 -0.4675
 4926SOL     OW26413   1.207   1.031   8.270  0.0914  0.8701 -0.1326
 4926SOL    HW126414   1.154   1.052   8.194  2.8501  1.9643 -1.7862
 4926SOL    HW226415   1.164   0.953   8.303  1.6711  0.1380  0.2194
 4927SOL     OW26416   4.142   4.511   6.611 -0.7829 -0.3787  0.3668
 4927SOL    HW126417   4.213   4.452   6.589 -1.0470  0.0235 -1.5472
 4927SOL    HW226418   4.095   4.509   6.528  1.1241  0.3438 -0.7124
 4928SOL     OW26419   4.241   2.797   7.937  0.1977 -0.0868 -0.0848
 4928SOL    HW126420   4.306   2.767   8.000  0.2096  1.4757  0.6514
 4928SOL    HW226421   4.291   2.827   7.861 -0.4945 -1.5278 -1.1076
 4929SOL     OW26422   1.439   2.374   2.203  0.4960 -0.2688 -0.1735
 4929SOL    HW126423   1.450   2.466   2.227  1.5020 -0.3941 -0.1399
 4929SOL    HW226424   1.355   2.357   2.247 -0.2249 -0.3210 -1.5778
 4930SOL     OW26425   2.584   0.987   8.010 -0.3633 -0.0484  0.2485
 4930SOL    HW126426   2.671   1.017   7.985 -0.1784 -1.4621 -0.8130
 4930SOL    HW226427   2.559   0.948   7.926  1.3847  1.6275 -1.0442
 4931SOL     OW26428   4.110   2.116   9.079 -0.1297  0.6194 -0.4582
 4931SOL    HW126429   4.142   2.093   8.991  0.7389  0.5669 -0.1312
 4931SOL    HW226430   4.016   2.121   9.060  0.2111  1.8586 -1.8406
 4932SOL     OW26431   4.284   4.046   5.966 -0.4166 -0.0037 -0.1073
 4932SOL    HW126432   4.339   4.023   6.041 -0.1035 -2.2735 -1.0427
 4932SOL    HW226433   4.351   4.030   5.900  1.2157  2.2671  0.9799
 4933SOL     OW26434   2.349   2.831  14.418 -0.3542  0.0589 -0.0455
 4933SOL    HW126435   2.404   2.757  14.442  1.2153  0.3239 -2.8108
 4933SOL    HW226436   2.346   2.895  14.489 -0.7999  0.5061 -0.4598
 4934SOL     OW26437   2.763   3.284   4.285  0.1315  0.2092 -0.3691
 4934SOL    HW126438   2.761   3.305   4.378  0.2786  0.6049 -0.4559
 4934SOL    HW226439   2.734   3.360   4.235  0.7882  0.0042 -1.0614
 4935SOL     OW26440   2.296   3.499   2.869  0.2745  0.0728 -0.2073
 4935SOL    HW126441   2.266   3.588   2.852  0.6542  0.3584  0.6286
 4935SOL    HW226442   2.333   3.508   2.957 -0.3232  3.2754 -0.2783
 4936SOL     OW26443   1.503   4.243   3.097 -0.0327 -0.2028 -0.5079
 4936SOL    HW126444   1.486   4.279   3.010 -1.1996  1.6375  0.4897
 4936SOL    HW226445   1.465   4.316   3.146  0.1831 -0.9889  0.8162
 4937SOL     OW26446   0.796   2.475   6.405 -0.5833 -0.4536 -0.5849
 4937SOL    HW126447   0.875   2.491   6.456  0.3833 -0.0515 -2.2154
 4937SOL    HW226448   0.833   2.404   6.354  3.9020  1.2448  0.2580
 4938SOL     OW26449   3.572   4.701   5.601  0.3818 -0.7874 -0.1102
 4938SOL    HW126450   3.567   0.061   5.598 -0.2988 -0.8386 -0.7309
 4938SOL    HW226451   3.607   4.687   5.689 -1.6795 -0.7532  0.7177
 4939SOL     OW26452   3.017   3.233  10.980 -0.7717  0.0123  0.6302
 4939SOL    HW126453   3.000   3.263  10.890 -0.5619  0.3606  0.7078
 4939SOL    HW226454   2.933   3.195  11.004 -0.4108 -0.8711  0.4943
 4940SOL     OW26455   4.337   4.335   2.369  0.5433 -0.0799  0.2635
 4940SOL    HW126456   4.419   4.381   2.351 -0.4033  0.7943 -1.9009
 4940SOL    HW226457   4.348   4.245   2.338 -2.8748 -0.4194 -0.0183
 4941SOL     OW26458   4.158   2.384  15.137 -0.3864  0.3538  0.2082
 4941SOL    HW126459   4.247   2.415  15.155 -0.1977 -0.8440  1.3316
 4941SOL    HW226460   4.125   2.358  15.223 -2.7795  4.0664  0.3793
 4942SOL     OW26461   1.175   3.688   8.341 -0.2151  0.0278 -0.2888
 4942SOL    HW126462   1.113   3.617   8.322 -0.6009  0.2572  0.1231
 4942SOL    HW226463   1.216   3.653   8.420  0.1866  2.8759  0.7367
 4943SOL     OW26464   1.396   3.988   2.950 -0.1232 -0.2273 -0.3506
 4943SOL    HW126465   1.479   3.953   2.985 -1.0436  1.3167  3.2896
 4943SOL    HW226466   1.383   4.060   3.011  0.6411 -0.6101  0.2708
 4944SOL     OW26467   3.066   1.781   8.801  0.0743 -0.2414  0.4848
 4944SOL    HW126468   2.977   1.815   8.790 -0.5649 -1.3731  2.1996
 4944SOL    HW226469   3.089   1.804   8.891  0.1979  1.3681  0.0413
 4945SOL     OW26470   3.444   4.405   7.583  0.1730  0.0736 -0.1447
 4945SOL    HW126471   3.476   4.490   7.554 -2.6281  0.2090 -2.7942
 4945SOL    HW226472   3.462   4.417   7.677 -0.4679 -0.9358  0.1099
 4946SOL     OW26473   2.270   4.310   9.258  0.4028 -0.2714 -0.6475
 4946SOL    HW126474   2.313   4.258   9.325 -0.3664  2.0371  1.6236
 4946SOL    HW226475   2.274   4.241   9.191 -0.6072  2.0399 -3.0854
 4947SOL     OW26476   1.942   0.365   2.767 -0.2877  0.2373 -0.4888
 4947SOL    HW126477   1.985   0.331   2.689  1.5893  1.9511 -0.2093
 4947SOL    HW226478   1.850   0.349   2.744 -0.3599  0.2831 -0.2364
 4948SOL     OW26479   1.659   1.723   3.972  0.7160  0.2267  0.6737
 4948SOL    HW126480   1.608   1.801   3.948 -1.0057 -1.4097 -1.0774
 4948SOL    HW226481   1.595   1.669   4.018 -0.4962 -0.1894 -1.4845
 4949SOL     OW26482   2.526   1.588   4.252 -0.2563 -0.2466 -0.4767
 4949SOL    HW126483   2.616   1.557   4.258  0.2381  0.9819 -1.3542
 4949SOL    HW226484   2.538   1.660   4.189  1.0977  0.8506  1.0270
 4950SOL     OW26485   2.858   4.693   7.449  0.3208 -0.1109 -0.5843
 4950SOL    HW126486   2.915   4.625   7.483 -1.0474 -1.4125 -0.8927
 4950SOL    HW226487   2.815   4.655   7.373 -0.5068  0.8349 -0.5876
 4951SOL     OW26488   1.104   4.307   5.439 -0.1148  0.3426  0.6821
 4951SOL    HW126489   1.130   4.216   5.423  0.3441  0.6921 -0.5824
 4951SOL    HW226490   1.012   4.293   5.461  0.4166 -3.5286  0.3767
 4952SOL     OW26491   4.520   1.436   5.595  0.2415 -0.2866 -0.1211
 4952SOL    HW126492   4.465   1.499   5.644  1.1803  0.7996 -0.4604
 4952SOL    HW226493   4.558   1.494   5.529  1.5262 -0.8321  0.1466
 4953SOL     OW26494   3.245   0.149   5.692  0.8380 -0.2243 -0.5420
 4953SOL    HW126495   3.242   0.067   5.741  1.8812 -1.0957 -1.9086
 4953SOL    HW226496   3.246   0.216   5.760 -1.2121  0.4560 -1.1567
 4954SOL     OW26497   3.347   3.285   3.270  0.2112 -0.3400  0.6404
 4954SOL    HW126498   3.253   3.282   3.250  0.5202  0.9147 -0.9535
 4954SOL    HW226499   3.372   3.192   3.270  0.2327 -0.3467  2.4438
 4955SOL     OW26500   4.705   0.355   2.328  0.1860 -0.3875  0.1526
 4955SOL    HW126501   4.722   0.363   2.234 -2.3715  0.0145 -0.2785
 4955SOL    HW226502   4.681   0.446   2.344  0.4238 -0.2104 -0.5009
 4956SOL     OW26503   4.472   1.895  12.408  0.4181  0.6840 -0.7974
 4956SOL    HW126504   4.436   1.812  12.379  0.5432  0.2007  0.4395
 4956SOL    HW226505   4.547   1.864  12.459 -1.0882 -0.6449  0.5773
 4957SOL     OW26506   0.644   4.065  16.430 -0.2334 -0.4080 -0.5786
 4957SOL    HW126507   0.571   4.069  16.369 -1.5688  0.5785  1.0765
 4957SOL    HW226508   0.647   3.970  16.442 -0.5378 -0.2854  0.4718
 4958SOL     OW26509   4.650   1.753   7.947  0.0631  0.3014  0.9786
 4958SOL    HW126510   0.002   1.717   7.938 -1.2768 -2.3349 -1.5476
 4958SOL    HW226511   4.603   1.726   7.868  0.7865  0.6968  0.4107
 4959SOL     OW26512   3.751   0.307  10.274  0.7624 -0.2852  0.1949
 4959SOL    HW126513   3.782   0.231  10.224 -0.0353 -0.2595 -0.3514
 4959SOL    HW226514   3.671   0.268  10.310 -0.3010  0.1961 -1.6238
 4960SOL     OW26515   1.180   0.954   7.077 -0.9491  0.2452  0.3181
 4960SOL    HW126516   1.104   0.913   7.119 -0.4065 -1.7324 -0.5855
 4960SOL    HW226517   1.145   1.042   7.064 -0.2285  0.4864  0.0402
 4961SOL     OW26518   0.897   0.522   1.470 -0.2354  0.5566  0.3058
 4961SOL    HW126519   0.890   0.582   1.395 -1.4161 -0.2182 -0.2198
 4961SOL    HW226520   0.810   0.482   1.474 -0.1872  0.3915 -0.3221
 4962SOL     OW26521   1.376   3.212   8.924  0.1573 -0.0720 -0.6624
 4962SOL    HW126522   1.402   3.124   8.950 -0.2990  0.7168  2.4401
 4962SOL    HW226523   1.284   3.200   8.948 -0.0231  0.5508 -1.0254
 4963SOL     OW26524   3.272   3.546   6.956 -0.2698 -0.0807 -0.0894
 4963SOL    HW126525   3.319   3.504   6.884  0.0919 -1.0069  0.6865
 4963SOL    HW226526   3.230   3.469   6.993 -2.4164  1.4962  0.7436
 4964SOL     OW26527   1.972   3.536   6.858 -0.2001 -0.3716 -0.4533
 4964SOL    HW126528   1.998   3.621   6.822  2.8044 -0.9466  0.3318
 4964SOL    HW226529   1.909   3.559   6.926  0.7960 -3.0394  1.4041
 4965SOL     OW26530   1.033   0.663   7.808  0.8128  0.4480  0.2063
 4965SOL    HW126531   1.058   0.747   7.846  0.7655  0.5700 -0.0381
 4965SOL    HW226532   1.062   0.604   7.878 -1.5616 -2.9082 -1.6167
 4966SOL     OW26533   1.144   3.916   4.626  0.0833 -0.7924 -0.8036
 4966SOL    HW126534   1.227   3.911   4.578  1.1604  0.0793  0.9944
 4966SOL    HW226535   1.125   4.008   4.609  1.9467 -0.1294  0.7113
 4967SOL     OW26536   2.876   0.766  16.808  0.3501  0.5322 -0.8380
 4967SOL    HW126537   2.911   0.783  16.895  0.0677  1.9772 -1.0108
 4967SOL    HW226538   2.829   0.846  16.785 -2.2480 -0.5850  0.6205
 4968SOL     OW26539   0.814   1.910  17.499  0.0809 -0.2616 -0.1511
 4968SOL    HW126540   0.778   1.902  17.411  0.2157  1.1843 -0.3448
 4968SOL    HW226541   0.856   1.825  17.512 -1.4931 -1.3899 -2.4826
 4969SOL     OW26542   2.581   2.702  13.433  0.3771 -0.3813  0.1984
 4969SOL    HW126543   2.522   2.771  13.405  2.5814  2.9825  3.8978
 4969SOL    HW226544   2.525   2.626  13.448  0.9407 -1.0146 -0.8748
 4970SOL     OW26545   1.906   3.245   4.773  0.3495  0.1978  0.3012
 4970SOL    HW126546   1.895   3.256   4.679 -1.0050 -0.6211  0.3774
 4970SOL    HW226547   1.926   3.333   4.805  0.3900  0.6543 -1.0004
 4971SOL     OW26548   3.119   1.520   9.053  0.7996 -0.7354 -0.2546
 4971SOL    HW126549   3.126   1.614   9.041 -0.9146 -0.9584 -3.1391
 4971SOL    HW226550   3.206   1.493   9.025  0.5120  0.1412 -1.9969
 4972SOL     OW26551   0.720   0.095   9.268  0.3539 -0.3728 -0.3907
 4972SOL    HW126552   0.663   0.020   9.254  0.4330 -0.5050 -0.0070
 4972SOL    HW226553   0.654   0.165   9.268  1.2667  0.5000  0.0234
 4973SOL     OW26554   3.088   3.655  12.577 -0.0690 -0.0474 -0.1989
 4973SOL    HW126555   3.147   3.607  12.518  1.0023 -1.2683  1.8961
 4973SOL    HW226556   3.119   3.626  12.662 -0.5917 -0.6939 -0.2288
 4974SOL     OW26557   2.401   4.085   4.323  0.2284 -0.5825  0.4346
 4974SOL    HW126558   2.408   4.142   4.246  0.6117 -0.9027  0.2287
 4974SOL    HW226559   2.315   4.110   4.357 -0.7852 -1.7449 -1.2883
 4975SOL     OW26560   3.817   1.746   5.272 -0.1666 -0.0993  0.0995
 4975SOL    HW126561   3.872   1.672   5.244  0.5969 -0.3866  2.3215
 4975SOL    HW226562   3.733   1.728   5.231  0.2360  1.2877 -1.3268
 4976SOL     OW26563   2.554   4.149  13.478 -0.0433 -0.0546 -0.2969
 4976SOL    HW126564   2.581   4.065  13.439 -0.6546  0.3942 -1.7127
 4976SOL    HW226565   2.636   4.182  13.515  0.1294 -0.9351  0.1116
 4977SOL     OW26566   3.332   2.095   8.504 -0.1760  0.1528 -0.1921
 4977SOL    HW126567   3.411   2.045   8.485  0.6137  1.1941  0.3901
 4977SOL    HW226568   3.273   2.026   8.536 -0.0560  0.1076 -0.0713
 4978SOL     OW26569   2.747   4.613   6.793 -0.1020 -0.2566  0.1051
 4978SOL    HW126570   2.693   4.561   6.733 -0.2693 -0.4074  0.3849
 4978SOL    HW226571   2.751   4.701   6.757  0.9346  0.2538  1.4563
 4979SOL     OW26572   3.975   4.103   2.682 -0.3369 -0.0939 -0.0938
 4979SOL    HW126573   4.045   4.161   2.711 -0.7488  0.7670 -0.7936
 4979SOL    HW226574   3.972   4.038   2.752 -1.8551 -0.7425 -0.7516
 4980SOL     OW26575   1.894   3.815   6.788  0.2865  0.1326  0.1517
 4980SOL    HW126576   1.853   3.898   6.811  3.0658  0.9958  1.9177
 4980SOL    HW226577   1.960   3.831   6.721 -1.3612  0.6822 -1.3358
 4981SOL     OW26578   3.092   1.862   4.285 -0.0489 -0.2700  0.4013
 4981SOL    HW126579   3.156   1.919   4.243 -0.2773 -0.5237 -0.2874
 4981SOL    HW226580   3.042   1.836   4.208  0.3431 -2.1363  0.7749
 4982SOL     OW26581   2.758   2.557  13.803 -0.0060 -0.8742  0.0864
 4982SOL    HW126582   2.794   2.642  13.776 -0.3817 -0.8018 -0.1769
 4982SOL    HW226583   2.668   2.569  13.776 -0.0865 -1.6187  0.0372
 4983SOL     OW26584   3.822   4.107  12.130 -0.0909 -0.5168  0.1693
 4983SOL    HW126585   3.910   4.072  12.112  1.1384  2.0326  1.2532
 4983SOL    HW226586   3.824   4.102  12.226  1.0350  2.1569  0.2798
 4984SOL     OW26587   2.890   2.946   4.111 -0.6478  0.4559  0.3695
 4984SOL    HW126588   2.968   2.898   4.139  0.4024  2.2308  0.4915
 4984SOL    HW226589   2.922   3.036   4.122  1.8881 -0.3792 -0.1153
 4985SOL     OW26590   1.508   4.731   7.615  0.1146 -0.3402 -0.5829
 4985SOL    HW126591   1.503   0.083   7.578  1.1060  0.3715  0.9716
 4985SOL    HW226592   1.467   0.006   7.701 -0.4052 -2.6786 -0.5406
 4986SOL     OW26593   0.704   1.087   8.164 -0.2718 -0.7785  0.2080
 4986SOL    HW126594   0.670   1.012   8.213  0.4506 -0.2308  1.5290
 4986SOL    HW226595   0.666   1.066   8.078 -1.4484 -1.0484  0.7921
 4987SOL     OW26596   3.288   2.398   8.438 -0.2164 -0.4925  0.3580
 4987SOL    HW126597   3.293   2.303   8.440 -1.7842 -0.6357 -2.1235
 4987SOL    HW226598   3.270   2.420   8.347  2.9728  0.2364 -0.0956
 4988SOL     OW26599   3.982   2.619  12.782  0.0691 -0.0266  0.0780
 4988SOL    HW126600   3.938   2.594  12.701 -0.4186  0.3038  0.2348
 4988SOL    HW226601   3.914   2.628  12.850 -0.7462 -1.6063 -0.5313
 4989SOL     OW26602   3.772   1.592   0.248  0.0614  0.1764 -0.0712
 4989SOL    HW126603   3.795   1.542   0.326  0.4224  0.1508 -0.1927
 4989SOL    HW226604   3.736   1.521   0.194 -2.8260 -0.6040  2.9062
 4990SOL     OW26605   4.460   0.857   8.789 -0.1459  0.1626 -0.3010
 4990SOL    HW126606   4.495   0.941   8.818  1.3421 -1.6253  3.1149
 4990SOL    HW226607   4.542   0.814   8.764  1.4554  1.7205  2.1851
 4991SOL     OW26608   2.833   2.185   5.221 -0.0406  0.0211  0.3314
 4991SOL    HW126609   2.887   2.206   5.296  0.2922  0.8288 -0.1348
 4991SOL    HW226610   2.899   2.186   5.151 -0.8114  0.2291 -0.3902
 4992SOL     OW26611   0.675   3.536   3.046  0.1382 -0.4391 -0.0372
 4992SOL    HW126612   0.685   3.532   2.951  1.2910  0.7020  0.0309
 4992SOL    HW226613   0.590   3.492   3.048 -1.2541  2.2240 -0.3745
 4993SOL     OW26614   4.659   0.946   5.903 -0.5182 -0.5584  0.0522
 4993SOL    HW126615   4.724   0.884   5.936  1.1577  2.1743  1.8690
 4993SOL    HW226616   4.629   0.896   5.826  1.6294 -1.9449  0.1243
 4994SOL     OW26617   3.352   4.661   8.550  0.0889  0.2109 -0.1304
 4994SOL    HW126618   3.266   4.620   8.555 -0.1851  0.5159 -2.1422
 4994SOL    HW226619   3.354   4.705   8.465 -2.6732  0.3411 -0.1326
 4995SOL     OW26620   0.624   2.957   5.377  0.2363 -0.0544 -0.6381
 4995SOL    HW126621   0.637   3.028   5.314  1.7236  1.8723  1.8210
 4995SOL    HW226622   0.546   2.923   5.332  1.0692  0.5503 -2.5133
 4996SOL     OW26623   3.040   2.399  15.924 -0.7585  0.2253 -0.5154
 4996SOL    HW126624   3.091   2.318  15.928 -0.8989 -0.0050 -3.1815
 4996SOL    HW226625   3.009   2.410  16.014  2.0800 -4.1637  0.9990
 4997SOL     OW26626   3.588   0.666   3.924 -0.3992  0.4417 -0.5943
 4997SOL    HW126627   3.664   0.623   3.962  1.1322  1.6931 -2.2087
 4997SOL    HW226628   3.635   0.746   3.898  1.7970 -0.7958 -0.3678
 4998SOL     OW26629   2.664   2.323  16.434 -0.3153  0.7778 -0.3409
 4998SOL    HW126630   2.719   2.401  16.438 -2.8240  2.3835  2.2253
 4998SOL    HW226631   2.632   2.308  16.523 -0.7179 -1.6588 -0.8752
 4999SOL     OW26632   0.565   4.031   3.063  0.4000  0.3007 -0.3576
 4999SOL    HW126633   0.550   3.946   3.022 -0.1018 -0.1149  0.6931
 4999SOL    HW226634   0.473   4.056   3.073 -0.0209 -0.7457 -1.5240
 5000SOL     OW26635   0.004   0.398  10.034  0.2498  0.7133 -0.6128
 5000SOL    HW126636   4.673   0.397   9.966 -1.0654 -0.2762  0.7020
 5000SOL    HW226637   0.038   0.308  10.030 -2.1926 -0.1806 -1.4732
 5001SOL     OW26638   0.460   0.870   9.204 -0.5002  0.2246 -0.3891
 5001SOL    HW126639   0.489   0.849   9.115 -0.4534  0.3057 -0.3927
 5001SOL    HW226640   0.373   0.904   9.183 -0.5984 -0.1580 -0.6029
 5002SOL     OW26641   2.782   1.017   9.855  0.1745 -1.2061  0.1854
 5002SOL    HW126642   2.795   1.111   9.864  0.6646 -1.1791 -0.7943
 5002SOL    HW226643   2.872   0.991   9.838  0.9574  1.3602  0.3638
 5003SOL     OW26644   3.971   2.585  13.425  0.3069  0.5502 -0.0593
 5003SOL    HW126645   4.034   2.577  13.353  0.2876  0.8285 -0.1085
 5003SOL    HW226646   4.025   2.629  13.490 -0.8206  2.1003 -0.1788
 5004SOL     OW26647   2.902   3.359   2.544 -0.5900 -0.1576  0.2440
 5004SOL    HW126648   2.981   3.392   2.587 -0.2809 -1.8336  0.9233
 5004SOL    HW226649   2.901   3.426   2.475 -2.2497 -1.5840 -1.1051
 5005SOL     OW26650   1.280   0.121   5.345  0.5699 -0.2694  0.0547
 5005SOL    HW126651   1.233   0.145   5.425 -0.4842 -1.3651 -0.2401
 5005SOL    HW226652   1.203   0.081   5.304  1.1006  0.3323 -1.5209
 5006SOL     OW26653   1.208   0.339   6.854  0.8827 -0.2675  0.1104
 5006SOL    HW126654   1.162   0.383   6.783  3.5169  1.8434 -0.2662
 5006SOL    HW226655   1.171   0.382   6.931 -0.2719 -0.8073 -0.1444
 5007SOL     OW26656   4.649   4.664   7.328  0.2264 -0.4486 -0.7058
 5007SOL    HW126657   4.624   4.581   7.370  2.0281 -1.3413 -1.3608
 5007SOL    HW226658   4.570   4.714   7.348  1.3686  0.7995  0.7454
 5008SOL     OW26659   0.564   1.352  12.356 -0.3049  0.3934 -0.5939
 5008SOL    HW126660   0.603   1.351  12.443 -0.1116 -1.4343 -0.7138
 5008SOL    HW226661   0.628   1.307  12.301  0.1302  0.6938 -0.3378
 5009SOL     OW26662   2.376   4.650  12.110 -0.3017  0.5644  0.3160
 5009SOL    HW126663   2.446   4.620  12.167  2.0816  0.4469 -2.6507
 5009SOL    HW226664   2.329   4.568  12.093  0.1688  0.5156 -0.7660
 5010SOL     OW26665   1.891   0.382   5.441 -0.4005 -0.6105 -0.1593
 5010SOL    HW126666   1.955   0.364   5.509 -1.2381 -1.3675  0.4359
 5010SOL    HW226667   1.863   0.293   5.419  0.8669 -1.3919  1.4199
 5011SOL     OW26668   1.081   1.627   4.090  0.1385 -0.1642 -0.1620
 5011SOL    HW126669   1.137   1.572   4.145 -0.0729 -1.8986 -1.7050
 5011SOL    HW226670   1.075   1.578   4.008 -0.8110 -1.5558  0.7512
 5012SOL     OW26671   3.086   1.368   6.885 -0.0430  0.5149 -0.1635
 5012SOL    HW126672   3.135   1.443   6.850 -0.6525  0.4342 -1.1772
 5012SOL    HW226673   3.014   1.405   6.936 -0.0338 -0.2114  0.3769
 5013SOL     OW26674   1.684   3.087  14.619 -0.1851  0.2101 -0.1208
 5013SOL    HW126675   1.610   3.036  14.588 -1.4180  2.5159 -0.9696
 5013SOL    HW226676   1.752   3.072  14.553  0.6385  0.1398  0.7434
 5014SOL     OW26677   2.983   3.082   6.061 -0.4281  0.2746 -0.6650
 5014SOL    HW126678   3.039   3.064   5.986  2.7001  2.2644  1.2062
 5014SOL    HW226679   3.022   3.163   6.093  2.4464 -0.4237 -2.4037
 5015SOL     OW26680   0.609   3.321   5.625 -0.4026  0.1432 -0.0304
 5015SOL    HW126681   0.673   3.260   5.588 -2.3639 -1.8505 -0.1205
 5015SOL    HW226682   0.522   3.294   5.596  0.1084 -0.5839 -0.9211
 5016SOL     OW26683   3.793   2.975   3.299 -0.1684 -0.3414  0.4180
 5016SOL    HW126684   3.877   3.022   3.295  0.8298 -2.2500 -1.0310
 5016SOL    HW226685   3.819   2.896   3.346 -0.6806 -1.4897 -1.2179
 5017SOL     OW26686   3.585   2.682   1.947  0.4167 -0.0852  0.2223
 5017SOL    HW126687   3.655   2.676   1.882  1.3657  0.6474  1.1804
 5017SOL    HW226688   3.560   2.591   1.961  0.5061 -0.1183  0.1665
 5018SOL     OW26689   4.598   4.254   8.026 -0.2691 -0.3209 -0.4180
 5018SOL    HW126690   4.523   4.195   8.016 -0.6772  0.4177 -1.7272
 5018SOL    HW226691   4.560   4.316   8.089  0.1493 -1.4729  0.9798
 5019SOL     OW26692   0.671   2.567  11.466 -0.2886 -0.4379 -0.0335
 5019SOL    HW126693   0.741   2.535  11.524  0.7104  0.1636 -0.9000
 5019SOL    HW226694   0.605   2.605  11.523  0.5722  0.0221  0.6717
 5020SOL     OW26695   2.031   0.491   4.103 -0.1198  0.3833 -0.2937
 5020SOL    HW126696   2.030   0.530   4.191 -0.5368  1.3277 -0.7209
 5020SOL    HW226697   1.982   0.408   4.109 -0.7349  0.6726 -1.2707
 5021SOL     OW26698   4.130   3.952   7.343  0.3202 -0.2597 -0.1356
 5021SOL    HW126699   4.191   3.882   7.322 -0.0349 -0.6455  0.1273
 5021SOL    HW226700   4.061   3.929   7.281  0.1380 -0.1790  0.0344
 5022SOL     OW26701   2.360   0.819   8.167  0.4319  0.1229  0.4798
 5022SOL    HW126702   2.347   0.907   8.202 -1.7985 -0.5950  1.4605
 5022SOL    HW226703   2.432   0.841   8.109 -1.9724 -1.0467 -2.9029
 5023SOL     OW26704   1.326   0.727   1.629  0.0307 -0.3268 -0.3543
 5023SOL    HW126705   1.321   0.799   1.565  0.3752 -1.3429 -1.5294
 5023SOL    HW226706   1.406   0.681   1.604  0.2480  0.0918 -0.4322
 5024SOL     OW26707   1.748   1.113   2.328 -0.1055  0.4632  0.3268
 5024SOL    HW126708   1.794   1.161   2.397  0.6893 -0.9596  0.7924
 5024SOL    HW226709   1.806   1.036   2.328  0.9108  1.2334  0.5597
 5025SOL     OW26710   4.591   2.890   8.224  0.3126  0.1873  0.1251
 5025SOL    HW126711   4.636   2.872   8.306 -1.0169 -0.3096  0.7477
 5025SOL    HW226712   4.542   2.810   8.204  0.9333  0.3534 -2.1245
 5026SOL     OW26713   3.864   1.041  16.104  0.3088 -0.0897  0.4095
 5026SOL    HW126714   3.898   0.984  16.173  2.5798 -1.8275 -2.0731
 5026SOL    HW226715   3.944   1.089  16.083 -0.9410  1.4124 -0.9026
 5027SOL     OW26716   1.884   3.448   5.106 -0.0887 -0.2605 -0.0975
 5027SOL    HW126717   1.866   3.400   5.187 -0.0965 -2.2326 -1.2604
 5027SOL    HW226718   1.978   3.429   5.102 -0.0021 -0.0036  0.6812
 5028SOL     OW26719   3.159   4.454   5.069  0.0120  0.3666 -0.3465
 5028SOL    HW126720   3.196   4.409   4.993 -2.1049  0.3860 -1.3959
 5028SOL    HW226721   3.239   4.490   5.106 -0.3455  0.6357  0.1615
 5029SOL     OW26722   3.152   0.229   8.337  0.0759 -0.2946 -0.1729
 5029SOL    HW126723   3.214   0.157   8.324  0.3944 -0.1124  0.3375
 5029SOL    HW226724   3.203   0.304   8.305  1.2541 -2.0054 -2.3098
 5030SOL     OW26725   3.431   3.521   1.532  0.4154 -0.5034 -0.8102
 5030SOL    HW126726   3.480   3.571   1.466 -0.7434  0.8168 -0.6588
 5030SOL    HW226727   3.488   3.446   1.548 -0.6788 -0.8588  1.3617
 5031SOL     OW26728   0.865   0.141   2.945  0.0739 -0.0234 -0.0823
 5031SOL    HW126729   0.843   0.110   3.032 -0.0627  0.2768 -0.0090
 5031SOL    HW226730   0.897   0.059   2.908 -0.5218 -0.8332  1.1956
 5032SOL     OW26731   4.597   3.246   2.857  1.1489 -0.3815  0.4090
 5032SOL    HW126732   4.648   3.183   2.908  2.5334 -0.3733 -0.9703
 5032SOL    HW226733   4.533   3.276   2.922  1.0391 -2.7061  1.3612
 5033SOL     OW26734   1.903   3.448   4.351  0.0917 -0.0883  0.6961
 5033SOL    HW126735   1.993   3.459   4.320  0.3269 -0.5235  1.2267
 5033SOL    HW226736   1.856   3.468   4.270 -0.9097 -1.3961  0.9634
 5034SOL     OW26737   4.425   0.100   7.885  0.0713  0.3041  0.2187
 5034SOL    HW126738   4.413   0.191   7.912  1.3751  0.2561  0.9506
 5034SOL    HW226739   4.508   0.116   7.841 -0.1572 -1.5854 -0.8858
 5035SOL     OW26740   3.252   0.279   4.196 -0.0050 -0.3845  0.6051
 5035SOL    HW126741   3.160   0.264   4.173  0.5045  0.1946 -1.7626
 5035SOL    HW226742   3.303   0.222   4.138 -2.1491 -0.2454 -1.4301
 5036SOL     OW26743   1.859   1.057   7.472  0.8545  0.8908  0.5061
 5036SOL    HW126744   1.867   1.056   7.568  1.0424  1.1902  0.4948
 5036SOL    HW226745   1.928   0.995   7.451  1.5969  1.7541  0.4017
 5037SOL     OW26746   0.203   0.970   4.471 -0.1804  0.8177 -0.4739
 5037SOL    HW126747   0.191   0.924   4.388  0.4964 -1.3192  0.6275
 5037SOL    HW226748   0.168   1.057   4.450 -1.8347  0.5748  1.3564
 5038SOL     OW26749   0.763   1.042   6.107  0.0756 -0.1080 -0.2077
 5038SOL    HW126750   0.724   1.035   6.020  0.6626  0.3281 -0.5043
 5038SOL    HW226751   0.746   0.954   6.141 -2.2923  0.2814 -0.3475
 5039SOL     OW26752   0.551   4.015   7.182  0.0608  0.1095 -0.4072
 5039SOL    HW126753   0.533   3.935   7.133 -0.8499  0.9259 -1.4070
 5039SOL    HW226754   0.470   4.064   7.168 -1.9687 -2.8126  1.0875
 5040SOL     OW26755   0.119   3.460   5.928 -0.4676 -0.0975  0.0943
 5040SOL    HW126756   0.153   3.500   6.008 -2.8666  2.9567 -0.4194
 5040SOL    HW226757   0.076   3.377   5.950 -0.9875 -0.3785 -1.9881
 5041SOL     OW26758   1.943   1.444   7.881  0.0925 -0.6094 -0.1822
 5041SOL    HW126759   1.872   1.446   7.945  2.5500 -0.2479  2.5688
 5041SOL    HW226760   2.008   1.493   7.932  0.4771  1.7633 -2.9866
 5042SOL     OW26761   3.094   1.302   2.967 -0.0083 -0.1704  0.0782
 5042SOL    HW126762   3.148   1.358   3.023 -1.0333  0.7584  0.1323
 5042SOL    HW226763   3.155   1.229   2.957  0.1012 -0.1329  0.4829
 5043SOL     OW26764   3.231   0.047   2.468 -0.4584 -0.9229  0.2253
 5043SOL    HW126765   3.239   0.086   2.555 -1.7255 -1.3733  0.5508
 5043SOL    HW226766   3.155   0.097   2.438  0.3372  0.4686  0.5534
 5044SOL     OW26767   1.740   2.880   9.431  0.0818 -0.4399  0.2559
 5044SOL    HW126768   1.655   2.883   9.474  0.2608 -1.6948  0.6888
 5044SOL    HW226769   1.735   2.951   9.367 -0.0114 -0.6646  0.0113
 5045SOL     OW26770   1.730   1.805   3.327  0.2729 -0.4208 -0.0477
 5045SOL    HW126771   1.742   1.839   3.416  0.8147  0.5810 -0.5024
 5045SOL    HW226772   1.766   1.869   3.265 -0.7632 -0.5370 -0.7636
 5046SOL     OW26773   2.389   1.742   5.725  0.0033  0.6573  0.1369
 5046SOL    HW126774   2.363   1.720   5.635 -0.6520  2.3747 -0.0927
 5046SOL    HW226775   2.321   1.692   5.769 -0.4349  1.3344  0.2351
 5047SOL     OW26776   1.418   3.740  14.602 -0.7092 -0.0250 -0.4071
 5047SOL    HW126777   1.372   3.663  14.634  1.2509 -0.7217  0.7253
 5047SOL    HW226778   1.496   3.743  14.658 -0.6179 -2.1563 -0.4164
 5048SOL     OW26779   0.025   3.281   7.085  0.0156  0.0873  0.1418
 5048SOL    HW126780   4.729   3.337   7.014  2.4457  0.0211 -1.0278
 5048SOL    HW226781   0.079   3.342   7.135 -1.0337  0.0685  1.2984
 5049SOL     OW26782   0.886   4.380  16.033  0.0628 -0.2572 -0.1440
 5049SOL    HW126783   0.799   4.417  16.024  0.3999  0.8143  1.0688
 5049SOL    HW226784   0.942   4.444  16.076  0.7320  0.4046 -1.9874
 5050SOL     OW26785   3.972   3.098   2.776 -0.0603 -0.2324  0.0716
 5050SOL    HW126786   4.019   3.025   2.735  0.6932  0.2783  0.0297
 5050SOL    HW226787   3.892   3.053   2.805 -0.5028 -0.0842 -0.9196
 5051SOL     OW26788   3.822   3.049  15.532 -0.1110  0.4461  0.1340
 5051SOL    HW126789   3.813   3.142  15.510 -0.4828  1.3026  3.7610
 5051SOL    HW226790   3.914   3.031  15.519 -0.5862 -0.3672 -2.0007
 5052SOL     OW26791   4.401   2.529  12.433 -0.0419  0.2277  0.0413
 5052SOL    HW126792   4.463   2.600  12.420 -0.3258  0.2679 -1.1166
 5052SOL    HW226793   4.414   2.462  12.366 -1.0101  0.1551 -0.0835
 5053SOL     OW26794   0.928   3.736   4.021 -0.0501  0.3382  0.2452
 5053SOL    HW126795   0.961   3.666   3.965  0.6147  0.9261 -0.0980
 5053SOL    HW226796   0.997   3.802   4.028  0.8818 -0.5390 -0.7973
 5054SOL     OW26797   0.830   3.440   4.080  0.1100  0.5540 -0.4369
 5054SOL    HW126798   0.797   3.364   4.128  0.4717  1.6160  1.4750
 5054SOL    HW226799   0.786   3.512   4.124  2.2933  1.8233 -0.3114
 5055SOL     OW26800   2.848   3.713   2.601 -0.2426  0.1054  0.1505
 5055SOL    HW126801   2.938   3.712   2.567 -1.0856 -1.9735 -2.0632
 5055SOL    HW226802   2.853   3.779   2.670  0.5833 -0.0621  0.2495
 5056SOL     OW26803   1.107   4.292   8.034 -0.9922 -0.1111  0.5074
 5056SOL    HW126804   1.082   4.328   8.119  1.6254  1.2872  0.6827
 5056SOL    HW226805   1.036   4.229   8.029 -1.7317  0.7209  0.5497
 5057SOL     OW26806   4.401   0.396   0.606  0.2025 -0.1109 -0.1044
 5057SOL    HW126807   4.403   0.486   0.573  0.4898 -0.5333 -1.2272
 5057SOL    HW226808   4.315   0.375   0.568  0.1166  0.6671 -0.3380
 5058SOL     OW26809   3.485   4.222   4.458  0.4730 -0.2062 -0.3838
 5058SOL    HW126810   3.392   4.244   4.450  0.1501 -1.2115  0.5744
 5058SOL    HW226811   3.502   4.231   4.364 -1.2489 -1.2246 -0.7971
 5059SOL     OW26812   1.701   3.816  12.211 -0.2337  0.2614  0.0888
 5059SOL    HW126813   1.769   3.860  12.262  2.2193 -0.3529 -2.6256
 5059SOL    HW226814   1.645   3.888  12.182  0.1645  0.7893  0.6379
 5060SOL     OW26815   3.129   1.724   5.580 -0.3344  0.2612  0.2905
 5060SOL    HW126816   3.040   1.693   5.595 -0.1433  0.3010  1.5547
 5060SOL    HW226817   3.166   1.636   5.590 -0.8831 -0.1323 -1.0984
 5061SOL     OW26818   1.324   4.433  16.159 -0.7761  0.1391 -0.5780
 5061SOL    HW126819   1.362   4.401  16.241 -0.5677 -1.6468 -1.3498
 5061SOL    HW226820   1.383   4.503  16.134 -0.9803  1.0999  1.6619
 5062SOL     OW26821   1.449   4.646   5.264 -0.3884 -0.9522 -0.1312
 5062SOL    HW126822   1.377   4.700   5.296  1.0219  0.3120  0.8649
 5062SOL    HW226823   1.445   4.566   5.317 -2.7657 -0.7389  0.0294
 5063SOL     OW26824   0.539   4.508  17.674 -0.2133  0.1698  0.4677
 5063SOL    HW126825   0.591   4.439  17.633 -1.3246 -0.3404 -0.1062
 5063SOL    HW226826   0.491   4.460  17.742 -0.3638  0.5881  0.6545
 5064SOL     OW26827   3.614   3.186   7.045  0.3809  0.4716  0.0681
 5064SOL    HW126828   3.666   3.138   7.109 -0.6660  0.4128  0.8789
 5064SOL    HW226829   3.555   3.234   7.103  0.4094 -0.2265  0.6775
 5065SOL     OW26830   0.995   1.270   8.378  0.0452 -0.4479  0.5033
 5065SOL    HW126831   1.064   1.228   8.430 -0.7222 -0.9463  1.1234
 5065SOL    HW226832   1.036   1.354   8.359 -3.5106  0.9670 -0.8656
 5066SOL     OW26833   1.772   3.948   4.241  0.3923 -0.1719 -0.3690
 5066SOL    HW126834   1.703   3.929   4.178 -1.3318 -0.9314  1.7529
 5066SOL    HW226835   1.724   4.016   4.289  0.5551 -0.5752  0.3679
 5067SOL     OW26836   2.295   2.539   3.448 -0.1528  0.1320 -0.4075
 5067SOL    HW126837   2.252   2.476   3.390  1.0157  2.2824 -3.5884
 5067SOL    HW226838   2.294   2.500   3.536  0.7951 -2.8465 -1.7115
 5068SOL     OW26839   3.426   0.695  11.925 -0.5142  0.4660 -0.2325
 5068SOL    HW126840   3.416   0.777  11.973  1.3611  0.2654  0.4855
 5068SOL    HW226841   3.431   0.640  12.003  0.4012  0.9169  0.0292
 5069SOL     OW26842   0.071   1.508   2.082  0.9473  0.2844 -0.0042
 5069SOL    HW126843   4.717   1.479   2.095  1.1944  1.6017  4.5740
 5069SOL    HW226844   0.059   1.588   2.134 -1.8995 -1.3230  1.8006
 5070SOL     OW26845   4.567   1.281   4.396 -0.3236 -0.5719  0.1763
 5070SOL    HW126846   4.552   1.353   4.335  1.1476 -0.1917  0.2697
 5070SOL    HW226847   4.475   1.263   4.416 -0.1394  0.3136  1.8008
 5071SOL     OW26848   2.731   3.420  16.643  0.0279 -0.8484  0.3430
 5071SOL    HW126849   2.671   3.369  16.698  1.2061 -0.9276  1.5300
 5071SOL    HW226850   2.787   3.458  16.710 -0.7931  2.2048 -0.7109
 5072SOL     OW26851   2.838   1.095   9.241 -0.3755  0.1877 -0.2582
 5072SOL    HW126852   2.893   1.038   9.186  0.6906  0.1053  0.8961
 5072SOL    HW226853   2.881   1.180   9.232  1.3515 -0.5402  1.2187
 5073SOL     OW26854   3.597   4.660   2.568  0.3073 -0.0857  0.2568
 5073SOL    HW126855   3.523   4.615   2.527  1.7236 -1.2736 -0.9801
 5073SOL    HW226856   3.678   4.632   2.526  1.1458  0.6814  1.3596
 5074SOL     OW26857   1.954   1.724  10.711 -0.4585 -0.0127  0.7514
 5074SOL    HW126858   1.987   1.639  10.738 -2.7929 -1.1270  0.1401
 5074SOL    HW226859   1.953   1.765  10.798  1.2231 -0.0465  0.7765
 5075SOL     OW26860   4.422   0.178   3.625 -0.0382 -0.6378  0.4016
 5075SOL    HW126861   4.371   0.231   3.686 -1.4139  0.4756 -1.6936
 5075SOL    HW226862   4.362   0.104   3.616  0.1162 -0.8449  1.1541
 5076SOL     OW26863   0.187   0.858  10.183 -0.3162  0.2162 -0.4179
 5076SOL    HW126864   0.128   0.783  10.192  1.7911 -1.1478  2.1485
 5076SOL    HW226865   0.250   0.838  10.114  2.7548  3.7097  1.3464
 5077SOL     OW26866   4.064   0.307   3.790  0.5810  0.2994 -0.0211
 5077SOL    HW126867   3.986   0.308   3.735 -0.8527 -2.7105  1.9627
 5077SOL    HW226868   4.068   0.219   3.828 -2.1957 -0.2726 -1.0725
 5078SOL     OW26869   0.809   0.445   0.175  0.0487  0.6228 -0.3673
 5078SOL    HW126870   0.871   0.431   0.246  0.5574  2.1397 -0.5170
 5078SOL    HW226871   0.865   0.405   0.109  2.7993  1.8777  1.2051
 5079SOL     OW26872   0.381   1.058   8.234  0.2954  0.8849  0.2111
 5079SOL    HW126873   0.325   0.983   8.253  1.9593 -0.8336 -1.7136
 5079SOL    HW226874   0.390   1.093   8.322  2.2579  2.0951 -0.4811
 5080SOL     OW26875   3.304   2.790   4.756  0.1102  0.2424  0.0403
 5080SOL    HW126876   3.392   2.816   4.730  1.1224 -0.8186  2.4557
 5080SOL    HW226877   3.261   2.865   4.798 -0.9569  0.8214 -2.0591
 5081SOL     OW26878   0.835   0.096  17.123  0.4665 -0.0020  0.4208
 5081SOL    HW126879   0.882   0.170  17.085 -0.5471  0.4429  0.0384
 5081SOL    HW226880   0.777   0.066  17.053 -0.1188  1.2301  0.3674
 5082SOL     OW26881   2.636   2.398   0.659  0.2294  0.6175 -0.3190
 5082SOL    HW126882   2.646   2.453   0.582 -2.8721 -1.1552 -1.9964
 5082SOL    HW226883   2.546   2.365   0.647  0.0947  1.1099 -0.6548
 5083SOL     OW26884   1.300   0.072   3.443 -0.1696  0.2496  0.2541
 5083SOL    HW126885   1.209   0.044   3.450  0.2643 -1.0256  0.8485
 5083SOL    HW226886   1.324   0.069   3.535  1.3271  1.5364 -0.0927
 5084SOL     OW26887   3.395   2.555  13.016  0.2537 -0.1947 -0.0340
 5084SOL    HW126888   3.322   2.496  12.995  1.0183 -0.5115 -1.8597
 5084SOL    HW226889   3.451   2.483  13.045 -1.5586 -1.4676  0.2918
 5085SOL     OW26890   1.332   3.539   5.718 -0.3609 -0.1241 -0.2328
 5085SOL    HW126891   1.294   3.500   5.639  1.9083 -0.1190 -1.3140
 5085SOL    HW226892   1.253   3.557   5.769 -1.1126 -1.7835 -0.7912
 5086SOL     OW26893   1.572   1.817   6.759  0.0338  0.0161 -0.4617
 5086SOL    HW126894   1.518   1.888   6.793  0.0503  1.2941 -3.1239
 5086SOL    HW226895   1.656   1.835   6.801 -0.5778 -0.2567  0.8764
 5087SOL     OW26896   1.223   0.347   2.859  0.1511  0.2959 -0.2776
 5087SOL    HW126897   1.244   0.261   2.896 -1.8067  0.2607  0.7549
 5087SOL    HW226898   1.214   0.321   2.768  1.6911  1.6608 -0.8286
 5088SOL     OW26899   0.848   4.488   9.154 -0.6612 -0.0616  0.8376
 5088SOL    HW126900   0.782   4.500   9.222 -2.5902 -0.9002 -0.9207
 5088SOL    HW226901   0.802   4.437   9.087  0.4671 -1.5998  1.2082
 5089SOL     OW26902   2.571   3.781   1.449  0.6569 -0.0379 -0.4219
 5089SOL    HW126903   2.545   3.845   1.384 -0.1116 -0.1685 -0.2393
 5089SOL    HW226904   2.508   3.712   1.430 -1.1869  0.8183  2.6089
 5090SOL     OW26905   2.297   1.152   3.138 -0.1938 -0.9987 -0.1150
 5090SOL    HW126906   2.267   1.061   3.135  0.3648 -1.2129  0.6548
 5090SOL    HW226907   2.233   1.194   3.195  2.1821  2.3477  0.1239
 5091SOL     OW26908   0.530   2.186   8.540  0.6228  0.2166 -0.3965
 5091SOL    HW126909   0.551   2.280   8.541 -0.4387  0.4514 -0.3362
 5091SOL    HW226910   0.545   2.152   8.452 -1.0937  0.8032 -0.9221
 5092SOL     OW26911   2.891   3.021  11.853 -0.3299  0.2786  0.1871
 5092SOL    HW126912   2.909   2.952  11.916  0.6035 -0.3564 -0.7683
 5092SOL    HW226913   2.952   3.003  11.781  1.7533  0.8757  1.7852
 5093SOL     OW26914   3.092   3.799  10.830 -0.1032  0.2848  0.5854
 5093SOL    HW126915   3.021   3.835  10.883  0.7312 -1.2174  2.7164
 5093SOL    HW226916   3.044   3.731  10.782  1.0053 -0.8384  1.0710
 5094SOL     OW26917   1.957   3.557   3.988 -0.0689 -0.7127  0.2880
 5094SOL    HW126918   1.977   3.490   3.923 -1.1562 -0.3018 -0.4667
 5094SOL    HW226919   2.041   3.571   4.032  0.2497  0.3218 -0.6420
 5095SOL     OW26920   3.437   0.589   0.373  0.1508 -0.3062 -0.3186
 5095SOL    HW126921   3.369   0.613   0.309 -0.1836  0.7261  0.4323
 5095SOL    HW226922   3.415   0.497   0.391  0.5339 -0.0177  1.6135
 5096SOL     OW26923   0.962   2.138   2.317 -0.5430 -0.4435  0.0782
 5096SOL    HW126924   0.888   2.196   2.299 -0.9892 -1.3914 -1.0901
 5096SOL    HW226925   0.917   2.062   2.353  0.3583 -0.8757  0.2881
 5097SOL     OW26926   1.037   3.335   1.675  0.4812  0.1271 -0.0003
 5097SOL    HW126927   0.946   3.332   1.704  0.0846 -1.3763 -1.4288
 5097SOL    HW226928   1.062   3.246   1.651  0.1426  0.3211 -1.0436
 5098SOL     OW26929   3.034   2.488   2.252 -0.2764 -0.3184  0.3006
 5098SOL    HW126930   3.021   2.566   2.306 -1.1375 -0.1148 -0.2167
 5098SOL    HW226931   2.970   2.432   2.296 -0.7093 -0.3243 -0.3563
 5099SOL     OW26932   1.881   1.540  14.715  0.1760 -1.0833 -0.3495
 5099SOL    HW126933   1.848   1.521  14.802  0.4937 -3.2310 -0.6755
 5099SOL    HW226934   1.926   1.459  14.688 -0.1477 -1.5656  0.5590
 5100SOL     OW26935   1.122   0.163  16.538  0.3781 -0.3750 -0.7229
 5100SOL    HW126936   1.146   0.171  16.630  0.6091  0.6140 -0.8654
 5100SOL    HW226937   1.061   0.090  16.533 -1.2768  1.0648 -1.5957
 5101SOL     OW26938   3.202   2.021   5.167  0.1101 -0.7823 -0.0472
 5101SOL    HW126939   3.288   1.992   5.200  0.6294  0.2389 -0.5027
 5101SOL    HW226940   3.178   1.949   5.108 -1.4639  0.8981 -1.4415
 5102SOL     OW26941   3.596   0.421   3.742  0.0336  0.7203 -0.0951
 5102SOL    HW126942   3.647   0.478   3.683 -0.8187  1.1220 -0.4481
 5102SOL    HW226943   3.555   0.489   3.795  0.4888  2.4063 -1.8866
 5103SOL     OW26944   0.308   0.494   6.605  0.2355 -0.2824  0.1916
 5103SOL    HW126945   0.274   0.420   6.655 -1.1917 -1.2537 -2.1850
 5103SOL    HW226946   0.346   0.547   6.675  1.4600 -1.5719  0.4968
 5104SOL     OW26947   1.654   3.697  16.758 -0.0510 -0.5276 -0.3174
 5104SOL    HW126948   1.730   3.714  16.814  0.7234  1.6381 -2.0392
 5104SOL    HW226949   1.635   3.604  16.767  0.8867 -0.5271  1.5938
 5105SOL     OW26950   1.568   2.442  11.639  0.3232  0.2588 -0.0074
 5105SOL    HW126951   1.552   2.469  11.730 -2.5195 -0.2932 -0.3397
 5105SOL    HW226952   1.574   2.533  11.608 -1.4201  0.5012  0.3359
 5106SOL     OW26953   4.311   2.058   7.687  0.0231  0.1943  0.1889
 5106SOL    HW126954   4.353   1.979   7.720  0.7568  0.4889 -0.0448
 5106SOL    HW226955   4.349   2.075   7.601  1.7574 -0.2366  0.8870
 5107SOL     OW26956   4.211   2.837   9.480  0.0588  0.2780 -0.3708
 5107SOL    HW126957   4.233   2.883   9.561 -0.5958 -0.8674  0.4597
 5107SOL    HW226958   4.300   2.832   9.445  0.4513 -0.1702  0.6963
 5108SOL     OW26959   2.597   4.465   4.602  0.7249 -0.1510  0.2602
 5108SOL    HW126960   2.587   4.443   4.509  1.6871 -1.7775  0.5174
 5108SOL    HW226961   2.546   4.397   4.646  0.0981  0.2460  0.1342
 5109SOL     OW26962   0.142   2.259  17.559  0.1789  0.4520  0.7298
 5109SOL    HW126963   0.231   2.226  17.567 -0.5318 -2.2058 -1.9686
 5109SOL    HW226964   0.105   2.179  17.522 -1.5717  0.7256  1.8753
 5110SOL     OW26965   2.424   1.526   0.272  0.6340 -0.2816 -0.0146
 5110SOL    HW126966   2.428   1.441   0.228  0.0212 -0.6232  0.5814
 5110SOL    HW226967   2.416   1.581   0.194  0.2916 -0.5556 -0.1724
 5111SOL     OW26968   4.303   0.018   2.131  0.4198  0.4262 -0.3064
 5111SOL    HW126969   4.342   4.710   2.207  0.2112 -0.3604 -0.6524
 5111SOL    HW226970   4.283   4.675   2.081 -1.2430 -0.3366  1.5709
 5112SOL     OW26971   4.696   3.140  10.986 -0.2325 -0.6720 -0.2613
 5112SOL    HW126972   4.705   3.047  11.007 -0.3481 -0.4907  0.6117
 5112SOL    HW226973   4.698   3.139  10.890 -1.2848  1.5138 -0.3175
 5113SOL     OW26974   3.294   2.893   5.057  0.4290 -0.0228  0.4237
 5113SOL    HW126975   3.326   2.965   5.110  0.4440 -0.8201  1.4933
 5113SOL    HW226976   3.267   2.940   4.978  1.3379 -0.5132 -0.1718
 5114SOL     OW26977   4.147   2.365  10.231 -0.0502 -0.5924  0.0061
 5114SOL    HW126978   4.231   2.361  10.277 -0.3434  0.9779  0.6969
 5114SOL    HW226979   4.169   2.337  10.142 -1.1944 -2.4439  0.2900
 5115SOL     OW26980   1.836   2.127   7.276  0.1879  0.2643 -0.3132
 5115SOL    HW126981   1.808   2.040   7.305 -0.8169 -0.0286 -2.1563
 5115SOL    HW226982   1.911   2.107   7.220 -0.2413  0.2066 -0.8653
 5116SOL     OW26983   4.131   0.488   8.950  0.3852  0.2088  0.1968
 5116SOL    HW126984   4.136   0.501   9.044  2.4988 -1.5415  0.3389
 5116SOL    HW226985   4.172   0.571   8.925  1.2024  0.0487  1.0004
 5117SOL     OW26986   0.175   0.242   6.734  0.0697 -0.6705 -0.3194
 5117SOL    HW126987   0.227   0.180   6.784 -0.8005  0.6859  2.2563
 5117SOL    HW226988   0.120   0.183   6.682 -2.0568  1.0202 -0.0214
 5118SOL     OW26989   4.386   2.885   1.821 -0.3087 -0.4779  0.1376
 5118SOL    HW126990   4.333   2.812   1.789 -0.2259 -0.2767 -0.4619
 5118SOL    HW226991   4.333   2.963   1.804 -1.6056 -1.2587  0.5505
 5119SOL     OW26992   2.874   4.304   4.688  0.1241 -0.5857 -0.0699
 5119SOL    HW126993   2.881   4.394   4.721  0.3691  1.1529 -4.8508
 5119SOL    HW226994   2.841   4.261   4.766 -0.8206 -0.9831 -0.6792
 5120SOL     OW26995   0.636   2.436   8.968 -0.1014  0.7168 -0.4838
 5120SOL    HW126996   0.714   2.428   8.913 -0.9936  1.8060 -1.8948
 5120SOL    HW226997   0.633   2.347   9.004  0.7064  0.3554 -1.3305
 5121SOL     OW26998   3.207   1.613   6.880 -0.4024 -0.3373  0.4140
 5121SOL    HW126999   3.233   1.684   6.939  2.6170  1.3674 -2.9386
 5121SOL    HW227000   3.173   1.666   6.807 -0.6564  0.4591  1.1086
 5122SOL     OW27001   2.271   3.284  15.111 -1.4208  0.4625 -0.1459
 5122SOL    HW127002   2.293   3.240  15.029  2.4070  3.1485 -0.5444
 5122SOL    HW227003   2.356   3.321  15.133 -0.9600 -0.9874  0.5070
 5123SOL     OW27004   3.622   2.808  11.786  0.0068  0.7059  0.1009
 5123SOL    HW127005   3.643   2.901  11.796  0.1590  0.3430  3.2166
 5123SOL    HW227006   3.702   2.767  11.818 -0.3969 -0.6334 -0.6372
 5124SOL     OW27007   2.173   0.758   8.353 -0.0373 -0.3079 -0.3310
 5124SOL    HW127008   2.104   0.719   8.298  0.4505 -0.6100 -0.7339
 5124SOL    HW227009   2.237   0.770   8.283 -1.5751  0.9488 -1.5196
 5125SOL     OW27010   2.381   1.022   8.514 -0.1573  0.4793 -0.1976
 5125SOL    HW127011   2.362   1.031   8.421  0.7325  1.1011 -0.3200
 5125SOL    HW227012   2.301   1.047   8.560  0.1601 -0.0557  0.6473
 5126SOL     OW27013   2.719   3.200   2.370  0.1009  0.3517 -0.7221
 5126SOL    HW127014   2.770   3.126   2.402  1.4417  1.1476 -1.0081
 5126SOL    HW227015   2.742   3.269   2.433 -0.4408  1.1962 -1.4377
 5127SOL     OW27016   1.464   1.617   2.161  0.2600  0.0326  0.0611
 5127SOL    HW127017   1.383   1.639   2.115 -1.2134  1.1900  3.1821
 5127SOL    HW227018   1.523   1.603   2.088 -0.0651  0.2557 -0.2440
 5128SOL     OW27019   2.996   1.807   1.734  0.5969 -0.1309  0.0830
 5128SOL    HW127020   2.963   1.830   1.647 -0.5817  0.2234  0.6172
 5128SOL    HW227021   2.962   1.718   1.745 -1.0820  0.6526  1.1947
 5129SOL     OW27022   3.227   1.619   3.356 -0.2136 -0.0564  0.3705
 5129SOL    HW127023   3.307   1.570   3.375 -2.0353 -3.0045  0.4980
 5129SOL    HW227024   3.173   1.596   3.432 -0.6408  3.0774  1.0113
 5130SOL     OW27025   1.078   1.420   0.126  0.6153 -0.0957  0.0671
 5130SOL    HW127026   1.152   1.382   0.174  0.5552 -0.2148  0.0646
 5130SOL    HW227027   1.056   1.496   0.181  0.3555 -0.6192  0.6852
 5131SOL     OW27028   4.574   4.086   7.409  0.5012 -0.3788 -0.1313
 5131SOL    HW127029   4.567   3.993   7.387 -2.6685 -0.0667 -0.5110
 5131SOL    HW227030   4.510   4.139   7.360  0.9357 -0.0632 -0.3507
 5132SOL     OW27031   0.030   1.431   9.513  0.2778  0.1862  0.3594
 5132SOL    HW127032   0.104   1.427   9.574  0.3436 -1.3570  0.1825
 5132SOL    HW227033   4.732   1.518   9.531  1.3669  0.6759  0.0696
 5133SOL     OW27034   1.259   0.947  10.070  0.6874  0.4545  0.4715
 5133SOL    HW127035   1.174   0.976  10.036  1.4133 -0.1413 -1.8014
 5133SOL    HW227036   1.317   1.023  10.066  0.2730  0.7429  0.0249
 5134SOL     OW27037   1.498   4.395  14.021 -0.0739 -0.5048  0.1378
 5134SOL    HW127038   1.532   4.320  13.971 -0.0267  1.1640 -2.3449
 5134SOL    HW227039   1.530   4.390  14.111  3.5888 -3.0353 -1.3030
 5135SOL     OW27040   3.954   3.212   9.177  0.0021 -0.0783  0.4781
 5135SOL    HW127041   3.972   3.217   9.271 -1.0205  0.7726  0.6345
 5135SOL    HW227042   4.042   3.221   9.142  0.6167  0.9186  2.2603
 5136SOL     OW27043   1.852   1.566   9.413  0.6835 -0.0603 -0.6055
 5136SOL    HW127044   1.920   1.500   9.403 -0.1960 -1.3346  1.9670
 5136SOL    HW227045   1.852   1.573   9.508 -1.3070  0.2843 -0.6221
 5137SOL     OW27046   1.038   4.634  11.166  0.4600 -0.3370 -0.2031
 5137SOL    HW127047   1.024   4.654  11.073 -0.9146 -0.0646  0.0542
 5137SOL    HW227048   0.955   4.587  11.173 -1.0352  2.5569  1.7793
 5138SOL     OW27049   1.569   4.617  16.162 -0.1241  0.1261 -0.3162
 5138SOL    HW127050   1.547   4.698  16.207  1.2216  1.0147 -1.2720
 5138SOL    HW227051   1.662   4.605  16.179 -0.6520 -0.7939  1.8551
 5139SOL     OW27052   2.214   1.678   7.384 -0.5470 -0.0518  0.1199
 5139SOL    HW127053   2.256   1.725   7.312  0.9579  1.1726  1.8064
 5139SOL    HW227054   2.210   1.588   7.354  1.1334 -0.1500  0.2320
 5140SOL     OW27055   4.042   1.486   8.605 -0.4133 -0.6066 -0.4165
 5140SOL    HW127056   4.128   1.444   8.612 -0.4060 -0.3521  1.0530
 5140SOL    HW227057   4.069   1.574   8.630 -1.1005 -0.3198 -0.6719
 5141SOL     OW27058   1.549   0.534   3.607  0.1513  0.1253 -0.4880
 5141SOL    HW127059   1.526   0.510   3.517  1.0201 -3.8708  0.3539
 5141SOL    HW227060   1.613   0.469   3.637 -0.5931  0.3669  1.5781
 5142SOL     OW27061   1.241   2.287   8.484 -0.2233 -0.1595  0.0363
 5142SOL    HW127062   1.305   2.259   8.550 -0.8603  0.1141  0.7778
 5142SOL    HW227063   1.293   2.260   8.408 -0.5507  1.6845 -0.8363
 5143SOL     OW27064   1.875   4.422   5.765 -0.0841 -0.2623  0.4072
 5143SOL    HW127065   1.847   4.346   5.816 -1.4424  1.3082  2.0267
 5143SOL    HW227066   1.800   4.481   5.766  0.8564  0.9270  2.0033
 5144SOL     OW27067   2.427   0.563   7.586 -0.0603  0.3081  0.5524
 5144SOL    HW127068   2.353   0.580   7.644  0.9045  2.0065  1.2590
 5144SOL    HW227069   2.396   0.563   7.495 -2.2352  0.7192  1.2995
 5145SOL     OW27070   2.176   2.146   5.568  0.2400  0.0321 -0.3083
 5145SOL    HW127071   2.147   2.057   5.586  1.0764  0.0300  1.0677
 5145SOL    HW227072   2.159   2.165   5.476  0.0799 -1.5765 -0.6120
 5146SOL     OW27073   4.612   1.883   2.410 -0.0890 -0.0036 -0.2574
 5146SOL    HW127074   4.617   1.898   2.504  0.1385  0.3398 -0.3232
 5146SOL    HW227075   4.620   1.788   2.408 -0.0353 -0.0281  1.5131
 5147SOL     OW27076   3.232   2.488   3.255  0.4169  0.2056  0.2960
 5147SOL    HW127077   3.249   2.409   3.308  1.3847 -0.4225 -0.9680
 5147SOL    HW227078   3.254   2.456   3.168 -0.6988  0.0268  0.0711
 5148SOL     OW27079   2.937   1.003   2.112  0.0823 -0.0149  0.3821
 5148SOL    HW127080   2.964   0.968   2.027  0.0962 -0.0753  0.4111
 5148SOL    HW227081   3.002   0.973   2.177 -1.1027  1.3608  2.2027
 5149SOL     OW27082   1.323   0.597   8.772 -0.1785 -0.7603  0.6143
 5149SOL    HW127083   1.302   0.621   8.681  1.4083 -0.5525  0.3163
 5149SOL    HW227084   1.285   0.510   8.773  1.7150 -1.5946 -1.0812
 5150SOL     OW27085   1.483   0.084  12.374  0.2277 -0.4925 -0.3608
 5150SOL    HW127086   1.519   0.089  12.286 -0.0305 -1.1376 -0.5037
 5150SOL    HW227087   1.566   0.063  12.419  0.9577  3.2460  0.0374
 5151SOL     OW27088   1.878   2.665   3.008  0.4631  0.2505  0.1876
 5151SOL    HW127089   1.803   2.624   3.051 -0.7576  1.0250 -1.1727
 5151SOL    HW227090   1.829   2.710   2.939 -0.0551 -0.7350 -0.0977
 5152SOL     OW27091   3.140   3.085   8.205  0.4057 -0.6190 -1.1377
 5152SOL    HW127092   3.062   3.141   8.212 -0.1299 -1.7769  2.7134
 5152SOL    HW227093   3.104   3.033   8.278 -0.3788 -0.5989 -1.5067
 5153SOL     OW27094   2.001   2.557   9.547  0.3663  0.3519  0.1702
 5153SOL    HW127095   1.933   2.491   9.533 -1.0075  1.7237  0.3375
 5153SOL    HW227096   1.944   2.633   9.553 -0.0721 -0.0472  1.0525
 5154SOL     OW27097   4.311   4.382   1.295 -0.0085  0.3020 -0.2151
 5154SOL    HW127098   4.270   4.347   1.374 -0.7268 -1.4862 -1.3729
 5154SOL    HW227099   4.354   4.464   1.317 -1.9558  0.5358  2.5971
 5155SOL     OW27100   2.126   1.852   4.453 -0.1084 -0.0686  0.3789
 5155SOL    HW127101   2.186   1.855   4.527 -0.5466  3.5281  0.5620
 5155SOL    HW227102   2.153   1.763   4.430  0.1144 -0.4802  2.2197
 5156SOL     OW27103   2.403   3.278   2.758  0.4241  0.0152  0.2952
 5156SOL    HW127104   2.375   3.365   2.789  0.0696  0.7395 -2.0690
 5156SOL    HW227105   2.341   3.266   2.687 -0.2389  0.7640  0.7426
 5157SOL     OW27106   2.175   1.906   2.337 -0.4955 -0.4319  0.6518
 5157SOL    HW127107   2.115   1.911   2.263  0.0337  3.1491  0.4589
 5157SOL    HW227108   2.223   1.983   2.306 -1.0409 -0.6022 -0.6172
 5158SOL     OW27109   2.590   1.291   2.289  0.0905  0.0813  1.0177
 5158SOL    HW127110   2.604   1.224   2.221 -1.7279  0.9081 -0.1836
 5158SOL    HW227111   2.571   1.361   2.227  1.8180  0.3251  0.7518
 5159SOL     OW27112   0.785   4.669   8.394  0.4507 -0.1590 -0.2058
 5159SOL    HW127113   0.787   4.588   8.445 -0.4037  0.7320  1.2665
 5159SOL    HW227114   0.872   4.660   8.355  0.2582 -3.3221  0.0710
 5160SOL     OW27115   2.401   1.936   4.525  0.4826  0.1433  0.1959
 5160SOL    HW127116   2.427   2.024   4.499 -0.7700 -0.2731 -2.5191
 5160SOL    HW227117   2.356   1.951   4.608 -0.8073 -0.7567 -0.3410
 5161SOL     OW27118   0.366   2.162   4.880  0.5555 -0.5168  0.1062
 5161SOL    HW127119   0.363   2.242   4.827 -0.1067  0.3747  1.4824
 5161SOL    HW227120   0.326   2.095   4.826 -0.9087  0.6618 -0.2790
 5162SOL     OW27121   2.722   2.676   3.110 -0.2635  0.4071  0.1631
 5162SOL    HW127122   2.661   2.686   3.184  0.9317  2.4691  0.8635
 5162SOL    HW227123   2.755   2.586   3.113 -2.6122 -0.4169  2.0474
 5163SOL     OW27124   2.926   2.193   7.588 -0.6703 -0.2350 -0.4239
 5163SOL    HW127125   2.975   2.216   7.668 -0.1379 -1.0091 -0.5318
 5163SOL    HW227126   2.864   2.140   7.639 -2.3452  0.3380 -1.8764
 5164SOL     OW27127   4.400   2.222   3.770 -0.1925  0.4336 -0.3105
 5164SOL    HW127128   4.380   2.226   3.863 -1.9254 -0.0325 -0.6642
 5164SOL    HW227129   4.353   2.300   3.738  1.2807  1.6434  0.4909
 5165SOL     OW27130   3.473   4.179   6.412 -0.8808  0.1784  0.0899
 5165SOL    HW127131   3.493   4.251   6.472  1.4287 -2.4190  2.4587
 5165SOL    HW227132   3.466   4.222   6.327  1.0015 -0.3259 -0.3263
 5166SOL     OW27133   2.354   2.952   1.480  0.3045  0.3826  0.2868
 5166SOL    HW127134   2.406   3.002   1.417  1.7370  0.4428  1.5261
 5166SOL    HW227135   2.388   2.988   1.563 -0.1913  1.6856 -0.0661
 5167SOL     OW27136   4.646   3.603   0.493 -0.1360 -0.0779 -0.1909
 5167SOL    HW127137   4.698   3.569   0.420  0.6742 -0.2877  0.4772
 5167SOL    HW227138   4.598   3.525   0.520  1.8413 -0.9690  0.7466
 5168SOL     OW27139   3.874   2.588   5.866 -0.2813  0.2816 -0.5054
 5168SOL    HW127140   3.952   2.547   5.905  0.0461 -0.2869 -1.7156
 5168SOL    HW227141   3.847   2.653   5.930 -0.1800  0.2019 -0.3833
 5169SOL     OW27142   1.279   0.745   9.885 -0.3588 -0.6775  0.6069
 5169SOL    HW127143   1.283   0.823   9.941  0.3450 -2.0261  2.4609
 5169SOL    HW227144   1.194   0.706   9.907 -0.0705 -0.5720  1.9415
 5170SOL     OW27145   4.148   1.099   5.611 -0.0186  0.0223 -0.5310
 5170SOL    HW127146   4.137   1.185   5.569  1.7682 -1.0547 -3.1830
 5170SOL    HW227147   4.079   1.106   5.676  0.8616 -2.4071  0.6435
 5171SOL     OW27148   4.602   1.172  12.740  0.2444 -0.1384 -0.5406
 5171SOL    HW127149   4.510   1.157  12.763  0.1615  1.7275  0.2971
 5171SOL    HW227150   4.605   1.261  12.704  2.0411  0.2162  0.5038
 5172SOL     OW27151   2.446   0.313  16.475 -0.3604  0.5506 -0.3022
 5172SOL    HW127152   2.479   0.401  16.455 -0.8421  1.0548  1.1020
 5172SOL    HW227153   2.490   0.263  16.406  1.7305  0.9193  0.7512
 5173SOL     OW27154   2.173   4.570   8.142  0.1588 -0.1395  0.2244
 5173SOL    HW127155   2.211   4.558   8.228  1.6334 -1.4500 -0.6154
 5173SOL    HW227156   2.089   4.609   8.170 -0.4263 -0.0680 -1.5939
 5174SOL     OW27157   2.064   1.275   5.551  0.1758 -0.1018  0.0691
 5174SOL    HW127158   2.065   1.293   5.645  0.2761 -2.4435  0.5105
 5174SOL    HW227159   2.072   1.180   5.556  1.1916  0.0206  0.8350
 5175SOL     OW27160   4.592   4.718   4.738  0.0611  0.1437  0.1896
 5175SOL    HW127161   4.544   4.713   4.821 -1.5531  0.3484 -0.7328
 5175SOL    HW227162   4.685   4.717   4.758  0.5773 -0.6349 -2.2149
 5176SOL     OW27163   4.734   0.571   6.964 -0.2375  0.0207 -0.0423
 5176SOL    HW127164   0.063   0.504   6.945  2.4209  2.3413  0.7671
 5176SOL    HW227165   4.670   0.538   6.901  0.6859 -0.0444 -0.9416
 5177SOL     OW27166   2.831   0.629   5.710 -0.4619 -0.3375  0.0173
 5177SOL    HW127167   2.900   0.564   5.719 -2.1927 -2.2266 -0.2313
 5177SOL    HW227168   2.802   0.628   5.802  1.0194 -0.0004  0.4940
 5178SOL     OW27169   3.706   3.885   2.525  1.0046  0.4178 -0.1803
 5178SOL    HW127170   3.791   3.843   2.510  1.2233 -0.8006  4.2824
 5178SOL    HW227171   3.658   3.857   2.447  0.9540 -0.2275  0.0843
 5179SOL     OW27172   0.510   3.257   6.770 -0.0035 -0.1978 -0.0485
 5179SOL    HW127173   0.417   3.280   6.765  0.5095  1.9199  0.0909
 5179SOL    HW227174   0.518   3.221   6.859  1.7641  1.0415  0.2995
 5180SOL     OW27175   0.500   4.652   7.348 -0.2169  0.6810 -0.2933
 5180SOL    HW127176   0.595   4.651   7.333 -0.1245 -1.4504  0.3947
 5180SOL    HW227177   0.496   4.682   7.439  0.4940 -0.2461  0.0494
 5181SOL     OW27178   3.834   0.655   5.035  0.3913 -0.2421  0.0534
 5181SOL    HW127179   3.891   0.713   5.085  0.2681 -0.2050  0.1522
 5181SOL    HW227180   3.902   0.596   5.001  0.4558  1.0840 -2.1189
 5182SOL     OW27181   2.855   3.324   7.182  0.1693 -0.1020  0.4606
 5182SOL    HW127182   2.928   3.365   7.136  0.1793 -0.8459 -0.1958
 5182SOL    HW227183   2.898   3.244   7.213 -1.8343 -1.6432 -0.6657
 5183SOL     OW27184   3.673   2.320  10.968 -0.1584  0.5711 -0.4715
 5183SOL    HW127185   3.760   2.335  10.930  0.6483 -0.8582  0.8381
 5183SOL    HW227186   3.619   2.320  10.889 -0.3575  0.1397 -0.3363
 5184SOL     OW27187   2.147   3.666   5.592  0.0763  0.5174  0.1991
 5184SOL    HW127188   2.212   3.595   5.597 -0.2297  0.4452  3.3108
 5184SOL    HW227189   2.083   3.635   5.527  0.1490 -0.5791  0.6430
 5185SOL     OW27190   0.277   1.995   5.479 -0.5195 -0.1397 -0.0670
 5185SOL    HW127191   0.234   1.989   5.564 -0.5457  0.2479 -0.0509
 5185SOL    HW227192   0.206   2.013   5.417  0.2966 -0.1755 -1.0089
 5186SOL     OW27193   3.106   3.911  16.807  0.3023  0.0349 -0.0173
 5186SOL    HW127194   3.133   3.820  16.817  0.4337 -0.0422 -1.0382
 5186SOL    HW227195   3.189   3.946  16.775  0.3574 -0.1863 -0.1149
 5187SOL     OW27196   0.163   3.024   0.365  0.5034  0.5508  0.5583
 5187SOL    HW127197   0.140   3.022   0.273 -1.4803 -0.9289  1.0781
 5187SOL    HW227198   0.097   2.971   0.409 -0.5165  2.9269  1.8718
 5188SOL     OW27199   1.010   2.499   1.221  0.8640 -0.6175 -0.7403
 5188SOL    HW127200   0.959   2.439   1.276  1.1915  0.8842  1.2087
 5188SOL    HW227201   0.941   2.552   1.181  0.9348  1.0698  1.3264
 5189SOL     OW27202   2.088   4.660   9.564  0.0593 -0.2342  0.0331
 5189SOL    HW127203   2.125   4.626   9.483 -0.7586  2.8357 -1.6113
 5189SOL    HW227204   2.004   4.693   9.534  0.7202  2.4243  1.1491
 5190SOL     OW27205   3.700   1.367   3.384 -0.1683  0.6252 -0.2019
 5190SOL    HW127206   3.663   1.323   3.461 -0.2713  0.7323 -0.1914
 5190SOL    HW227207   3.788   1.379   3.421 -0.7658 -0.4054  1.5804
 5191SOL     OW27208   3.626   4.578   4.954  0.7167  0.4592  0.4871
 5191SOL    HW127209   3.713   4.548   4.982  0.7718  0.6841  0.5519
 5191SOL    HW227210   3.575   4.497   4.942 -1.2150  1.9370 -1.1296
 5192SOL     OW27211   2.998   3.063   2.509  0.4426 -0.3475 -0.5675
 5192SOL    HW127212   2.984   3.157   2.505  0.2800 -0.4710 -2.7827
 5192SOL    HW227213   3.049   3.054   2.590  0.2419  0.7313 -0.3254
 5193SOL     OW27214   3.797   4.022  12.424 -0.0874 -0.0502 -0.0509
 5193SOL    HW127215   3.872   4.046  12.477  1.3595  1.2021 -2.6670
 5193SOL    HW227216   3.823   3.931  12.415 -0.4766 -0.2178  0.4969
 5194SOL     OW27217   3.799   0.381  14.691 -0.6099 -0.3749  0.0891
 5194SOL    HW127218   3.748   0.326  14.751 -0.6806  1.9498  2.1965
 5194SOL    HW227219   3.727   0.426  14.647 -0.4576 -1.2567 -1.0577
 5195SOL     OW27220   4.708   1.939   4.912 -0.3477 -0.1449 -0.3724
 5195SOL    HW127221   4.677   2.029   4.911  1.7732  0.5890 -0.4268
 5195SOL    HW227222   4.640   1.897   4.859 -0.2729 -2.0226  1.0359
 5196SOL     OW27223   2.415   2.224  10.789 -0.3081 -0.6325 -0.7144
 5196SOL    HW127224   2.476   2.284  10.746 -0.6359 -0.1549 -0.5101
 5196SOL    HW227225   2.338   2.279  10.806 -0.3180 -1.2272  1.1037
 5197SOL     OW27226   4.693   2.233   8.028 -0.3704  0.1656 -0.2256
 5197SOL    HW127227   4.673   2.260   7.938  0.8037  0.5452 -0.3623
 5197SOL    HW227228   4.658   2.144   8.024 -0.3069  0.1580 -0.5637
 5198SOL     OW27229   1.430   2.657   0.166  0.3359 -0.1499  0.1849
 5198SOL    HW127230   1.519   2.660   0.200  1.0437 -0.5308 -1.6319
 5198SOL    HW227231   1.386   2.599   0.228 -1.2674  0.7247 -0.1132
 5199SOL     OW27232   4.713   1.165   9.707 -0.5251 -0.3252 -0.1554
 5199SOL    HW127233   0.070   1.187   9.697 -0.8464  0.8071 -0.6021
 5199SOL    HW227234   4.725   1.103   9.780  1.5028  1.7380  1.2711
 5200SOL     OW27235   1.514   2.064   7.100 -0.3829 -0.2810  0.8657
 5200SOL    HW127236   1.538   2.153   7.127 -1.2918  0.0104  0.7481
 5200SOL    HW227237   1.592   2.010   7.113 -0.4526 -1.2142 -2.6709
 5201SOL     OW27238   2.524   2.034   7.788  0.4860  0.0193 -0.1110
 5201SOL    HW127239   2.436   2.006   7.763  1.7435 -1.4581 -2.8943
 5201SOL    HW227240   2.509   2.129   7.781  1.6174  0.2455  0.5568
 5202SOL     OW27241   1.035   0.473   5.039 -0.1971 -0.1775 -0.4031
 5202SOL    HW127242   1.101   0.486   5.107 -1.2270 -1.1724  0.7956
 5202SOL    HW227243   1.090   0.455   4.962  0.6045 -0.9795  0.3473
 5203SOL     OW27244   3.387   0.577   6.400  0.0527 -0.5780 -0.2268
 5203SOL    HW127245   3.336   0.619   6.469 -0.2784  0.5783 -1.1678
 5203SOL    HW227246   3.475   0.603   6.429 -0.4021  1.4487 -0.6548
 5204SOL     OW27247   1.777   1.313   4.919 -0.4556 -0.5839  0.3001
 5204SOL    HW127248   1.799   1.402   4.945  0.9140 -1.3079  1.5914
 5204SOL    HW227249   1.727   1.283   4.995 -2.1275 -0.5386 -0.7780
 5205SOL     OW27250   0.529   1.359  13.210  0.2317  0.1898  0.0278
 5205SOL    HW127251   0.524   1.273  13.166 -0.4697 -1.3603  3.1364
 5205SOL    HW227252   0.540   1.323  13.298  0.0970 -0.7593 -0.3416
 5206SOL     OW27253   1.975   3.024   2.922 -0.3234  0.6492  0.1208
 5206SOL    HW127254   2.003   3.086   2.989 -0.2763  1.4897 -0.6679
 5206SOL    HW227255   1.881   3.038   2.938 -0.5810  1.0086 -1.6712
 5207SOL     OW27256   0.521   2.910  11.705  0.3243  0.6978  0.4859
 5207SOL    HW127257   0.449   2.954  11.749  0.4269 -0.7081  2.0496
 5207SOL    HW227258   0.578   2.897  11.781 -0.6917 -0.3705  1.0573
 5208SOL     OW27259   0.891   4.091   6.074 -0.4188 -0.4101  0.7108
 5208SOL    HW127260   0.863   4.019   6.016 -1.7184  2.6771 -2.4806
 5208SOL    HW227261   0.953   4.050   6.134  0.6172  1.9326  1.2245
 5209SOL     OW27262   1.593   2.788   8.808  0.6254  0.0588 -0.8932
 5209SOL    HW127263   1.626   2.742   8.731 -0.3647 -2.7695  0.3858
 5209SOL    HW227264   1.499   2.771   8.799  0.5473  0.5213 -0.9530
 5210SOL     OW27265   0.036   1.291   6.648 -0.6410 -0.0032  0.6061
 5210SOL    HW127266   4.701   1.228   6.648 -0.1073 -0.5972 -0.6868
 5210SOL    HW227267   0.114   1.247   6.616 -1.0743 -1.5292  1.6699
 5211SOL     OW27268   1.523   0.776  15.522  0.1734  0.1141 -0.7138
 5211SOL    HW127269   1.438   0.765  15.478 -0.6540  0.4188  0.8259
 5211SOL    HW227270   1.510   0.844  15.587  0.3824 -0.6588  0.1276
 5212SOL     OW27271   1.097   4.656   3.212 -0.1943 -0.2725 -0.1124
 5212SOL    HW127272   1.031   4.659   3.280  0.6349  0.7744  0.6411
 5212SOL    HW227273   1.066   4.718   3.146 -2.7467 -0.8350  0.5562
 5213SOL     OW27274   2.672   4.549   8.793  0.1469  0.4295  0.0877
 5213SOL    HW127275   2.734   4.619   8.774  2.6416 -0.7081  4.0592
 5213SOL    HW227276   2.601   4.577   8.736  0.7773 -0.0744 -0.9423
 5214SOL     OW27277   3.802   0.218   5.451 -0.8653  0.4128 -0.8135
 5214SOL    HW127278   3.776   0.287   5.390 -1.8933 -0.1732 -1.0367
 5214SOL    HW227279   3.819   0.139   5.399 -0.8545  0.5934 -1.0844
 5215SOL     OW27280   3.291   3.649   2.028 -0.1178  0.0168  0.0183
 5215SOL    HW127281   3.294   3.729   1.976  0.6600  1.2674  1.9998
 5215SOL    HW227282   3.297   3.579   1.963  0.2477 -0.3178  0.4164
 5216SOL     OW27283   0.665   3.844  10.253  0.2316 -0.6600 -0.0440
 5216SOL    HW127284   0.685   3.810  10.340 -1.5275 -1.1104  0.1801
 5216SOL    HW227285   0.755   3.846  10.219  0.8336  1.0662  1.6677
 5217SOL     OW27286   1.751   1.812   8.735 -0.4011 -0.6073 -0.7714
 5217SOL    HW127287   1.728   1.730   8.780 -1.2999 -0.4434 -0.9373
 5217SOL    HW227288   1.779   1.864   8.810  1.3090 -1.6991 -0.6517
 5218SOL     OW27289   0.085   3.946   6.309 -0.0440  0.5330 -0.4896
 5218SOL    HW127290   0.045   3.898   6.382 -1.7665  0.8495 -1.2331
 5218SOL    HW227291   0.180   3.935   6.316 -0.0631  0.4644 -0.3277
 5219SOL     OW27292   1.053   4.344   8.969 -0.2316  0.4284  0.3722
 5219SOL    HW127293   0.971   4.388   8.948  0.4519  1.7448  0.4898
 5219SOL    HW227294   1.029   4.268   9.023  1.3082  0.6926  1.4424
 5220SOL     OW27295   4.468   2.979   3.772 -0.1741  0.0251  0.0379
 5220SOL    HW127296   4.501   2.896   3.737 -0.9741 -0.5622  0.6859
 5220SOL    HW227297   4.549   3.028   3.788 -0.5407  0.5712  0.2148
 5221SOL     OW27298   0.814   0.100   7.612  0.1505 -0.1597 -0.6968
 5221SOL    HW127299   0.796   0.036   7.680 -1.0017  1.9307  0.9648
 5221SOL    HW227300   0.879   0.051   7.561  0.3202  1.5205 -2.1188
 5222SOL     OW27301   3.670   3.894   5.996 -0.0252  0.1018 -0.0527
 5222SOL    HW127302   3.635   3.814   5.956  1.1589 -0.3445 -0.2000
 5222SOL    HW227303   3.763   3.876   6.004 -0.2499 -1.6397 -1.1871
 5223SOL     OW27304   3.063   1.534   8.703  0.0356 -0.1151  0.2240
 5223SOL    HW127305   3.062   1.619   8.746  0.5956  0.8317 -1.6004
 5223SOL    HW227306   3.159   1.527   8.701 -0.0756 -1.9273  1.1534
 5224SOL     OW27307   3.869   1.359   3.875 -0.7920  0.1396  0.0621
 5224SOL    HW127308   3.858   1.454   3.865 -0.3460  0.2554  0.6175
 5224SOL    HW227309   3.844   1.327   3.789 -3.5733 -1.5474  1.5119
 5225SOL     OW27310   4.272   2.804  13.299 -0.1926  0.0369  0.6821
 5225SOL    HW127311   4.205   2.764  13.244  1.5564 -1.5409 -0.3149
 5225SOL    HW227312   4.214   2.830  13.369  1.0169 -0.2663  1.7997
 5226SOL     OW27313   1.943   4.505   1.808  0.0342  0.1644  0.3254
 5226SOL    HW127314   1.875   4.565   1.778  1.7070  0.2550 -3.2883
 5226SOL    HW227315   1.944   4.520   1.902 -0.3325  1.9922  0.0274
 5227SOL     OW27316   2.043   3.539   6.562  0.3867 -0.2812 -0.0801
 5227SOL    HW127317   2.034   3.630   6.589  0.4221 -0.1828 -0.3971
 5227SOL    HW227318   1.962   3.529   6.512 -0.0619 -2.0579  0.9958
 5228SOL     OW27319   1.850   4.671   9.199 -0.6787 -0.1161 -0.3585
 5228SOL    HW127320   1.883   4.718   9.275  1.3702 -0.5593 -0.9750
 5228SOL    HW227321   1.881   4.584   9.223  3.1652  1.7969  1.4931
 5229SOL     OW27322   0.313   4.127   3.110 -0.0914 -0.2560 -0.2144
 5229SOL    HW127323   0.233   4.091   3.071  0.1332 -1.4376  0.4047
 5229SOL    HW227324   0.292   4.122   3.203 -1.7946  2.5430 -0.4500
 5230SOL     OW27325   1.872   0.081   3.387 -0.1607 -0.2917  0.0710
 5230SOL    HW127326   1.806   0.072   3.319  0.8285 -0.0511 -0.9222
 5230SOL    HW227327   1.819   0.080   3.467 -0.3342 -1.5274 -0.0650
 5231SOL     OW27328   3.592   4.349   2.406  0.5376  0.3323 -0.6311
 5231SOL    HW127329   3.658   4.407   2.444 -1.0606  1.6635  0.0655
 5231SOL    HW227330   3.647   4.272   2.389 -0.6920 -0.4621 -0.9595
 5232SOL     OW27331   2.020   4.385   0.406 -0.6695  0.2084 -0.1899
 5232SOL    HW127332   2.036   4.291   0.418 -0.5779  0.4544  1.6404
 5232SOL    HW227333   2.044   4.397   0.314  1.2632 -0.8346  0.1799
 5233SOL     OW27334   2.129   3.866   8.785 -0.2054  0.4150  0.5286
 5233SOL    HW127335   2.129   3.771   8.791  0.3300  0.2690 -1.9480
 5233SOL    HW227336   2.131   3.891   8.878 -0.5329  1.1254  0.3405
 5234SOL     OW27337   2.278   1.623  10.250 -0.5371 -0.0838 -0.2008
 5234SOL    HW127338   2.189   1.643  10.277 -0.3751 -0.5092  0.6588
 5234SOL    HW227339   2.276   1.530  10.226 -2.4152  0.3431 -1.6870
 5235SOL     OW27340   2.816   1.191  13.603  0.1350  0.0476  0.4085
 5235SOL    HW127341   2.737   1.181  13.657  1.2755 -2.4123  1.6187
 5235SOL    HW227342   2.787   1.247  13.532 -0.6344 -2.5587 -1.3300
 5236SOL     OW27343   1.515   2.711   4.108  0.4659 -0.3172 -0.0151
 5236SOL    HW127344   1.560   2.681   4.188  1.5669  1.1705 -0.0787
 5236SOL    HW227345   1.443   2.649   4.097 -0.5312  0.5235  1.9052
 5237SOL     OW27346   2.036   2.869   1.689  0.2982 -0.2312 -0.5363
 5237SOL    HW127347   1.975   2.801   1.661  0.4386 -0.2313 -0.8337
 5237SOL    HW227348   2.047   2.926   1.613 -1.7608 -0.1821 -0.7925
 5238SOL     OW27349   0.411   4.364  13.399 -0.0066  0.3402  0.1391
 5238SOL    HW127350   0.432   4.328  13.485  1.2541  0.6860 -0.0304
 5238SOL    HW227351   0.332   4.410  13.429 -1.4661 -1.8331 -0.3228
 5239SOL     OW27352   3.737   3.035   3.777  0.7171  0.1147 -0.1014
 5239SOL    HW127353   3.781   3.113   3.743 -2.7105  2.8754  1.9372
 5239SOL    HW227354   3.681   3.063   3.849  0.8580 -0.4102  0.2088
 5240SOL     OW27355   2.273   0.887   5.403  0.0121  0.3761  0.1712
 5240SOL    HW127356   2.269   0.795   5.375  0.5576  0.8322 -1.3896
 5240SOL    HW227357   2.331   0.925   5.337 -0.5490 -0.2206 -0.6622
 5241SOL     OW27358   3.777   1.353   6.109  0.1762  0.3009 -0.2026
 5241SOL    HW127359   3.787   1.262   6.136 -0.2319  0.6311  1.0914
 5241SOL    HW227360   3.867   1.385   6.101 -0.5625  2.2525 -0.8744
 5242SOL     OW27361   4.160   2.370  12.490 -0.2015 -0.6995  0.0887
 5242SOL    HW127362   4.196   2.282  12.475  1.6151  0.4933 -2.5812
 5242SOL    HW227363   4.244   2.408  12.517 -1.1256  0.3411  1.4439
 5243SOL     OW27364   3.501   0.838  17.473  0.2850  0.0964  1.0181
 5243SOL    HW127365   3.491   0.907  17.407 -0.3621 -2.3228 -1.4173
 5243SOL    HW227366   3.588   0.800  17.458 -1.5071 -3.2955 -0.7151
 5244SOL     OW27367   0.766   4.025   6.523 -0.2711  0.2983  0.3545
 5244SOL    HW127368   0.715   4.081   6.465  0.9465  0.4806 -0.5500
 5244SOL    HW227369   0.730   4.037   6.610 -0.4925 -0.3452  0.3555
 5245SOL     OW27370   1.007   0.280   3.369 -0.3735  0.1155 -0.1363
 5245SOL    HW127371   1.043   0.258   3.454 -0.4327 -1.5573 -0.5568
 5245SOL    HW227372   0.992   0.375   3.377  0.6688  0.2879 -0.1993
 5246SOL     OW27373   4.659   1.914   1.865 -0.3726  0.0246  0.3441
 5246SOL    HW127374   4.604   1.992   1.856 -2.0588 -1.1911  0.0583
 5246SOL    HW227375   4.596   1.842   1.865 -0.7335  0.3374  1.7024
 5247SOL     OW27376   1.281   2.142  13.940 -0.0286 -0.1767  0.5559
 5247SOL    HW127377   1.285   2.115  14.032  1.1837  0.3346  0.6514
 5247SOL    HW227378   1.186   2.159  13.934 -0.2845 -1.7191  0.3345
 5248SOL     OW27379   0.173   2.017   9.377  0.3054 -0.2286 -0.0777
 5248SOL    HW127380   0.183   1.922   9.383  0.6564 -0.3717 -3.1524
 5248SOL    HW227381   0.262   2.038   9.348  0.5142 -0.5802  0.3011
 5249SOL     OW27382   0.737   2.995   7.299 -0.8762 -0.1054 -0.4385
 5249SOL    HW127383   0.714   2.932   7.231 -2.8874  0.5848 -0.4198
 5249SOL    HW227384   0.733   3.077   7.249  1.5555 -0.0848 -0.6006
 5250SOL     OW27385   3.199   3.238   1.233 -0.5423  0.1797 -0.0637
 5250SOL    HW127386   3.244   3.204   1.156 -0.8822 -1.1584  0.3302
 5250SOL    HW227387   3.109   3.236   1.203 -0.4948  2.2103 -0.3280
 5251SOL     OW27388   1.883   1.988   7.651  0.3293 -0.0303  0.2466
 5251SOL    HW127389   1.859   2.080   7.633 -1.8395 -0.7428 -0.5894
 5251SOL    HW227390   1.960   1.982   7.594 -0.2393  0.7075 -0.6172
 5252SOL     OW27391   0.101   3.886  14.251  0.1100 -0.0812 -1.0395
 5252SOL    HW127392   0.134   3.822  14.188  1.1982 -1.0668  0.5278
 5252SOL    HW227393   0.177   3.933  14.286  0.2884 -0.5365 -0.8128
 5253SOL     OW27394   1.820   0.270   9.168  0.0601  0.1846 -0.3613
 5253SOL    HW127395   1.755   0.327   9.208 -0.0752 -0.2202 -0.0016
 5253SOL    HW227396   1.898   0.304   9.212 -0.2386 -0.6393  0.8055
 5254SOL     OW27397   1.189   2.399   9.479 -0.5192 -0.1100 -0.1313
 5254SOL    HW127398   1.129   2.325   9.490  0.9106 -1.3980 -1.1926
 5254SOL    HW227399   1.138   2.478   9.458 -2.0440 -1.9885 -3.5906
 5255SOL     OW27400   1.249   2.549  11.543 -0.3380  0.0714 -0.1040
 5255SOL    HW127401   1.297   2.466  11.547  1.0612  0.9559  1.3215
 5255SOL    HW227402   1.311   2.600  11.595  1.5959  0.2976 -2.6300
 5256SOL     OW27403   3.428   1.785   7.980  0.4899 -0.5301  0.3340
 5256SOL    HW127404   3.423   1.796   7.885  0.9195  0.5822  0.4375
 5256SOL    HW227405   3.404   1.872   8.011  0.2868 -0.6358  0.4767
 5257SOL     OW27406   1.391   1.979   6.865  0.0309  0.0072 -0.1131
 5257SOL    HW127407   1.311   2.032   6.871  0.5940  0.5280  2.8559
 5257SOL    HW227408   1.446   2.021   6.931 -0.4055  1.5020 -0.7071
 5258SOL     OW27409   0.787   0.918   3.968  0.0057  0.3195  0.0162
 5258SOL    HW127410   0.828   0.928   3.881  0.5618 -2.5896 -0.0731
 5258SOL    HW227411   0.725   0.990   3.974 -1.2699 -0.8835  1.0932
 5259SOL     OW27412   2.439   3.211   5.767  0.2007 -0.3936 -0.3298
 5259SOL    HW127413   2.494   3.206   5.846 -1.1269 -1.6607  0.5304
 5259SOL    HW227414   2.401   3.123   5.761  1.7286 -0.9141 -2.2216
 5260SOL     OW27415   3.995   1.754   2.280  0.0289  0.5151 -0.3352
 5260SOL    HW127416   4.022   1.832   2.329  1.6004  0.8314 -1.6728
 5260SOL    HW227417   3.931   1.719   2.341  1.7748 -0.3198  1.0171
 5261SOL     OW27418   0.968   4.719   3.465  0.3327 -0.2082 -0.3526
 5261SOL    HW127419   0.927   4.634   3.478 -0.2649  0.1692  0.2102
 5261SOL    HW227420   0.900   0.031   3.512  0.4814  0.4341 -0.7871
 5262SOL     OW27421   2.734   0.283   0.200 -0.4000  0.4734  0.2388
 5262SOL    HW127422   2.738   0.203   0.147 -2.0727  0.4809  0.0993
 5262SOL    HW227423   2.824   0.312   0.187 -0.0537 -0.9961 -0.6890
 5263SOL     OW27424   1.296   1.954   5.553 -0.5505  0.1517  0.6269
 5263SOL    HW127425   1.264   1.880   5.501  0.4453  0.0841  0.1074
 5263SOL    HW227426   1.253   1.934   5.636 -1.4229 -0.5947  0.0065
 5264SOL     OW27427   2.880   3.746  11.969 -0.1646 -0.4783 -0.3937
 5264SOL    HW127428   2.954   3.691  11.944  1.3760  1.8608 -1.0197
 5264SOL    HW227429   2.836   3.741  11.885  0.8473  2.3667 -1.0948
 5265SOL     OW27430   3.961   0.922  16.566 -0.1950 -0.1435 -0.1783
 5265SOL    HW127431   3.944   0.843  16.515 -0.8961  1.5940 -2.6592
 5265SOL    HW227432   4.053   0.905  16.585 -0.5740 -2.3293 -0.3303
 5266SOL     OW27433   4.330   3.742   6.934 -0.1801  0.5274  0.2726
 5266SOL    HW127434   4.246   3.748   6.889 -0.6907  0.1150  1.1732
 5266SOL    HW227435   4.389   3.782   6.869  0.5753  0.8705  1.1610
 5267SOL     OW27436   2.610   3.599   3.457  0.0894  0.3272 -0.5406
 5267SOL    HW127437   2.683   3.559   3.411  0.0283 -1.5338  1.0209
 5267SOL    HW227438   2.538   3.542   3.431  1.1260 -0.9323 -0.6028
 5268SOL     OW27439   2.041   3.312   7.004 -0.5467  0.0685  0.1643
 5268SOL    HW127440   1.952   3.313   7.037 -0.0541 -0.4456  1.4986
 5268SOL    HW227441   2.048   3.382   6.939 -0.3510 -1.6641 -1.6925
 5269SOL     OW27442   3.100   4.020   5.422 -0.2907 -0.4700  0.0463
 5269SOL    HW127443   3.117   4.094   5.364  0.4005 -1.2131 -0.7003
 5269SOL    HW227444   3.004   4.025   5.419 -0.2299 -0.4762 -1.5329
 5270SOL     OW27445   3.472   3.159   6.667 -0.0182 -0.1406  0.3392
 5270SOL    HW127446   3.543   3.095   6.659  0.5036  0.1581  2.6383
 5270SOL    HW227447   3.412   3.129   6.599 -0.9363 -2.6697  2.2666
 5271SOL     OW27448   2.917   2.802   7.931  0.1518 -0.2410  0.4388
 5271SOL    HW127449   2.885   2.712   7.933 -1.2395  0.3194  2.8094
 5271SOL    HW227450   2.840   2.841   7.889 -0.0523  0.1866  1.2143
 5272SOL     OW27451   2.766   4.354   8.224 -0.0937 -0.0695  0.0121
 5272SOL    HW127452   2.674   4.379   8.217  0.0725  0.5765  0.1281
 5272SOL    HW227453   2.817   4.427   8.260  1.1768 -1.2056  0.5105
 5273SOL     OW27454   4.130   3.987  15.301 -0.0625 -0.2070  0.5782
 5273SOL    HW127455   4.089   3.922  15.358 -0.9946  1.1729  1.4949
 5273SOL    HW227456   4.050   4.036  15.281  0.6294  1.1842  1.1534
 5274SOL     OW27457   3.472   3.062   5.207 -0.0806 -0.1034 -0.2144
 5274SOL    HW127458   3.460   3.139   5.152  0.6325  0.5393  0.5197
 5274SOL    HW227459   3.545   3.084   5.265 -2.0496 -0.9239  2.5600
 5275SOL     OW27460   4.280   0.808   6.248 -0.1106 -0.2827  0.7212
 5275SOL    HW127461   4.367   0.839   6.224 -0.6678  0.4668 -0.3029
 5275SOL    HW227462   4.239   0.894   6.256  0.4070  0.1298 -1.1336
 5276SOL     OW27463   1.908   0.318   9.476 -0.3273  0.3861 -0.0602
 5276SOL    HW127464   1.883   0.382   9.543  2.4816  0.7401  0.6705
 5276SOL    HW227465   2.002   0.309   9.490 -0.3619  0.2560  0.0892
 5277SOL     OW27466   4.657   4.614   3.664  0.5469  0.3880  0.4506
 5277SOL    HW127467   4.725   4.651   3.608  1.0501  0.9375  1.4392
 5277SOL    HW227468   4.578   4.636   3.615 -0.2452 -1.8071  0.7407
 5278SOL     OW27469   1.191   1.987   6.183 -0.1417 -0.1655  0.1037
 5278SOL    HW127470   1.271   1.960   6.229  0.1199  0.8564  0.2467
 5278SOL    HW227471   1.160   1.903   6.150 -0.8621 -0.5103  1.6798
 5279SOL     OW27472   3.539   1.310   6.956  0.0389  0.1006  0.1528
 5279SOL    HW127473   3.552   1.216   6.950 -2.2896 -0.1969  0.0421
 5279SOL    HW227474   3.493   1.318   6.873 -0.7405  1.2063  0.6935
 5280SOL     OW27475   1.889   3.950   6.177  0.3385  0.2520  1.1416
 5280SOL    HW127476   1.820   3.888   6.199  0.2692  0.2149  0.8195
 5280SOL    HW227477   1.838   4.006   6.119  3.5270  0.9847 -0.9607
 5281SOL     OW27478   2.916   2.639   5.426  0.4057  0.3849  0.2097
 5281SOL    HW127479   2.986   2.704   5.440 -0.8585  1.6759  0.5129
 5281SOL    HW227480   2.934   2.570   5.490 -3.3783 -1.4731 -0.7483
 5282SOL     OW27481   3.387   2.935  15.897 -0.3146  0.1225 -0.0690
 5282SOL    HW127482   3.359   2.846  15.918 -0.3030  0.0481 -0.3684
 5282SOL    HW227483   3.395   2.980  15.981  0.8301  0.2215 -0.2217
 5283SOL     OW27484   3.585   3.883  11.336 -0.3768  0.1099 -0.0646
 5283SOL    HW127485   3.648   3.861  11.268  0.0228  0.1851  0.2816
 5283SOL    HW227486   3.514   3.926  11.289 -1.5951 -1.8589 -0.0123
 5284SOL     OW27487   4.200   2.934   8.536  0.1188 -0.0964 -0.1638
 5284SOL    HW127488   4.279   2.879   8.538 -1.4162 -2.3257 -0.5045
 5284SOL    HW227489   4.215   2.967   8.448 -1.4064 -1.1162 -0.8109
 5285SOL     OW27490   2.656   0.829   6.898  0.4390 -0.1708 -0.3243
 5285SOL    HW127491   2.655   0.735   6.878 -0.9744 -0.2043 -0.1082
 5285SOL    HW227492   2.694   0.846   6.984  1.3639 -1.3306 -0.5085
 5286SOL     OW27493   4.029   0.254  14.629  0.0021 -0.3420  0.2772
 5286SOL    HW127494   3.994   0.166  14.643  2.3767 -1.1835  1.0014
 5286SOL    HW227495   3.967   0.310  14.675  0.2247 -0.1406  0.3314
 5287SOL     OW27496   0.658   2.215  12.445 -0.4197  0.4138 -0.2894
 5287SOL    HW127497   0.731   2.224  12.384  0.7741  1.2173  1.2512
 5287SOL    HW227498   0.655   2.121  12.459 -1.1451  0.2909 -1.2216
 5288SOL     OW27499   3.068   3.308   7.435  0.1119 -0.1601 -0.1901
 5288SOL    HW127500   3.052   3.220   7.402 -0.3513  0.2457 -1.0650
 5288SOL    HW227501   2.989   3.331   7.484 -0.3465 -0.3706 -0.8404
 5289SOL     OW27502   4.723   0.839   6.708 -0.6826 -0.3451 -0.4999
 5289SOL    HW127503   0.032   0.852   6.792 -1.2057  2.0367 -0.6051
 5289SOL    HW227504   0.051   0.836   6.637  0.0269  2.2010  0.0125
 5290SOL     OW27505   3.354   3.208   6.914 -0.3249  0.3061 -0.5969
 5290SOL    HW127506   3.433   3.203   6.968 -0.3755  0.4626 -0.5059
 5290SOL    HW227507   3.393   3.189   6.829  0.3691 -1.4864  0.1195
 5291SOL     OW27508   0.699   2.029   3.915 -0.3205 -0.6255 -0.1654
 5291SOL    HW127509   0.665   2.102   3.966 -1.5035 -1.1171 -0.2655
 5291SOL    HW227510   0.750   1.981   3.981  1.4958  0.8791 -0.4666
 5292SOL     OW27511   3.693   3.312   0.336 -0.0988 -0.0898 -0.3958
 5292SOL    HW127512   3.756   3.383   0.323 -1.1813  0.8142 -0.5850
 5292SOL    HW227513   3.687   3.321   0.431 -2.5077 -1.6436 -0.4003
 5293SOL     OW27514   2.558   2.365   7.185  0.2733  0.0836 -0.1448
 5293SOL    HW127515   2.567   2.397   7.274 -0.2126 -0.8652  0.2458
 5293SOL    HW227516   2.647   2.369   7.152  0.2313 -0.2899 -0.3112
 5294SOL     OW27517   4.698   3.325  11.626 -0.6285 -0.3113  0.6119
 5294SOL    HW127518   0.054   3.326  11.600 -1.4193  1.4565 -2.0686
 5294SOL    HW227519   4.710   3.324  11.721  0.1757  2.9427  0.5126
 5295SOL     OW27520   0.131   2.312   6.593 -0.1124 -0.6108 -0.2525
 5295SOL    HW127521   0.154   2.316   6.686  1.6659 -0.6237 -0.7063
 5295SOL    HW227522   0.101   2.222   6.582  0.7280 -0.9601  0.3413
 5296SOL     OW27523   2.612   1.896   3.559  0.2447  0.1162  0.0797
 5296SOL    HW127524   2.627   1.928   3.470  2.6006  0.5561  0.6306
 5296SOL    HW227525   2.572   1.976   3.594  0.7096  1.3281 -2.2138
 5297SOL     OW27526   0.183   1.921   5.952 -0.0012  0.4032  0.2644
 5297SOL    HW127527   0.253   1.972   5.912 -1.1254  1.9011  0.2106
 5297SOL    HW227528   0.179   1.966   6.036  0.9914 -1.7534  1.4696
 5298SOL     OW27529   0.037   3.604  13.180 -0.3054  0.1850  0.0302
 5298SOL    HW127530   0.121   3.644  13.204 -0.3613 -0.3845  1.1931
 5298SOL    HW227531   4.726   3.591  13.262  2.8300 -0.7232  1.6843
 5299SOL     OW27532   1.929   4.494   3.714  0.7160 -0.2230  0.0527
 5299SOL    HW127533   1.919   4.403   3.743 -2.3617 -0.0658 -0.4795
 5299SOL    HW227534   1.941   4.537   3.799 -0.7988 -0.3855  0.3441
 5300SOL     OW27535   1.596   1.561   3.339 -0.0767 -0.2455 -0.6314
 5300SOL    HW127536   1.504   1.578   3.361  0.1721  2.0960 -1.4096
 5300SOL    HW227537   1.634   1.648   3.350  1.2759 -1.0437  0.9292
 5301SOL     OW27538   3.587   4.545   4.350 -0.4809 -0.5167  0.0036
 5301SOL    HW127539   3.544   4.495   4.281 -0.0222 -0.2753 -0.4616
 5301SOL    HW227540   3.650   4.607   4.314 -1.9626 -0.3903 -2.3209
 5302SOL     OW27541   4.188   4.544  11.701  0.0597  0.4491 -0.0005
 5302SOL    HW127542   4.149   4.457  11.705 -1.5605  1.2114  0.8555
 5302SOL    HW227543   4.109   4.590  11.731 -2.3262 -3.5952 -0.1101
 5303SOL     OW27544   1.623   1.865   7.649 -0.3230 -0.4145 -0.4500
 5303SOL    HW127545   1.629   1.769   7.656 -3.3654 -0.5513  0.1325
 5303SOL    HW227546   1.709   1.896   7.620 -0.4460 -1.5600 -2.0803
 5304SOL     OW27547   2.751   2.565   3.681 -0.3048 -0.6549  0.1167
 5304SOL    HW127548   2.764   2.617   3.760 -1.3527  0.4023 -0.4003
 5304SOL    HW227549   2.820   2.589   3.619 -0.5452 -0.2428  0.0120
 5305SOL     OW27550   1.920   2.336   6.845 -0.0386 -0.0236 -0.1567
 5305SOL    HW127551   1.910   2.335   6.941 -3.5651  2.5130 -0.4721
 5305SOL    HW227552   1.934   2.430   6.832  0.1878 -0.0095  0.1813
 5306SOL     OW27553   4.102   4.445   2.499  0.3756  0.0405  0.2676
 5306SOL    HW127554   4.104   4.464   2.593  0.0180 -1.0250  0.4976
 5306SOL    HW227555   4.194   4.423   2.488  0.2545 -0.9900  1.1945
 5307SOL     OW27556   3.056   3.452   4.412 -0.6849 -0.4657  0.1940
 5307SOL    HW127557   3.040   3.363   4.381 -1.8258 -0.4064  0.6293
 5307SOL    HW227558   2.990   3.453   4.481 -2.7996  0.4419 -1.8664
 5308SOL     OW27559   3.013   3.108   0.628  0.2646  0.0765  0.3400
 5308SOL    HW127560   3.070   3.133   0.556  2.3572  0.9569  2.2948
 5308SOL    HW227561   3.040   3.178   0.688  0.5099 -0.4488  0.8465
 5309SOL     OW27562   2.861   1.729  16.101  0.2483 -0.3329  0.2593
 5309SOL    HW127563   2.942   1.775  16.081 -0.6383  0.4243 -1.5655
 5309SOL    HW227564   2.793   1.790  16.074  0.0951 -0.7361 -0.2677
 5310SOL     OW27565   3.542   0.314  14.261 -0.1006 -0.0592  0.4565
 5310SOL    HW127566   3.580   0.380  14.203  3.4994 -2.3233  0.2312
 5310SOL    HW227567   3.605   0.242  14.266 -0.0015  0.1378  2.0595
 5311SOL     OW27568   2.439   3.743   7.113 -0.2869  0.1490 -0.0717
 5311SOL    HW127569   2.477   3.802   7.177 -0.3263  1.0213 -0.8498
 5311SOL    HW227570   2.351   3.780   7.100 -0.5485 -0.6347 -0.5690
 5312SOL     OW27571   0.113   3.200  14.256  0.5467 -0.4210 -0.0077
 5312SOL    HW127572   0.197   3.225  14.217  0.0590 -0.4736 -1.0973
 5312SOL    HW227573   0.066   3.281  14.278  0.2153 -0.6406  0.0970
 5313SOL     OW27574   1.544   3.770   9.615 -0.5471  0.3892  0.5397
 5313SOL    HW127575   1.490   3.744   9.541 -0.3870  2.2886 -0.2595
 5313SOL    HW227576   1.624   3.728   9.583 -1.1191 -1.0305  0.9722
 5314SOL     OW27577   3.930   1.311  11.410  0.2472 -0.6839  0.7239
 5314SOL    HW127578   4.009   1.257  11.414 -0.6330 -2.0536 -0.6782
 5314SOL    HW227579   3.969   1.393  11.441  1.7638  0.2826 -3.8220
 5315SOL     OW27580   2.471   3.939   5.514  0.0954 -0.0813  0.3651
 5315SOL    HW127581   2.492   3.860   5.564  2.4789 -0.8023 -1.7861
 5315SOL    HW227582   2.376   3.944   5.502  0.3006 -0.3337 -1.4027
 5316SOL     OW27583   4.613   3.302   7.645  0.5145 -0.5109  0.1663
 5316SOL    HW127584   4.558   3.290   7.567 -0.8849 -1.5484  1.3093
 5316SOL    HW227585   4.641   3.212   7.661  1.8653 -0.2394 -0.6555
 5317SOL     OW27586   1.956   0.162   1.512  0.5940  0.0742 -0.6982
 5317SOL    HW127587   1.986   0.126   1.429 -1.0244 -2.1990 -0.3086
 5317SOL    HW227588   2.039   0.152   1.559  1.3268 -1.3818 -2.2880
 5318SOL     OW27589   1.338   4.420   2.487  0.3420  0.6053 -0.1165
 5318SOL    HW127590   1.344   4.466   2.404 -4.2029  0.7492 -0.3441
 5318SOL    HW227591   1.387   4.338   2.478 -0.4364  0.2496 -1.0077
 5319SOL     OW27592   3.010   3.311  13.976  0.3398  0.6786  0.2140
 5319SOL    HW127593   3.101   3.306  13.948  1.0472 -2.0526  2.9581
 5319SOL    HW227594   2.965   3.314  13.892 -2.2025 -1.3110  1.5096
 5320SOL     OW27595   0.169   0.452   5.139  0.8181  0.1428 -0.1494
 5320SOL    HW127596   0.098   0.471   5.201 -0.2835 -0.1113 -1.3088
 5320SOL    HW227597   0.240   0.463   5.202  1.1820 -0.0594 -0.5250
 5321SOL     OW27598   3.740   1.641   2.165 -0.3606 -0.3221 -0.0042
 5321SOL    HW127599   3.748   1.552   2.129  1.0337 -0.5550  0.8634
 5321SOL    HW227600   3.823   1.682   2.141 -0.8264 -0.5580 -1.9856
 5322SOL     OW27601   2.263   3.488   4.850  0.8273 -0.2889 -0.7214
 5322SOL    HW127602   2.326   3.559   4.835  0.8309  0.0692  1.0273
 5322SOL    HW227603   2.177   3.526   4.834  0.9794  0.8875  1.2063
 5323SOL     OW27604   1.987   1.872  13.764  0.5993 -0.0438  0.3142
 5323SOL    HW127605   1.988   1.865  13.860  4.1693  0.6756  0.3204
 5323SOL    HW227606   1.896   1.887  13.740  0.4845 -1.4142 -0.1098
 5324SOL     OW27607   3.549   4.123   1.222 -0.2456 -0.0911 -0.6806
 5324SOL    HW127608   3.550   4.052   1.158  0.6481 -0.4681 -0.2430
 5324SOL    HW227609   3.595   4.084   1.296 -0.8706  0.3003 -0.0850
 5325SOL     OW27610   3.912   3.953   1.620 -0.1124 -0.5923  0.5309
 5325SOL    HW127611   3.887   4.044   1.608  1.4195 -0.2078  0.2277
 5325SOL    HW227612   4.007   3.955   1.634  0.2793  0.1170 -2.2645
 5326SOL     OW27613   3.983   0.096   6.435  0.1234 -0.2037  0.1456
 5326SOL    HW127614   3.952   0.163   6.375  0.8017 -0.9204 -1.0190
 5326SOL    HW227615   3.915   0.114   6.500 -1.3038 -1.1973 -1.0741
 5327SOL     OW27616   0.117   1.244   1.895  0.4449 -0.0665  0.0719
 5327SOL    HW127617   0.057   1.308   1.932  1.1276 -0.1969  1.4040
 5327SOL    HW227618   0.114   1.261   1.801  0.4990  0.9577  0.2586
 5328SOL     OW27619   2.410   2.642  16.427 -0.4767 -0.2588 -0.5463
 5328SOL    HW127620   2.461   2.711  16.469  0.1592 -0.7838 -0.4594
 5328SOL    HW227621   2.380   2.593  16.504 -3.1569 -1.6717 -2.5189
 5329SOL     OW27622   2.100   1.415   7.369 -0.3819  0.3985 -0.3308
 5329SOL    HW127623   2.133   1.325   7.367 -0.7769  0.1726  2.8722
 5329SOL    HW227624   2.090   1.425   7.464 -0.2464  0.7481 -0.3558
 5330SOL     OW27625   1.575   1.404   9.855  0.2121 -0.2337  0.2894
 5330SOL    HW127626   1.525   1.402   9.773  0.0912  1.4803  0.3321
 5330SOL    HW227627   1.596   1.311   9.852  0.9137  0.0333 -3.0686
 5331SOL     OW27628   4.618   0.925   4.745  0.0365  0.0062  0.2613
 5331SOL    HW127629   4.617   1.001   4.803 -1.8732 -0.6173  1.0173
 5331SOL    HW227630   4.711   0.915   4.721 -0.0859 -3.1075  1.1377
 5332SOL     OW27631   4.330   2.557  10.625 -0.3502  0.4158  0.1271
 5332SOL    HW127632   4.280   2.592  10.698  1.4230 -0.4199  1.7472
 5332SOL    HW227633   4.368   2.637  10.590  2.1825 -1.0352 -0.4659
 5333SOL     OW27634   0.229   4.132   0.047  0.1492  0.0026  0.5941
 5333SOL    HW127635   0.289   4.099   0.115  0.5997 -3.2369 -1.3993
 5333SOL    HW227636   0.146   4.126   0.094  0.3364  1.7316  1.1639
 5334SOL     OW27637   2.359   2.489   2.415  0.0576 -0.0574  0.1617
 5334SOL    HW127638   2.380   2.444   2.497  3.3746  0.8694 -0.1664
 5334SOL    HW227639   2.271   2.520   2.437 -0.0789 -0.1496 -0.2504
 5335SOL     OW27640   4.314   3.239   6.657  0.2536 -0.7290  0.2124
 5335SOL    HW127641   4.268   3.235   6.741  1.0491  2.0856  0.7853
 5335SOL    HW227642   4.266   3.171   6.610  2.0800 -3.5781  2.4821
 5336SOL     OW27643   0.477   4.656   8.388 -0.1184  0.4151  0.6208
 5336SOL    HW127644   0.571   4.672   8.398  0.1400 -0.6754 -0.0882
 5336SOL    HW227645   0.459   4.702   8.305 -0.1868 -0.6868  0.0197
 5337SOL     OW27646   1.820   1.451  12.285  0.2337  0.3407 -0.3153
 5337SOL    HW127647   1.913   1.464  12.268  0.1553 -0.6420 -1.4680
 5337SOL    HW227648   1.817   1.356  12.276  1.6868  0.1911  0.7498
 5338SOL     OW27649   2.979   1.344   5.133  0.4506  0.1876  0.3168
 5338SOL    HW127650   2.952   1.295   5.211 -0.2811  0.3861  0.1884
 5338SOL    HW227651   2.985   1.435   5.161  1.2622  0.8319 -2.0103
 5339SOL     OW27652   1.357   3.054   6.388  0.7764  0.4292  0.0302
 5339SOL    HW127653   1.290   3.098   6.441  1.1631  0.6699  0.3170
 5339SOL    HW227654   1.385   3.129   6.335 -1.3650  0.7531 -0.6634
 5340SOL     OW27655   0.056   3.750   0.234  0.7174 -0.1903 -1.0679
 5340SOL    HW127656   4.703   3.755   0.200  0.2262  0.3541  0.2667
 5340SOL    HW227657   0.066   3.846   0.234  1.9401 -0.3177 -0.4895
 5341SOL     OW27658   1.390   4.535  12.385 -0.1150  0.1135  0.6434
 5341SOL    HW127659   1.369   4.628  12.393 -1.6026 -0.1495 -0.0597
 5341SOL    HW227660   1.445   4.530  12.463  1.6689 -1.1326 -0.6859
 5342SOL     OW27661   3.195   0.054   4.545  0.6644  0.1745  0.1954
 5342SOL    HW127662   3.211   0.066   4.639 -1.9967  0.1321  0.6568
 5342SOL    HW227663   3.107   0.091   4.548  0.9212  0.8500 -0.8313
 5343SOL     OW27664   0.754   3.878   8.699 -0.3476 -0.0859 -0.3157
 5343SOL    HW127665   0.816   3.805   8.690 -2.1053 -1.7161  0.8757
 5343SOL    HW227666   0.775   3.892   8.791 -1.3700  0.6065 -0.1940
 5344SOL     OW27667   2.546   4.172   7.955  0.3819 -0.6034  0.2424
 5344SOL    HW127668   2.636   4.172   7.924 -0.4974  1.0520 -2.2581
 5344SOL    HW227669   2.529   4.081   7.981 -5.1531  0.1120 -0.7518
 5345SOL     OW27670   3.798   4.229   3.831 -0.4293  0.6277 -0.4638
 5345SOL    HW127671   3.881   4.187   3.856  0.2334  1.3350 -1.4700
 5345SOL    HW227672   3.753   4.213   3.914 -0.4462 -0.4207 -0.6718
 5346SOL     OW27673   0.545   2.002   5.062 -0.0164  0.5039  0.1903
 5346SOL    HW127674   0.595   1.951   4.998  0.3392 -0.9820  1.6550
 5346SOL    HW227675   0.494   2.058   5.003 -0.1936 -1.5624 -1.6275
 5347SOL     OW27676   0.258   3.963  12.029 -0.4514  0.0199  0.0790
 5347SOL    HW127677   0.343   4.001  12.049 -0.2349  0.1194 -1.0485
 5347SOL    HW227678   0.231   4.035  11.973  1.7644  0.9931  0.2735
 5348SOL     OW27679   1.982   2.394   2.914 -0.0079  0.4699 -0.0575
 5348SOL    HW127680   1.969   2.443   2.832 -4.2019  1.0437  0.9475
 5348SOL    HW227681   1.984   2.301   2.890  0.5071  0.5145 -0.1964
 5349SOL     OW27682   2.276   3.597   1.470 -0.3601 -0.5891  0.0077
 5349SOL    HW127683   2.201   3.599   1.410 -0.5269  0.8697  0.2509
 5349SOL    HW227684   2.238   3.652   1.539 -1.2318 -0.4480 -0.5814
 5350SOL     OW27685   2.354   3.171   6.226  0.3895 -0.1641  0.1012
 5350SOL    HW127686   2.419   3.135   6.286 -0.1315 -1.6957 -0.2476
 5350SOL    HW227687   2.423   3.197   6.166  0.3122  0.3610  0.2380
 5351SOL     OW27688   4.549   1.747   8.809 -0.2945  0.6827  0.4180
 5351SOL    HW127689   4.535   1.652   8.811  0.0838  0.5864 -1.4939
 5351SOL    HW227690   4.484   1.765   8.877 -0.2846  1.2300  0.2850
 5352SOL     OW27691   1.927   3.758   3.282  0.0508  0.1219 -0.1555
 5352SOL    HW127692   1.832   3.760   3.289  0.0381  0.0526 -0.3090
 5352SOL    HW227693   1.936   3.670   3.246  1.8486  0.8554 -1.5003
 5353SOL     OW27694   2.687   3.231   2.728 -0.2209 -0.7704 -0.2569
 5353SOL    HW127695   2.721   3.309   2.685  0.2976 -1.2467 -0.7025
 5353SOL    HW227696   2.592   3.240   2.724 -0.0082  1.8126  0.6148
 5354SOL     OW27697   2.476   2.063  14.318  0.1309  0.3754 -0.0036
 5354SOL    HW127698   2.525   2.145  14.317 -1.3815  1.2814 -0.1727
 5354SOL    HW227699   2.478   2.031  14.408 -0.5046  0.1177 -0.0750
 5355SOL     OW27700   2.162   1.543   5.791  0.5596  0.5042 -0.1511
 5355SOL    HW127701   2.105   1.470   5.813  0.1581  0.6930 -0.5636
 5355SOL    HW227702   2.097   1.603   5.756 -1.6963 -2.8810 -1.7732
 5356SOL     OW27703   2.254   4.566   1.310  0.4113 -0.0546 -0.3083
 5356SOL    HW127704   2.266   4.504   1.383 -0.1872 -0.9351 -0.9641
 5356SOL    HW227705   2.338   4.611   1.301 -0.2028  1.0982 -0.2592
 5357SOL     OW27706   1.028   3.607   6.353  0.6389  0.0569 -0.3301
 5357SOL    HW127707   0.991   3.664   6.421  3.3346  1.2821  0.1248
 5357SOL    HW227708   0.953   3.559   6.318 -0.4366  0.5634  1.2780
 5358SOL     OW27709   2.873   4.414  10.682 -0.5581 -0.0835 -0.1906
 5358SOL    HW127710   2.941   4.481  10.674  0.2429 -0.3727  4.1161
 5358SOL    HW227711   2.886   4.361  10.603 -2.2681 -1.5860  0.5460
 5359SOL     OW27712   2.582   3.348   8.402  0.5407  0.1322 -0.4133
 5359SOL    HW127713   2.493   3.318   8.383  0.3497 -0.1152  0.8775
 5359SOL    HW227714   2.622   3.272   8.361 -0.0672 -0.1029 -0.5657
 5360SOL     OW27715   0.675   1.243  16.519  0.1039  0.0080 -0.5096
 5360SOL    HW127716   0.607   1.299  16.483 -1.5169 -1.8544 -0.3658
 5360SOL    HW227717   0.654   1.162  16.472 -1.3515 -1.1319  2.0782
 5361SOL     OW27718   2.684   3.585   2.942 -0.0343  0.3267  0.0769
 5361SOL    HW127719   2.651   3.639   3.014 -0.8355 -1.4473  1.0244
 5361SOL    HW227720   2.767   3.553   2.977 -1.4126 -0.4334  2.6416
 5362SOL     OW27721   1.426   1.287   8.896 -0.2040 -0.1039 -0.2925
 5362SOL    HW127722   1.392   1.227   8.830 -2.2468  1.6157 -0.8221
 5362SOL    HW227723   1.458   1.355   8.836 -0.2837 -0.4045 -0.6741
 5363SOL     OW27724   2.075   0.267   3.309  0.2860  0.3027 -0.3290
 5363SOL    HW127725   2.017   0.195   3.334 -1.1451  1.5931  0.0198
 5363SOL    HW227726   2.051   0.275   3.217  1.1343  1.0214 -0.4950
 5364SOL     OW27727   2.910   0.004   4.346  0.5724 -0.3599  0.1336
 5364SOL    HW127728   2.937   4.650   4.330 -1.2303 -0.8939  0.0533
 5364SOL    HW227729   2.930   0.010   4.439  0.0936 -1.6961  0.3219
 5365SOL     OW27730   3.332   1.424  11.846 -0.1230 -0.2173  0.2761
 5365SOL    HW127731   3.335   1.330  11.861  1.4426 -0.2344 -0.1971
 5365SOL    HW227732   3.416   1.457  11.876  0.2626 -2.2370  1.4128
 5366SOL     OW27733   2.382   0.285  13.553  0.3053  0.4180 -0.0786
 5366SOL    HW127734   2.397   0.225  13.625 -0.6386  1.3752  0.9147
 5366SOL    HW227735   2.419   0.234  13.481 -1.7807 -1.3387  0.0864
 5367SOL     OW27736   0.231   0.402   6.936  0.2731  0.1094  0.0534
 5367SOL    HW127737   0.200   0.354   6.859 -0.4228  0.1159  0.3326
 5367SOL    HW227738   0.326   0.397   6.932  0.1742 -1.6306  0.0722
 5368SOL     OW27739   2.600   2.397  16.742 -0.2077  0.4886  0.1060
 5368SOL    HW127740   2.665   2.425  16.806 -0.1082 -0.5396  0.4554
 5368SOL    HW227741   2.591   2.305  16.769 -1.7798 -0.0327 -2.1886
 5369SOL     OW27742   3.609   2.631  17.176 -0.4397 -0.0397 -0.3299
 5369SOL    HW127743   3.552   2.609  17.250 -2.7767 -0.2378 -2.1632
 5369SOL    HW227744   3.597   2.726  17.177 -0.6933 -0.0538 -1.7319
 5370SOL     OW27745   3.117   1.105   8.688 -0.6847  0.1225 -0.2734
 5370SOL    HW127746   3.159   1.116   8.773 -4.0871 -0.3974  1.4824
 5370SOL    HW227747   3.029   1.138   8.709 -1.0917 -1.2464  0.1455
 5371SOL     OW27748   1.879   4.687  15.665 -0.3722  0.1338  0.1024
 5371SOL    HW127749   1.901   0.024  15.607  0.8808 -0.3712 -0.0447
 5371SOL    HW227750   1.967   4.667  15.695 -1.4450 -1.2837  2.3234
 5372SOL     OW27751   1.112   1.598  16.408  0.2704 -0.2256  0.3155
 5372SOL    HW127752   1.037   1.560  16.453 -0.2529  1.7857  1.1278
 5372SOL    HW227753   1.162   1.517  16.397 -0.9939 -0.6800 -2.0151
 5373SOL     OW27754   4.475   1.008  17.495  0.2187  0.5637 -0.0814
 5373SOL    HW127755   4.404   0.969  17.546  0.4573 -0.1425 -0.2868
 5373SOL    HW227756   4.514   1.064  17.561 -1.6412 -0.6189  2.0130
 5374SOL     OW27757   3.004   4.633  10.082 -0.4829 -0.1595  0.1478
 5374SOL    HW127758   2.971   4.608   9.995 -0.5063  0.5134 -0.0349
 5374SOL    HW227759   3.059   4.704  10.047 -1.2176  0.3993  0.1355
 5375SOL     OW27760   0.276   3.757   3.293 -0.1854  0.5505 -0.2429
 5375SOL    HW127761   0.211   3.817   3.256 -0.5717  0.1991 -0.1346
 5375SOL    HW227762   0.253   3.672   3.256 -0.8986 -0.5924  2.8860
 5376SOL     OW27763   1.890   1.165  13.001 -0.6483 -0.1581 -0.1112
 5376SOL    HW127764   1.887   1.118  12.918 -1.5137  1.9739 -1.2831
 5376SOL    HW227765   1.981   1.196  12.999 -1.0644  0.9756 -1.2424
 5377SOL     OW27766   1.930   2.733   8.810 -0.3728 -0.0746  0.2394
 5377SOL    HW127767   1.959   2.719   8.720  3.1089  1.8673  1.0339
 5377SOL    HW227768   1.917   2.643   8.842 -1.3409 -0.0498 -0.0969
 5378SOL     OW27769   3.580   2.477  11.155 -0.6347 -0.3867 -0.5914
 5378SOL    HW127770   3.595   2.426  11.234  1.6551  1.1245 -0.0617
 5378SOL    HW227771   3.618   2.411  11.097  0.8669  0.6209 -0.7690
 5379SOL     OW27772   3.068   3.216   5.012 -0.2328  0.4859 -0.2980
 5379SOL    HW127773   3.045   3.183   5.098 -0.7526 -0.8550 -0.9613
 5379SOL    HW227774   3.003   3.284   4.996 -0.0996 -0.2583 -4.0022
 5380SOL     OW27775   4.386   1.684  16.181  0.1039  0.9856 -0.2745
 5380SOL    HW127776   4.466   1.707  16.135 -0.6039 -0.0274 -2.0098
 5380SOL    HW227777   4.322   1.752  16.159 -0.3773  1.0565  1.3113
 5381SOL     OW27778   4.653   4.066   2.738  1.1361 -0.0630 -0.1839
 5381SOL    HW127779   4.627   4.041   2.827 -0.1710 -2.0822 -1.1383
 5381SOL    HW227780   4.659   4.160   2.756 -0.3913 -0.1759  0.8948
 5382SOL     OW27781   4.104   3.955   0.283  0.7933 -0.1208 -0.6799
 5382SOL    HW127782   4.015   3.974   0.314  0.3308 -2.2263 -0.6968
 5382SOL    HW227783   4.103   3.866   0.318 -0.5042  0.8714  1.7818
 5383SOL     OW27784   4.398   0.790   4.333 -0.0682 -0.3578 -0.7893
 5383SOL    HW127785   4.319   0.735   4.331 -0.8088  0.5974  1.7295
 5383SOL    HW227786   4.400   0.826   4.422 -1.7664  0.2672 -1.0046
 5384SOL     OW27787   0.411   4.584   6.429  0.6809 -0.4716  0.5452
 5384SOL    HW127788   0.356   4.550   6.358  1.7890 -0.0010 -0.5302
 5384SOL    HW227789   0.349   4.651   6.460 -0.9879 -0.5487 -2.5938
 5385SOL     OW27790   2.909   0.993   4.577 -0.4102 -0.0921 -0.2976
 5385SOL    HW127791   2.873   1.081   4.571 -0.2716 -0.0452 -0.4397
 5385SOL    HW227792   2.917   0.971   4.669  0.0086  0.9346 -0.0917
 5386SOL     OW27793   3.166   1.195   8.940  0.2439  0.2190 -0.1804
 5386SOL    HW127794   3.108   1.185   9.015 -1.1449 -0.0758 -1.2775
 5386SOL    HW227795   3.208   1.280   8.947  0.3509  0.3038 -1.7006
 5387SOL     OW27796   3.062   4.574  11.679 -0.1422 -0.2721  0.4908
 5387SOL    HW127797   3.132   4.589  11.616  1.7065 -1.6484  2.2513
 5387SOL    HW227798   3.077   4.653  11.731 -2.3507 -0.2436  1.1118
 5388SOL     OW27799   3.362   4.301   1.967 -0.1953  0.4676 -0.2407
 5388SOL    HW127800   3.397   4.345   2.044  1.4752 -3.0728  0.9751
 5388SOL    HW227801   3.298   4.242   2.006 -1.5914  2.1743  0.0705
 5389SOL     OW27802   3.112   4.553   8.471  0.5897  0.5946  0.0271
 5389SOL    HW127803   3.018   4.560   8.452  0.3773  0.0060  0.8615
 5389SOL    HW227804   3.114   4.507   8.555 -1.6289  0.8190  0.2009
 5390SOL     OW27805   0.713   2.394   6.071 -0.5544 -0.3580  0.1055
 5390SOL    HW127806   0.781   2.406   6.004  0.5383 -2.4130  0.8238
 5390SOL    HW227807   0.772   2.361   6.139 -0.8078  0.2852  0.6350
 5391SOL     OW27808   2.052   1.949   2.074 -0.4306 -0.3396 -0.0251
 5391SOL    HW127809   1.971   1.899   2.072 -0.8290  0.3319 -0.5961
 5391SOL    HW227810   2.045   1.958   1.979  0.7282 -0.8130 -0.1666
 5392SOL     OW27811   2.766   3.073   8.474 -0.3657 -0.7096  0.3920
 5392SOL    HW127812   2.741   3.044   8.387 -1.9569 -2.8576  1.5688
 5392SOL    HW227813   2.694   3.043   8.529  0.6132 -0.6663  1.7020
 5393SOL     OW27814   0.723   2.715  14.005  0.1700 -0.4734  0.4307
 5393SOL    HW127815   0.738   2.809  14.010  0.1306 -0.4325 -0.2273
 5393SOL    HW227816   0.703   2.706  14.099 -2.4217  0.8211  0.0050
 5394SOL     OW27817   2.126   0.647   0.033  0.2091  0.6809 -0.8219
 5394SOL    HW127818   2.171   0.625  17.694  2.5307  0.5791  0.4989
 5394SOL    HW227819   2.191   0.617   0.096 -2.2733 -1.1265  0.9133
 5395SOL     OW27820   0.399   1.946   0.614 -0.0775  0.0811  0.8463
 5395SOL    HW127821   0.369   2.036   0.598 -0.6400  0.0449  1.6961
 5395SOL    HW227822   0.367   1.902   0.536 -1.8332  0.9039  1.1075
 5396SOL     OW27823   1.637   0.663   8.180  0.5407  0.2620 -0.1138
 5396SOL    HW127824   1.665   0.605   8.109  1.8901 -1.0737  1.5115
 5396SOL    HW227825   1.718   0.711   8.197  0.5074 -0.4745  2.1137
 5397SOL     OW27826   3.615   0.331   0.429  0.3424  0.0440  0.4881
 5397SOL    HW127827   3.616   0.319   0.524 -0.9575 -1.3017  0.3231
 5397SOL    HW227828   3.698   0.293   0.400  1.3896  1.8682  1.1083
 5398SOL     OW27829   0.236   2.290   2.262 -0.0551 -0.2836  0.6120
 5398SOL    HW127830   0.152   2.302   2.305 -0.0717 -0.8849  0.7516
 5398SOL    HW227831   0.291   2.297   2.340 -0.0224 -0.8931  0.6472
 5399SOL     OW27832   4.466   0.731   9.384 -0.6007  0.1025  0.1548
 5399SOL    HW127833   4.372   0.752   9.381 -0.5605  0.3267  0.5258
 5399SOL    HW227834   4.471   0.736   9.289 -2.9183  2.8217  0.1694
 5400SOL     OW27835   1.203   4.223   7.240  0.3095  0.3447  0.5662
 5400SOL    HW127836   1.195   4.147   7.297 -0.0590  0.0040  0.0554
 5400SOL    HW227837   1.110   4.233   7.216  0.5691 -2.2434 -1.5158
 5401SOL     OW27838   0.712   2.359   5.707  0.2804 -0.3779 -0.2179
 5401SOL    HW127839   0.641   2.420   5.687  0.0563 -1.0847 -1.6295
 5401SOL    HW227840   0.726   2.331   5.616  1.8586 -0.2498 -0.0226
 5402SOL     OW27841   1.452   0.948   0.761  0.2113 -0.1676  0.1330
 5402SOL    HW127842   1.397   0.923   0.687 -1.0249  1.1873  0.6011
 5402SOL    HW227843   1.540   0.917   0.737 -0.3107 -0.4583 -1.3597
 5403SOL     OW27844   0.327   4.016   8.382 -0.3297  0.4609 -0.9735
 5403SOL    HW127845   0.302   3.991   8.471 -1.4359  1.0579 -1.1210
 5403SOL    HW227846   0.415   3.977   8.386  0.4152  2.3645  1.6462
 5404SOL     OW27847   3.334   0.043   4.815 -0.1227 -0.3663 -0.6193
 5404SOL    HW127848   3.342   4.685   4.831  0.2028 -0.8165 -3.3553
 5404SOL    HW227849   3.427   0.053   4.798  0.3663 -3.8314  0.0201
 5405SOL     OW27850   2.477   1.519   6.721  0.0228 -0.1083  0.1255
 5405SOL    HW127851   2.460   1.542   6.630  0.7383  1.5650  0.4023
 5405SOL    HW227852   2.570   1.541   6.733  0.1398 -1.2419  1.2890
 5406SOL     OW27853   3.951   3.811   9.372  0.0767 -0.4840  0.5260
 5406SOL    HW127854   4.043   3.834   9.366  0.3289 -1.0669  2.0928
 5406SOL    HW227855   3.929   3.786   9.282  1.4502 -0.1941  0.1152
 5407SOL     OW27856   3.307   0.167   0.634  0.3647 -0.1003  0.0358
 5407SOL    HW127857   3.377   0.105   0.615 -0.4417 -1.3230  1.0832
 5407SOL    HW227858   3.334   0.245   0.584  0.8325 -1.7268 -2.2686
 5408SOL     OW27859   1.794   4.583   8.804 -0.4847 -0.2899 -0.2843
 5408SOL    HW127860   1.788   4.674   8.834  0.3378 -0.9744  1.9232
 5408SOL    HW227861   1.702   4.563   8.787  0.1066 -0.9856 -2.7262
 5409SOL     OW27862   2.879   1.202   5.362  0.2103  0.3209  0.3020
 5409SOL    HW127863   2.910   1.178   5.449  1.0395  0.0472 -0.0792
 5409SOL    HW227864   2.878   1.113   5.327 -0.0684  1.2103 -1.9553
 5410SOL     OW27865   1.249   4.506   9.230  0.0619  0.7922 -0.1710
 5410SOL    HW127866   1.299   4.431   9.197  1.0262  0.6776  1.5363
 5410SOL    HW227867   1.160   4.471   9.233  0.0616  0.7412 -0.8597
 5411SOL     OW27868   1.820   4.026  10.161 -0.0855 -0.1633  0.0897
 5411SOL    HW127869   1.759   4.067  10.222  0.7153  1.0527  0.0923
 5411SOL    HW227870   1.843   4.091  10.094  0.0511 -0.4555 -0.1433
 5412SOL     OW27871   0.172   4.227  12.211 -0.4266 -0.9361 -0.2277
 5412SOL    HW127872   0.132   4.169  12.275 -1.1354  0.4986  0.6312
 5412SOL    HW227873   0.104   4.234  12.144 -0.7512  0.1194  0.2161
 5413SOL     OW27874   4.146   1.918   1.875 -0.3725 -0.2339 -0.5041
 5413SOL    HW127875   4.240   1.905   1.863 -0.7432 -2.5171 -0.9462
 5413SOL    HW227876   4.126   2.004   1.838  0.6994 -0.1959 -1.0247
 5414SOL     OW27877   3.689   0.464   7.930 -1.0408 -0.0536 -0.6996
 5414SOL    HW127878   3.691   0.542   7.875  2.0650  0.7620  0.5934
 5414SOL    HW227879   3.612   0.415   7.898  1.5340 -2.7394 -2.8454
 5415SOL     OW27880   1.502   1.042   3.338 -0.7894  0.3788 -0.1880
 5415SOL    HW127881   1.597   1.034   3.326 -0.3606  4.8097 -0.1128
 5415SOL    HW227882   1.485   1.136   3.327 -1.1934  0.4162  0.7698
 5416SOL     OW27883   3.915   2.784   5.703  0.0926 -0.2742 -0.2802
 5416SOL    HW127884   3.898   2.711   5.761  2.1442 -0.4681  0.0860
 5416SOL    HW227885   3.956   2.733   5.634 -1.3836 -1.0835 -0.5557
 5417SOL     OW27886   2.619   0.625   4.422  0.1912  0.0316  0.1322
 5417SOL    HW127887   2.660   0.710   4.410 -0.9625  0.3196 -1.6704
 5417SOL    HW227888   2.545   0.638   4.362 -0.0044 -1.3385  0.0603
 5418SOL     OW27889   2.490   1.569   5.983 -0.3494 -0.0960  0.0479
 5418SOL    HW127890   2.540   1.650   5.983 -1.2804  0.4795  1.5634
 5418SOL    HW227891   2.542   1.501   6.025  0.6833 -1.1290 -2.9142
 5419SOL     OW27892   2.390   1.715   6.910 -0.2151  0.2716  0.0322
 5419SOL    HW127893   2.388   1.647   6.843 -2.0443  0.6825 -0.3336
 5419SOL    HW227894   2.362   1.790   6.858 -1.1172  1.0912  1.6789
 5420SOL     OW27895   0.160   0.872   4.723  0.1639 -0.2942  0.5176
 5420SOL    HW127896   0.152   0.800   4.661 -0.5269  3.2034 -3.4701
 5420SOL    HW227897   0.175   0.942   4.659  1.7719 -1.8744 -0.8083
 5421SOL     OW27898   3.895   4.407   4.346  0.7718  0.5558 -0.0632
 5421SOL    HW127899   3.812   4.438   4.382  0.5975  2.2142 -1.8467
 5421SOL    HW227900   3.886   4.400   4.251  2.1901 -3.7460  0.1524
 5422SOL     OW27901   4.490   3.827   6.702  0.2762  0.2748  0.0080
 5422SOL    HW127902   4.474   3.921   6.693 -0.8943  0.0324 -0.4523
 5422SOL    HW227903   4.532   3.810   6.618 -2.6197 -1.1003 -1.1462
 5423SOL     OW27904   0.853   3.731   5.085  0.0962  0.6010  0.2601
 5423SOL    HW127905   0.785   3.689   5.031  2.0001 -2.0350 -0.0613
 5423SOL    HW227906   0.934   3.703   5.043 -1.2448  0.0252 -1.9198
 5424SOL     OW27907   2.029   4.500   5.177 -0.9365 -0.2702 -0.5397
 5424SOL    HW127908   1.963   4.521   5.243  0.8396 -0.2928  1.2407
 5424SOL    HW227909   1.968   4.504   5.104 -0.2946  0.1199 -1.0587
 5425SOL     OW27910   0.805   3.411  16.208  0.2505  0.6645 -0.4191
 5425SOL    HW127911   0.713   3.388  16.225  0.8843 -0.5235  1.3878
 5425SOL    HW227912   0.808   3.502  16.240 -1.3865  0.7356 -0.4699
 5426SOL     OW27913   1.570   0.905  15.260 -0.1790  0.3333  0.4157
 5426SOL    HW127914   1.579   0.965  15.334 -0.9032  3.5207 -2.0926
 5426SOL    HW227915   1.543   0.819  15.294  1.8893 -0.3778  0.2652
 5427SOL     OW27916   0.966   3.546  10.317  0.5696  0.6160 -0.1392
 5427SOL    HW127917   1.019   3.619  10.284 -0.8332  1.1619 -1.1845
 5427SOL    HW227918   0.950   3.581  10.405  1.0720  0.2359  0.1009
 5428SOL     OW27919   1.823   1.380  15.354 -0.3875  0.7764 -0.0347
 5428SOL    HW127920   1.878   1.333  15.291  1.4832  2.2229  0.5109
 5428SOL    HW227921   1.792   1.452  15.299 -2.5770 -0.2704 -0.1695
 5429SOL     OW27922   3.271   2.113   8.898 -0.3710  0.0528 -0.0447
 5429SOL    HW127923   3.309   2.031   8.865 -2.3838 -0.4681 -1.0896
 5429SOL    HW227924   3.288   2.111   8.992  1.5865 -0.7425 -0.4122
 5430SOL     OW27925   2.117   3.372  10.863 -0.3245 -0.1075  0.7587
 5430SOL    HW127926   2.196   3.425  10.870 -0.4317 -0.0839  1.7241
 5430SOL    HW227927   2.111   3.362  10.768  0.6682  1.1357  0.5725
 5431SOL     OW27928   0.957   1.894   8.172 -0.3401  0.3795 -0.5591
 5431SOL    HW127929   1.052   1.906   8.169 -0.3314  0.0918 -1.5335
 5431SOL    HW227930   0.921   1.981   8.187 -0.1509  0.0505  1.7475
 5432SOL     OW27931   1.930   1.184  13.800 -0.2725 -0.5514 -0.5755
 5432SOL    HW127932   1.986   1.108  13.810 -0.6960 -0.8616 -0.5708
 5432SOL    HW227933   1.863   1.171  13.867  0.5756 -0.2683  0.3325
 5433SOL     OW27934   0.253   3.749   2.224  0.2791  0.0217 -0.2367
 5433SOL    HW127935   0.246   3.654   2.223  2.5687 -0.1269 -1.0565
 5433SOL    HW227936   0.167   3.773   2.258  0.2721 -1.1093  0.5400
 5434SOL     OW27937   1.981   0.579   4.360  0.3925  0.5887 -0.4870
 5434SOL    HW127938   1.928   0.609   4.434 -1.8323 -0.6987 -1.5561
 5434SOL    HW227939   2.055   0.548   4.412  0.0189 -0.7703 -0.7418
 5435SOL     OW27940   0.041   2.085   4.513 -0.0630 -0.8219 -0.0108
 5435SOL    HW127941   4.730   2.007   4.544 -0.4564 -0.1512  1.0628
 5435SOL    HW227942   4.709   2.150   4.496  0.2277 -0.3044  0.7902
 5436SOL     OW27943   3.642   1.800  13.435 -0.3158 -0.1402 -0.0934
 5436SOL    HW127944   3.607   1.799  13.524 -0.8612 -2.7134 -0.3483
 5436SOL    HW227945   3.563   1.795  13.382 -0.6989  1.2836  0.3298
 5437SOL     OW27946   3.278   0.154   3.163 -0.6350 -0.3948  0.1227
 5437SOL    HW127947   3.356   0.146   3.107 -2.1931 -2.9937 -1.6588
 5437SOL    HW227948   3.316   0.172   3.249  1.7184  1.2502 -1.2492
 5438SOL     OW27949   1.723   4.552   3.134  0.0850 -0.3023  0.0025
 5438SOL    HW127950   1.652   4.540   3.070  0.1903  2.1993 -0.5930
 5438SOL    HW227951   1.700   4.639   3.167 -0.0518 -0.3180 -0.0494
 5439SOL     OW27952   2.812   4.239   7.833 -0.4737 -0.0707  0.1684
 5439SOL    HW127953   2.891   4.291   7.827 -1.1056  0.7923 -0.7415
 5439SOL    HW227954   2.745   4.292   7.789  0.1591 -1.7435 -2.8797
 5440SOL     OW27955   3.246   2.255   2.284  0.3473  0.3063 -0.0979
 5440SOL    HW127956   3.212   2.175   2.326  0.3141 -1.2378 -3.0910
 5440SOL    HW227957   3.193   2.326   2.320  2.5267  2.2423 -0.7501
 5441SOL     OW27958   0.019   3.240  13.803  0.1169  0.2329 -0.0698
 5441SOL    HW127959   0.076   3.163  13.800 -1.4364 -0.8910 -0.8212
 5441SOL    HW227960   4.669   3.198  13.807 -0.1803  0.8842  0.5475
 5442SOL     OW27961   4.106   3.199   5.020 -0.4982 -0.8875  0.8158
 5442SOL    HW127962   4.021   3.211   4.978 -0.1929  0.7324  0.6819
 5442SOL    HW227963   4.169   3.230   4.955 -0.7811 -0.2291  0.8603
 5443SOL     OW27964   2.265   0.455   7.060 -0.1023 -0.4425 -0.2703
 5443SOL    HW127965   2.330   0.387   7.041  0.2857  0.1569 -1.0346
 5443SOL    HW227966   2.291   0.521   6.996 -2.3549  2.2595  1.6020
 5444SOL     OW27967   3.005   3.596   8.010  0.3466 -0.4513 -0.0334
 5444SOL    HW127968   2.945   3.636   7.947 -0.7612 -0.6864  0.8914
 5444SOL    HW227969   2.970   3.616   8.096  2.5871 -0.3253  0.8459
 5445SOL     OW27970   0.337   2.952  14.213  0.8344 -0.7923  0.6839
 5445SOL    HW127971   0.380   2.909  14.287  0.7844  1.1303  1.8273
 5445SOL    HW227972   0.309   3.031  14.258 -0.3544  0.0668 -1.5627
 5446SOL     OW27973   3.558   0.197   3.082  0.0615  0.2563 -0.9131
 5446SOL    HW127974   3.520   0.251   3.013 -2.1131  0.1964  0.2116
 5446SOL    HW227975   3.583   0.123   3.027 -1.3613 -2.0233  1.5335
 5447SOL     OW27976   3.861   1.068  13.385 -0.0045 -0.0538  0.2296
 5447SOL    HW127977   3.802   1.142  13.374 -0.5906 -0.6077 -0.3615
 5447SOL    HW227978   3.825   1.034  13.467 -1.5697 -1.0479 -0.8743
 5448SOL     OW27979   3.253   0.170   3.945  0.0679  0.4748 -0.5600
 5448SOL    HW127980   3.281   0.078   3.944  2.0593  1.1176 -2.0758
 5448SOL    HW227981   3.170   0.164   3.897 -0.5492 -2.7306  0.8885
 5449SOL     OW27982   0.017   1.515   7.700 -0.3246  0.2950  0.0482
 5449SOL    HW127983   4.672   1.565   7.705  0.7537  1.8236  2.1646
 5449SOL    HW227984   4.716   1.438   7.657 -0.5576 -0.1825  1.1017
 5450SOL     OW27985   4.461   2.472   5.763  0.1215  0.5433  0.0683
 5450SOL    HW127986   4.479   2.474   5.669 -3.2154 -0.2912 -0.5782
 5450SOL    HW227987   4.381   2.524   5.772  0.3068  0.7067  0.7763
 5451SOL     OW27988   0.068   0.611  13.641 -0.0962 -0.4974 -0.3622
 5451SOL    HW127989   0.122   0.632  13.564 -1.2421  2.2229 -0.4411
 5451SOL    HW227990   0.061   0.516  13.633 -0.1416 -0.4115 -1.3351
 5452SOL     OW27991   4.682   1.095  14.735 -0.2061  0.2073  0.0108
 5452SOL    HW127992   4.641   1.011  14.716 -1.8705  0.3474  2.9941
 5452SOL    HW227993   0.028   1.069  14.777  0.1630  1.2189 -0.0818
 5453SOL     OW27994   0.383   3.012  11.466  0.0617 -0.3300 -0.0579
 5453SOL    HW127995   0.457   2.982  11.519 -0.1252  0.3804  0.6001
 5453SOL    HW227996   0.335   2.931  11.482  0.7697 -0.7345  0.0240
 5454SOL     OW27997   2.764   1.115   6.903  0.0625 -0.0419  0.1892
 5454SOL    HW127998   2.701   1.047   6.875 -0.0938 -0.6694  2.1096
 5454SOL    HW227999   2.809   1.140   6.822 -0.5353  0.0824 -0.1093
 5455SOL     OW28000   3.606   0.032   4.784 -0.0835  0.4419 -0.3733
 5455SOL    HW128001   3.689   0.044   4.738  0.7826 -3.4347  0.1493
 5455SOL    HW228002   3.618   4.687   4.833  0.0010 -0.1811 -1.4307
 5456SOL     OW28003   0.054   3.011   7.020  0.8326 -0.5223 -0.1198
 5456SOL    HW128004   0.028   3.101   7.037  2.0878 -0.1377 -0.2403
 5456SOL    HW228005   0.114   3.025   6.947 -0.2512 -0.8996 -1.0719
 5457SOL     OW28006   0.080   4.347   4.214  0.2799  0.2127  0.2260
 5457SOL    HW128007   0.114   4.296   4.140  0.4746  1.4831 -0.5483
 5457SOL    HW228008   0.131   4.304   4.283  0.6155 -0.5743 -0.5073
 5458SOL     OW28009   0.930   0.816  17.613  0.6048  0.2113 -0.2209
 5458SOL    HW128010   0.912   0.770  17.531 -0.3985  0.5135 -0.1657
 5458SOL    HW228011   0.888   0.901  17.602 -0.3720 -0.2529 -0.0666
 5459SOL     OW28012   2.267   1.487   7.989 -0.0130  0.5536 -0.0246
 5459SOL    HW128013   2.266   1.522   7.900 -0.1255 -0.1907 -0.3192
 5459SOL    HW228014   2.330   1.415   7.983  0.5738  1.1367 -0.7491
 5460SOL     OW28015   3.628   1.867  14.456 -0.3957 -0.3798 -0.1077
 5460SOL    HW128016   3.614   1.777  14.425 -0.1098 -0.0646 -1.1397
 5460SOL    HW228017   3.606   1.920  14.380 -0.4977  0.5204  0.5523
 5461SOL     OW28018   2.500   0.089   9.044 -0.6531 -0.2606  0.4060
 5461SOL    HW128019   2.447   0.097   8.965 -0.2309 -2.1586 -0.0699
 5461SOL    HW228020   2.446   0.145   9.100  0.9681  1.3663  0.3189
 5462SOL     OW28021   2.165   1.294  11.016 -0.0348  0.7574  0.4879
 5462SOL    HW128022   2.073   1.273  11.029 -0.0637 -0.5783 -1.9862
 5462SOL    HW228023   2.159   1.367  10.954  2.1476 -0.5809 -1.2914
 5463SOL     OW28024   0.094   2.028  17.422 -0.2460  0.0398  0.1411
 5463SOL    HW128025   0.056   2.046  17.336 -0.2445 -0.8831 -0.0541
 5463SOL    HW228026   0.138   1.945  17.406 -0.2317  0.2344 -0.8556
 5464SOL     OW28027   1.446   0.281   7.824  0.0567 -0.3884  0.3623
 5464SOL    HW128028   1.459   0.292   7.730 -0.3243  2.2171  0.6171
 5464SOL    HW228029   1.439   0.186   7.834 -1.8494 -0.3131 -0.2874
 5465SOL     OW28030   4.701   0.144   8.837 -0.0103  0.0619 -0.1967
 5465SOL    HW128031   0.052   0.103   8.829  0.6904  1.8425 -1.7347
 5465SOL    HW228032   4.646   0.089   8.782  0.3979  0.5904 -1.1324
 5466SOL     OW28033   1.884   0.462   4.757  0.1643 -0.3831  0.1006
 5466SOL    HW128034   1.926   0.498   4.835 -0.3011  0.6510 -0.1387
 5466SOL    HW228035   1.907   0.529   4.693 -2.3155 -2.3776 -2.8916
 5467SOL     OW28036   0.611   3.599   9.000 -0.4955 -0.0764 -0.1839
 5467SOL    HW128037   0.571   3.513   8.986  0.9142 -0.6655 -0.5728
 5467SOL    HW228038   0.702   3.587   8.972 -0.3981  0.2634 -0.0132
 5468SOL     OW28039   3.272   0.964   4.668  0.1655 -0.0904  0.3073
 5468SOL    HW128040   3.193   0.927   4.627 -1.3355  0.9118  2.3119
 5468SOL    HW228041   3.255   0.956   4.761  0.5479  1.1001  0.4726
 5469SOL     OW28042   0.770   3.140   4.278 -0.0156 -0.1312 -0.0504
 5469SOL    HW128043   0.742   3.223   4.317  0.3991 -0.1733  0.3377
 5469SOL    HW228044   0.684   3.099   4.289  0.5597 -1.5716 -0.9170
 5470SOL     OW28045   2.917   0.114   4.617 -0.0753  0.3123  0.2076
 5470SOL    HW128046   2.919   0.202   4.654  2.3944  1.2722 -2.2181
 5470SOL    HW228047   2.838   0.078   4.659 -2.0246  0.2384 -3.4778
 5471SOL     OW28048   1.707   0.988  10.146  0.0086  0.0973  0.3860
 5471SOL    HW128049   1.726   0.940  10.227  2.8977 -0.1912 -0.4646
 5471SOL    HW228050   1.759   0.936  10.085  0.2052  0.8101 -0.0475
 5472SOL     OW28051   2.428   1.377   2.515 -0.2930 -0.3387  0.0600
 5472SOL    HW128052   2.507   1.432   2.518 -0.3603 -0.0385 -3.6079
 5472SOL    HW228053   2.456   1.334   2.434 -2.3787  0.2500 -0.9840
 5473SOL     OW28054   0.141   0.638   4.557 -0.5357  0.0649  0.2633
 5473SOL    HW128055   0.130   0.560   4.611  0.1806  0.2320  0.6481
 5473SOL    HW228056   0.224   0.620   4.513 -0.7384  0.2422 -0.1903
 5474SOL     OW28057   3.690   1.983  17.497  0.1458  0.1069 -0.5040
 5474SOL    HW128058   3.654   1.976  17.585  1.1614 -0.9455 -0.1678
 5474SOL    HW228059   3.755   2.053  17.508  1.3044 -0.5384 -3.1625
 5475SOL     OW28060   1.223   3.784   2.365  0.6006 -0.1345 -0.0198
 5475SOL    HW128061   1.259   3.729   2.434  1.2919  0.6411  0.2360
 5475SOL    HW228062   1.288   3.762   2.297  1.7152  1.5982  0.4961
 5476SOL     OW28063   3.741   3.567   4.279 -0.4576 -0.1050 -0.2433
 5476SOL    HW128064   3.715   3.549   4.188  0.3084 -0.0789 -0.4668
 5476SOL    HW228065   3.657   3.546   4.318  0.2978 -0.5554  1.1218
 5477SOL     OW28066   3.044   1.253  13.749  0.5791 -0.2058 -0.6387
 5477SOL    HW128067   2.949   1.243  13.749  0.4853  0.6718 -1.0961
 5477SOL    HW228068   3.061   1.222  13.660 -0.8429  0.4443 -1.1239
 5478SOL     OW28069   0.907   4.194   5.712  0.5899 -0.2440 -0.0171
 5478SOL    HW128070   0.871   4.220   5.627  0.7519 -2.1891 -0.6741
 5478SOL    HW228071   0.901   4.100   5.697 -0.1578  0.0846 -1.8398
 5479SOL     OW28072   3.787   0.364  16.862 -0.1663  0.2490 -0.2859
 5479SOL    HW128073   3.736   0.443  16.876  0.9831  0.8122  0.7797
 5479SOL    HW228074   3.848   0.389  16.793  2.2586  1.9941  2.4565
 5480SOL     OW28075   2.359   3.025   5.166 -0.0160  0.2770 -0.1628
 5480SOL    HW128076   2.446   2.990   5.143 -0.1225 -0.3120  0.3499
 5480SOL    HW228077   2.342   3.083   5.092  0.3237 -2.0534 -2.0939
 5481SOL     OW28078   1.572   2.968  10.678 -0.4249  0.0593  0.5371
 5481SOL    HW128079   1.626   2.966  10.757 -0.0897 -0.2808  0.2958
 5481SOL    HW228080   1.538   2.879  10.683  2.4043 -0.9285  1.5904
 5482SOL     OW28081   2.336   3.298   3.717  0.2137  0.0203  0.5557
 5482SOL    HW128082   2.429   3.279   3.725 -0.1251 -2.3963 -1.2700
 5482SOL    HW228083   2.312   3.270   3.806 -0.7905 -1.5929 -0.2231
 5483SOL     OW28084   2.689   4.094   0.499 -0.1661 -0.0216  0.3631
 5483SOL    HW128085   2.601   4.126   0.478 -0.9771 -0.9293  2.3479
 5483SOL    HW228086   2.677   4.005   0.531  0.6852 -0.3096 -0.1187
 5484SOL     OW28087   2.964   0.528   2.389 -0.4654  0.3804  0.2138
 5484SOL    HW128088   2.891   0.590   2.393 -1.7534 -1.1116 -0.5349
 5484SOL    HW228089   3.021   0.565   2.457 -1.7563  0.9882  0.9589
 5485SOL     OW28090   3.062   3.998   2.602 -0.0125  0.7127  0.3417
 5485SOL    HW128091   3.010   3.946   2.663  0.4066 -0.7773 -0.5936
 5485SOL    HW228092   3.032   4.087   2.620 -0.7462  0.2546  1.3814
 5486SOL     OW28093   1.822   1.044   8.247  0.0861  0.3212  0.0567
 5486SOL    HW128094   1.760   1.095   8.300 -1.0562 -1.4625  0.4458
 5486SOL    HW228095   1.897   1.101   8.231 -1.8440  2.9411  0.3192
 5487SOL     OW28096   0.745   4.032  14.862  0.1643 -0.3038 -0.6471
 5487SOL    HW128097   0.682   4.091  14.903  0.3363  0.1625 -1.0533
 5487SOL    HW228098   0.824   4.061  14.908  1.1435 -1.5356 -1.5392
 5488SOL     OW28099   1.884   0.241   5.015 -0.6062  0.6124 -0.2413
 5488SOL    HW128100   1.800   0.285   5.004 -0.3548  0.9186 -0.9060
 5488SOL    HW228101   1.873   0.161   4.964  0.1525 -0.5401  1.4053
 5489SOL     OW28102   4.242   2.876   1.519  0.9062  0.0018  0.1140
 5489SOL    HW128103   4.230   2.961   1.477  0.1958 -0.3577 -0.4124
 5489SOL    HW228104   4.324   2.851   1.477 -0.1023 -1.5256 -0.9601
 5490SOL     OW28105   2.988   0.891   3.510  0.3763  0.1257  0.4123
 5490SOL    HW128106   2.977   0.812   3.457  0.4349  0.8762 -0.7201
 5490SOL    HW228107   2.958   0.957   3.448  4.0598 -1.2588 -2.8284
 5491SOL     OW28108   3.850   0.188   5.718 -0.2753 -0.2931  0.1734
 5491SOL    HW128109   3.943   0.205   5.700 -0.1986  0.1712  0.9750
 5491SOL    HW228110   3.811   0.188   5.631  1.2428 -1.0066 -0.5037
 5492SOL     OW28111   0.312   3.697   4.842  0.0848  0.0465  0.1141
 5492SOL    HW128112   0.399   3.656   4.846  0.4162  0.6962 -0.4143
 5492SOL    HW228113   0.288   3.623   4.786  0.2223  0.5612 -0.6346
 5493SOL     OW28114   0.237   4.502  12.810  0.0389 -0.0821 -0.2316
 5493SOL    HW128115   0.293   4.557  12.755  0.3040 -1.5560 -1.4445
 5493SOL    HW228116   0.227   4.426  12.753 -3.0439  0.2152 -0.1141
 5494SOL     OW28117   0.389   1.221   4.022  0.4310  0.4927 -0.2153
 5494SOL    HW128118   0.453   1.214   4.092 -0.4196  1.0395  0.6196
 5494SOL    HW228119   0.415   1.155   3.958 -1.4654 -0.7672  0.3139
 5495SOL     OW28120   3.266   2.311   9.455  0.1614  0.6689 -0.0955
 5495SOL    HW128121   3.289   2.224   9.486  0.1934  0.2483 -1.2733
 5495SOL    HW228122   3.355   2.345   9.455 -0.2158  1.7247 -2.3321
 5496SOL     OW28123   3.969   2.418   2.428  0.2775 -0.2166 -0.2241
 5496SOL    HW128124   4.001   2.353   2.491 -1.1072 -1.2484 -0.5905
 5496SOL    HW228125   3.878   2.391   2.423  0.0766  0.8872 -2.1221
 5497SOL     OW28126   3.055   4.702   7.735  0.1285  0.0307  0.2841
 5497SOL    HW128127   3.002   4.622   7.742  0.0833  0.3733  3.8106
 5497SOL    HW228128   3.127   4.679   7.795  2.2467  1.3331 -1.7528
 5498SOL     OW28129   2.676   3.834   5.320 -0.1358  1.0765  1.4334
 5498SOL    HW128130   2.680   3.738   5.321 -1.4140  1.0184  0.3076
 5498SOL    HW228131   2.614   3.843   5.392 -1.6306  0.5078  0.2024
 5499SOL     OW28132   0.032   4.377   0.039 -0.0311  0.0677  0.3564
 5499SOL    HW128133   0.091   4.356   0.112  1.1246  1.3773 -0.2126
 5499SOL    HW228134   0.018   4.468   0.064  0.8362  0.1916  0.3961
 5500SOL     OW28135   3.844   3.681   9.606 -0.6901 -0.8392 -0.1602
 5500SOL    HW128136   3.750   3.690   9.597 -0.4064 -0.2717 -2.5408
 5500SOL    HW228137   3.859   3.738   9.530  1.5098  0.1016  0.9690
 5501SOL     OW28138   1.668   1.612   1.912  0.1925  0.4147  0.1163
 5501SOL    HW128139   1.732   1.622   1.841 -0.8905  1.2170 -0.7367
 5501SOL    HW228140   1.652   1.518   1.908  0.6666  0.3942 -1.2277
 5502SOL     OW28141   0.352   3.112  15.454  0.8030 -0.1367  0.5720
 5502SOL    HW128142   0.373   3.037  15.509 -2.8412 -1.8161 -0.2596
 5502SOL    HW228143   0.293   3.074  15.388  0.8170  3.0981 -1.2797
 5503SOL     OW28144   4.455   4.694   6.166  0.4298  0.3054 -0.0065
 5503SOL    HW128145   4.462   0.034   6.107  1.2005  1.9839  2.2550
 5503SOL    HW228146   4.363   4.708   6.189  0.6790 -1.0665  1.8175
 5504SOL     OW28147   2.704   0.399   7.496  0.1409 -0.2032  0.3596
 5504SOL    HW128148   2.712   0.316   7.543  1.3566 -0.9487 -1.1662
 5504SOL    HW228149   2.765   0.456   7.543 -0.3796  0.8579 -0.2563
 5505SOL     OW28150   0.495   3.084   2.336  0.1720 -0.6046 -0.0586
 5505SOL    HW128151   0.498   3.098   2.431 -0.7099 -1.1045  0.0450
 5505SOL    HW228152   0.587   3.099   2.316  0.4637  0.6414  2.1923
 5506SOL     OW28153   3.773   2.738   8.843 -0.1043  0.2198  0.3212
 5506SOL    HW128154   3.731   2.756   8.927 -0.9809  0.6801 -0.2077
 5506SOL    HW228155   3.856   2.693   8.852  0.3376  1.0751  0.4970
 5507SOL     OW28156   2.947   2.445  14.415  0.4516 -0.0956  0.4404
 5507SOL    HW128157   3.008   2.512  14.445 -0.2012  0.9328 -0.5620
 5507SOL    HW228158   2.953   2.460  14.321  1.3144 -1.2199  0.3078
 5508SOL     OW28159   4.418   4.202  14.017  0.3145  0.4282 -0.4035
 5508SOL    HW128160   4.482   4.131  14.016 -1.5260 -1.2480 -0.4409
 5508SOL    HW228161   4.381   4.180  14.103  1.1456 -1.2983 -0.4790
 5509SOL     OW28162   2.473   4.635   0.128 -0.5714  0.3619 -0.3431
 5509SOL    HW128163   2.533   4.569   0.093  2.2740  2.7952 -0.0904
 5509SOL    HW228164   2.495   4.712   0.075  0.0422  0.3903 -0.0461
 5510SOL     OW28165   2.398   1.658   3.089 -0.2106 -0.0976  0.2550
 5510SOL    HW128166   2.374   1.608   3.167 -0.1386 -1.7571 -0.7728
 5510SOL    HW228167   2.372   1.591   3.025 -0.6556  0.4827 -0.1654
 5511SOL     OW28168   0.397   0.314   8.335 -0.4746  0.6548 -0.1295
 5511SOL    HW128169   0.433   0.278   8.416 -0.6177 -0.6180 -0.6448
 5511SOL    HW228170   0.311   0.327   8.374  0.6511 -0.1584  2.6427
 5512SOL     OW28171   4.384   2.462  15.257 -0.6103  0.2794 -0.6059
 5512SOL    HW128172   4.433   2.531  15.212  1.4915 -1.3394 -0.8113
 5512SOL    HW228173   4.421   2.379  15.229  1.2175  0.9612 -0.2076
 5513SOL     OW28174   1.604   2.333   5.896  0.4939  0.3372  0.0079
 5513SOL    HW128175   1.687   2.300   5.931  0.1834  0.4585  0.8453
 5513SOL    HW228176   1.621   2.427   5.909 -0.6086  0.7028 -1.2462
 5514SOL     OW28177   3.718   4.359   2.013  0.2804  0.0922 -0.2507
 5514SOL    HW128178   3.649   4.381   2.077 -0.6250 -3.2099 -0.1003
 5514SOL    HW228179   3.765   4.442   2.015  1.0565 -0.3281 -1.2014
 5515SOL     OW28180   0.463   0.687   7.897 -0.3855 -0.4582  0.3334
 5515SOL    HW128181   0.556   0.711   7.901  0.4375 -3.8837  2.1081
 5515SOL    HW228182   0.482   0.594   7.886 -0.9458 -0.3285 -1.7357
 5516SOL     OW28183   0.139   2.548  14.201  0.5638  0.1355  0.0877
 5516SOL    HW128184   0.233   2.554  14.218  0.1748 -0.4622  2.3391
 5516SOL    HW228185   0.151   2.626  14.147 -1.1902  1.1442  1.1821
 5517SOL     OW28186   1.943   4.380   2.838  0.4667 -0.1378 -0.1186
 5517SOL    HW128187   1.951   4.431   2.918 -0.9202  0.3127 -0.2570
 5517SOL    HW228188   1.889   4.306   2.868 -1.2032  0.7087 -1.0549
 5518SOL     OW28189   1.627   2.075   0.580 -0.0047  0.1838  0.0504
 5518SOL    HW128190   1.644   1.983   0.600  2.7331  0.4433 -1.1934
 5518SOL    HW228191   1.569   2.106   0.650  0.3027 -1.7133  1.1379
 5519SOL     OW28192   2.344   1.781   7.165 -0.2882 -0.2991  0.7284
 5519SOL    HW128193   2.389   1.861   7.138 -2.4978  0.7220  0.0485
 5519SOL    HW228194   2.358   1.729   7.086 -0.3354 -0.1597  0.6271
 5520SOL     OW28195   4.735   3.665   2.781  0.3236 -0.3611 -0.3477
 5520SOL    HW128196   4.658   3.698   2.827  0.0545 -0.5853 -0.6324
 5520SOL    HW228197   4.690   3.609   2.716 -0.7660 -0.5452  0.5670
 5521SOL     OW28198   0.642   3.255  12.943  0.6891 -0.6060  0.6302
 5521SOL    HW128199   0.695   3.233  13.019 -1.2620 -1.0851  1.8562
 5521SOL    HW228200   0.700   3.247  12.868 -0.2779  1.6483 -0.3537
 5522SOL     OW28201   1.450   2.978   5.586 -0.7744  0.1543 -0.2429
 5522SOL    HW128202   1.406   3.048   5.537  0.6581  1.6144  0.5470
 5522SOL    HW228203   1.465   2.915   5.516 -1.8937  0.1501 -0.4754
 5523SOL     OW28204   3.828   1.613  10.727 -0.2017  0.2342  0.5033
 5523SOL    HW128205   3.811   1.537  10.783 -0.3572 -0.1303 -0.0348
 5523SOL    HW228206   3.807   1.684  10.787  0.1394 -1.1209  2.2438
 5524SOL     OW28207   1.206   2.798   9.886  0.1086  0.0276  0.1247
 5524SOL    HW128208   1.137   2.782   9.950  0.5296 -2.8692 -0.1177
 5524SOL    HW228209   1.275   2.740   9.919 -0.6167 -0.5348  0.6610
 5525SOL     OW28210   0.129   4.404   2.591 -0.5342  0.3962  0.4233
 5525SOL    HW128211   0.049   4.451   2.569  0.3825  2.0473  0.6440
 5525SOL    HW228212   0.204   4.449   2.553  0.3037 -1.1263  0.2690
 5526SOL     OW28213   4.440   2.894   3.254  0.1465  0.0202  0.1082
 5526SOL    HW128214   4.517   2.951   3.247 -0.9422  1.3080 -1.2050
 5526SOL    HW228215   4.371   2.959   3.264 -1.0442 -1.0960 -0.9086
 5527SOL     OW28216   0.048   4.403   5.204 -0.1143 -0.5794  0.3445
 5527SOL    HW128217   4.726   4.476   5.226 -0.3387 -0.2260 -1.3881
 5527SOL    HW228218   0.138   4.433   5.220 -1.1896  1.2761  2.8705
 5528SOL     OW28219   0.681   1.218   2.085 -0.3642  0.2928 -0.3869
 5528SOL    HW128220   0.655   1.293   2.032 -0.7624 -0.3112 -1.0310
 5528SOL    HW228221   0.748   1.176   2.032  0.4067 -0.2153  0.9750
 5529SOL     OW28222   3.759   1.029  11.173 -0.2613  0.8198  0.3018
 5529SOL    HW128223   3.805   1.064  11.249  1.1409  1.4935 -0.8603
 5529SOL    HW228224   3.823   0.977  11.124 -2.0321  1.0237 -2.2333
 5530SOL     OW28225   3.033   3.703   3.363  0.4687  0.1539  0.3808
 5530SOL    HW128226   3.011   3.698   3.270 -0.4273 -0.5287  0.6331
 5530SOL    HW228227   3.005   3.618   3.396  2.6054 -0.8946 -0.5556
 5531SOL     OW28228   2.052   0.870   7.911 -0.1976 -0.1153 -0.0576
 5531SOL    HW128229   2.100   0.861   7.993 -1.9074  0.5960  1.0276
 5531SOL    HW228230   1.961   0.881   7.940  0.4311 -0.0202  1.8595
 5532SOL     OW28231   2.471   1.990   5.888  0.3141  0.1006  0.0309
 5532SOL    HW128232   2.439   1.913   5.841  1.1950  0.9599 -1.9932
 5532SOL    HW228233   2.400   2.054   5.880 -0.2679 -0.4763  0.6275
 5533SOL     OW28234   4.385   2.285   4.793 -0.0432  0.1448  0.2014
 5533SOL    HW128235   4.398   2.350   4.724 -4.4544  1.9986  1.1325
 5533SOL    HW228236   4.326   2.227   4.744 -0.1903  1.5837 -1.3332
 5534SOL     OW28237   3.845   3.357  13.125  0.6349 -0.2016 -0.2275
 5534SOL    HW128238   3.892   3.327  13.047  1.0838 -0.2142  0.0499
 5534SOL    HW228239   3.867   3.449  13.116  1.2377 -0.4195 -0.9606
 5535SOL     OW28240   0.300   0.673   8.566  0.2848 -0.0433  0.0877
 5535SOL    HW128241   0.263   0.758   8.590  0.0088 -0.6671  1.8559
 5535SOL    HW228242   0.221   0.620   8.565  2.0115 -2.6463  1.8816
 5536SOL     OW28243   1.840   1.617   6.748  0.0051  0.1542  0.3510
 5536SOL    HW128244   1.759   1.616   6.799  0.6592 -0.5787  1.3704
 5536SOL    HW228245   1.888   1.686   6.795  1.2674 -1.2567  1.1109
 5537SOL     OW28246   4.674   1.526   5.275 -0.6220  0.3096  0.6772
 5537SOL    HW128247   4.666   1.596   5.211  1.4482  1.6802  1.9131
 5537SOL    HW228248   4.629   1.568   5.348 -1.1282  1.1310 -0.1240
 5538SOL     OW28249   0.489   0.520   7.204 -0.2095 -0.1352  0.2657
 5538SOL    HW128250   0.408   0.553   7.243 -1.3780  0.0003 -2.2983
 5538SOL    HW228251   0.464   0.504   7.113  3.4173 -2.4369 -0.3641
 5539SOL     OW28252   2.417   3.582   5.826 -0.2763  0.1769 -0.3725
 5539SOL    HW128253   2.373   3.526   5.763  1.5739 -0.9819 -0.6295
 5539SOL    HW228254   2.338   3.624   5.861 -0.5459 -0.7910  0.1660
 5540SOL     OW28255   4.238   0.137   5.418  0.4726  0.5402 -0.5980
 5540SOL    HW128256   4.287   0.217   5.439  2.3313 -0.8296  0.3316
 5540SOL    HW228257   4.150   0.170   5.398 -0.2817 -1.7679 -1.1214
 5541SOL     OW28258   0.474   0.831   8.947  0.0185 -0.2975 -0.2240
 5541SOL    HW128259   0.492   0.795   8.860 -2.3381 -0.0553 -0.8346
 5541SOL    HW228260   0.542   0.897   8.962  1.6966 -2.3503  1.1197
 5542SOL     OW28261   4.463   3.200   2.328  0.0091  0.2463 -0.0818
 5542SOL    HW128262   4.541   3.172   2.376 -0.5294 -1.0832  0.0048
 5542SOL    HW228263   4.403   3.179   2.399 -0.8013 -0.5557 -1.0091
 5543SOL     OW28264   2.209   0.469   8.177 -0.6216  0.1209 -0.3575
 5543SOL    HW128265   2.255   0.477   8.093  0.3258 -0.8461  0.0712
 5543SOL    HW228266   2.132   0.525   8.168 -0.8800  0.0090  1.0530
 5544SOL     OW28267   3.362   4.276   8.343 -0.6748  0.4143 -0.0245
 5544SOL    HW128268   3.327   4.190   8.318 -2.7707  0.6406  2.1514
 5544SOL    HW228269   3.327   4.273   8.432 -0.5592 -1.1970 -0.0415
 5545SOL     OW28270   3.955   4.184  15.231  0.0268 -0.3611  0.4519
 5545SOL    HW128271   3.995   4.250  15.287 -0.7313  1.4316 -1.1025
 5545SOL    HW228272   3.869   4.176  15.273 -0.1020  3.0424  0.7994
 5546SOL     OW28273   2.405   1.952   3.850  0.7115  0.5686 -0.1497
 5546SOL    HW128274   2.335   1.955   3.785  1.3355  1.3359 -0.7845
 5546SOL    HW228275   2.472   2.014   3.821  0.9081  1.0521  1.3197
 5547SOL     OW28276   2.328   2.427  10.152 -0.0967 -0.2002 -0.4566
 5547SOL    HW128277   2.359   2.336  10.152  0.7218  0.0715 -2.0835
 5547SOL    HW228278   2.288   2.422  10.238 -0.2835  0.5239 -0.4990
 5548SOL     OW28279   4.713   0.871   1.342 -0.1383  0.5897  0.4419
 5548SOL    HW128280   4.661   0.902   1.268 -0.0923 -0.2235  0.0647
 5548SOL    HW228281   4.674   0.919   1.415 -1.6479  3.1550 -2.0680
 5549SOL     OW28282   1.229   1.562   7.079 -0.7120  0.1833 -0.0543
 5549SOL    HW128283   1.291   1.588   7.148 -1.8395  2.2152  0.1730
 5549SOL    HW228284   1.233   1.636   7.019 -0.4073  0.5851  0.4623
 5550SOL     OW28285   0.185   1.984   4.278 -0.2168  0.2550  0.0256
 5550SOL    HW128286   0.110   1.942   4.238  0.6002 -2.1470  1.0413
 5550SOL    HW228287   0.143   2.005   4.362 -0.1419 -0.6357  0.2828
 5551SOL     OW28288   0.860   2.794   6.769 -0.4623 -0.2579 -0.2879
 5551SOL    HW128289   0.943   2.811   6.724 -0.0243 -0.8153  0.3117
 5551SOL    HW228290   0.809   2.866   6.731  0.8298  1.8217  1.9149
 5552SOL     OW28291   0.200   4.316   3.697 -0.1793 -0.0493 -0.4909
 5552SOL    HW128292   0.139   4.331   3.625 -2.7222  0.2017  1.6939
 5552SOL    HW228293   0.201   4.220   3.699  0.3975 -0.0289  0.0987
 5553SOL     OW28294   0.519   1.956   6.072  0.3121 -0.8201 -0.3086
 5553SOL    HW128295   0.537   2.040   6.112 -2.7364  0.7499 -2.2284
 5553SOL    HW228296   0.449   1.983   6.012  0.7442  1.0547  0.0483
 5554SOL     OW28297   3.583   4.402   6.067 -0.1035 -0.1343  0.5570
 5554SOL    HW128298   3.504   4.452   6.083  1.1987  0.7782  4.0243
 5554SOL    HW228299   3.566   4.309   6.058  3.1272 -0.7218  0.2446
 5555SOL     OW28300   2.493   3.082   4.029 -0.3412 -0.0757 -0.6450
 5555SOL    HW128301   2.421   3.130   4.072 -0.1142  0.1284 -0.4909
 5555SOL    HW228302   2.502   3.007   4.087  0.6615  0.2162 -0.4285
 5556SOL     OW28303   1.321   0.295   5.772  0.3517 -0.2530 -0.2486
 5556SOL    HW128304   1.235   0.291   5.812  1.2702 -1.2408  1.6265
 5556SOL    HW228305   1.379   0.289   5.847 -1.0545 -0.9276  0.7795
 5557SOL     OW28306   2.872   2.194   2.196 -0.0188 -0.3665 -0.2977
 5557SOL    HW128307   2.905   2.227   2.112  1.3175  0.4301  0.5352
 5557SOL    HW228308   2.835   2.271   2.240 -0.0512 -0.7711  0.3868
 5558SOL     OW28309   1.508   2.325   3.461 -0.1719 -0.5245  0.8112
 5558SOL    HW128310   1.477   2.415   3.471 -3.5695 -1.6885  0.9576
 5558SOL    HW228311   1.459   2.287   3.387  0.3199 -1.4579  0.9739
 5559SOL     OW28312   4.493   1.865   9.342 -0.0454 -0.4612  0.3468
 5559SOL    HW128313   4.436   1.880   9.267  2.6090  2.9603 -0.9976
 5559SOL    HW228314   4.431   1.835   9.409 -0.7266  3.9130  1.6600
 5560SOL     OW28315   2.961   4.528   9.827 -0.1812 -0.9093  0.0376
 5560SOL    HW128316   3.036   4.515   9.769  0.5910  2.2854  0.3107
 5560SOL    HW228317   2.895   4.576   9.778 -0.6571 -2.3408 -0.7107
 5561SOL     OW28318   1.572   4.318   4.175 -0.0892 -0.0517 -0.0656
 5561SOL    HW128319   1.540   4.405   4.152  0.0888 -0.0074 -0.1435
 5561SOL    HW228320   1.489   4.273   4.193  0.4049 -0.7429  0.5385
 5562SOL     OW28321   2.272   3.798   2.959 -0.8376  0.3513  0.9312
 5562SOL    HW128322   2.282   3.781   3.052  2.5630  2.4747  0.9381
 5562SOL    HW228323   2.286   3.892   2.947 -0.2351  0.2056  0.5170
 5563SOL     OW28324   1.568   1.870   6.483  0.5765 -0.2158  0.0135
 5563SOL    HW128325   1.632   1.939   6.501  1.6162 -0.4632 -2.7770
 5563SOL    HW228326   1.558   1.854   6.577  1.2828  0.1335  0.1457
 5564SOL     OW28327   4.073   1.230   3.310  0.3857 -0.1332  0.1240
 5564SOL    HW128328   4.104   1.199   3.225 -1.0856  0.2541 -0.5479
 5564SOL    HW228329   4.079   1.325   3.297 -0.2576  0.0695  1.3173
 5565SOL     OW28330   2.443   3.775   8.904  0.3025  0.1196  0.0421
 5565SOL    HW128331   2.419   3.704   8.963  1.4166  0.1062  0.4690
 5565SOL    HW228332   2.508   3.826   8.952  0.6329  1.0043 -1.3326
 5566SOL     OW28333   1.541   1.319   8.580 -0.5219  0.1673  0.6059
 5566SOL    HW128334   1.529   1.290   8.489  2.0194 -0.6714  0.5501
 5566SOL    HW228335   1.586   1.402   8.562  1.7981 -0.5840  3.0227
 5567SOL     OW28336   4.046   1.497   6.141  0.0094  0.6247  0.3071
 5567SOL    HW128337   4.129   1.531   6.109 -0.1088 -0.7645 -1.5008
 5567SOL    HW228338   4.004   1.580   6.162  0.0619  0.3108  1.6733
 5568SOL     OW28339   2.147   3.423   7.402 -0.1098  0.5031  0.4172
 5568SOL    HW128340   2.139   3.381   7.487 -1.2332  0.8106  0.4608
 5568SOL    HW228341   2.157   3.515   7.426 -0.3658  0.8530 -0.8072
 5569SOL     OW28342   2.337   0.436   2.644  0.4411  0.2934 -0.5083
 5569SOL    HW128343   2.267   0.502   2.640 -0.9965 -1.1234  0.8887
 5569SOL    HW228344   2.343   0.415   2.551 -1.8102  2.9538 -1.2732
 5570SOL     OW28345   4.018   2.799   6.349 -0.0781 -0.5317 -0.5548
 5570SOL    HW128346   4.108   2.778   6.325 -0.0498  1.0198 -1.8728
 5570SOL    HW228347   4.029   2.869   6.414  1.3579  0.7726 -2.1975
 5571SOL     OW28348   2.113   1.962   9.447 -0.3576  0.1887 -0.2151
 5571SOL    HW128349   2.102   1.963   9.352 -0.4310 -1.6491 -0.2338
 5571SOL    HW228350   2.064   2.038   9.479 -1.6683 -0.7621  0.0521
 5572SOL     OW28351   0.710   2.138   2.054  0.1470 -0.3593 -0.1962
 5572SOL    HW128352   0.653   2.096   1.990 -2.3262  1.2943  0.9284
 5572SOL    HW228353   0.642   2.141   2.122  1.7520 -0.2936  1.4188
 5573SOL     OW28354   1.325   3.136  13.123  0.2685  0.0543 -0.2116
 5573SOL    HW128355   1.402   3.179  13.159 -0.1691  0.6344  0.0273
 5573SOL    HW228356   1.347   3.043  13.124  0.3919  0.0696 -1.8542
 5574SOL     OW28357   2.116   2.053   7.979 -0.9694  0.2283  0.0280
 5574SOL    HW128358   2.121   1.991   7.906  0.1066  1.5380 -0.9991
 5574SOL    HW228359   2.140   1.992   8.048 -1.2547 -1.3500 -1.2496
 5575SOL     OW28360   4.608   0.629   1.824  0.2115 -0.3284  0.1944
 5575SOL    HW128361   4.560   0.556   1.862  0.3013  0.3987  1.6667
 5575SOL    HW228362   4.583   0.624   1.731 -0.2973  1.4891  0.2422
 5576SOL     OW28363   4.322   2.583  15.752  0.6090 -0.0803 -0.4526
 5576SOL    HW128364   4.322   2.516  15.684 -0.2692 -1.1525  0.5850
 5576SOL    HW228365   4.305   2.518  15.820  0.1507 -1.0878 -1.5333
 5577SOL     OW28366   0.418   0.664  10.542  0.2380 -0.6107  0.2191
 5577SOL    HW128367   0.364   0.646  10.466  1.0659  0.2664 -0.5704
 5577SOL    HW228368   0.404   0.757  10.560  1.0822 -0.2690 -0.9446
 5578SOL     OW28369   3.660   2.885  17.720  0.5247  0.0479 -0.1088
 5578SOL    HW128370   3.722   2.820  17.688  1.0592 -0.2361  1.5051
 5578SOL    HW228371   3.579   2.833  17.719  0.2973  0.3383  2.4075
 5579SOL     OW28372   0.818   2.135  11.516 -0.3254 -0.0124  0.5782
 5579SOL    HW128373   0.907   2.106  11.496 -0.4174 -0.5633  0.9761
 5579SOL    HW228374   0.774   2.138  11.431  0.3069 -0.0607  0.2504
 5580SOL     OW28375   3.422   3.212   4.720  0.2506 -0.4898  0.0989
 5580SOL    HW128376   3.460   3.224   4.807 -0.0024 -2.0680  0.4263
 5580SOL    HW228377   3.341   3.263   4.721  1.2231  1.0642  0.0890
 5581SOL     OW28378   2.776   1.162  10.896  0.3905 -0.6931  0.1272
 5581SOL    HW128379   2.844   1.095  10.888 -0.3854 -1.2700 -1.5790
 5581SOL    HW228380   2.803   1.208  10.976  2.4579 -1.3331 -0.2037
 5582SOL     OW28381   1.836   0.483  13.542  0.1309 -0.9332  0.1481
 5582SOL    HW128382   1.826   0.463  13.635  2.5451  0.2021  0.6580
 5582SOL    HW228383   1.761   0.541  13.525 -2.2246 -4.6917 -2.1216
 5583SOL     OW28384   2.629   2.223   8.944 -0.7015 -0.8332 -0.1307
 5583SOL    HW128385   2.708   2.270   8.918 -1.7349 -0.8869 -3.2718
 5583SOL    HW228386   2.624   2.256   9.034  2.7431  0.0284 -0.2554
 5584SOL     OW28387   0.945   1.072   9.636 -0.6788  0.1308 -0.3254
 5584SOL    HW128388   1.011   1.139   9.614 -1.7056  1.1928 -0.1800
 5584SOL    HW228389   0.871   1.122   9.669  0.5647  0.6154  1.7638
 5585SOL     OW28390   1.442   2.208   9.425  0.5538  0.1656  0.0912
 5585SOL    HW128391   1.379   2.226   9.495 -0.4315 -1.2230 -0.4397
 5585SOL    HW228392   1.514   2.256   9.466  1.2251  0.3977 -1.3558
 5586SOL     OW28393   0.545   1.869  12.902  0.0269 -0.2119  0.0867
 5586SOL    HW128394   0.500   1.952  12.914 -1.6725 -1.1160 -0.0326
 5586SOL    HW228395   0.574   1.851  12.991  0.1219 -1.7721 -0.2543
 5587SOL     OW28396   3.716   3.836  11.106 -0.6158  0.2881 -0.1171
 5587SOL    HW128397   3.765   3.915  11.085 -0.0137 -0.3016 -0.9418
 5587SOL    HW228398   3.674   3.821  11.021 -0.8152 -2.0714  0.3911
 5588SOL     OW28399   1.725   2.476   7.609 -0.2147  0.3234 -0.2006
 5588SOL    HW128400   1.798   2.537   7.617 -0.5741  0.8413 -0.9027
 5588SOL    HW228401   1.707   2.466   7.703  0.4999  1.1666  0.0241
 5589SOL     OW28402   1.397   2.481   5.240  0.0542  0.2331  0.2523
 5589SOL    HW128403   1.367   2.500   5.329 -0.5088  0.1233  0.0888
 5589SOL    HW228404   1.487   2.454   5.257 -0.1233 -1.2030 -0.9837
 5590SOL     OW28405   1.356   2.573   9.964  0.5268 -0.2082 -0.3017
 5590SOL    HW128406   1.424   2.522  10.008  0.7330  0.1962 -0.1468
 5590SOL    HW228407   1.355   2.544   9.873  3.5294  0.3614 -0.5090
 5591SOL     OW28408   4.581   1.163   3.596 -0.1391 -0.1703 -0.0951
 5591SOL    HW128409   4.594   1.219   3.672  0.2877  1.4333 -1.3752
 5591SOL    HW228410   4.509   1.109   3.631 -0.6573  1.6040  1.5378
 5592SOL     OW28411   1.796   3.639   7.433 -0.3346  0.4131 -0.6435
 5592SOL    HW128412   1.789   3.652   7.527 -1.2531 -1.0023 -0.5107
 5592SOL    HW228413   1.730   3.570   7.419 -0.8385  0.4687  1.4720
 5593SOL     OW28414   1.970   0.679   2.891  0.1031  0.1969  0.3694
 5593SOL    HW128415   1.909   0.608   2.911 -0.0804  0.8295  2.0762
 5593SOL    HW228416   1.918   0.752   2.925 -0.5193 -0.5081  0.9326
 5594SOL     OW28417   1.080   3.580   3.451  0.0373  0.2234  0.4355
 5594SOL    HW128418   1.015   3.619   3.393  2.8010  2.5559 -1.0809
 5594SOL    HW228419   1.161   3.627   3.430  0.4788 -1.7790 -2.3078
 5595SOL     OW28420   0.920   0.539   6.936  0.0057  0.0023 -0.0360
 5595SOL    HW128421   0.943   0.629   6.914  0.4787 -0.4029 -1.2191
 5595SOL    HW228422   0.867   0.514   6.860  0.7895 -3.1258  0.4482
 5596SOL     OW28423   0.813   3.164   2.967 -0.3355 -0.2127  0.6938
 5596SOL    HW128424   0.908   3.176   2.981 -0.0262 -1.3583 -0.5107
 5596SOL    HW228425   0.800   3.094   3.031 -2.8053 -0.9700 -0.6809
 5597SOL     OW28426   1.988   3.515   3.181  0.0181 -0.1623  0.3069
 5597SOL    HW128427   2.083   3.503   3.187  0.1076 -0.2220 -1.0947
 5597SOL    HW228428   1.959   3.444   3.238  0.2801 -2.5801 -2.5254
 5598SOL     OW28429   0.025   1.771   2.151 -0.3665  0.6352 -0.0514
 5598SOL    HW128430   4.720   1.803   2.071 -0.2541  1.2751  0.1429
 5598SOL    HW228431   0.065   1.852   2.184 -0.9550  0.8640  0.0922
 5599SOL     OW28432   2.777   2.650   7.359 -0.6387  0.1263  0.1083
 5599SOL    HW128433   2.781   2.581   7.425  2.1656 -1.5250 -1.7976
 5599SOL    HW228434   2.722   2.717   7.401  0.4758 -0.4657  2.4906
 5600SOL     OW28435   2.850   3.117   9.915 -0.1115  0.2555  0.1130
 5600SOL    HW128436   2.932   3.074   9.940  0.0431  0.6178  0.2340
 5600SOL    HW228437   2.801   3.107   9.997  0.8646  0.3208  0.7137
 5601SOL     OW28438   1.003   0.224   7.321 -0.1613 -0.0365 -0.0012
 5601SOL    HW128439   0.978   0.142   7.277 -1.3729  0.1876  0.2493
 5601SOL    HW228440   0.914   0.260   7.316 -1.1419 -2.5120 -0.4922
 5602SOL     OW28441   3.485   2.700   6.782 -0.0361 -0.1949 -0.2272
 5602SOL    HW128442   3.422   2.630   6.797 -0.2687  0.2402  0.8494
 5602SOL    HW228443   3.439   2.784   6.777  0.4478 -0.0159 -1.5972
 5603SOL     OW28444   3.681   2.749   6.400  0.0024  0.4137  0.0175
 5603SOL    HW128445   3.628   2.816   6.355  0.7810  1.0295  0.0120
 5603SOL    HW228446   3.715   2.704   6.323 -1.1086 -0.5417  0.0885
 5604SOL     OW28447   0.315   2.878  14.921 -0.4113 -0.3351 -0.4412
 5604SOL    HW128448   0.248   2.862  14.987 -1.3753  0.2306 -1.2853
 5604SOL    HW228449   0.366   2.797  14.924  0.5575  0.2687 -0.6622
 5605SOL     OW28450   1.825   0.443  17.124  0.8156  0.2225  0.1562
 5605SOL    HW128451   1.860   0.525  17.158 -0.1188  1.0800 -0.9424
 5605SOL    HW228452   1.774   0.479  17.052 -0.5494 -1.9154  0.0337
 5606SOL     OW28453   2.170   1.912  16.175 -0.9270 -0.0064  0.2321
 5606SOL    HW128454   2.213   1.992  16.205 -0.1631  0.3817 -1.9217
 5606SOL    HW228455   2.106   1.899  16.245  0.4911 -0.5446  1.4170
 5607SOL     OW28456   4.474   2.855   1.315 -0.0330  0.2042  0.2470
 5607SOL    HW128457   4.489   2.767   1.282 -3.9678 -0.1758 -0.5643
 5607SOL    HW228458   4.553   2.859   1.369  1.2409  1.1398 -1.6771
 5608SOL     OW28459   1.586   2.315   5.424 -0.5977  0.0621  0.7051
 5608SOL    HW128460   1.515   2.289   5.482 -0.2638  0.3895  1.2534
 5608SOL    HW228461   1.655   2.257   5.455 -0.5854  0.2091  0.9480
 5609SOL     OW28462   3.603   3.832   4.862 -0.0213  0.2780 -0.4020
 5609SOL    HW128463   3.584   3.906   4.805 -1.1892 -0.5429 -1.0564
 5609SOL    HW228464   3.679   3.795   4.817  0.4884  0.3618  0.3758
 5610SOL     OW28465   3.198   0.811   5.579 -0.3429 -0.0051 -0.2194
 5610SOL    HW128466   3.277   0.790   5.629 -1.7039 -1.5378  1.2654
 5610SOL    HW228467   3.225   0.895   5.541  0.6660 -0.1151  0.2452
 5611SOL     OW28468   2.072   2.586  15.915  0.8465 -0.5151  0.0853
 5611SOL    HW128469   2.130   2.657  15.944  0.4727  0.0510 -0.5695
 5611SOL    HW228470   1.992   2.591  15.966 -0.0031  0.0732 -1.3084
 5612SOL     OW28471   1.358   3.820   2.112  0.2954 -0.2578 -0.0934
 5612SOL    HW128472   1.374   3.911   2.137  1.2548 -1.2869  2.9654
 5612SOL    HW228473   1.440   3.787   2.075 -0.4410 -1.9570 -0.2337
 5613SOL     OW28474   2.828   4.416   6.225 -0.0347 -0.4787 -0.6819
 5613SOL    HW128475   2.904   4.443   6.277  0.5502  0.8235 -2.2362
 5613SOL    HW228476   2.800   4.496   6.182  1.1052  0.2092 -0.1156
 5614SOL     OW28477   2.864   0.400   5.957 -0.7472 -0.1030 -0.7978
 5614SOL    HW128478   2.790   0.454   5.930 -1.3074 -0.9525 -0.9820
 5614SOL    HW228479   2.913   0.473   5.993  0.9642 -0.5314 -2.2517
 5615SOL     OW28480   2.748   2.573   2.079  0.1220  0.0554  0.2689
 5615SOL    HW128481   2.842   2.578   2.063  0.6015 -3.3913  2.0077
 5615SOL    HW228482   2.742   2.614   2.165  0.5813 -1.9899  1.2697
 5616SOL     OW28483   3.003   3.673  11.437  0.6880 -0.6508  0.3273
 5616SOL    HW128484   3.043   3.693  11.352  0.1337  0.6993  0.3835
 5616SOL    HW228485   3.070   3.697  11.502 -0.5571 -0.8430  1.6741
 5617SOL     OW28486   2.796   2.776  12.715  0.1484  0.0298  0.2183
 5617SOL    HW128487   2.802   2.781  12.620  2.2537 -0.2096  0.3379
 5617SOL    HW228488   2.854   2.702  12.737 -0.9739 -1.1794 -0.8878
 5618SOL     OW28489   0.668   0.949   4.854  0.2007  0.9477  0.3202
 5618SOL    HW128490   0.599   0.958   4.787  0.2019 -0.4406  0.1390
 5618SOL    HW228491   0.747   0.975   4.808 -0.0381  2.0562  0.5440
 5619SOL     OW28492   4.212   2.581   5.764 -0.6537 -0.2908 -0.6094
 5619SOL    HW128493   4.150   2.558   5.696  0.8571 -1.0285 -1.7441
 5619SOL    HW228494   4.200   2.674   5.784  1.6427  0.0717 -0.9155
 5620SOL     OW28495   3.033   0.598   7.814  0.6230  0.1890 -0.5222
 5620SOL    HW128496   3.106   0.543   7.844 -0.3531 -0.4772  0.6094
 5620SOL    HW228497   3.055   0.678   7.862  2.5394 -0.2435 -0.6697
 5621SOL     OW28498   4.695   1.900  17.668 -0.5286  0.0663 -0.4660
 5621SOL    HW128499   4.701   1.984  17.623 -2.1154  0.1942 -0.4667
 5621SOL    HW228500   4.736   1.847  17.601 -2.5335 -0.0802 -1.5694
 5622SOL     OW28501   0.713   2.913   5.048  0.7070  0.2186  0.0924
 5622SOL    HW128502   0.720   2.852   5.121 -1.7449  0.8159  0.8379
 5622SOL    HW228503   0.632   2.884   5.005 -0.0120  0.5210  1.2368
 5623SOL     OW28504   2.013   4.237   6.754 -0.2947 -0.0117  0.5516
 5623SOL    HW128505   2.028   4.303   6.686  1.6732 -0.1083  0.8918
 5623SOL    HW228506   2.062   4.277   6.826 -1.0879 -0.0640  1.1292
 5624SOL     OW28507   2.427   1.120   6.687 -0.4678 -0.4909  1.0079
 5624SOL    HW128508   2.417   1.189   6.753 -0.7788  0.6069 -0.1927
 5624SOL    HW228509   2.504   1.152   6.640 -0.9857  0.4361  0.7854
 5625SOL     OW28510   4.560   3.102   8.497  0.1456 -0.2842  0.7619
 5625SOL    HW128511   4.637   3.120   8.551  0.5910  2.0630 -0.6602
 5625SOL    HW228512   4.519   3.027   8.539  1.5566 -0.1066  2.4515
 5626SOL     OW28513   0.151   1.241   3.156 -1.0179  0.2292 -0.3773
 5626SOL    HW128514   0.226   1.198   3.198 -1.0791  1.0792  0.6018
 5626SOL    HW228515   0.185   1.276   3.073  2.0827  2.1599  1.7048
 5627SOL     OW28516   1.855   1.502   3.494  0.1371 -0.3558 -0.3536
 5627SOL    HW128517   1.842   1.469   3.583  2.8784  2.2987  1.0277
 5627SOL    HW228518   1.854   1.597   3.506  2.5449 -0.0656 -2.5522
 5628SOL     OW28519   2.368   4.726  11.832  0.0948  0.3599  0.0566
 5628SOL    HW128520   2.425   0.066  11.846 -0.8108  1.1305 -0.4248
 5628SOL    HW228521   2.344   4.704  11.921  2.1574  0.7195  0.7041
 5629SOL     OW28522   0.756   1.211   4.636 -0.0696  0.9468 -0.0582
 5629SOL    HW128523   0.787   1.145   4.574 -1.5774  1.2275 -1.1187
 5629SOL    HW228524   0.666   1.220   4.604 -0.7514 -2.3186  0.9109
 5630SOL     OW28525   3.481   3.902   8.751 -0.4133 -0.0071 -0.2260
 5630SOL    HW128526   3.518   3.990   8.757 -1.2927  0.3090  0.5299
 5630SOL    HW228527   3.557   3.857   8.788  0.4640  1.7589  0.1043
 5631SOL     OW28528   2.818   2.571   4.324 -0.3607  0.4359 -0.2095
 5631SOL    HW128529   2.766   2.650   4.336 -2.1462 -0.5969 -1.1239
 5631SOL    HW228530   2.849   2.544   4.410 -0.9272 -0.5209 -0.3013
 5632SOL     OW28531   2.121   2.780   0.615 -0.1389 -0.3419 -0.7566
 5632SOL    HW128532   2.037   2.775   0.571 -0.8419 -0.6739  0.6232
 5632SOL    HW228533   2.176   2.781   0.537  0.8407  2.2773 -0.0394
 5633SOL     OW28534   2.348   2.205  16.646 -0.2349 -0.1192  0.3796
 5633SOL    HW128535   2.332   2.194  16.739  1.5193 -2.2579  0.4174
 5633SOL    HW228536   2.402   2.283  16.641 -1.7011  1.0137  2.1075
 5634SOL     OW28537   3.117   3.770   0.152 -0.7425  0.2622  0.2219
 5634SOL    HW128538   3.203   3.801   0.179 -0.2213 -1.0409  0.0720
 5634SOL    HW228539   3.067   3.838   0.198 -0.8245  0.9215 -0.8424
 5635SOL     OW28540   4.135   1.043   3.485 -0.3361  0.1833 -0.2175
 5635SOL    HW128541   4.043   1.041   3.513  0.2314  1.7684  1.7804
 5635SOL    HW228542   4.140   1.103   3.411 -0.8424  0.6493  0.1222
 5636SOL     OW28543   3.271   0.985   3.243  0.3241 -0.5574 -0.2126
 5636SOL    HW128544   3.365   0.992   3.225  0.1362  0.4470 -0.8276
 5636SOL    HW228545   3.264   0.890   3.235  0.2159 -0.6073  0.5305
 5637SOL     OW28546   4.499   1.736   3.933 -0.9456  0.3607  0.3926
 5637SOL    HW128547   4.533   1.759   3.846  2.3689  1.2247  1.9539
 5637SOL    HW228548   4.411   1.709   3.906 -1.3001  0.4452  1.4715
 5638SOL     OW28549   4.688   2.353  13.832  0.4864 -0.3891 -0.3715
 5638SOL    HW128550   4.682   2.395  13.918  0.5990 -1.2848  0.0737
 5638SOL    HW228551   0.046   2.366  13.816  0.5309 -0.5756 -0.2549
 5639SOL     OW28552   3.099   0.392   7.158 -0.2432  0.9642  0.0957
 5639SOL    HW128553   3.030   0.325   7.157 -0.3802  1.1100 -0.0860
 5639SOL    HW228554   3.045   0.467   7.180 -0.2798  1.1237 -0.5521
 5640SOL     OW28555   2.837   3.293   8.943 -0.1357  0.6132 -0.0200
 5640SOL    HW128556   2.885   3.342   8.876 -0.7406  0.3997 -0.6068
 5640SOL    HW228557   2.753   3.301   8.898 -0.0493  1.6517  0.0005
 5641SOL     OW28558   3.115   0.916   2.320 -0.1136  0.4261  0.6020
 5641SOL    HW128559   3.049   0.919   2.389 -0.0981  0.5360  0.6109
 5641SOL    HW228560   3.199   0.921   2.366  0.0646  1.5668  0.1380
 5642SOL     OW28561   1.088   3.557   5.875  0.0476  0.5054 -0.2713
 5642SOL    HW128562   1.113   3.468   5.900 -0.7318  0.2148 -0.5105
 5642SOL    HW228563   1.112   3.612   5.949 -0.8615 -1.9939  1.8562
 5643SOL     OW28564   1.352   1.841  13.704  0.1866 -0.7030  0.3910
 5643SOL    HW128565   1.329   1.753  13.734 -0.0452 -0.2517  1.5567
 5643SOL    HW228566   1.413   1.821  13.633 -1.6153 -1.4450 -0.9449
 5644SOL     OW28567   0.148   2.159   8.400  0.0233 -0.4178 -0.7315
 5644SOL    HW128568   0.158   2.113   8.317  0.1722 -1.8696  0.0753
 5644SOL    HW228569   0.106   2.234   8.360 -0.8214 -1.2051 -1.3225
 5645SOL     OW28570   4.447   1.414  15.006 -0.0025 -0.3094 -0.4850
 5645SOL    HW128571   4.508   1.464  14.951  0.6343 -0.1410  0.3826
 5645SOL    HW228572   4.439   1.333  14.955  1.6240 -1.9328  1.8495
 5646SOL     OW28573   1.263   0.139   4.129 -0.3769 -0.8277 -0.1116
 5646SOL    HW128574   1.328   0.209   4.135 -0.7626 -0.1407 -4.2662
 5646SOL    HW228575   1.183   0.187   4.148 -0.0328 -0.3735  0.1830
 5647SOL     OW28576   3.315   2.385   9.119  0.0545  0.1472  0.3933
 5647SOL    HW128577   3.311   2.470   9.163  2.7855 -0.6974  2.2148
 5647SOL    HW228578   3.317   2.405   9.025  0.3899 -1.9756 -0.0575
 5648SOL     OW28579   3.335   2.054   7.523 -0.4163 -0.2773  0.1042
 5648SOL    HW128580   3.348   2.006   7.441  2.4103 -0.2814  0.5769
 5648SOL    HW228581   3.283   2.128   7.492 -0.0724 -0.7566 -1.6399
 5649SOL     OW28582   3.066   1.868  11.383 -0.3031 -0.0498 -0.2584
 5649SOL    HW128583   3.093   1.920  11.458 -0.7116 -0.3227  0.0729
 5649SOL    HW228584   3.035   1.933  11.320 -0.7189 -0.7190 -0.7512
 5650SOL     OW28585   1.683   3.172   4.881 -0.1783 -0.6054 -0.1716
 5650SOL    HW128586   1.766   3.199   4.841 -0.1416  1.3993  1.2470
 5650SOL    HW228587   1.705   3.158   4.973 -2.5119 -1.7557  0.2197
 5651SOL     OW28588   2.133   2.171   6.837  0.4087 -0.2345 -0.1642
 5651SOL    HW128589   2.051   2.221   6.835  1.7424  1.9332  0.0460
 5651SOL    HW228590   2.186   2.193   6.760  3.5756  0.4745  2.2040
 5652SOL     OW28591   2.357   3.890  12.507 -0.0067 -0.0341 -0.5188
 5652SOL    HW128592   2.388   3.820  12.449  0.1864  0.3604 -0.8901
 5652SOL    HW228593   2.368   3.970  12.455  0.8653 -0.5365 -1.1229
 5653SOL     OW28594   3.552   1.342  13.095 -0.1669 -0.3837  0.3860
 5653SOL    HW128595   3.507   1.344  13.010 -1.2466 -0.1548  0.9698
 5653SOL    HW228596   3.516   1.421  13.134  0.7359 -0.0261  0.4796
 5654SOL     OW28597   3.150   0.663   7.014 -0.4768  0.0322  0.0714
 5654SOL    HW128598   3.244   0.651   7.025 -0.6544  0.2144  1.8772
 5654SOL    HW228599   3.146   0.759   7.023  0.6080  0.2755 -2.1573
 5655SOL     OW28600   2.568   3.073  15.992  0.2408  0.0572  0.7772
 5655SOL    HW128601   2.607   3.125  15.922 -0.9279  0.1167  0.1678
 5655SOL    HW228602   2.503   3.029  15.937 -1.2277  1.8410  1.1067
 5656SOL     OW28603   3.046   3.551  11.920 -0.2766 -0.6904 -0.2200
 5656SOL    HW128604   3.106   3.507  11.860 -1.4091 -0.8896 -1.1949
 5656SOL    HW228605   2.998   3.479  11.961  0.8928 -0.9747  0.6570
 5657SOL     OW28606   3.920   3.522   7.376 -0.4223 -0.3144 -0.0740
 5657SOL    HW128607   3.911   3.428   7.356  1.4435 -0.3913 -0.5773
 5657SOL    HW228608   3.933   3.555   7.287  0.4730 -1.0827 -0.2323
 5658SOL     OW28609   3.647   0.194   8.063  0.7186 -0.1577  0.0703
 5658SOL    HW128610   3.600   0.214   7.983  1.0341  0.3392  0.0106
 5658SOL    HW228611   3.736   0.219   8.037  0.4856  2.0199  1.3648
 5659SOL     OW28612   3.301   3.317   7.600  0.4727 -0.4887  1.1927
 5659SOL    HW128613   3.230   3.288   7.543 -1.7265  3.7243  1.8029
 5659SOL    HW228614   3.317   3.398   7.553 -1.3275  0.1785  1.7326
 5660SOL     OW28615   0.563   2.138   7.048  0.1337 -0.0160  0.1052
 5660SOL    HW128616   0.649   2.137   7.090  0.1688 -0.5349  0.0329
 5660SOL    HW228617   0.516   2.194   7.109 -0.5396 -0.7518  0.2628
 5661SOL     OW28618   2.942   2.188   7.187  0.3747 -0.0358  0.6687
 5661SOL    HW128619   2.926   2.277   7.219  0.4657  0.4080 -0.5404
 5661SOL    HW228620   2.938   2.220   7.097  2.2091  2.1541  1.3618
 5662SOL     OW28621   4.504   2.529   4.892 -0.4510 -0.0650 -0.6877
 5662SOL    HW128622   4.479   2.440   4.866  0.7429  0.0734 -2.3267
 5662SOL    HW228623   4.593   2.502   4.911 -0.4790  0.7877  0.6385
 5663SOL     OW28624   3.019   1.105   3.297  0.0499  0.0150 -0.3871
 5663SOL    HW128625   3.106   1.068   3.285  0.0751  0.2674 -0.9959
 5663SOL    HW228626   2.983   1.112   3.208  0.7978  0.2900 -0.6651
 5664SOL     OW28627   1.485   3.823   1.419  0.3977  0.0701  0.5229
 5664SOL    HW128628   1.462   3.746   1.471  0.5738  0.4285  1.1394
 5664SOL    HW228629   1.452   3.803   1.332 -0.1131  0.3560  0.6471
 5665SOL     OW28630   1.528   2.645   4.690  0.3174 -0.5179 -0.3702
 5665SOL    HW128631   1.543   2.735   4.719  0.4029 -0.6026 -0.1575
 5665SOL    HW228632   1.453   2.656   4.631 -0.2479  0.5476  0.5348
 5666SOL     OW28633   0.595   1.318  10.031  0.0732 -0.0372 -0.3440
 5666SOL    HW128634   0.514   1.267  10.029 -0.4130  0.8281 -2.1482
 5666SOL    HW228635   0.581   1.378  10.104  0.9477 -0.1255 -0.0947
 5667SOL     OW28636   3.588   2.001  14.238 -0.3495 -1.3662  0.2893
 5667SOL    HW128637   3.644   2.063  14.193 -1.0340 -0.1456  1.1286
 5667SOL    HW228638   3.551   2.068  14.296 -1.9108 -3.4144  1.6684
 5668SOL     OW28639   0.691   4.282  17.629 -0.1615  0.0194 -0.0842
 5668SOL    HW128640   0.749   4.300  17.703 -0.6763  1.9013 -0.1359
 5668SOL    HW228641   0.630   4.220  17.670 -1.5998  0.8407 -0.9837
 5669SOL     OW28642   3.955   2.022   2.422  0.0544 -0.0415  0.0466
 5669SOL    HW128643   3.863   2.012   2.444  0.1646  0.0529  0.5576
 5669SOL    HW228644   3.950   2.079   2.346 -0.6596 -0.3548 -0.1414
 5670SOL     OW28645   2.558   0.284   9.277 -0.2069  0.6223 -0.3201
 5670SOL    HW128646   2.571   0.363   9.224  2.4451  1.6010  1.7942
 5670SOL    HW228647   2.463   0.277   9.263  0.4793  0.3686 -4.7518
 5671SOL     OW28648   4.699   3.425   4.723 -0.1173 -0.3135 -0.6400
 5671SOL    HW128649   4.693   3.332   4.700 -0.4865 -0.5352  0.3294
 5671SOL    HW228650   4.650   3.433   4.805  0.0220  1.5545 -0.7537
 5672SOL     OW28651   3.730   0.779  13.762 -0.0797  0.5905 -0.3906
 5672SOL    HW128652   3.802   0.772  13.824 -1.2371 -0.8863  0.7963
 5672SOL    HW228653   3.651   0.789  13.815  0.1629  2.6599 -0.4329
 5673SOL     OW28654   3.520   1.067   5.749 -0.4232  0.3055 -0.4935
 5673SOL    HW128655   3.465   1.090   5.824 -0.5533  1.8468 -1.0599
 5673SOL    HW228656   3.599   1.112   5.780 -2.0496  2.1592  0.9188
 5674SOL     OW28657   3.398   2.201  13.964 -0.0647 -0.0844 -0.6185
 5674SOL    HW128658   3.487   2.194  13.929 -1.1224  1.4647 -3.6919
 5674SOL    HW228659   3.353   2.172  13.885  0.2413  2.2183 -1.6546
 5675SOL     OW28660   0.927   0.999   0.185 -0.0733  0.5166 -0.2257
 5675SOL    HW128661   0.927   0.910   0.150  0.9393  0.2594  0.4044
 5675SOL    HW228662   0.846   1.001   0.236  0.3778  2.0751  0.4462
 5676SOL     OW28663   3.761   0.578  10.164 -0.5975  0.0966 -0.0355
 5676SOL    HW128664   3.789   0.596  10.254 -0.2352  1.8219 -0.4935
 5676SOL    HW228665   3.748   0.483  10.164  0.6469 -0.0762 -0.9438
 5677SOL     OW28666   3.100   3.035   2.272  0.0429 -0.1514  0.4356
 5677SOL    HW128667   3.119   3.072   2.359 -0.8374  0.3752  0.4016
 5677SOL    HW228668   3.166   3.076   2.216 -1.0807 -1.5775 -1.8902
 5678SOL     OW28669   4.374   0.427   3.850 -0.0165  0.1510  0.0096
 5678SOL    HW128670   4.382   0.477   3.932  1.4506  0.2747 -0.2123
 5678SOL    HW228671   4.398   0.495   3.787 -1.6828 -1.1869 -2.0794
 5679SOL     OW28672   2.146   1.498   8.780 -0.1962 -0.2706  0.1389
 5679SOL    HW128673   2.155   1.466   8.870 -0.0704  1.4056  0.7183
 5679SOL    HW228674   2.156   1.593   8.788  1.7007 -0.3346 -1.2978
 5680SOL     OW28675   0.407   0.129  16.128  0.0821  0.4711 -0.0780
 5680SOL    HW128676   0.446   0.202  16.080 -1.1468  0.2035 -1.5100
 5680SOL    HW228677   0.380   0.076  16.052  3.7089 -3.0338  1.0824
 5681SOL     OW28678   4.208   0.464  12.763  0.0533  0.0656 -0.2551
 5681SOL    HW128679   4.284   0.496  12.812  0.4764 -1.9726  0.4526
 5681SOL    HW228680   4.216   0.370  12.780 -1.6575 -0.4389 -2.3214
 5682SOL     OW28681   1.198   4.593   0.496 -0.0694 -0.2618  0.6522
 5682SOL    HW128682   1.199   4.668   0.556  0.5202  0.1954  0.0623
 5682SOL    HW228683   1.242   4.626   0.418  0.8961 -1.2592  0.7788
 5683SOL     OW28684   3.751   3.939   2.048  0.7623  0.1982 -0.3265
 5683SOL    HW128685   3.751   3.876   1.977 -2.6721  0.6359 -0.7121
 5683SOL    HW228686   3.844   3.930   2.070  0.2134 -0.4051  1.7284
 5684SOL     OW28687   0.719   2.692   3.146  0.0522 -0.4955 -0.3865
 5684SOL    HW128688   0.627   2.714   3.161  0.3518 -1.3451  2.7454
 5684SOL    HW228689   0.751   2.772   3.187  0.3904 -1.8419  1.9754
 5685SOL     OW28690   3.403   3.358   3.916  0.1668  0.5224  0.2296
 5685SOL    HW128691   3.338   3.381   3.982 -0.0178 -0.6474  0.4365
 5685SOL    HW228692   3.364   3.308   3.845 -0.2426 -0.5567  1.2281
 5686SOL     OW28693   0.250   3.417   2.667  0.0422  0.1690 -0.1059
 5686SOL    HW128694   0.214   3.329   2.678  0.5273  0.0317  0.3873
 5686SOL    HW228695   0.183   3.460   2.614 -0.1910  0.9148  0.8023
 5687SOL     OW28696   0.345   4.472   7.947 -0.5635 -0.1884  0.0693
 5687SOL    HW128697   0.362   4.424   8.028  1.9818  1.9420  0.8359
 5687SOL    HW228698   0.253   4.451   7.934  0.0247 -1.7136 -1.5717
 5688SOL     OW28699   2.495   2.937   3.209  0.7888 -0.2528  0.1885
 5688SOL    HW128700   2.477   2.919   3.301 -2.9484  0.2405 -0.4574
 5688SOL    HW228701   2.468   2.852   3.172 -1.2986  0.0040  1.1320
 5689SOL     OW28702   3.686   2.502   3.419  0.5111  0.0368 -0.7705
 5689SOL    HW128703   3.635   2.443   3.362 -0.4573  0.3122 -0.1964
 5689SOL    HW228704   3.773   2.479   3.388  0.3274 -1.5453 -0.0661
 5690SOL     OW28705   0.647   2.413  15.794 -0.3973  0.2012 -0.1092
 5690SOL    HW128706   0.640   2.320  15.816 -1.0697  0.0966 -0.8055
 5690SOL    HW228707   0.611   2.412  15.706 -1.8331 -0.6058  0.4946
 5691SOL     OW28708   3.150   1.675   3.866 -0.5738 -0.4495 -0.0425
 5691SOL    HW128709   3.103   1.715   3.939 -0.5457 -0.5602  0.0358
 5691SOL    HW228710   3.080   1.672   3.800 -0.9540  1.3639  0.2966
 5692SOL     OW28711   3.517   0.297   7.791  0.4634  0.3874 -0.2901
 5692SOL    HW128712   3.455   0.229   7.766  0.2510 -0.2482  2.0280
 5692SOL    HW228713   3.521   0.351   7.712  1.3194  1.7382  0.6894
 5693SOL     OW28714   4.202   0.259   0.841  0.0143 -0.2276 -0.2077
 5693SOL    HW128715   4.227   0.350   0.828  1.8680 -0.8351 -0.9353
 5693SOL    HW228716   4.283   0.214   0.866  0.0774 -0.4688 -0.8595
 5694SOL     OW28717   2.803   3.701  17.016 -0.3858 -0.6004 -0.0582
 5694SOL    HW128718   2.864   3.684  16.944  1.7626 -0.3656  1.6985
 5694SOL    HW228719   2.724   3.663  16.977  1.2783 -3.6322 -0.4002
 5695SOL     OW28720   0.765   2.842   2.184  0.3530 -0.2063  0.1530
 5695SOL    HW128721   0.679   2.870   2.216  0.3984 -2.4692  2.2026
 5695SOL    HW228722   0.750   2.748   2.188 -0.7897  0.0303  1.5625
 5696SOL     OW28723   2.984   1.699   3.023  0.1317 -0.0184 -0.1706
 5696SOL    HW128724   2.998   1.740   2.937  1.0820 -1.0984 -0.5289
 5696SOL    HW228725   3.075   1.695   3.051 -0.1363 -0.9367  0.5645
 5697SOL     OW28726   3.540   1.011   9.537 -0.3291 -0.2050  0.1559
 5697SOL    HW128727   3.470   1.055   9.488  0.7896  1.0818 -0.2751
 5697SOL    HW228728   3.513   1.010   9.629 -1.2868 -0.2678 -0.1206
 5698SOL     OW28729   2.406   0.531   1.720  0.0781  0.0443  0.3594
 5698SOL    HW128730   2.333   0.470   1.709  0.7469 -1.1289  2.5385
 5698SOL    HW228731   2.402   0.594   1.647  1.3495 -1.2440 -0.8211
 5699SOL     OW28732   0.133   3.598   6.201 -0.1213  0.3277  0.5088
 5699SOL    HW128733   0.152   3.621   6.292  1.3450 -0.4193  0.3898
 5699SOL    HW228734   0.114   3.506   6.219 -1.3934  0.8950  2.0062
 5700SOL     OW28735   0.740   4.677   3.773  0.3124 -0.0599 -0.4400
 5700SOL    HW128736   0.828   4.659   3.806 -0.0719 -0.6217  0.2747
 5700SOL    HW228737   0.753   0.001   3.699  0.9925 -1.1509 -1.1987
 5701SOL     OW28738   1.841   1.554   2.409 -0.2685  0.3940 -0.3201
 5701SOL    HW128739   1.816   1.632   2.457 -0.7202 -1.0722  1.8182
 5701SOL    HW228740   1.935   1.539   2.422 -0.5727 -1.0264  0.2170
 5702SOL     OW28741   2.187   3.225   2.613 -0.0378 -0.3924 -0.0229
 5702SOL    HW128742   2.166   3.136   2.640  0.2142 -0.5644 -0.3928
 5702SOL    HW228743   2.150   3.234   2.525 -0.1187  1.6952  0.2229
 5703SOL     OW28744   0.010   2.577   0.941 -0.1184 -0.0623 -0.0009
 5703SOL    HW128745   0.003   2.661   0.896 -0.5993 -0.3470 -0.4482
 5703SOL    HW228746   4.661   2.591   0.983  0.3437  1.0009  0.5769
 5704SOL     OW28747   2.355   1.709   8.131  0.5633  0.3216 -0.1392
 5704SOL    HW128748   2.313   1.662   8.059 -0.0662 -0.7479  0.9246
 5704SOL    HW228749   2.444   1.678   8.119  0.0980 -0.6287 -1.1140
 5705SOL     OW28750   3.239   2.526   4.747  0.1309 -0.7871  0.1877
 5705SOL    HW128751   3.276   2.609   4.718  0.2084 -0.9906 -0.2927
 5705SOL    HW228752   3.306   2.493   4.806 -1.2060 -1.0306  1.5828
 5706SOL     OW28753   0.437   1.099   1.978 -0.5855  0.2446 -0.4892
 5706SOL    HW128754   0.515   1.144   2.011 -1.2176  1.5496 -0.7965
 5706SOL    HW228755   0.374   1.156   2.022 -0.9468 -1.8470  1.6935
 5707SOL     OW28756   2.893   1.179   7.517 -0.0385 -0.0323  0.3453
 5707SOL    HW128757   2.975   1.228   7.520  0.8692 -1.4999 -0.3090
 5707SOL    HW228758   2.920   1.111   7.456 -1.4247 -0.2654 -0.0044
 5708SOL     OW28759   3.173   0.360   7.830  0.1850 -0.0286  0.4892
 5708SOL    HW128760   3.221   0.393   7.754 -0.3315 -0.1158  0.1218
 5708SOL    HW228761   3.243   0.322   7.883 -1.8821 -3.7087  0.6110
 5709SOL     OW28762   0.240   1.936   6.456 -0.4387 -0.4465 -0.8879
 5709SOL    HW128763   0.236   1.978   6.542 -0.6632 -1.1434 -0.5596
 5709SOL    HW228764   0.320   1.889   6.481 -0.2397 -0.8784 -2.3713
 5710SOL     OW28765   0.872   1.130   6.630  0.3933  0.5508  0.0153
 5710SOL    HW128766   0.808   1.104   6.697  0.1557 -0.9154 -0.7605
 5710SOL    HW228767   0.844   1.070   6.561 -0.0159 -0.9154  1.4368
 5711SOL     OW28768   0.441   2.758  13.301 -0.1917  0.0864 -0.0408
 5711SOL    HW128769   0.472   2.667  13.300 -0.0505  0.0917  2.3406
 5711SOL    HW228770   0.470   2.786  13.388  1.5389 -0.8522 -0.2993
 5712SOL     OW28771   2.167   3.655   8.359 -0.1311  0.4532  0.0822
 5712SOL    HW128772   2.092   3.702   8.396 -0.1014  0.4095  0.1984
 5712SOL    HW228773   2.141   3.641   8.268 -3.0906 -1.7882  1.2603
 5713SOL     OW28774   1.789   4.284  10.777 -0.8483 -0.0061 -0.0286
 5713SOL    HW128775   1.702   4.255  10.803 -0.3414 -2.0166 -0.5752
 5713SOL    HW228776   1.819   4.324  10.859  1.6706  0.3585 -1.1404
 5714SOL     OW28777   3.126   4.495  13.122  0.0927 -0.4589  0.5581
 5714SOL    HW128778   3.164   4.436  13.057  0.9082 -0.4328  1.0004
 5714SOL    HW228779   3.068   4.439  13.173 -1.0412 -1.0623 -1.4349
 5715SOL     OW28780   3.035   3.891   6.978 -0.3672 -0.1020 -0.1396
 5715SOL    HW128781   3.080   3.858   6.900 -2.9679  0.0350 -1.6862
 5715SOL    HW228782   3.062   3.983   6.974  1.7102 -0.6877 -0.0762
 5716SOL     OW28783   1.252   0.252   2.607 -0.0269  0.3693  0.3809
 5716SOL    HW128784   1.334   0.206   2.623  1.4306  1.8128 -2.9566
 5716SOL    HW228785   1.212   0.177   2.563 -0.5660  0.0453  1.4064
 5717SOL     OW28786   3.035   0.363   3.299  0.3014  0.3198 -0.3906
 5717SOL    HW128787   2.949   0.399   3.320  0.8668  1.8331 -0.6411
 5717SOL    HW228788   3.069   0.342   3.386 -3.9451 -1.4043  0.8600
 5718SOL     OW28789   1.122   0.279   1.758 -0.4420 -0.4412 -0.0418
 5718SOL    HW128790   1.197   0.249   1.810 -0.0751  1.0067  0.2794
 5718SOL    HW228791   1.129   0.373   1.775  0.4727  0.0581 -3.0876
 5719SOL     OW28792   0.155   2.886   4.390 -0.2003  0.2683 -0.5229
 5719SOL    HW128793   0.061   2.879   4.402 -0.1355  0.5369  0.1445
 5719SOL    HW228794   0.165   2.931   4.306  1.0344  2.5741  0.8571
 5720SOL     OW28795   3.985   2.394   8.362  0.4485 -0.6193 -0.2900
 5720SOL    HW128796   3.925   2.437   8.422  0.1637 -0.2574 -0.8363
 5720SOL    HW228797   4.073   2.426   8.382  0.4563 -1.7413  1.5579
 5721SOL     OW28798   1.914   4.532   0.793 -0.6573  0.1061  0.3145
 5721SOL    HW128799   1.907   4.445   0.756 -0.7870 -0.2086  1.0803
 5721SOL    HW228800   1.822   4.559   0.795 -0.8271 -0.3836 -0.9858
 5722SOL     OW28801   1.344   2.670   5.669 -0.3216  0.4085 -0.1836
 5722SOL    HW128802   1.330   2.586   5.712 -1.5876  0.2351 -0.9540
 5722SOL    HW228803   1.432   2.652   5.637  0.9959  2.1150  2.4128
 5723SOL     OW28804   4.451   2.696   7.189  0.5131 -0.2397 -0.8472
 5723SOL    HW128805   4.500   2.777   7.202 -0.6988  0.3571 -0.0236
 5723SOL    HW228806   4.365   2.737   7.193  0.1921 -0.8974 -1.0045
 5724SOL     OW28807   3.429   4.371   7.091  0.6262 -0.6271  0.3986
 5724SOL    HW128808   3.405   4.325   7.171 -0.9066 -2.0807 -0.8969
 5724SOL    HW228809   3.523   4.387   7.104  1.1417 -2.6312 -1.0442
 5725SOL     OW28810   2.364   0.701  14.758 -0.5442  0.0045  0.0314
 5725SOL    HW128811   2.448   0.747  14.770 -0.8690  1.1359 -1.9482
 5725SOL    HW228812   2.384   0.620  14.804  2.3545  0.4769 -0.3518
 5726SOL     OW28813   3.771   2.029   4.777  0.2229  0.2413 -0.4854
 5726SOL    HW128814   3.742   1.952   4.826  0.8651 -0.0324 -0.5352
 5726SOL    HW228815   3.792   1.986   4.694 -3.9327 -0.9826 -0.9291
 5727SOL     OW28816   1.968   1.048   3.952  0.6420  0.7197 -0.0970
 5727SOL    HW128817   1.960   0.956   3.975 -0.1184 -0.5002 -5.2392
 5727SOL    HW228818   1.920   1.050   3.869  0.9278 -0.0093 -0.2816
 5728SOL     OW28819   2.586   2.788  16.620  0.3748 -0.3688  0.2485
 5728SOL    HW128820   2.650   2.769  16.689 -0.2834 -0.4806  0.8324
 5728SOL    HW228821   2.574   2.882  16.620 -0.8517 -0.5297 -1.0430
 5729SOL     OW28822   3.249   1.920   1.689  0.2896 -0.5667  0.4335
 5729SOL    HW128823   3.326   1.889   1.738  0.5724  0.6416  0.7552
 5729SOL    HW228824   3.175   1.874   1.729 -1.2739  0.9175 -0.7596
 5730SOL     OW28825   0.677   1.897   3.017  0.3153  0.1601  0.0626
 5730SOL    HW128826   0.594   1.927   2.981 -0.5518 -2.1495  0.0928
 5730SOL    HW228827   0.748   1.940   2.969  0.0254 -0.5240 -0.9695
 5731SOL     OW28828   4.017   0.475  13.212 -0.1619 -0.2238 -0.2120
 5731SOL    HW128829   3.939   0.525  13.237  0.8246  1.4078 -0.3847
 5731SOL    HW228830   3.998   0.390  13.252  0.3266 -0.7209 -1.0340
 5732SOL     OW28831   3.232   0.804   3.566 -0.2885 -0.1438 -0.2670
 5732SOL    HW128832   3.235   0.709   3.577  0.0922 -0.2074 -0.8869
 5732SOL    HW228833   3.138   0.819   3.553 -0.0551  0.1703 -1.6144
 5733SOL     OW28834   1.978   0.712   7.588  0.2259  0.0061 -0.6216
 5733SOL    HW128835   1.980   0.781   7.522  0.8545  1.1045  0.5400
 5733SOL    HW228836   1.906   0.752   7.637  1.4634 -1.5667  2.4757
 5734SOL     OW28837   1.106   3.486   4.012  0.3118 -0.8637 -0.0086
 5734SOL    HW128838   1.081   3.507   3.922  1.2975  0.9263  0.1437
 5734SOL    HW228839   1.023   3.460   4.054  0.5474 -2.6830 -0.6567
 5735SOL     OW28840   1.114   2.246   7.340  0.1614  0.5286  0.0979
 5735SOL    HW128841   1.177   2.183   7.305 -0.7717 -1.1284  1.4450
 5735SOL    HW228842   1.137   2.324   7.288  1.4401 -0.3560 -0.6732
 5736SOL     OW28843   2.778   2.784   5.806 -0.6568  0.6935 -0.2288
 5736SOL    HW128844   2.801   2.746   5.891  3.1604  1.4342 -0.8991
 5736SOL    HW228845   2.848   2.850   5.804  0.9395 -0.9582  1.1177
 5737SOL     OW28846   4.413   0.608  12.871  0.2752 -0.0318  0.3219
 5737SOL    HW128847   4.449   0.609  12.960 -2.4277  0.7873  1.4152
 5737SOL    HW228848   4.489   0.643  12.825  1.3446 -0.9167  1.4028
 5738SOL     OW28849   0.803   3.176   1.448  0.3636 -0.2092  0.7452
 5738SOL    HW128850   0.855   3.114   1.398 -3.0834 -2.3180 -0.2393
 5738SOL    HW228851   0.794   3.133   1.533 -3.3826  0.4527  0.6935
 5739SOL     OW28852   2.839   4.517  14.477 -0.0090 -0.2734  0.1997
 5739SOL    HW128853   2.788   4.592  14.505 -0.4541 -1.4784  2.5940
 5739SOL    HW228854   2.846   4.463  14.555 -0.1815 -1.1370 -0.3827
 5740SOL     OW28855   4.580   2.746   4.779  0.1515 -0.0673  0.2113
 5740SOL    HW128856   4.540   2.672   4.826  0.6262 -0.3265  0.2083
 5740SOL    HW228857   4.597   2.704   4.695 -1.1315 -0.5061  0.1709
 5741SOL     OW28858   2.025   1.670   9.162  0.5558 -0.0207  0.2489
 5741SOL    HW128859   2.092   1.693   9.226  1.0166 -0.3685 -0.1087
 5741SOL    HW228860   1.946   1.698   9.208  1.0969  1.0960  0.4992
 5742SOL     OW28861   2.670   1.127   5.054 -0.0001  0.0687  0.9166
 5742SOL    HW128862   2.594   1.127   4.996  2.0357 -2.4408 -1.8030
 5742SOL    HW228863   2.726   1.187   5.005  0.0863 -2.5803 -2.1991
 5743SOL     OW28864   0.476   2.030   1.485  0.0053  0.7468  0.0835
 5743SOL    HW128865   0.426   2.074   1.416  0.8710  0.6408 -0.6088
 5743SOL    HW228866   0.408   1.983   1.534  0.6314 -1.0573 -0.7594
 5744SOL     OW28867   2.744   3.494   1.476  0.7752  0.4134 -0.2429
 5744SOL    HW128868   2.668   3.523   1.526 -0.2775 -0.8630 -1.1134
 5744SOL    HW228869   2.806   3.493   1.549  1.0707  2.0248 -0.4648
 5745SOL     OW28870   1.338   3.141   5.411  0.4651  0.2209  0.2271
 5745SOL    HW128871   1.337   3.076   5.341  1.8796 -0.4696  0.8590
 5745SOL    HW228872   1.243   3.157   5.407  0.2033 -1.0824  1.4392
 5746SOL     OW28873   3.914   4.478   5.548  0.4770  0.3620 -0.0104
 5746SOL    HW128874   3.886   4.398   5.593 -0.1163  0.2767 -0.5422
 5746SOL    HW228875   3.873   4.455   5.465 -0.0961 -0.3095  0.4615
 5747SOL     OW28876   3.759   1.897   3.100  0.1942 -0.9048 -0.0799
 5747SOL    HW128877   3.837   1.952   3.099 -1.9169  2.0950 -0.0902
 5747SOL    HW228878   3.734   1.900   3.008  1.0830  1.9072 -0.2033
 5748SOL     OW28879   2.122   4.628  15.760 -0.3328  0.0418  0.0181
 5748SOL    HW128880   2.180   4.610  15.685 -1.3172 -0.7701 -0.5429
 5748SOL    HW228881   2.103   4.539  15.791 -1.6241  0.9196  1.7611
 5749SOL     OW28882   3.760   1.930  16.308 -0.4670 -0.6602 -0.4971
 5749SOL    HW128883   3.771   2.005  16.366 -0.5631  0.0926 -1.4437
 5749SOL    HW228884   3.708   1.870  16.361  0.7369 -0.5443  0.8127
 5750SOL     OW28885   1.140   0.261   5.541  0.7626  0.3741 -0.1366
 5750SOL    HW128886   1.201   0.286   5.609  0.3882  0.2572  0.2407
 5750SOL    HW228887   1.087   0.338   5.522  1.9484  0.9228 -1.2395
 5751SOL     OW28888   0.958   2.417   8.966  0.7444  0.3377 -0.1741
 5751SOL    HW128889   0.932   2.375   8.884 -1.9827  0.3550  0.6824
 5751SOL    HW228890   1.041   2.370   8.971 -0.5374 -1.7996  1.5245
 5752SOL     OW28891   2.994   3.075   7.244  0.8102  0.5337  0.3960
 5752SOL    HW128892   3.087   3.091   7.229  1.1389 -0.4947  1.3297
 5752SOL    HW228893   2.975   3.012   7.175 -1.4565  2.7227 -0.9863
 5753SOL     OW28894   3.689   3.009   5.858 -0.6135 -0.6481 -0.2734
 5753SOL    HW128895   3.597   2.988   5.841 -0.5360 -1.9459  0.8555
 5753SOL    HW228896   3.691   3.105   5.862 -0.5312 -0.5871 -1.7810
 5754SOL     OW28897   2.161   2.384  14.733  0.2440 -0.2012 -0.2957
 5754SOL    HW128898   2.225   2.323  14.698 -0.4078 -2.0005  1.6468
 5754SOL    HW228899   2.199   2.469  14.711  1.3134 -1.0708 -1.7721
 5755SOL     OW28900   0.482   3.040   4.153  0.2304 -0.0595  0.1247
 5755SOL    HW128901   0.537   3.112   4.122  1.3103 -1.0361 -0.2442
 5755SOL    HW228902   0.510   2.974   4.089 -0.0439 -0.4615  0.4214
 5756SOL     OW28903   3.349   2.827  11.806 -0.4285 -0.8560  0.1055
 5756SOL    HW128904   3.344   2.817  11.711  0.4118 -2.7836  0.2548
 5756SOL    HW228905   3.442   2.809  11.822 -0.6406  0.8345  3.1428
 5757SOL     OW28906   4.169   1.670   3.226 -0.1838 -0.1257  0.1330
 5757SOL    HW128907   4.173   1.591   3.172 -3.0441 -0.9670  1.1350
 5757SOL    HW228908   4.172   1.735   3.156  0.3402  2.3997  2.4657
 5758SOL     OW28909   0.333   3.688   5.400 -0.5773  0.1735 -0.3456
 5758SOL    HW128910   0.381   3.637   5.335  1.9637 -0.0614  1.7140
 5758SOL    HW228911   0.404   3.730   5.448 -1.0489  2.6486 -1.8106
 5759SOL     OW28912   4.580   1.421  12.580  0.2542 -0.4153 -0.3337
 5759SOL    HW128913   4.537   1.367  12.514 -1.9530 -0.3139  1.0269
 5759SOL    HW228914   4.594   1.496  12.523  0.8541 -1.0620 -1.0478
 5760SOL     OW28915   4.400   4.434   4.461  0.1625 -0.3695 -0.4263
 5760SOL    HW128916   4.329   4.443   4.525 -1.4716 -2.1694 -1.9571
 5760SOL    HW228917   4.421   4.341   4.466 -0.9883 -0.6061 -0.1046
 5761SOL     OW28918   3.632   3.968   3.390 -0.0682 -0.5373 -0.0052
 5761SOL    HW128919   3.694   4.024   3.436  1.3831 -1.2154 -1.1433
 5761SOL    HW228920   3.680   3.893   3.354 -0.5972 -1.2381  0.7454
 5762SOL     OW28921   0.746   0.729   3.617  0.6028 -0.4317  0.3565
 5762SOL    HW128922   0.802   0.748   3.542  0.0297  0.9839  0.2947
 5762SOL    HW228923   0.723   0.817   3.646  1.1412 -0.7015  1.5953
 5763SOL     OW28924   3.157   0.938   7.636  0.0794  0.7866  0.2448
 5763SOL    HW128925   3.223   0.920   7.703  2.0115  2.1758 -1.3134
 5763SOL    HW228926   3.212   0.905   7.565 -0.3758 -0.8754  0.6440
 5764SOL     OW28927   2.070   4.565   1.585  0.2218  0.2724  0.4762
 5764SOL    HW128928   2.049   4.538   1.674 -1.1669  1.6508  0.5713
 5764SOL    HW228929   2.055   4.478   1.548 -1.0590  0.6271  0.1410
 5765SOL     OW28930   2.715   1.270   7.157 -0.1492 -0.1591 -0.1443
 5765SOL    HW128931   2.804   1.289   7.188  0.8292 -4.0167 -0.5972
 5765SOL    HW228932   2.732   1.242   7.067 -0.5433  1.8733 -0.8565
 5766SOL     OW28933   0.073   1.366   8.959  0.0779  0.2342 -0.3527
 5766SOL    HW128934   0.058   1.313   9.037 -2.3527  1.8398  0.2722
 5766SOL    HW228935   0.027   1.446   8.985 -2.2677 -0.2700 -2.9374
 5767SOL     OW28936   4.076   0.526   3.970  0.0238  0.3547  0.2543
 5767SOL    HW128937   4.074   0.460   3.900  0.8755  2.1081 -1.4105
 5767SOL    HW228938   4.160   0.509   4.013 -0.6334  0.6068  1.6277
 5768SOL     OW28939   0.520   3.618   5.614  0.1390  0.0791  0.5477
 5768SOL    HW128940   0.429   3.600   5.640 -0.9259  3.5038 -0.8092
 5768SOL    HW228941   0.555   3.529   5.613  0.0966  0.0757 -0.6541
 5769SOL     OW28942   3.850   0.760  12.612  0.4231 -0.1549  0.7192
 5769SOL    HW128943   3.908   0.700  12.565 -0.3866  0.1189 -0.6335
 5769SOL    HW228944   3.847   0.718  12.698 -2.7865  0.9612  1.1582
 5770SOL     OW28945   2.090   1.565   2.829 -0.3649  0.1801 -0.0000
 5770SOL    HW128946   2.055   1.522   2.907  0.7726 -1.2473 -0.2621
 5770SOL    HW228947   2.151   1.495   2.805  1.4293  1.2042  1.5855
 5771SOL     OW28948   3.429   0.780   5.749 -0.0314 -0.2385 -0.9914
 5771SOL    HW128949   3.519   0.751   5.731  0.0697 -0.9101  0.5833
 5771SOL    HW228950   3.438   0.874   5.734  1.5970 -0.5325 -1.9593
 5772SOL     OW28951   3.324   3.743   7.644  0.4498  0.6690  0.2187
 5772SOL    HW128952   3.335   3.682   7.717  0.1110 -0.1621 -0.4271
 5772SOL    HW228953   3.367   3.818   7.686  2.3234  0.0250 -0.5716
 5773SOL     OW28954   1.975   2.832   6.654  0.3773  0.2932 -0.5441
 5773SOL    HW128955   1.906   2.882   6.695 -0.4381 -1.7605  0.6142
 5773SOL    HW228956   1.990   2.877   6.571  1.7912  1.4851  0.3581
 5774SOL     OW28957   3.825   4.582   6.434  0.2691 -0.1928 -0.3445
 5774SOL    HW128958   3.811   4.603   6.527  0.9023 -1.3160  0.0088
 5774SOL    HW228959   3.822   4.670   6.396 -0.1312 -0.0824 -0.0579
 5775SOL     OW28960   0.874   2.915   7.504  0.0832  0.1178  0.4745
 5775SOL    HW128961   0.944   2.880   7.448  0.0227  3.7834 -1.9264
 5775SOL    HW228962   0.821   2.955   7.435  0.8131  1.8296  0.8943
 5776SOL     OW28963   3.581   0.344   4.606 -0.5676  0.2989  0.2200
 5776SOL    HW128964   3.548   0.269   4.558  1.2801 -0.8106  0.6795
 5776SOL    HW228965   3.672   0.355   4.579 -0.6379 -0.8090 -0.4270
 5777SOL     OW28966   2.814   3.198   1.347 -0.1152  0.4702 -0.3682
 5777SOL    HW128967   2.894   3.149   1.326 -1.5386 -2.1087  0.3241
 5777SOL    HW228968   2.823   3.231   1.436 -0.3694 -0.4999  0.0075
 5778SOL     OW28969   1.383   3.231   4.256  0.1419 -0.3863 -0.0666
 5778SOL    HW128970   1.300   3.184   4.266 -0.1272 -0.1339 -1.0903
 5778SOL    HW228971   1.357   3.312   4.211 -0.2007 -0.7825 -0.5845
 5779SOL     OW28972   4.311   3.439  11.815  0.3680  0.0854 -0.4052
 5779SOL    HW128973   4.384   3.490  11.849  1.3922 -0.5370 -1.6537
 5779SOL    HW228974   4.292   3.474  11.728 -1.7119  0.8786  0.3874
 5780SOL     OW28975   2.388   0.862   0.048 -0.4557 -0.6379 -0.8146
 5780SOL    HW128976   2.432   0.816  17.720  1.9259 -0.6885  0.7052
 5780SOL    HW228977   2.297   0.861   0.020 -0.6349  0.3129 -0.2806
 5781SOL     OW28978   1.094   0.670   8.983  0.4487  0.2765  0.3471
 5781SOL    HW128979   1.166   0.608   8.992  0.0167 -0.4518 -1.2609
 5781SOL    HW228980   1.102   0.740   9.048  3.2746  0.2883 -0.0456
 5782SOL     OW28981   4.083   3.584   8.881  0.2935  0.1812  0.2348
 5782SOL    HW128982   4.040   3.523   8.941 -0.4626 -0.2145 -0.7130
 5782SOL    HW228983   4.036   3.575   8.798 -0.6631  1.5054  0.6271
 5783SOL     OW28984   0.273   3.214   2.236  0.0631 -0.7100  0.5032
 5783SOL    HW128985   0.344   3.265   2.198  0.9987 -1.9304  0.6001
 5783SOL    HW228986   0.322   3.168   2.304 -0.8680 -0.1151  1.5860
 5784SOL     OW28987   2.775   4.342   2.044 -0.2033  0.2501  0.0175
 5784SOL    HW128988   2.838   4.363   1.975  2.4830 -0.1226  2.3535
 5784SOL    HW228989   2.786   4.409   2.112  0.5041  0.1247  0.0296
 5785SOL     OW28990   2.784   4.726   1.626 -0.8155  0.0745 -0.0873
 5785SOL    HW128991   2.853   0.030   1.679 -0.6475  0.1578 -0.3674
 5785SOL    HW228992   2.843   4.692   1.559 -2.4060  0.6882 -1.8072
 5786SOL     OW28993   4.654   1.168   7.352 -0.3023  0.5632 -0.0199
 5786SOL    HW128994   4.646   1.243   7.294  2.1263  0.6248 -0.2835
 5786SOL    HW228995   4.671   1.096   7.292 -0.9172 -1.0560  1.7336
 5787SOL     OW28996   3.449   3.597  16.125  0.4956  0.1284  0.2996
 5787SOL    HW128997   3.437   3.682  16.167 -2.1318  0.3091 -0.8270
 5787SOL    HW228998   3.392   3.540  16.175  0.7627  1.2995  1.9344
 5788SOL     OW28999   0.414   4.266   6.950  0.3867  0.2456 -0.0467
 5788SOL    HW129000   0.481   4.275   7.017  0.6862  4.1018 -0.8887
 5788SOL    HW229001   0.456   4.294   6.869  1.0606 -1.4503 -0.2832
 5789SOL     OW29002   4.609   3.630   9.742  0.0480 -0.0198  0.2564
 5789SOL    HW129003   4.620   3.674   9.827  0.9142 -1.3898  0.8552
 5789SOL    HW229004   4.542   3.565   9.762  0.3355  0.0067  1.3190
 5790SOL     OW29005   4.273   1.820   6.343 -0.6152  0.5786 -0.3099
 5790SOL    HW129006   4.305   1.906   6.373 -1.0934  0.0134  1.8262
 5790SOL    HW229007   4.193   1.809   6.393  0.6208 -0.2693  1.4773
 5791SOL     OW29008   1.647   2.839  17.444 -0.3477 -0.3686  0.0757
 5791SOL    HW129009   1.552   2.845  17.443 -0.3815 -0.6593  1.5528
 5791SOL    HW229010   1.675   2.748  17.454  1.1194 -0.0128 -0.6961
 5792SOL     OW29011   3.676   3.490   3.397  0.8226  0.1874 -0.1992
 5792SOL    HW129012   3.769   3.469   3.403  0.4569 -0.6711  2.6516
 5792SOL    HW229013   3.641   3.413   3.353  2.7509 -0.3345 -0.8114
 5793SOL     OW29014   4.683   2.521   6.822  0.1764 -0.0936  0.0499
 5793SOL    HW129015   0.021   2.465   6.799  0.0572 -0.9946  1.8326
 5793SOL    HW229016   4.721   2.604   6.851  2.2566 -0.5418 -1.3725
 5794SOL     OW29017   4.194   2.631   8.199 -0.2073 -0.6828  0.4044
 5794SOL    HW129018   4.284   2.655   8.178  0.3579 -1.4761  1.9115
 5794SOL    HW229019   4.212   2.548   8.244 -0.4241  0.0936  1.9155
 5795SOL     OW29020   1.081   2.999   8.713  0.3210 -0.2166  0.1944
 5795SOL    HW129021   1.077   2.941   8.789 -1.8708  0.2143  0.4268
 5795SOL    HW229022   1.125   2.948   8.645  2.1119  1.4632  0.0903
 5796SOL     OW29023   2.137   2.950   3.883 -0.7179 -0.1260  0.3730
 5796SOL    HW129024   2.059   3.001   3.862  0.0829  0.4585 -1.2638
 5796SOL    HW229025   2.193   3.020   3.916 -1.4568  0.5318  0.2374
 5797SOL     OW29026   0.224   0.848  17.086  0.1023 -0.1958 -0.1368
 5797SOL    HW129027   0.220   0.826  16.993  1.6805  0.7881 -0.4304
 5797SOL    HW229028   0.312   0.819  17.111 -0.4858  0.3117  2.5697
 5798SOL     OW29029   4.171   3.046   8.780  0.2268  0.0092  0.7096
 5798SOL    HW129030   4.188   2.983   8.710 -1.6084  1.5727 -1.1305
 5798SOL    HW229031   4.187   3.128   8.733  0.2880 -0.5182 -0.1931
 5799SOL     OW29032   1.939   2.909  17.089 -0.1399  0.1173  0.4906
 5799SOL    HW129033   1.928   2.945  17.177  0.2903  2.3417 -0.3695
 5799SOL    HW229034   2.013   2.956  17.051  0.3165  0.1116  1.3922
 5800SOL     OW29035   4.734   1.323   3.361 -0.1071 -0.2771  0.0384
 5800SOL    HW129036   4.688   1.391   3.310  0.9237 -1.9485 -3.1380
 5800SOL    HW229037   0.050   1.293   3.286 -1.7676 -1.1166 -0.7662
 5801SOL     OW29038   0.535   2.649  16.023 -0.5237  0.4027  0.3676
 5801SOL    HW129039   0.523   2.655  15.929 -0.7965  0.8557  0.4299
 5801SOL    HW229040   0.629   2.669  16.025  0.1111 -2.6677  1.5180
 5802SOL     OW29041   4.321   4.630  12.822 -0.0472 -0.0119 -0.2036
 5802SOL    HW129042   4.412   4.616  12.793  0.3539  1.6823  0.2733
 5802SOL    HW229043   4.277   4.685  12.758 -0.9464 -1.6209 -0.9809
 5803SOL     OW29044   0.224   1.357   8.319 -0.2264 -0.5385  0.6123
 5803SOL    HW129045   0.291   1.298   8.284 -0.6150  0.3860 -1.6510
 5803SOL    HW229046   0.252   1.368   8.410  0.6621 -1.2619  0.4262
 5804SOL     OW29047   2.886   2.452   6.506  0.1950  0.3841  0.3885
 5804SOL    HW129048   2.822   2.433   6.437 -1.6866  0.7311  2.0047
 5804SOL    HW229049   2.946   2.513   6.464 -0.7075  0.0177 -1.4399
 5805SOL     OW29050   4.437   4.317   9.650  0.1192  0.2143  0.5605
 5805SOL    HW129051   4.391   4.396   9.679  1.1353  1.1602 -0.4395
 5805SOL    HW229052   4.373   4.286   9.586  1.8422  0.8870 -1.4543
 5806SOL     OW29053   1.054   1.069   5.519 -0.4511 -0.3864 -0.4228
 5806SOL    HW129054   1.133   1.124   5.521 -0.4317 -0.3241 -2.8521
 5806SOL    HW229055   1.090   0.990   5.479  4.6441  2.6339 -1.8358
 5807SOL     OW29056   3.946   4.382  14.165  0.0742 -0.4682  0.7238
 5807SOL    HW129057   3.914   4.411  14.080  2.1862 -0.4032 -0.0685
 5807SOL    HW229058   3.895   4.301  14.165 -1.4975  0.5452 -1.7350
 5808SOL     OW29059   3.593   3.607   6.963 -0.3722  0.0713 -0.8119
 5808SOL    HW129060   3.514   3.642   7.003 -0.8666  0.8564 -2.4454
 5808SOL    HW229061   3.602   3.677   6.897  1.0257  0.3290 -0.3428
 5809SOL     OW29062   2.400   4.570   2.120 -0.1206 -0.2351  0.5319
 5809SOL    HW129063   2.399   4.631   2.046 -0.6997  0.0971  0.8156
 5809SOL    HW229064   2.423   4.628   2.192 -1.3977 -1.7906  2.1667
 5810SOL     OW29065   1.691   0.268   3.693  0.4659  0.0149 -0.1855
 5810SOL    HW129066   1.653   0.203   3.634 -1.4342  1.5134 -0.5963
 5810SOL    HW229067   1.734   0.214   3.759  0.2075  1.7433  1.4033
 5811SOL     OW29068   0.442   1.138   0.501  0.3423  0.2261  0.8643
 5811SOL    HW129069   0.515   1.178   0.549  0.5831 -0.9010  1.4255
 5811SOL    HW229070   0.413   1.080   0.571 -0.7389 -1.9621 -1.4044
 5812SOL     OW29071   4.648   3.711  14.396 -0.2214 -0.0367  0.4845
 5812SOL    HW129072   4.705   3.772  14.350 -2.2790  1.7026  0.2424
 5812SOL    HW229073   4.610   3.773  14.458 -0.4452  1.4960 -1.1953
 5813SOL     OW29074   4.674   0.625  12.392  0.0447  0.5560 -0.3602
 5813SOL    HW129075   4.686   0.711  12.351  1.4114  0.4539 -0.1780
 5813SOL    HW229076   0.010   0.632  12.455 -0.7665  1.0923  0.5049
 5814SOL     OW29077   0.035   3.131   2.360 -0.4334  0.2777 -0.0999
 5814SOL    HW129078   0.105   3.168   2.307  0.2995  4.2232  3.5804
 5814SOL    HW229079   0.003   3.061   2.305  0.1980 -1.4493  1.7350
 5815SOL     OW29080   3.265   1.691   2.902 -0.1937 -0.1693  0.0914
 5815SOL    HW129081   3.320   1.752   2.853  0.1950 -1.6159 -1.2961
 5815SOL    HW229082   3.210   1.657   2.831 -1.2136 -0.9832  1.2791
 5816SOL     OW29083   2.244   3.037   7.617  0.5384 -0.0603  0.5274
 5816SOL    HW129084   2.235   2.958   7.671 -2.0925  0.4345  0.8328
 5816SOL    HW229085   2.321   3.027   7.562 -0.4342  0.9737 -1.0084
 5817SOL     OW29086   4.660   0.346   5.838 -0.6895  0.0206  0.0639
 5817SOL    HW129087   4.640   0.355   5.932 -0.1173 -2.3674  0.4247
 5817SOL    HW229088   0.018   0.366   5.844 -0.6399 -0.7576  1.8742
 5818SOL     OW29089   0.493   0.584  16.658 -0.0382 -0.2939  0.2423
 5818SOL    HW129090   0.529   0.501  16.689  1.0836 -0.3872 -1.3301
 5818SOL    HW229091   0.473   0.565  16.567  0.2163  1.2559 -0.1377
 5819SOL     OW29092   4.036   2.506   8.031  0.2866  0.4448 -0.0259
 5819SOL    HW129093   4.004   2.569   7.967  0.6777 -0.7876 -1.4152
 5819SOL    HW229094   4.080   2.567   8.091 -1.0189 -0.8047  2.1963
 5820SOL     OW29095   1.295   4.494   4.925 -0.0270 -0.1700 -0.4063
 5820SOL    HW129096   1.326   4.422   4.980 -2.5963 -0.9245  0.0615
 5820SOL    HW229097   1.363   4.562   4.931 -0.6752  0.4387  0.0610
 5821SOL     OW29098   0.779   1.899   5.675 -0.1654 -0.7451 -0.6589
 5821SOL    HW129099   0.837   1.867   5.605  2.3699  0.0271  1.1141
 5821SOL    HW229100   0.793   1.827   5.737 -0.1335 -0.0947  0.0729
 5822SOL     OW29101   0.138   0.018   5.474  0.2808  0.1348  0.0657
 5822SOL    HW129102   0.072   4.685   5.485  0.1312  0.1725 -0.5921
 5822SOL    HW229103   0.102   0.078   5.409 -1.8468 -0.9502  0.2322
 5823SOL     OW29104   4.540   1.327   2.373 -0.3483 -0.1578  0.1062
 5823SOL    HW129105   4.600   1.252   2.377 -1.0182 -0.5174  3.9407
 5823SOL    HW229106   4.454   1.285   2.375 -1.1934  1.5968  0.5982
 5824SOL     OW29107   0.802   2.886   3.322  0.3696  0.8571  0.3927
 5824SOL    HW129108   0.819   2.804   3.367 -1.1770 -0.5461 -1.6097
 5824SOL    HW229109   0.889   2.919   3.299  0.0009  1.6094  0.0660
 5825SOL     OW29110   0.734   2.841  11.557 -0.6071 -0.3012  0.2512
 5825SOL    HW129111   0.667   2.879  11.615  0.8350  1.2882  0.8438
 5825SOL    HW229112   0.796   2.808  11.622 -0.5692 -0.7032  0.0093
 5826SOL     OW29113   4.479   1.239   4.813  0.3738 -0.0212  0.7354
 5826SOL    HW129114   4.567   1.216   4.845 -0.0273  0.3108  2.0667
 5826SOL    HW229115   4.432   1.164   4.850  0.6352 -0.3158  0.4742
 5827SOL     OW29116   4.246   4.008  14.880  0.1919  0.6783  0.4399
 5827SOL    HW129117   4.294   4.000  14.962 -3.7481 -0.4625  2.6171
 5827SOL    HW229118   4.306   3.961  14.822  0.0413  0.4397  0.4746
 5828SOL     OW29119   1.899   1.252  15.111  0.1921 -0.1332 -0.3478
 5828SOL    HW129120   1.961   1.283  15.046 -0.1116  0.6207 -0.2719
 5828SOL    HW229121   1.887   1.164  15.074 -2.2433 -0.3581  0.9874
 5829SOL     OW29122   4.016   0.679   7.538 -0.1097 -0.4212 -0.0441
 5829SOL    HW129123   3.936   0.626   7.546 -1.3989  1.4341 -0.6835
 5829SOL    HW229124   4.083   0.624   7.579 -0.5309 -1.4042 -0.6837
 5830SOL     OW29125   4.336   4.168   8.983  0.4907 -0.3258 -0.5743
 5830SOL    HW129126   4.269   4.105   9.009 -0.6733  0.6639 -1.1362
 5830SOL    HW229127   4.282   4.214   8.918 -1.3211 -1.2353  0.2766
 5831SOL     OW29128   3.556   2.383   8.135 -0.1905  0.1855  0.2273
 5831SOL    HW129129   3.526   2.292   8.124 -1.0823  0.3295  1.4488
 5831SOL    HW229130   3.650   2.368   8.146  0.5833  4.2061 -0.9050
 5832SOL     OW29131   3.409   1.827   3.908 -0.2104 -0.0584  0.2788
 5832SOL    HW129132   3.321   1.794   3.896  0.0765 -0.6180 -0.2988
 5832SOL    HW229133   3.454   1.781   3.979  2.3813  1.0909 -0.6003
 5833SOL     OW29134   2.932   2.875   5.191  0.3826 -0.3739 -0.3732
 5833SOL    HW129135   2.854   2.827   5.219  0.3518 -0.2543 -0.2518
 5833SOL    HW229136   2.940   2.838   5.103  0.3524  1.6947 -1.2434
 5834SOL     OW29137   1.182   0.357   7.129  0.2342  0.1876  0.5315
 5834SOL    HW129138   1.122   0.319   7.194  0.7548  0.5825  1.2515
 5834SOL    HW229139   1.246   0.287   7.121  1.1610  1.0162  0.7065
 5835SOL     OW29140   1.248   0.988  17.608 -0.7015 -0.3100  0.3747
 5835SOL    HW129141   1.323   1.035  17.571 -0.7041  0.0010  0.7676
 5835SOL    HW229142   1.195   1.055  17.652  0.8398  0.2329  1.3880
 5836SOL     OW29143   4.169   2.689  10.828  0.2009  0.1723 -0.3465
 5836SOL    HW129144   4.150   2.630  10.901 -2.8218  0.1101 -1.1762
 5836SOL    HW229145   4.095   2.749  10.834  0.7371  0.6198  1.9781
 5837SOL     OW29146   4.573   4.297   8.929  0.3369 -0.2098 -0.7131
 5837SOL    HW129147   4.490   4.263   8.962 -0.5230  2.4813 -0.1326
 5837SOL    HW229148   4.547   4.323   8.840 -2.2713 -2.2280 -0.5222
 5838SOL     OW29149   0.717   0.660   2.276  0.2388 -0.2439  0.1532
 5838SOL    HW129150   0.772   0.586   2.248  1.8522  1.8074 -2.1175
 5838SOL    HW229151   0.642   0.632   2.223 -0.3692  1.6042  0.0396
 5839SOL     OW29152   1.491   0.496   1.104 -0.3761  0.0388  0.2498
 5839SOL    HW129153   1.580   0.497   1.069  0.2362 -0.3482  1.7804
 5839SOL    HW229154   1.467   0.583   1.073 -0.1149  0.9794  2.6340
 5840SOL     OW29155   3.216   3.722   2.264 -0.2015 -0.0573 -0.1518
 5840SOL    HW129156   3.147   3.658   2.247  0.5377 -0.7666 -0.4611
 5840SOL    HW229157   3.267   3.707   2.185 -1.1133  2.1249 -1.1471
 5841SOL     OW29158   2.893   1.098  10.635  0.4509 -0.2800  0.0666
 5841SOL    HW129159   2.960   1.141  10.688  1.3282 -1.8730  0.2395
 5841SOL    HW229160   2.905   1.134  10.547  0.7004 -0.1928  0.1369
 5842SOL     OW29161   0.619   4.479   4.758  0.1004  0.0547 -0.2530
 5842SOL    HW129162   0.714   4.472   4.753 -0.1025 -3.4192  1.1317
 5842SOL    HW229163   0.586   4.390   4.746  0.9450 -0.2157 -0.5253
 5843SOL     OW29164   0.937   3.098   0.267  0.0154 -0.3936 -0.1533
 5843SOL    HW129165   0.995   3.051   0.206  0.4331  0.5199 -0.4554
 5843SOL    HW229166   0.903   3.025   0.319 -1.1198  0.4878  0.3260
 5844SOL     OW29167   4.071   1.540  16.637 -0.1530  0.2298 -0.1946
 5844SOL    HW129168   4.097   1.586  16.557 -0.6635  0.8028 -0.0285
 5844SOL    HW229169   3.999   1.593  16.670 -0.2987  0.1666 -0.4131
 5845SOL     OW29170   3.049   2.239   2.548  0.1473  0.4534  0.0090
 5845SOL    HW129171   2.982   2.175   2.523 -1.2089  1.4316  1.1578
 5845SOL    HW229172   2.996   2.285   2.613 -0.4484 -1.2395  0.7310
 5846SOL     OW29173   2.990   3.723   3.080  0.4236 -0.0997  0.1357
 5846SOL    HW129174   2.937   3.803   3.076  2.4447  1.1762 -1.9238
 5846SOL    HW229175   3.060   3.752   3.021  1.2317 -1.4979  0.4113
 5847SOL     OW29176   3.166   3.319   4.752 -0.2085 -1.3580 -0.4825
 5847SOL    HW129177   3.139   3.335   4.843  0.2149 -0.7850 -0.4584
 5847SOL    HW229178   3.091   3.359   4.708 -0.2914 -1.0552 -0.0702
 5848SOL     OW29179   1.358   3.480   3.101  0.4962  0.1037  0.0506
 5848SOL    HW129180   1.360   3.550   3.166  1.3535 -0.5128  0.6925
 5848SOL    HW229181   1.439   3.490   3.051  0.8848 -1.2576  0.3849
 5849SOL     OW29182   1.124   3.173   6.202  0.4449 -0.0675 -0.3276
 5849SOL    HW129183   1.070   3.118   6.146  0.2357  0.3021 -0.4881
 5849SOL    HW229184   1.099   3.122   6.280 -1.5732 -0.9217 -1.5341
 5850SOL     OW29185   2.061   4.512   6.808 -0.3257 -0.5906  0.1233
 5850SOL    HW129186   2.127   4.547   6.868  0.6581 -0.1195 -1.2488
 5850SOL    HW229187   2.124   4.461   6.757  0.7474  0.5942  0.2687
 5851SOL     OW29188   2.185   3.917   5.515 -0.1953 -0.5748  0.0309
 5851SOL    HW129189   2.169   3.825   5.538  1.3873 -0.6942  0.6589
 5851SOL    HW229190   2.097   3.948   5.495  0.0849  0.4107  0.3330
 5852SOL     OW29191   4.191   0.853   2.669  0.1678  0.2055  0.2635
 5852SOL    HW129192   4.123   0.789   2.691  1.5215 -1.4138 -0.2448
 5852SOL    HW229193   4.212   0.885   2.756  0.4836  1.8473 -0.4144
 5853SOL     OW29194   4.317   1.079   3.705 -0.0747 -0.2293  0.2383
 5853SOL    HW129195   4.276   1.037   3.781 -1.0146 -3.6555 -2.1976
 5853SOL    HW229196   4.247   1.074   3.640  0.9947 -0.1753 -0.8953
 5854SOL     OW29197   1.530   0.153   2.587 -0.6612 -0.6485  0.3927
 5854SOL    HW129198   1.546   0.161   2.493 -2.1828 -2.8162 -0.0273
 5854SOL    HW229199   1.578   0.076   2.617  1.5103  0.4070 -0.3597
 5855SOL     OW29200   2.737   0.561  17.636  0.7091 -0.5446  0.6565
 5855SOL    HW129201   2.795   0.628  17.672 -0.2481  0.7931 -0.3001
 5855SOL    HW229202   2.798   0.487  17.632  1.4740 -0.1219  4.9984
 5856SOL     OW29203   3.493   0.529   3.338 -0.2703 -0.1519 -0.2978
 5856SOL    HW129204   3.484   0.481   3.420 -0.5046 -2.8407 -1.8912
 5856SOL    HW229205   3.408   0.519   3.294  0.5307 -1.6501 -1.5258
 5857SOL     OW29206   0.069   3.422   7.379  0.0327  0.2410  0.3882
 5857SOL    HW129207   0.054   3.515   7.364  0.7031  0.5450  1.6119
 5857SOL    HW229208   0.027   3.378   7.305 -3.1265  0.0171  2.3404
 5858SOL     OW29209   4.116   1.743   8.670  0.9123  0.3898 -0.1235
 5858SOL    HW129210   4.198   1.787   8.651  0.5434  0.3685 -1.7079
 5858SOL    HW229211   4.058   1.810   8.635  0.1515 -0.5448 -0.6514
 5859SOL     OW29212   2.469   0.745   0.337  0.1490  1.0172  0.2803
 5859SOL    HW129213   2.426   0.663   0.359 -0.1835  0.9754 -0.5068
 5859SOL    HW229214   2.455   0.746   0.242 -0.0636 -0.5508  0.2982
 5860SOL     OW29215   2.134   3.675   9.568  0.0467  0.4323 -0.5941
 5860SOL    HW129216   2.228   3.664   9.552 -0.0917 -2.4370  0.5047
 5860SOL    HW229217   2.142   3.716   9.654 -2.3770 -0.6371  0.1506
 5861SOL     OW29218   2.208   1.328  13.257 -0.0843 -0.3279  0.1528
 5861SOL    HW129219   2.128   1.346  13.209  0.0477 -1.7397 -0.5847
 5861SOL    HW229220   2.224   1.418  13.284  0.0306 -0.2258 -0.2555
 5862SOL     OW29221   2.688   0.956   3.853 -0.2474 -0.0905  0.1599
 5862SOL    HW129222   2.777   0.969   3.822 -0.7358 -0.9136 -1.6304
 5862SOL    HW229223   2.646   0.957   3.767  1.3044  1.6044 -0.5767
 5863SOL     OW29224   2.133   4.108   4.942  0.1906  0.2887 -0.5219
 5863SOL    HW129225   2.168   4.191   4.973  0.6167 -1.2281  3.0614
 5863SOL    HW229226   2.092   4.142   4.863 -0.2466 -3.0785 -1.7676
 5864SOL     OW29227   1.437   1.582   6.632 -0.1538  0.5228 -0.3677
 5864SOL    HW129228   1.346   1.591   6.604 -0.7199 -1.4182  0.7904
 5864SOL    HW229229   1.432   1.661   6.685 -0.5802  0.2970 -0.0708
 5865SOL     OW29230   0.641   3.971  12.575  0.6016 -0.0211 -0.1893
 5865SOL    HW129231   0.610   3.883  12.598  0.1679 -0.2394 -1.5800
 5865SOL    HW229232   0.669   4.006  12.659 -0.4371  4.5861 -1.7566
 5866SOL     OW29233   1.453   3.257   4.784  0.5005 -0.2587  0.5744
 5866SOL    HW129234   1.438   3.257   4.878 -0.7291  1.9869  0.3869
 5866SOL    HW229235   1.548   3.245   4.786  0.4988 -1.0259 -3.2045
 5867SOL     OW29236   0.793   0.373   1.918 -0.4452  0.1720  0.2206
 5867SOL    HW129237   0.783   0.279   1.904  3.3507 -0.2651  0.3809
 5867SOL    HW229238   0.753   0.414   1.842 -1.0334  0.2635  0.5772
 5868SOL     OW29239   0.635   4.583   7.597 -0.4346  0.1518 -0.2197
 5868SOL    HW129240   0.676   4.524   7.534  1.6938  2.8709 -1.3479
 5868SOL    HW229241   0.552   4.540   7.617 -0.4641  0.7457  0.9244
 5869SOL     OW29242   1.362   1.607   4.849 -0.4848 -0.7348  0.3487
 5869SOL    HW129243   1.410   1.550   4.789 -1.8140 -0.9996 -0.4752
 5869SOL    HW229244   1.326   1.544   4.911 -2.3226  0.4173  0.4731
 5870SOL     OW29245   0.816   0.682   4.093  0.0297 -0.2754  0.4494
 5870SOL    HW129246   0.771   0.716   4.170  1.0785  0.0924  0.8979
 5870SOL    HW229247   0.796   0.761   4.041  3.0873  0.8146  0.9033
 5871SOL     OW29248   0.644   4.380   2.292  0.0934 -0.1340  0.2215
 5871SOL    HW129249   0.596   4.317   2.239 -0.3618 -0.0023  0.4772
 5871SOL    HW229250   0.619   4.362   2.382  0.0906 -3.0773 -0.3887
 5872SOL     OW29251   3.105   3.213  11.522 -0.9930  0.5611 -0.3409
 5872SOL    HW129252   3.117   3.124  11.558 -1.9846  1.3752  2.0417
 5872SOL    HW229253   3.025   3.238  11.568 -1.1665 -0.9308  0.1808
 5873SOL     OW29254   3.033   2.960   5.770  0.3159 -0.9802 -0.2841
 5873SOL    HW129255   3.052   2.953   5.677  1.7675 -2.9091  0.1672
 5873SOL    HW229256   3.086   2.890   5.808  0.7803 -0.4177  0.1029
 5874SOL     OW29257   1.916   1.076  12.732 -0.1964  0.6563 -0.0171
 5874SOL    HW129258   1.920   1.108  12.642  1.7585 -3.5901 -1.4303
 5874SOL    HW229259   1.823   1.082  12.752 -0.0564  1.3592  0.4254
 5875SOL     OW29260   1.178   3.392   0.619  0.2356 -0.4854  0.7288
 5875SOL    HW129261   1.139   3.369   0.535  0.2651 -0.3276  0.6731
 5875SOL    HW229262   1.116   3.352   0.681  0.5125 -1.4817  0.3658
 5876SOL     OW29263   3.445   1.142   5.155  0.3340 -0.2803  0.1321
 5876SOL    HW129264   3.471   1.199   5.228  0.4663  1.1956 -1.0802
 5876SOL    HW229265   3.357   1.120   5.185  0.9333 -0.3440  1.8758
 5877SOL     OW29266   0.006   3.571  16.697  0.6511 -0.5525  0.1387
 5877SOL    HW129267   0.084   3.539  16.743  2.0693  1.5200 -0.8516
 5877SOL    HW229268   0.027   3.664  16.699  1.5002 -0.7093 -1.3648
 5878SOL     OW29269   1.837   3.461  16.552  0.1874 -0.6054 -0.1159
 5878SOL    HW129270   1.926   3.443  16.523 -0.0426  0.9863 -1.7895
 5878SOL    HW229271   1.845   3.551  16.584  0.0558 -0.2068 -1.2117
 5879SOL     OW29272   3.612   1.691   6.826  0.1210  0.2670  0.2689
 5879SOL    HW129273   3.531   1.640   6.826  1.0835 -1.2826  2.2573
 5879SOL    HW229274   3.662   1.643   6.892  1.9261  2.0336  0.1806
 5880SOL     OW29275   4.084   0.279   2.821 -0.0179  0.0372 -0.6072
 5880SOL    HW129276   4.133   0.360   2.833 -1.0821  0.6761 -0.5893
 5880SOL    HW229277   4.042   0.272   2.907 -0.8670  0.5216 -0.9899
 5881SOL     OW29278   3.606   0.796   7.183  0.1636 -0.3450  0.1112
 5881SOL    HW129279   3.681   0.764   7.133 -0.0606 -1.3548  0.4237
 5881SOL    HW229280   3.650   0.878   7.207  0.8538 -1.1969  1.7964
 5882SOL     OW29281   2.851   3.956   3.096  0.2672  0.3460 -0.9029
 5882SOL    HW129282   2.804   3.975   3.178  1.1166  1.2404 -0.6284
 5882SOL    HW229283   2.879   4.044   3.069 -1.4598  1.3000  0.4140
 5883SOL     OW29284   0.405   0.968  11.581 -0.2173  0.3399 -0.8265
 5883SOL    HW129285   0.322   1.004  11.613 -1.4377 -1.2880 -2.1365
 5883SOL    HW229286   0.463   1.003  11.649 -1.0417  0.2870 -0.1017
 5884SOL     OW29287   0.689   3.237  11.998  0.2055  0.4262 -0.2088
 5884SOL    HW129288   0.673   3.172  12.066  0.2529 -1.3982 -1.9216
 5884SOL    HW229289   0.762   3.201  11.947 -0.9872 -1.9773 -0.2039
 5885SOL     OW29290   0.691   2.313   4.598  0.9213 -0.2814  0.0336
 5885SOL    HW129291   0.699   2.220   4.576  1.7115 -0.4923  1.1704
 5885SOL    HW229292   0.766   2.320   4.657  0.9423 -1.3501  0.1449
 5886SOL     OW29293   4.296   0.827   5.918  0.0379 -0.2834 -0.3284
 5886SOL    HW129294   4.309   0.885   5.843  0.7629  1.0125  0.8054
 5886SOL    HW229295   4.220   0.771   5.902  0.1251  0.2069 -2.4026
 5887SOL     OW29296   1.534   1.747   3.005  0.2644 -0.3194  0.1215
 5887SOL    HW129297   1.564   1.731   2.916 -0.5082  0.8835 -0.3487
 5887SOL    HW229298   1.538   1.842   3.016 -1.2190  0.1550 -3.5837
 5888SOL     OW29299   4.479   4.338   3.345 -0.3466  0.3100  0.0426
 5888SOL    HW129300   4.394   4.382   3.340 -1.6055 -2.0434  0.3746
 5888SOL    HW229301   4.497   4.333   3.439 -0.5628 -1.5443 -0.0073
 5889SOL     OW29302   0.905   0.404   9.846  0.3395 -0.2847 -0.1202
 5889SOL    HW129303   0.830   0.422   9.791 -0.4193  1.0197  1.3442
 5889SOL    HW229304   0.874   0.343   9.913 -1.6067  1.9570  0.9906
 5890SOL     OW29305   0.818   2.202   4.305 -0.8416 -0.6503  0.3263
 5890SOL    HW129306   0.845   2.274   4.363 -1.2180  0.3103 -0.6998
 5890SOL    HW229307   0.799   2.139   4.374 -1.3953 -1.5013 -0.6185
 5891SOL     OW29308   4.427   3.717   1.914 -0.4026 -1.0808  0.0474
 5891SOL    HW129309   4.436   3.701   2.008 -0.1516  1.3205  0.4310
 5891SOL    HW229310   4.427   3.629   1.877 -3.9805 -0.9912 -0.0802
 5892SOL     OW29311   2.383   2.242  17.635  0.2578  0.0072  0.0160
 5892SOL    HW129312   2.448   2.265  17.567 -1.2111 -1.1520 -1.7853
 5892SOL    HW229313   2.310   2.201  17.589 -1.5876  4.5660 -1.1214
 5893SOL     OW29314   3.562   2.545   8.980  0.0170 -0.4486  0.1539
 5893SOL    HW129315   3.487   2.602   8.993  1.3387  0.7543  2.4677
 5893SOL    HW229316   3.525   2.475   8.925  0.6180 -1.8717  1.5597
 5894SOL     OW29317   3.305   2.380   5.495  0.2506  0.0786  0.1400
 5894SOL    HW129318   3.313   2.315   5.565 -0.2416  0.5086  0.5945
 5894SOL    HW229319   3.328   2.327   5.419 -1.6452 -2.2866  1.2158
 5895SOL     OW29320   1.291   2.610   5.002  0.1264  0.5646 -0.2287
 5895SOL    HW129321   1.339   2.690   5.020 -1.7013  2.0951 -2.2010
 5895SOL    HW229322   1.337   2.555   5.065 -0.9698 -0.3982 -0.2692
 5896SOL     OW29323   2.704   3.366  10.862  0.5742 -0.3418  0.3930
 5896SOL    HW129324   2.783   3.329  10.823  0.3861  0.6214 -0.9408
 5896SOL    HW229325   2.712   3.341  10.954  0.6881  0.4508  0.6023
 5897SOL     OW29326   1.835   2.461   3.442 -0.1811  0.0053  0.1283
 5897SOL    HW129327   1.756   2.481   3.493  1.0989 -1.8887  2.8520
 5897SOL    HW229328   1.804   2.469   3.352  1.6527 -1.2251 -0.6164
 5898SOL     OW29329   1.689   2.743   6.777 -0.3765  0.7294  0.0164
 5898SOL    HW129330   1.754   2.802   6.816  3.0936 -1.1834 -2.7962
 5898SOL    HW229331   1.608   2.794   6.782 -0.5917  0.4981 -1.0336
 5899SOL     OW29332   4.299   1.585   4.752 -0.4555 -0.4353 -0.0295
 5899SOL    HW129333   4.226   1.647   4.754  0.7716  0.9665  1.1856
 5899SOL    HW229334   4.291   1.548   4.841 -2.1997 -0.5285 -0.2181
 5900SOL     OW29335   1.321   1.796   8.954 -0.4112 -0.4555 -0.4032
 5900SOL    HW129336   1.231   1.815   8.928 -0.3576  1.4330  0.7953
 5900SOL    HW229337   1.347   1.886   8.972  2.3242 -1.1252 -0.9533
 5901SOL     OW29338   1.978   3.840   4.394  0.3456 -0.1290  0.0428
 5901SOL    HW129339   2.008   3.750   4.379 -0.6077 -0.4918  0.3478
 5901SOL    HW229340   1.912   3.844   4.325 -0.7525 -1.7662  0.9854
 5902SOL     OW29341   3.516   0.990  14.985  0.0569  0.1832  0.3821
 5902SOL    HW129342   3.506   0.897  14.963  0.9048  0.0445  0.5982
 5902SOL    HW229343   3.428   1.019  14.960 -0.3586 -2.2061 -0.9471
 5903SOL     OW29344   3.067   2.772   8.249  0.1790 -0.5255 -0.0315
 5903SOL    HW129345   2.977   2.737   8.245  0.2534 -0.8202  0.8438
 5903SOL    HW229346   3.060   2.833   8.322  2.7527 -0.3063  0.0310
 5904SOL     OW29347   1.731   4.230   2.910 -0.5505  0.1157  0.0640
 5904SOL    HW129348   1.741   4.135   2.905  0.8040  0.2172  0.9092
 5904SOL    HW229349   1.677   4.257   2.985  0.7585 -0.0766  1.0811
 5905SOL     OW29350   1.098   0.964  13.781 -0.2691  0.2381  0.3406
 5905SOL    HW129351   1.141   0.880  13.800  0.0043  0.1189 -0.7673
 5905SOL    HW229352   1.006   0.937  13.780 -0.2907  0.3772 -1.5138
 5906SOL     OW29353   0.055   4.163   9.086 -0.6805 -0.1753 -0.2215
 5906SOL    HW129354   0.104   4.138   9.007  0.3199  0.9901  0.0315
 5906SOL    HW229355   4.715   4.211   9.052  1.3029  1.3898 -2.4567
 5907SOL     OW29356   0.070   4.606   1.649  0.3039 -0.4766 -0.2771
 5907SOL    HW129357   0.140   4.594   1.713 -0.5158  0.4207  0.7919
 5907SOL    HW229358   0.003   4.554   1.693 -0.3836  1.2154  0.6507
 5908SOL     OW29359   0.968   4.607   2.145  1.1209  0.0780 -0.0949
 5908SOL    HW129360   1.015   4.684   2.177  0.2081 -0.1865  1.8779
 5908SOL    HW229361   0.938   4.630   2.057  2.1781  1.5873 -0.0561
 5909SOL     OW29362   4.364   0.151   7.551 -0.4121 -0.4817 -0.0147
 5909SOL    HW129363   4.437   0.211   7.563 -1.1904 -0.0881  2.8959
 5909SOL    HW229364   4.399   0.077   7.501  1.0516 -0.3746  0.8577
 5910SOL     OW29365   2.463   0.192   5.135  0.3452  0.1590  0.3310
 5910SOL    HW129366   2.501   0.263   5.186  0.7064 -0.8774  1.5180
 5910SOL    HW229367   2.488   0.224   5.048 -1.0287 -3.1824 -1.3066
 5911SOL     OW29368   1.182   3.268   3.262 -0.1193  0.3824 -0.4813
 5911SOL    HW129369   1.142   3.331   3.202 -0.7698  1.5107  1.1321
 5911SOL    HW229370   1.236   3.329   3.312  1.2074  0.1571 -1.6347
 5912SOL     OW29371   0.604   0.978   3.595 -0.0708  0.1554  0.7140
 5912SOL    HW129372   0.530   0.950   3.541  0.4636  1.1987 -0.5512
 5912SOL    HW229373   0.603   1.071   3.574 -0.0140  0.1073  0.4963
 5913SOL     OW29374   0.260   4.163   4.365 -0.4494 -0.4340 -0.2678
 5913SOL    HW129375   0.337   4.115   4.397  0.6084 -0.5098 -2.8841
 5913SOL    HW229376   0.243   4.209   4.446  1.5982  0.0120 -0.0906
 5914SOL     OW29377   2.849   0.457   6.289 -0.2262 -0.3853 -0.0080
 5914SOL    HW129378   2.856   0.551   6.271  1.3913 -0.3709  0.6927
 5914SOL    HW229379   2.933   0.415   6.269 -0.3498 -1.3499  1.5350
 5915SOL     OW29380   1.407   4.682   6.841  0.6163  0.1034 -0.2112
 5915SOL    HW129381   1.329   0.001   6.841  0.1692 -0.5293  0.4832
 5915SOL    HW229382   1.465   4.720   6.775  1.3063 -2.8527 -1.2894
 5916SOL     OW29383   1.350   1.011   9.775 -0.1435 -0.8071 -0.5031
 5916SOL    HW129384   1.438   0.998   9.739  0.3378 -2.3579  1.2601
 5916SOL    HW229385   1.309   0.936   9.731  0.3683 -1.8484  0.7894
 5917SOL     OW29386   3.610   0.259  17.645  0.0021  0.4332  0.2819
 5917SOL    HW129387   3.606   0.327  17.712  2.1466  1.3697 -0.5210
 5917SOL    HW229388   3.661   0.193  17.692  1.1280  1.5601  0.6471
 5918SOL     OW29389   4.059   1.469   8.244 -0.1553  0.3451  0.3184
 5918SOL    HW129390   4.005   1.390   8.236  1.1015 -0.3021 -1.4762
 5918SOL    HW229391   4.146   1.431   8.233  0.0335  1.4491 -1.8967
 5919SOL     OW29392   2.655   4.573   8.008 -0.1375 -0.1464  0.2588
 5919SOL    HW129393   2.567   4.608   8.018  0.0949  0.6168 -0.3590
 5919SOL    HW229394   2.717   4.641   8.035 -1.1747  0.6293  0.7014
 5920SOL     OW29395   2.555   4.278   7.569 -0.2201  0.5888  0.6359
 5920SOL    HW129396   2.475   4.248   7.527 -0.9999  3.1250  0.2935
 5920SOL    HW229397   2.607   4.200   7.552 -1.5469  0.0677 -0.9836
 5921SOL     OW29398   4.622   1.151   8.728 -0.3089  0.0907  0.2051
 5921SOL    HW129399   4.689   1.152   8.659 -0.4005 -0.9033  0.1053
 5921SOL    HW229400   4.547   1.150   8.668  1.2302  0.9227 -1.7445
 5922SOL     OW29401   3.103   3.497   7.219 -0.1401  0.2132 -0.1595
 5922SOL    HW129402   3.166   3.569   7.230 -1.1445  1.0311  0.2609
 5922SOL    HW229403   3.107   3.445   7.300 -1.4437  0.3295 -0.0274
 5923SOL     OW29404   2.537   2.042   2.905 -0.6778 -0.1401 -0.0406
 5923SOL    HW129405   2.464   2.069   2.961 -1.2073  1.5980 -1.6007
 5923SOL    HW229406   2.590   2.002   2.974 -1.8851 -0.4029  0.7395
 5924SOL     OW29407   2.188   1.586  11.186 -0.2840 -0.0701 -0.1272
 5924SOL    HW129408   2.253   1.651  11.161  1.6786 -0.8607  3.0081
 5924SOL    HW229409   2.212   1.574  11.278 -0.9666 -0.9906 -0.0732
 5925SOL     OW29410   4.209   1.535   5.023 -0.6846 -0.2625  0.1898
 5925SOL    HW129411   4.163   1.457   5.055 -0.5361  0.4807  2.1479
 5925SOL    HW229412   4.206   1.591   5.100  1.3857 -1.9387  1.4853
 5926SOL     OW29413   3.354   3.668  11.365  0.4120 -0.3589  0.1302
 5926SOL    HW129414   3.278   3.668  11.308 -1.6058  0.6639  2.8046
 5926SOL    HW229415   3.409   3.718  11.305  0.1628 -0.0810  0.1325
 5927SOL     OW29416   1.575   2.519  10.891 -0.1342  0.0158 -0.2623
 5927SOL    HW129417   1.581   2.424  10.898  1.0656  0.0785 -0.5450
 5927SOL    HW229418   1.636   2.538  10.963 -1.9027 -2.5299  1.9165
 5928SOL     OW29419   3.672   3.410  10.269 -0.1944 -0.5437 -0.3004
 5928SOL    HW129420   3.616   3.432  10.195  1.1890 -1.7468 -1.6974
 5928SOL    HW229421   3.611   3.360  10.324 -1.5437 -1.0049 -2.2331
 5929SOL     OW29422   2.958   4.679   0.844  0.2986  0.2268 -0.1442
 5929SOL    HW129423   2.971   0.006   0.916 -1.8028 -1.7345  1.9641
 5929SOL    HW229424   2.994   4.724   0.768  0.1430  1.4395  0.4879
 5930SOL     OW29425   4.130   2.223   5.293 -0.0430 -0.8709 -0.2524
 5930SOL    HW129426   4.102   2.242   5.203 -0.7711 -2.2926 -0.3259
 5930SOL    HW229427   4.178   2.140   5.285  0.5315 -0.8923  3.4439
 5931SOL     OW29428   4.504   4.615  16.750  0.0573 -0.2658  0.5166
 5931SOL    HW129429   4.580   4.567  16.717 -1.6689 -1.0142 -2.3702
 5931SOL    HW229430   4.504   4.690  16.691 -0.1432 -0.8255 -0.1937
 5932SOL     OW29431   2.705   1.053   0.592 -0.0513  0.2540  0.5940
 5932SOL    HW129432   2.787   1.006   0.603 -2.0171 -3.7041 -1.5754
 5932SOL    HW229433   2.708   1.079   0.500  0.7347  0.6122  0.7203
 5933SOL     OW29434   1.112   1.766   5.972  0.0838 -0.1059  0.1585
 5933SOL    HW129435   1.167   1.826   5.921  1.3700 -1.1206  0.3250
 5933SOL    HW229436   1.093   1.700   5.905  2.2938  1.2639 -1.8398
 5934SOL     OW29437   0.385   1.375   3.722 -0.2050  0.2886  0.5644
 5934SOL    HW129438   0.347   1.337   3.802 -2.1519  1.4072  0.1880
 5934SOL    HW229439   0.303   1.388   3.674  0.0627 -1.2309 -0.2776
 5935SOL     OW29440   1.328   3.063   7.456  0.2455 -0.7446 -0.0308
 5935SOL    HW129441   1.287   3.054   7.542  1.5786 -1.5753  0.5184
 5935SOL    HW229442   1.351   3.156   7.449  2.2265 -1.2061  0.2920
 5936SOL     OW29443   2.334   4.370   6.769 -0.2479  0.0850 -0.3668
 5936SOL    HW129444   2.393   4.297   6.752 -0.4528 -0.3361  0.7275
 5936SOL    HW229445   2.378   4.423   6.835  0.0816  1.0872 -1.3861
 5937SOL     OW29446   4.373   4.672   5.281 -0.3451 -0.1305 -0.1635
 5937SOL    HW129447   4.340   0.019   5.317 -0.2881  0.8751 -2.3910
 5937SOL    HW229448   4.304   4.613   5.311  0.9278 -1.4105  0.2040
 5938SOL     OW29449   4.552   3.394   9.488 -0.2745 -0.3124  0.4937
 5938SOL    HW129450   4.478   3.439   9.446 -0.3811  0.5579  1.6090
 5938SOL    HW229451   4.507   3.338   9.552 -0.4637 -0.1156  0.5358
 5939SOL     OW29452   0.775   1.268   2.337  0.4695 -0.4538 -0.9808
 5939SOL    HW129453   0.736   1.216   2.267 -0.8501 -0.6910 -0.0584
 5939SOL    HW229454   0.697   1.314   2.366 -0.1716 -2.0661 -0.1305
 5940SOL     OW29455   2.739   2.855   1.734 -0.1504 -0.2210 -0.7935
 5940SOL    HW129456   2.812   2.865   1.797  0.2796  1.0478 -1.4867
 5940SOL    HW229457   2.697   2.781   1.776  3.3092 -1.6128  0.2102
 5941SOL     OW29458   2.149   2.715  16.606 -0.6877  0.9017  0.1498
 5941SOL    HW129459   2.185   2.798  16.636  1.6750  0.1323 -0.5520
 5941SOL    HW229460   2.200   2.644  16.645  0.0598 -0.0322 -2.5675
 5942SOL     OW29461   4.516   3.206   8.801  0.7279 -0.0386  0.2222
 5942SOL    HW129462   4.556   3.271   8.744  0.1462  0.1826  0.0719
 5942SOL    HW229463   4.567   3.223   8.881 -1.4383 -0.3854  1.6642
 5943SOL     OW29464   2.882   1.628   6.120 -0.4446  0.1204 -0.0284
 5943SOL    HW129465   2.885   1.590   6.033 -0.1274 -0.3661  0.1962
 5943SOL    HW229466   2.868   1.719   6.093 -2.4488  0.6271  2.7485
 5944SOL     OW29467   1.722   2.321   7.048 -0.4920 -0.1327  0.3563
 5944SOL    HW129468   1.669   2.360   7.118  1.3453  2.6353  0.2278
 5944SOL    HW229469   1.803   2.316   7.099  0.5333 -1.9058 -1.4401
 5945SOL     OW29470   4.552   2.690  13.048 -0.2862 -0.1010  0.5993
 5945SOL    HW129471   4.607   2.725  13.118 -1.2099  0.3518  1.0908
 5945SOL    HW229472   4.491   2.760  13.026  0.6631 -0.4508 -3.1754
 5946SOL     OW29473   1.623   0.349   4.780  0.4486 -0.5505 -0.1281
 5946SOL    HW129474   1.715   0.363   4.757  1.0060 -0.5932  2.0348
 5946SOL    HW229475   1.599   0.441   4.790  0.8341 -0.5515  0.8583
 5947SOL     OW29476   2.034   4.600   5.478  0.1343 -0.0071 -0.1200
 5947SOL    HW129477   2.069   4.556   5.400 -0.7291 -1.3471  0.2388
 5947SOL    HW229478   2.069   4.550   5.552  1.3241 -0.8094 -1.2247
 5948SOL     OW29479   0.224   2.959   1.608  0.6260 -0.0528 -0.0220
 5948SOL    HW129480   0.253   2.885   1.554 -0.0807 -0.6366  0.4080
 5948SOL    HW229481   0.152   2.920   1.658  1.6587 -1.1534  0.5919
 5949SOL     OW29482   0.675   1.271   8.348  0.5979  0.1227  0.3926
 5949SOL    HW129483   0.686   1.209   8.277 -0.2048 -0.0204  0.3961
 5949SOL    HW229484   0.760   1.282   8.390  0.5176  0.0950  0.5641
 5950SOL     OW29485   3.062   4.469   6.374  0.1725 -0.0797  0.0372
 5950SOL    HW129486   3.088   4.386   6.415  0.4464 -0.9704 -1.9239
 5950SOL    HW229487   3.127   4.498   6.312  2.2112 -2.4685  1.0444
 5951SOL     OW29488   4.705   3.208   3.875  0.2440  0.7882 -0.2784
 5951SOL    HW129489   0.033   3.137   3.882 -2.9843 -2.0550  0.1948
 5951SOL    HW229490   0.005   3.272   3.937 -1.7169  0.2409  1.4499
 5952SOL     OW29491   2.540   0.749   8.412  0.0317  0.3640 -0.4745
 5952SOL    HW129492   2.487   0.788   8.342 -0.8384  0.2214  0.1069
 5952SOL    HW229493   2.618   0.805   8.414 -0.1185  0.5646 -0.1892
 5953SOL     OW29494   1.798   1.973   4.198  0.3005 -0.2954 -0.1301
 5953SOL    HW129495   1.858   1.987   4.125 -0.7474  3.4550 -0.3143
 5953SOL    HW229496   1.722   2.028   4.176  0.0702  0.4892  2.5345
 5954SOL     OW29497   0.773   0.499  13.146 -0.3722 -0.0315 -0.4604
 5954SOL    HW129498   0.822   0.568  13.101  1.1550 -0.0194  1.2394
 5954SOL    HW229499   0.841   0.466  13.205 -0.8072 -2.9120 -1.5482
 5955SOL     OW29500   3.746   1.054   7.327  0.2398  0.5191  0.4465
 5955SOL    HW129501   3.813   1.005   7.375  0.8266 -0.6196 -1.5085
 5955SOL    HW229502   3.792   1.134   7.302 -0.2867  0.5606 -0.3935
 5956SOL     OW29503   0.074   3.758   5.003 -0.1036 -0.2120 -0.6880
 5956SOL    HW129504   0.080   3.771   5.098  0.0371  2.0953 -1.0099
 5956SOL    HW229505   0.168   3.764   4.983 -0.8785  3.0653 -3.3413
 5957SOL     OW29506   0.625   1.794  17.327  0.1645  0.0818 -0.2819
 5957SOL    HW129507   0.657   1.705  17.309  1.5726  0.4552  0.4439
 5957SOL    HW229508   0.564   1.821  17.257  1.0119 -1.6721 -1.6965
 5958SOL     OW29509   3.188   3.387   1.467 -0.0600  0.6696  0.0499
 5958SOL    HW129510   3.183   3.380   1.372 -0.3037  0.5520  0.0737
 5958SOL    HW229511   3.246   3.463   1.476  1.2053 -0.3792  0.8837
 5959SOL     OW29512   2.090   0.989   1.613 -0.3963 -0.4364  0.8096
 5959SOL    HW129513   2.050   1.075   1.600  1.8360  0.1671 -2.0214
 5959SOL    HW229514   2.026   0.952   1.673 -0.9052  0.4480  0.8201
 5960SOL     OW29515   3.753   2.674  11.008  0.1337 -0.1494 -0.0748
 5960SOL    HW129516   3.688   2.613  11.042 -0.4134  0.2613 -0.3834
 5960SOL    HW229517   3.836   2.632  11.031  0.1133 -0.2696 -0.2225
 5961SOL     OW29518   4.060   3.456  14.525  0.2489 -0.4224  0.3088
 5961SOL    HW129519   4.103   3.478  14.607  0.0892  0.4908  0.1463
 5961SOL    HW229520   4.136   3.421  14.480 -1.0478  0.5186 -2.6079
 5962SOL     OW29521   1.740   3.881   7.325  0.3009  0.0933  0.3134
 5962SOL    HW129522   1.763   3.946   7.391 -1.3662  0.3494  0.6362
 5962SOL    HW229523   1.761   3.799   7.369  1.6685 -0.0496 -0.5992
 5963SOL     OW29524   3.939   3.012   8.909  0.4234  0.6527  0.8483
 5963SOL    HW129525   3.869   3.054   8.860  0.6027  1.2514  1.1126
 5963SOL    HW229526   4.002   3.015   8.838 -0.6561 -0.9743 -0.1714
 5964SOL     OW29527   3.047   0.750  11.393  0.2128 -0.2349 -0.2381
 5964SOL    HW129528   3.020   0.686  11.328 -0.7208 -0.9987  0.9034
 5964SOL    HW229529   2.965   0.754  11.442 -0.0962  0.9293 -0.8447
 5965SOL     OW29530   2.098   2.726  14.504  0.1389  0.4884  0.7416
 5965SOL    HW129531   2.169   2.689  14.556  1.6994  1.1912 -0.9217
 5965SOL    HW229532   2.078   2.812  14.540  1.8065  1.4386 -0.6219
 5966SOL     OW29533   4.633   1.674   6.566  0.6701 -0.5684  0.0163
 5966SOL    HW129534   4.631   1.769   6.551 -1.8014 -0.3996  1.3798
 5966SOL    HW229535   4.699   1.658   6.633 -3.2163  1.3992  4.3240
 5967SOL     OW29536   0.096   4.302   8.679  0.4168 -0.3958 -0.3443
 5967SOL    HW129537   0.118   4.395   8.683  1.0447 -0.5965  0.7688
 5967SOL    HW229538   0.003   4.302   8.655 -0.2360 -1.6366  2.1506
 5968SOL     OW29539   2.910   3.788   1.815 -0.1736  0.0592  0.1715
 5968SOL    HW129540   2.902   3.805   1.721  1.5955 -2.0608 -0.3530
 5968SOL    HW229541   2.823   3.752   1.832 -0.3192 -0.2406 -1.1935
 5969SOL     OW29542   3.492   2.603  11.628  0.1613  0.2514  0.5743
 5969SOL    HW129543   3.442   2.671  11.583  1.0132  0.6583  0.2441
 5969SOL    HW229544   3.541   2.641  11.700  1.7054 -1.5836  0.5174
 5970SOL     OW29545   2.315   2.180   1.442  0.1245 -0.4504  0.3237
 5970SOL    HW129546   2.241   2.179   1.380 -0.4077 -2.1688  0.9933
 5970SOL    HW229547   2.359   2.262   1.421 -0.8944 -0.4832 -2.0108
 5971SOL     OW29548   1.111   4.399  16.475  0.3351 -0.4903  0.1627
 5971SOL    HW129549   1.089   4.354  16.556 -0.9705  1.1260  0.7255
 5971SOL    HW229550   1.159   4.327  16.436  0.0187 -0.6605  0.0853
 5972SOL     OW29551   3.126   1.271   6.133  0.0076  0.0939 -0.4434
 5972SOL    HW129552   3.158   1.260   6.222 -1.2042  0.1016 -0.0109
 5972SOL    HW229553   3.184   1.339   6.101  0.2810  0.3591  0.6430
 5973SOL     OW29554   0.074   2.892   8.436 -0.3855 -0.3230  0.5011
 5973SOL    HW129555   0.047   2.833   8.507 -1.9852 -1.7206 -1.2726
 5973SOL    HW229556   0.165   2.862   8.436  0.1202  1.2300  1.1275
 5974SOL     OW29557   2.611   4.666   0.598  0.1673  0.2922  0.1810
 5974SOL    HW129558   2.598   4.647   0.505  2.2658  2.9728 -0.6549
 5974SOL    HW229559   2.583   0.021   0.602 -0.3815  0.1627 -0.6391
 5975SOL     OW29560   1.014   0.638   1.928 -0.0803  0.1019  0.6619
 5975SOL    HW129561   0.974   0.554   1.903 -0.3798 -0.7196  3.8010
 5975SOL    HW229562   1.056   0.666   1.847  0.3846  1.2256  1.3054
 5976SOL     OW29563   1.470   2.209   0.167 -0.1554 -0.6914  0.0296
 5976SOL    HW129564   1.517   2.239   0.245  1.1927  1.1453 -1.4962
 5976SOL    HW229565   1.533   2.153   0.122 -1.2447 -2.4524  0.6859
 5977SOL     OW29566   2.481   3.486   8.644 -0.1631 -0.1219  0.3912
 5977SOL    HW129567   2.474   3.458   8.552 -0.4446 -1.7666  0.9105
 5977SOL    HW229568   2.391   3.518   8.649  0.2956  1.1740  0.4094
 5978SOL     OW29569   3.330   2.779   9.797 -0.6092  0.3699 -0.2123
 5978SOL    HW129570   3.307   2.796   9.706 -0.7134 -0.6875 -0.3771
 5978SOL    HW229571   3.275   2.838   9.849 -0.1500  0.5704  0.0472
 5979SOL     OW29572   3.012   4.615   1.455 -0.3836 -0.0325 -0.3706
 5979SOL    HW129573   3.043   4.615   1.365  0.8971  1.4474  0.0588
 5979SOL    HW229574   3.089   4.578   1.498 -1.4929 -2.0028 -0.0531
 5980SOL     OW29575   1.870   4.656  10.387 -0.0078  0.1572 -0.4242
 5980SOL    HW129576   1.876   4.586  10.452 -0.5335  0.8591  0.3739
 5980SOL    HW229577   1.917   4.730  10.425  0.5531  1.1616 -3.0579
 5981SOL     OW29578   3.708   1.764   8.284  0.0180  0.1073  0.4997
 5981SOL    HW129579   3.726   1.791   8.194  2.4718 -0.9223  0.6757
 5981SOL    HW229580   3.795   1.753   8.321  1.0409  0.3068 -1.8246
 5982SOL     OW29581   1.140   2.893   7.345 -0.3629  0.8303  0.8559
 5982SOL    HW129582   1.106   2.980   7.323 -2.2902  0.6317  3.0628
 5982SOL    HW229583   1.219   2.912   7.395  0.7862 -1.8512  0.0391
 5983SOL     OW29584   0.829   0.599  11.637  0.0674  0.5876  0.3824
 5983SOL    HW129585   0.767   0.665  11.605 -2.6077 -3.0367 -1.9005
 5983SOL    HW229586   0.913   0.639  11.657  0.1469  1.6156 -2.0748
 5984SOL     OW29587   2.594   2.120   6.230 -0.5762 -0.3620  0.1881
 5984SOL    HW129588   2.516   2.152   6.185 -1.1399  0.7053  1.9026
 5984SOL    HW229589   2.555   2.059   6.293  0.8089 -0.1561  1.2509
 5985SOL     OW29590   3.648   0.659   5.991  0.2408 -0.2609 -0.1493
 5985SOL    HW129591   3.613   0.725   6.051 -0.7829 -1.8883  1.0216
 5985SOL    HW229592   3.651   0.709   5.909  0.4120  1.2931  0.8078
 5986SOL     OW29593   0.282   0.306   3.410  0.5394 -0.2509 -0.2074
 5986SOL    HW129594   0.349   0.241   3.387  0.1578 -0.6629 -0.1428
 5986SOL    HW229595   0.240   0.309   3.324  0.7749  1.5821 -0.2569
 5987SOL     OW29596   0.333   1.147   2.712  0.0966  0.2936  1.3677
 5987SOL    HW129597   0.409   1.092   2.692 -1.0898 -0.7564 -0.2654
 5987SOL    HW229598   0.351   1.224   2.659  2.5294 -0.6540  0.7697
 5988SOL     OW29599   2.688   1.782  12.453 -0.0030  0.2851 -0.5474
 5988SOL    HW129600   2.694   1.709  12.514  0.8367  1.6237  0.9766
 5988SOL    HW229601   2.707   1.736  12.372 -1.3129 -1.7153  0.2793
 5989SOL     OW29602   3.219   1.821   3.173  0.0986 -0.1901 -0.1989
 5989SOL    HW129603   3.211   1.744   3.230  1.2036 -0.0472  0.1485
 5989SOL    HW229604   3.313   1.838   3.179 -0.2026  1.4401 -0.2854
 5990SOL     OW29605   4.143   3.693  17.412 -0.1751 -0.0611  0.1737
 5990SOL    HW129606   4.080   3.751  17.370 -1.0600  1.1331  3.1762
 5990SOL    HW229607   4.123   3.604  17.381  1.3216 -0.4185  0.2280
 5991SOL     OW29608   2.910   3.422   4.975  0.1994  0.1024  0.0918
 5991SOL    HW129609   2.944   3.497   5.024 -0.0404  0.7599 -0.7515
 5991SOL    HW229610   2.829   3.455   4.936  1.1200 -0.1857 -2.0711
 5992SOL     OW29611   0.175   0.740   8.890 -0.3014  0.5008 -0.6552
 5992SOL    HW129612   0.134   0.720   8.975  1.4610 -0.8826 -0.1229
 5992SOL    HW229613   0.260   0.772   8.921 -0.0833  0.6978 -1.4570
 5993SOL     OW29614   1.507   2.080   5.842 -0.3207  0.4237 -0.1175
 5993SOL    HW129615   1.552   2.159   5.872  2.4836 -1.7662  1.3608
 5993SOL    HW229616   1.554   2.011   5.888 -0.5407 -0.6607 -1.5221
 5994SOL     OW29617   0.658   0.836  15.278 -0.0112  0.4241  0.0317
 5994SOL    HW129618   0.624   0.750  15.304 -2.9474  1.5001 -0.2582
 5994SOL    HW229619   0.692   0.817  15.191 -2.1930 -1.0127 -0.5229
 5995SOL     OW29620   2.145   1.895   1.188 -0.0035  0.1254  0.0304
 5995SOL    HW129621   2.090   1.820   1.213 -1.2301  0.8689 -0.4676
 5995SOL    HW229622   2.145   1.872   1.095 -2.1780  4.4606 -0.9886
 5996SOL     OW29623   4.597   4.451   3.883  0.2545 -0.1006 -0.3267
 5996SOL    HW129624   4.627   4.515   3.948  0.9370 -0.0466 -0.7009
 5996SOL    HW229625   4.652   4.481   3.811  0.0613 -0.2015 -0.5158
 5997SOL     OW29626   4.352   4.717   0.279  0.0334 -0.1813  0.4888
 5997SOL    HW129627   4.380   4.629   0.253 -1.3956  0.0805 -1.9388
 5997SOL    HW229628   4.342   4.704   0.373 -1.7320 -0.6593  0.2190
 5998SOL     OW29629   2.519   1.082   4.392 -0.2293 -0.0093  0.3433
 5998SOL    HW129630   2.533   1.153   4.329  0.5216  0.3211  0.8880
 5998SOL    HW229631   2.578   1.017   4.352  0.0209  0.2754  0.2534
 5999SOL     OW29632   1.604   3.410   9.324  0.4606 -0.1129  0.1420
 5999SOL    HW129633   1.578   3.464   9.398  1.4952 -1.7092  1.6621
 5999SOL    HW229634   1.528   3.435   9.271  1.3508 -1.3067 -1.7160
 6000SOL     OW29635   1.822   1.040   3.718  0.3927 -0.0572  0.5133
 6000SOL    HW129636   1.857   0.952   3.703  1.7083  0.6624 -0.6916
 6000SOL    HW229637   1.729   1.022   3.703  1.0287 -1.3110 -1.9893
 6001SOL     OW29638   2.611   4.146   0.796 -0.5285 -0.4345  0.2008
 6001SOL    HW129639   2.624   4.129   0.702  0.9146  0.6492  0.1899
 6001SOL    HW229640   2.612   4.242   0.792  1.6987 -0.4427  0.0977
 6002SOL     OW29641   0.342   3.964   4.903 -0.0976 -0.1505 -0.0703
 6002SOL    HW129642   0.275   4.029   4.881  0.1836  0.1171 -0.1272
 6002SOL    HW229643   0.302   3.892   4.852 -3.6832  1.6241  0.2302
 6003SOL     OW29644   0.459   2.698  15.768  0.3787  0.3652 -0.6056
 6003SOL    HW129645   0.441   2.779  15.720 -1.1183  0.7247  0.5735
 6003SOL    HW229646   0.495   2.638  15.703  0.5394  1.0043 -1.1129
 6004SOL     OW29647   4.177   4.244   8.780  0.1048  0.7297 -0.4638
 6004SOL    HW129648   4.122   4.190   8.722 -1.0999  1.3292  0.1222
 6004SOL    HW229649   4.117   4.319   8.780  1.5094  1.8069  2.1746
 6005SOL     OW29650   3.776   3.931   5.517 -0.9238  0.2886  0.1393
 6005SOL    HW129651   3.734   3.960   5.597  0.3689  0.5518  0.7113
 6005SOL    HW229652   3.707   3.871   5.485 -0.3899 -1.1737  1.7200
 6006SOL     OW29653   3.542   2.768   5.237 -0.2306  0.1730  0.1200
 6006SOL    HW129654   3.489   2.848   5.246 -0.6965 -0.6895  5.0700
 6006SOL    HW229655   3.580   2.778   5.150  1.2275 -0.8380  0.6562
 6007SOL     OW29656   0.729   2.754  11.304  0.2261  0.0273 -0.5944
 6007SOL    HW129657   0.737   2.777  11.397  1.9974  0.3507 -0.8181
 6007SOL    HW229658   0.691   2.667  11.310 -1.0431  0.6286  0.0208
 6008SOL     OW29659   3.701   2.259   8.825  0.2991  0.0477 -0.1991
 6008SOL    HW129660   3.623   2.256   8.769 -1.2296  0.4582  1.8909
 6008SOL    HW229661   3.658   2.279   8.908  0.5831  2.3016 -0.6018
 6009SOL     OW29662   0.762   4.109   4.339 -0.1752 -0.1989 -0.7049
 6009SOL    HW129663   0.801   4.130   4.424  3.0187 -0.4853 -2.1015
 6009SOL    HW229664   0.835   4.074   4.289  0.3532 -0.7590  0.4541
 6010SOL     OW29665   0.185   3.836   2.847 -0.4978  0.3480 -0.4337
 6010SOL    HW129666   0.224   3.846   2.760 -1.9421 -0.5007 -1.1710
 6010SOL    HW229667   0.112   3.776   2.828  1.1777 -1.3544 -1.4467
 6011SOL     OW29668   0.358   1.696  12.778 -0.2686  1.2706  0.0721
 6011SOL    HW129669   0.371   1.652  12.862  1.3157  0.4631 -0.6010
 6011SOL    HW229670   0.430   1.757  12.796  0.0582  1.1497 -0.8044
 6012SOL     OW29671   0.097   3.983   2.067 -0.0921  0.3461  0.1086
 6012SOL    HW129672   0.173   3.930   2.092  0.7451  0.9150 -1.2119
 6012SOL    HW229673   0.140   4.018   1.989 -0.6605  1.7995  0.4481
 6013SOL     OW29674   2.622   3.169   3.104 -0.3430  0.2459 -0.2387
 6013SOL    HW129675   2.713   3.156   3.079 -0.6642 -2.4577 -0.0486
 6013SOL    HW229676   2.582   3.084   3.125  0.1353  0.6024  2.1154
 6014SOL     OW29677   3.318   4.608  17.354  0.3171 -0.4596 -0.4588
 6014SOL    HW129678   3.344   4.676  17.292 -0.1870  1.0441  0.9974
 6014SOL    HW229679   3.381   4.537  17.345 -2.4170 -2.7666 -1.5891
 6015SOL     OW29680   4.606   1.937   6.375  0.2207 -0.6646  0.8238
 6015SOL    HW129681   4.530   1.993   6.364  0.3986 -0.1123  2.4592
 6015SOL    HW229682   4.595   1.880   6.298  2.0915 -0.2263  0.2190
 6016SOL     OW29683   0.401   2.861   9.211 -0.0238  0.4425  0.4433
 6016SOL    HW129684   0.398   2.817   9.126  0.2929  1.6384 -0.1895
 6016SOL    HW229685   0.312   2.848   9.243  0.2985 -1.9921  0.3918
 6017SOL     OW29686   3.481   1.154   8.198 -0.0875 -0.1906 -0.0537
 6017SOL    HW129687   3.506   1.142   8.289  1.8782  0.6472 -0.4797
 6017SOL    HW229688   3.441   1.240   8.186 -1.1758 -0.5924  0.7980
 6018SOL     OW29689   1.794   4.138   5.066 -0.0976  0.1043  0.2807
 6018SOL    HW129690   1.889   4.142   5.057 -0.0568  1.3100  1.1847
 6018SOL    HW229691   1.758   4.121   4.979 -1.2150 -0.4017  0.8416
 6019SOL     OW29692   2.090   4.059   6.570  0.3230 -0.4311  0.2272
 6019SOL    HW129693   2.085   4.116   6.646 -0.2910  0.6266 -0.5983
 6019SOL    HW229694   2.014   4.090   6.520  1.0080 -0.0572 -0.5714
 6020SOL     OW29695   3.891   0.765   5.408  0.2871  0.8175 -0.2074
 6020SOL    HW129696   3.872   0.718   5.489 -1.7905 -0.0501 -1.2165
 6020SOL    HW229697   3.811   0.815   5.390 -0.3534 -0.1629 -0.0573
 6021SOL     OW29698   0.875   0.261  10.086 -0.2619 -0.2016 -0.1513
 6021SOL    HW129699   0.948   0.219  10.132 -0.0565  2.0034  1.5170
 6021SOL    HW229700   0.885   0.349  10.123  0.4256 -0.4617  0.2930
 6022SOL     OW29701   0.269   1.876   7.010  0.1644  0.1164  0.1454
 6022SOL    HW129702   0.215   1.804   7.044 -0.5138  1.1151  1.2020
 6022SOL    HW229703   0.360   1.856   7.029 -0.4248 -1.6186  1.1243
 6023SOL     OW29704   4.301   4.178   5.061  0.0602  0.2662 -0.5461
 6023SOL    HW129705   4.356   4.163   5.138 -2.2756  0.8112  1.2447
 6023SOL    HW229706   4.298   4.274   5.060 -1.1745  0.2274 -1.2178
 6024SOL     OW29707   3.130   1.739   9.737  0.4985 -0.5388  0.0986
 6024SOL    HW129708   3.171   1.662   9.775 -0.3446 -0.5271  1.0166
 6024SOL    HW229709   3.206   1.755   9.680 -0.5616  1.7498 -0.7007
 6025SOL     OW29710   0.899   4.645   0.975  0.5384 -0.2264  0.0156
 6025SOL    HW129711   0.845   4.681   0.904  0.9054 -1.5715 -0.9345
 6025SOL    HW229712   0.856   4.563   1.000 -1.2569  0.5799 -0.4156
 6026SOL     OW29713   2.916   1.833   8.064  0.4837 -0.1267  0.0972
 6026SOL    HW129714   2.852   1.822   8.134  0.2819  0.8268  0.0656
 6026SOL    HW229715   2.863   1.802   7.991  1.1715 -0.4511 -0.2643
 6027SOL     OW29716   2.466   0.054   7.609  0.0617 -0.9767 -0.9839
 6027SOL    HW129717   2.540   0.116   7.605 -1.7530  1.2851  0.4125
 6027SOL    HW229718   2.507   4.704   7.604 -1.8105 -1.9042 -0.0068
 6028SOL     OW29719   1.745   2.092   1.438  0.5162  0.0171 -0.2828
 6028SOL    HW129720   1.677   2.026   1.424 -0.5374  1.3712 -1.5086
 6028SOL    HW229721   1.732   2.157   1.369  0.9693 -0.2605 -0.6284
 6029SOL     OW29722   2.809   2.862  10.231 -0.3653  0.2315 -0.2794
 6029SOL    HW129723   2.901   2.837  10.238  0.5863  4.1134  0.8906
 6029SOL    HW229724   2.813   2.926  10.160  0.0240  0.4502 -0.0658
 6030SOL     OW29725   0.556   3.162   2.875  0.4070 -0.5325  0.9490
 6030SOL    HW129726   0.649   3.169   2.900  0.3616 -1.4152  1.3771
 6030SOL    HW229727   0.559   3.071   2.844 -1.5664  0.1083 -1.1015
 6031SOL     OW29728   4.173   0.662   4.333  0.0901 -0.2698  0.0332
 6031SOL    HW129729   4.078   0.666   4.322  0.3841  1.1874 -2.1435
 6031SOL    HW229730   4.185   0.581   4.383 -0.8898 -1.0063 -0.9239
 6032SOL     OW29731   2.600   4.023   6.961  0.3118  0.3269  0.2271
 6032SOL    HW129732   2.681   4.022   6.910  1.4859  0.7742  2.0902
 6032SOL    HW229733   2.600   3.938   7.004  0.6631 -0.1594 -0.7280
 6033SOL     OW29734   3.906   4.446   7.646 -0.0298  0.2338  0.3992
 6033SOL    HW129735   3.979   4.491   7.688  0.7731 -0.8447  0.1589
 6033SOL    HW229736   3.951   4.391   7.581  0.7210 -0.6556  1.6762
 6034SOL     OW29737   4.464   2.834   8.560 -0.6014  0.5274 -0.5112
 6034SOL    HW129738   4.446   2.765   8.624 -0.0143 -0.2555 -1.1886
 6034SOL    HW229739   4.518   2.784   8.499  0.7916  2.1806 -0.6103
 6035SOL     OW29740   0.248   0.780   5.312 -0.1745 -0.2285 -0.0701
 6035SOL    HW129741   0.171   0.818   5.355  0.3738  0.0155  0.7065
 6035SOL    HW229742   0.259   0.697   5.359  0.4064 -0.4818 -0.6435
 6036SOL     OW29743   1.802   3.717   1.870 -0.0471  0.0385 -0.0840
 6036SOL    HW129744   1.803   3.751   1.780  0.0243 -1.8329 -0.7886
 6036SOL    HW229745   1.881   3.760   1.902 -1.5013  1.4934  1.5207
 6037SOL     OW29746   0.215   3.508   4.656  0.5129  0.2223  0.4845
 6037SOL    HW129747   0.200   3.574   4.588 -0.0325 -0.4793 -0.0623
 6037SOL    HW229748   0.128   3.479   4.681 -1.0596  3.6931 -0.9053
 6038SOL     OW29749   0.130   1.337   3.609 -0.2974  0.3939  0.1362
 6038SOL    HW129750   0.048   1.341   3.657 -0.7875 -0.7286 -0.6072
 6038SOL    HW229751   0.090   1.362   3.525  0.3218 -0.1563 -0.3211
 6039SOL     OW29752   3.813   3.263   4.990  0.3682 -0.3238  0.2706
 6039SOL    HW129753   3.851   3.296   4.909  1.6190  0.9875  1.4072
 6039SOL    HW229754   3.786   3.177   4.957 -0.0277 -0.9920  2.3401
 6040SOL     OW29755   0.127   2.536   5.175 -0.3003 -0.1722  0.1094
 6040SOL    HW129756   0.046   2.583   5.194 -0.6444 -0.1837 -1.3093
 6040SOL    HW229757   0.132   2.465   5.239  1.9033 -1.8580 -1.9315
 6041SOL     OW29758   1.472   3.864   5.965  0.4863 -0.0654  0.2856
 6041SOL    HW129759   1.446   3.855   6.057  0.8043 -2.5145  0.1272
 6041SOL    HW229760   1.464   3.959   5.963 -0.1087 -0.1363 -0.5202
 6042SOL     OW29761   4.209   2.428   1.986 -0.0728 -0.4169 -0.0032
 6042SOL    HW129762   4.177   2.392   2.069 -1.8741  2.1460  0.3899
 6042SOL    HW229763   4.169   2.362   1.929 -0.7901 -1.7570  2.0616
 6043SOL     OW29764   1.664   2.920   4.026 -0.3499 -0.3500 -0.4431
 6043SOL    HW129765   1.594   2.866   4.064 -0.6820  0.8353  0.6463
 6043SOL    HW229766   1.731   2.852   4.037 -0.7849 -0.5807  0.8473
 6044SOL     OW29767   4.243   2.036   5.863 -0.0730 -0.1079  0.6519
 6044SOL    HW129768   4.327   2.016   5.822 -1.0489 -2.5368 -0.1609
 6044SOL    HW229769   4.260   2.049   5.956  0.1806 -1.3905  0.7905
 6045SOL     OW29770   0.366   1.136  10.029  0.0667  0.1519 -0.2401
 6045SOL    HW129771   0.288   1.189  10.011 -0.2111 -0.1391  0.0869
 6045SOL    HW229772   0.380   1.091   9.946 -1.0823 -1.8292  0.6441
 6046SOL     OW29773   0.990   3.481   2.104 -0.4883  0.3845 -0.2760
 6046SOL    HW129774   1.052   3.456   2.173 -0.2257  1.3561 -0.1547
 6046SOL    HW229775   1.033   3.557   2.063 -0.9977 -0.6618 -2.7492
 6047SOL     OW29776   2.467   0.921   7.764 -0.0073 -0.1503 -0.3886
 6047SOL    HW129777   2.377   0.952   7.755  0.0529 -0.3226 -1.5595
 6047SOL    HW229778   2.506   0.934   7.677 -1.9895  1.3235 -1.0737
 6048SOL     OW29779   2.208   0.099   4.954 -0.2241 -0.5792  0.0630
 6048SOL    HW129780   2.234   0.170   5.012  0.6016  0.2187 -1.2655
 6048SOL    HW229781   2.126   0.057   4.980 -0.1289 -0.3194  0.7785
 6049SOL     OW29782   1.452   2.639   9.534 -0.3014  0.7887  0.1096
 6049SOL    HW129783   1.477   2.638   9.626 -1.6790 -0.9380  0.4800
 6049SOL    HW229784   1.473   2.724   9.494  0.6881  0.5912  0.2200
 6050SOL     OW29785   1.765   0.011   8.475 -0.4087  0.1007 -0.1557
 6050SOL    HW129786   1.733   0.070   8.543  1.3306  0.9605 -0.0863
 6050SOL    HW229787   1.688   0.009   8.418  0.3660 -0.5473 -1.1725
 6051SOL     OW29788   0.437   3.707  12.426  0.3062 -0.3658 -0.3260
 6051SOL    HW129789   0.344   3.731  12.426  0.8075  1.5836 -0.2713
 6051SOL    HW229790   0.459   3.720  12.518  0.3255  0.5984 -0.4684
 6052SOL     OW29791   2.178   4.344  14.156  0.2140  0.5372  0.2342
 6052SOL    HW129792   2.124   4.266  14.147  0.6134  0.1045  1.5867
 6052SOL    HW229793   2.197   4.352  14.249 -3.1038 -0.4784  0.9912
 6053SOL     OW29794   0.890   4.621  13.750  0.5223  0.3302  0.2489
 6053SOL    HW129795   0.803   4.582  13.739  0.5903  0.0026  0.9079
 6053SOL    HW229796   0.867   4.713  13.748 -1.0160 -0.0124  2.1462
 6054SOL     OW29797   0.067   3.508  10.935 -0.2406 -0.0531 -0.1551
 6054SOL    HW129798   0.070   3.448  11.010  1.0469  0.0851 -0.1044
 6054SOL    HW229799   0.130   3.578  10.952  0.8402 -1.4947  1.8763
 6055SOL     OW29800   0.534   3.589  10.362  0.3368 -0.0435  0.3474
 6055SOL    HW129801   0.494   3.654  10.306 -0.9251 -0.5918  0.6202
 6055SOL    HW229802   0.606   3.636  10.405  2.3158 -0.8791 -2.0159
 6056SOL     OW29803   2.058   4.073   1.726 -0.0116 -0.1554  0.3533
 6056SOL    HW129804   2.120   4.102   1.793  0.0948  0.0648  0.1600
 6056SOL    HW229805   1.992   4.136   1.753  0.4474  0.7893 -0.7451
 6057SOL     OW29806   4.269   0.488  14.187  0.0106  0.2859 -0.2391
 6057SOL    HW129807   4.212   0.550  14.232 -0.6021 -1.4727  1.3520
 6057SOL    HW229808   4.347   0.504  14.240  0.7651  1.0396 -1.5514
 6058SOL     OW29809   3.489   4.150  11.522 -0.0735 -0.2921 -0.0294
 6058SOL    HW129810   3.461   4.207  11.451  0.6780 -0.9532 -0.8561
 6058SOL    HW229811   3.437   4.176  11.598  2.1385 -0.4456  1.5493
 6059SOL     OW29812   2.487   0.063   2.319 -0.1568  0.4025 -0.0859
 6059SOL    HW129813   2.578   0.086   2.338  0.9681 -2.0053 -2.4593
 6059SOL    HW229814   2.469   0.121   2.245  0.5806 -1.8390 -2.0263
 6060SOL     OW29815   0.249   1.090  13.380  0.5120 -0.0859 -0.2113
 6060SOL    HW129816   0.155   1.105  13.388  0.5608  0.7570 -1.3777
 6060SOL    HW229817   0.262   1.001  13.415 -0.6888 -0.3787 -0.5264
 6061SOL     OW29818   2.925   3.779   9.541 -0.4304 -0.5832  0.4968
 6061SOL    HW129819   2.884   3.852   9.588 -1.8154 -0.6410 -0.6379
 6061SOL    HW229820   2.936   3.717   9.613  2.1596 -0.3258  0.3133
 6062SOL     OW29821   1.891   0.192  15.907  0.4859  0.3058  0.0011
 6062SOL    HW129822   1.857   0.278  15.882 -1.7808 -0.6107 -0.1286
 6062SOL    HW229823   1.815   0.141  15.878  1.2660 -0.7786 -0.1011
 6063SOL     OW29824   4.035   0.288   0.201  0.7179 -0.5578 -0.1478
 6063SOL    HW129825   4.009   0.306   0.111  1.3162 -1.2975 -0.4614
 6063SOL    HW229826   4.016   0.195   0.211  0.2564 -0.3089  1.3352
 6064SOL     OW29827   1.775   3.306   5.311  0.1662  0.2803 -0.1999
 6064SOL    HW129828   1.707   3.353   5.360 -0.1618  1.3384 -1.6719
 6064SOL    HW229829   1.798   3.237   5.373 -2.4117 -0.2826  0.1478
 6065SOL     OW29830   4.074   4.593   7.860  0.3402 -0.1364 -0.3812
 6065SOL    HW129831   4.110   4.652   7.794 -0.4362  0.0734 -0.6219
 6065SOL    HW229832   4.064   4.660   7.928  0.6131 -0.0116 -0.4647
 6066SOL     OW29833   1.243   0.976   2.517  0.3154  0.8676 -0.9918
 6066SOL    HW129834   1.332   0.943   2.517 -0.0713 -0.1383  1.3211
 6066SOL    HW229835   1.187   0.899   2.514  0.9811  0.3702 -0.5013
 6067SOL     OW29836   3.534   1.776   8.599 -0.3938  0.1827 -0.0162
 6067SOL    HW129837   3.619   1.733   8.603 -1.5288 -2.1719 -1.5560
 6067SOL    HW229838   3.538   1.826   8.517  1.3769 -0.4130 -0.2836
 6068SOL     OW29839   4.480   2.291  11.374 -0.3999 -0.6359 -0.5266
 6068SOL    HW129840   4.467   2.381  11.344  1.2774  0.0023  0.6780
 6068SOL    HW229841   4.428   2.287  11.454  1.6120 -0.7583  0.7771
 6069SOL     OW29842   3.340   3.993   5.563 -0.3101  0.5306  0.6018
 6069SOL    HW129843   3.250   4.003   5.533 -0.1583 -3.2577 -1.1582
 6069SOL    HW229844   3.391   4.031   5.491 -0.3442 -0.7631 -0.1058
 6070SOL     OW29845   2.350   1.245   1.873 -1.0219  0.2913 -0.1147
 6070SOL    HW129846   2.428   1.209   1.915 -1.5529  0.2854  0.8583
 6070SOL    HW229847   2.352   1.338   1.898  1.6534  0.8480 -2.3103
 6071SOL     OW29848   0.807   1.384   3.345 -0.6363 -0.1000 -0.0392
 6071SOL    HW129849   0.877   1.398   3.409  0.6947 -0.1291 -1.4786
 6071SOL    HW229850   0.754   1.462   3.362  1.1388  1.0719  0.1675
 6072SOL     OW29851   3.753   0.593  16.162  0.2780 -0.6962  0.3507
 6072SOL    HW129852   3.736   0.627  16.250 -2.4826 -0.7404 -0.1738
 6072SOL    HW229853   3.740   0.670  16.107  0.2187  0.1517  1.5395
 6073SOL     OW29854   1.952   2.445  15.516 -0.8707 -0.1769 -0.6164
 6073SOL    HW129855   1.979   2.517  15.573 -1.3269  0.5599 -1.3255
 6073SOL    HW229856   2.033   2.432  15.466 -0.1567  1.1709  0.1891
 6074SOL     OW29857   1.482   1.197   2.358  1.0506  0.2791  0.1065
 6074SOL    HW129858   1.518   1.286   2.366  1.5226  0.4655 -4.2742
 6074SOL    HW229859   1.560   1.146   2.340  0.9770 -0.1581  1.0278
 6075SOL     OW29860   4.095   3.873   4.175 -0.7067 -0.0891  0.2655
 6075SOL    HW129861   4.025   3.862   4.240  0.1378 -1.4986  0.9421
 6075SOL    HW229862   4.163   3.898   4.237 -0.1751  0.6105 -0.6124
 6076SOL     OW29863   0.227   2.421  13.736  0.9280  0.1860  0.3349
 6076SOL    HW129864   0.163   2.471  13.686 -0.9862 -1.4303  1.1462
 6076SOL    HW229865   0.289   2.414  13.663 -2.2632  1.1366 -2.4772
 6077SOL     OW29866   1.124   0.848   9.190  0.3862 -0.1912 -0.0860
 6077SOL    HW129867   1.186   0.919   9.174  2.6833 -2.6247 -1.8565
 6077SOL    HW229868   1.038   0.891   9.190  0.4962  0.0587  1.5736
 6078SOL     OW29869   0.283   0.075   6.459 -0.6384 -0.5867 -0.5342
 6078SOL    HW129870   0.311   0.165   6.443  0.0605 -0.3796  1.8236
 6078SOL    HW229871   0.200   0.081   6.506  0.6375  1.8807  1.3617
 6079SOL     OW29872   4.399   1.951   8.279 -0.1151 -0.2068  0.4529
 6079SOL    HW129873   4.421   2.036   8.316  0.4420  0.3614 -1.1577
 6079SOL    HW229874   4.430   1.963   8.189 -2.3735  0.6665 -0.2035
 6080SOL     OW29875   3.226   2.221  15.955  0.7187  0.2364 -0.4429
 6080SOL    HW129876   3.311   2.263  15.946  0.1170  1.7425  0.7867
 6080SOL    HW229877   3.256   2.138  15.918 -0.7004  0.0682 -1.2322
 6081SOL     OW29878   2.655   2.824   7.547  0.1799  0.1331 -0.7750
 6081SOL    HW129879   2.672   2.900   7.492 -0.4814  1.0899  0.3575
 6081SOL    HW229880   2.692   2.855   7.630  1.2538  0.6865 -1.4707
 6082SOL     OW29881   0.968   1.946   7.315  0.6492 -0.3900  0.7980
 6082SOL    HW129882   1.051   1.984   7.287 -1.4400  1.5124 -2.7189
 6082SOL    HW229883   1.006   1.876   7.369  0.9916  0.4516  1.6426
 6083SOL     OW29884   4.476   2.229   8.270 -0.1656 -0.1133  0.1696
 6083SOL    HW129885   4.557   2.259   8.312 -0.5591 -0.6104  1.2872
 6083SOL    HW229886   4.458   2.291   8.199  0.3840 -1.4983 -1.1744
 6084SOL     OW29887   0.035   1.645   4.218 -0.6603 -0.1732 -0.6297
 6084SOL    HW129888   4.681   1.676   4.227 -0.1657  1.4221 -1.1788
 6084SOL    HW229889   0.056   1.594   4.296  0.0353 -0.2301 -0.8511
 6085SOL     OW29890   1.287   3.071   5.895 -0.3305 -0.0676  0.3292
 6085SOL    HW129891   1.347   3.145   5.894 -1.4353  0.8424  0.1557
 6085SOL    HW229892   1.240   3.092   5.976 -1.3400  1.0002 -0.5372
 6086SOL     OW29893   2.052   0.958  13.871 -0.3206  0.1094 -0.4646
 6086SOL    HW129894   2.009   0.890  13.818 -0.1256 -0.1571 -0.2802
 6086SOL    HW229895   2.141   0.923  13.882 -0.2730  0.2789 -0.3134
 6087SOL     OW29896   1.425   0.239   7.148  0.1009  0.4379 -0.2863
 6087SOL    HW129897   1.433   0.286   7.065  1.2564  0.2311 -0.2852
 6087SOL    HW229898   1.503   0.272   7.193  0.2859 -0.4514  0.0500
 6088SOL     OW29899   3.733   1.354   2.881 -0.0027 -0.1496  0.0038
 6088SOL    HW129900   3.644   1.321   2.893  0.1876 -0.2123  1.2640
 6088SOL    HW229901   3.748   1.385   2.971 -0.3985 -1.1710  0.4147
 6089SOL     OW29902   2.318   4.644   3.394  0.0740  0.4113 -0.3185
 6089SOL    HW129903   2.310   4.616   3.303  0.1053  3.2283 -1.1793
 6089SOL    HW229904   2.243   4.702   3.404  1.2803  2.0715 -0.9215
 6090SOL     OW29905   3.563   0.917   5.029 -0.0676 -0.2706 -0.6160
 6090SOL    HW129906   3.607   0.912   4.945 -0.5310  0.6327 -0.9069
 6090SOL    HW229907   3.532   1.007   5.017  2.8293  0.6740 -1.0022
 6091SOL     OW29908   2.468   0.484   8.686 -0.2302 -0.3975 -0.1089
 6091SOL    HW129909   2.440   0.498   8.596 -0.5824  1.2116  0.2488
 6091SOL    HW229910   2.386   0.478   8.735  0.3933 -1.2806  0.8258
 6092SOL     OW29911   1.954   1.215   9.428  0.0928 -0.1181  0.2530
 6092SOL    HW129912   2.024   1.281   9.427  0.2418 -0.2827 -0.7761
 6092SOL    HW229913   2.008   1.140   9.455 -0.1617 -0.0762  0.8554
 6093SOL     OW29914   3.209   3.035   4.360  0.4128  0.4946 -0.1412
 6093SOL    HW129915   3.276   3.086   4.407  1.3120 -1.1194  0.3600
 6093SOL    HW229916   3.136   3.096   4.366 -0.6091 -0.7255 -0.2640
 6094SOL     OW29917   0.751   3.454   1.401 -0.3800  0.1975 -0.1455
 6094SOL    HW129918   0.662   3.448   1.368 -0.2144 -1.9477 -0.2323
 6094SOL    HW229919   0.778   3.362   1.394  0.1676  0.3764 -0.3632
 6095SOL     OW29920   0.802   2.662   8.652  0.2804 -0.7037  0.6236
 6095SOL    HW129921   0.757   2.724   8.595  3.2146 -0.0652 -0.9970
 6095SOL    HW229922   0.825   2.718   8.726  0.4707  0.2298 -0.1400
 6096SOL     OW29923   3.980   0.250   3.072 -0.1717 -0.6125  0.1471
 6096SOL    HW129924   4.020   0.276   3.155 -3.0474  0.2806  1.2385
 6096SOL    HW229925   3.962   0.157   3.078  0.3745 -0.7004  0.4038
 6097SOL     OW29926   1.855   0.087   2.936 -0.1064  0.3879  0.7749
 6097SOL    HW129927   1.902   0.079   2.853  0.7211  0.6310  1.2198
 6097SOL    HW229928   1.788   0.022   2.913  2.2296 -1.4750 -0.7932
 6098SOL     OW29929   3.185   1.255   1.957 -0.1921  0.1849  0.3329
 6098SOL    HW129930   3.250   1.269   1.889 -1.2896  0.5934 -0.6340
 6098SOL    HW229931   3.137   1.338   1.957  0.7718  0.7662  3.3271
 6099SOL     OW29932   3.880   1.000  12.298  0.0414  0.1997 -0.1216
 6099SOL    HW129933   3.965   1.001  12.254  0.1730 -3.1191  0.0629
 6099SOL    HW229934   3.839   0.923  12.259  0.6611 -0.2193  0.0422
 6100SOL     OW29935   1.245   2.242   0.054  0.0233  0.0564  0.0434
 6100SOL    HW129936   1.327   2.243   0.104 -0.7343  2.9210  1.2246
 6100SOL    HW229937   1.197   2.314   0.095  0.1506  0.7385 -0.9918
 6101SOL     OW29938   2.001   4.639   8.578 -0.2313  0.3539  0.1478
 6101SOL    HW129939   1.936   4.684   8.525 -0.5386 -0.2161  0.0467
 6101SOL    HW229940   1.938   4.611   8.645  2.5614 -0.9375  2.2668
 6102SOL     OW29941   1.079   1.749   2.483  0.1836  0.2002 -0.7891
 6102SOL    HW129942   0.996   1.723   2.523  1.8155 -0.3783  2.2259
 6102SOL    HW229943   1.129   1.673   2.515  0.4212  0.7079  0.0577
 6103SOL     OW29944   4.572   4.711   8.560  0.2902 -0.2297  0.1936
 6103SOL    HW129945   4.541   4.630   8.521  0.3408 -1.6876  3.1397
 6103SOL    HW229946   4.514   0.036   8.514 -1.0542 -0.6686  1.2866
 6104SOL     OW29947   0.177   3.076   6.770  0.1270  0.0060  0.2884
 6104SOL    HW129948   0.169   3.172   6.762 -0.8281 -0.0233  0.9006
 6104SOL    HW229949   0.201   3.056   6.679 -2.4599 -1.1503 -0.1540
 6105SOL     OW29950   1.795   1.001   4.440 -0.4991  0.3957  0.6047
 6105SOL    HW129951   1.800   1.057   4.363 -0.1417  0.5321  0.7233
 6105SOL    HW229952   1.861   0.932   4.424  0.2641  0.9366  1.4035
 6106SOL     OW29953   2.562   3.233   9.299  0.1883 -0.2398 -0.4263
 6106SOL    HW129954   2.656   3.246   9.289  0.3756  1.3261  3.1895
 6106SOL    HW229955   2.561   3.138   9.306 -2.5699 -0.0425  1.6930
 6107SOL     OW29956   1.018   0.194   0.792  0.3580 -0.7950 -0.0620
 6107SOL    HW129957   1.065   0.168   0.712 -1.4895  0.1910 -1.4573
 6107SOL    HW229958   0.973   0.272   0.760  0.5202  0.1194  1.9834
 6108SOL     OW29959   0.099   2.169   3.990 -0.5579 -0.0782 -0.1841
 6108SOL    HW129960   0.064   2.148   3.904  0.7006  0.7245 -0.8961
 6108SOL    HW229961   0.125   2.080   4.016  0.2858  0.3080  0.3062
 6109SOL     OW29962   3.424   1.000   7.159  0.1047  0.2578  0.3926
 6109SOL    HW129963   3.501   0.955   7.125 -0.1203 -0.4044  0.7606
 6109SOL    HW229964   3.460   1.087   7.179  1.1379 -0.0946  0.0991
 6110SOL     OW29965   4.334   3.160   1.426 -0.3824 -0.0950  0.4681
 6110SOL    HW129966   4.394   3.182   1.355 -0.5741 -1.9723 -0.2644
 6110SOL    HW229967   4.400   3.123   1.485 -0.7073 -2.4545 -0.6614
 6111SOL     OW29968   0.048   0.257   2.587  0.1376  0.5652  0.5485
 6111SOL    HW129969   0.044   0.272   2.492  1.7727  1.1892  0.5890
 6111SOL    HW229970   0.119   0.192   2.592 -1.2475 -1.1049 -1.1400
 6112SOL     OW29971   1.086   3.977  15.923  0.3862  0.0393  0.2747
 6112SOL    HW129972   1.152   3.998  15.858 -0.2274  1.8077  0.2137
 6112SOL    HW229973   1.114   3.891  15.953 -1.3379 -0.5376  0.2551
 6113SOL     OW29974   2.404   1.216   5.531  0.9645  0.0846 -0.0770
 6113SOL    HW129975   2.382   1.191   5.620 -0.3136  0.3485 -0.3131
 6113SOL    HW229976   2.391   1.133   5.485 -0.9931 -0.1644  0.9504
 6114SOL     OW29977   4.609   2.509  15.100 -0.2581  0.0716  0.3195
 6114SOL    HW129978   4.633   2.419  15.077  0.3987  0.5985 -1.0693
 6114SOL    HW229979   4.592   2.551  15.015 -1.3239  0.5489  0.7675
 6115SOL     OW29980   4.620   1.967   2.683 -0.3927  0.6486  0.3366
 6115SOL    HW129981   4.713   1.986   2.694 -0.2057  0.2222 -0.5022
 6115SOL    HW229982   4.594   2.059   2.677  1.4790  1.2405  1.6690
 6116SOL     OW29983   1.166   1.609   6.525 -0.7311 -0.2769  0.0057
 6116SOL    HW129984   1.132   1.696   6.505  0.8257 -0.1486 -2.0500
 6116SOL    HW229985   1.088   1.554   6.536 -2.3563  2.0677  0.2715
 6117SOL     OW29986   0.181   0.546  17.484  0.2533  0.5554 -0.4407
 6117SOL    HW129987   0.257   0.510  17.438 -0.1076 -1.2310  0.3687
 6117SOL    HW229988   0.113   0.547  17.415  0.4542  1.3024 -0.6248
 6118SOL     OW29989   4.118   3.890  12.900  0.4772  0.2371 -0.3473
 6118SOL    HW129990   4.197   3.837  12.914  0.5994  0.1021 -1.6067
 6118SOL    HW229991   4.160   3.971  12.931 -1.2457  0.4582  1.4406
 6119SOL     OW29992   2.549   3.047   1.324  0.0920 -0.6087 -0.1137
 6119SOL    HW129993   2.559   3.132   1.281  0.1971 -0.3928  0.3443
 6119SOL    HW229994   2.597   3.040   1.407  2.7565 -0.4302 -1.6200
 6120SOL     OW29995   4.548   3.523   5.243 -0.6310  0.2002 -0.0975
 6120SOL    HW129996   4.593   3.588   5.297  0.4010 -0.3855 -0.2600
 6120SOL    HW229997   4.463   3.530   5.286 -1.0003 -0.1758 -0.7669
 6121SOL     OW29998   4.078   3.651  10.377  0.7069 -0.0232  0.1886
 6121SOL    HW129999   4.073   3.727  10.435  2.0522 -0.3621  0.7582
 6121SOL    HW230000   4.119   3.597  10.445 -1.5779 -1.8315  0.1331
 6122SOL     OW30001   2.973   4.113   0.010 -0.6973  0.6349 -0.2137
 6122SOL    HW130002   2.923   4.112   0.091 -2.1792  3.9518 -1.0902
 6122SOL    HW230003   3.051   4.164   0.033  0.5253 -1.6008  0.6335
 6123SOL     OW30004   0.491   1.719   9.684 -0.0918  0.1032  0.2535
 6123SOL    HW130005   0.521   1.772   9.758 -0.0342  1.0430 -0.4500
 6123SOL    HW230006   0.455   1.655   9.745 -0.3646  0.1317  0.1222
 6124SOL     OW30007   0.249   3.078   0.621 -0.6346 -0.3684  0.1009
 6124SOL    HW130008   0.246   3.099   0.528  2.7576  0.6264  0.2171
 6124SOL    HW230009   0.160   3.049   0.642 -0.1152 -0.7370  1.7716
 6125SOL     OW30010   3.819   4.392  15.539  0.4078  0.0623  0.7528
 6125SOL    HW130011   3.738   4.383  15.488 -0.1175 -0.5581  1.7009
 6125SOL    HW230012   3.799   4.475  15.583  0.2305 -0.3666  1.4777
 6126SOL     OW30013   0.443   4.002  15.394  0.3303 -0.6348  0.1754
 6126SOL    HW130014   0.429   4.097  15.396 -0.9137 -0.8000 -0.5903
 6126SOL    HW230015   0.382   3.959  15.454 -0.2546  3.9105  2.8156
 6127SOL     OW30016   2.768   2.588   1.469  0.0255 -0.0423  0.1507
 6127SOL    HW130017   2.717   2.669   1.463  1.2115  0.7471  0.7202
 6127SOL    HW230018   2.714   2.541   1.406  1.8167 -2.2551  0.2523
 6128SOL     OW30019   0.128   2.074   2.779  0.8737 -0.2739  0.2789
 6128SOL    HW130020   0.160   1.989   2.810 -0.3860 -1.0127 -0.4309
 6128SOL    HW230021   0.144   2.141   2.844 -0.4385 -1.1921  1.5471
 6129SOL     OW30022   0.152   3.146   3.617  0.0845 -0.2211 -0.9409
 6129SOL    HW130023   0.229   3.163   3.563 -0.0952 -1.2541 -1.5278
 6129SOL    HW230024   0.179   3.068   3.665 -0.1257 -1.0271 -2.1197
 6130SOL     OW30025   3.832   4.606  17.297 -0.5721  0.0288 -0.1369
 6130SOL    HW130026   3.864   4.690  17.263 -1.1373  0.6606  0.8596
 6130SOL    HW230027   3.808   4.621  17.388  0.8915  0.4842  0.1760
 6131SOL     OW30028   3.768   0.893   3.858 -0.0501 -0.1338 -0.0215
 6131SOL    HW130029   3.759   0.914   3.765 -0.3972  1.0350  0.2736
 6131SOL    HW230030   3.862   0.898   3.874 -0.4252  0.0594  2.0272
 6132SOL     OW30031   0.186   2.585   4.300 -0.2884 -0.1456 -0.1815
 6132SOL    HW130032   0.168   2.620   4.213 -1.2971  1.6582  0.7522
 6132SOL    HW230033   0.128   2.509   4.303  1.4136 -1.4261  0.7534
 6133SOL     OW30034   2.637   2.087   8.630  0.3676 -0.3279 -0.2392
 6133SOL    HW130035   2.582   2.014   8.657  0.3267  0.2965  1.3745
 6133SOL    HW230036   2.717   2.056   8.674 -0.2441  1.5428  2.1914
 6134SOL     OW30037   2.418   1.195   1.339 -0.0985  0.0988  0.2572
 6134SOL    HW130038   2.414   1.234   1.426  0.2439  0.2012  0.2269
 6134SOL    HW230039   2.382   1.108   1.353 -0.6356  0.6067  2.0175
 6135SOL     OW30040   4.443   0.156   8.399 -0.4110  0.1016 -0.3459
 6135SOL    HW130041   4.459   0.225   8.464 -1.9439 -1.9315  2.2121
 6135SOL    HW230042   4.427   0.207   8.320  2.2080 -2.2633 -2.3707
 6136SOL     OW30043   0.868   2.392   9.261  0.1512 -0.2643 -0.0875
 6136SOL    HW130044   0.858   2.301   9.287 -1.1065 -0.0195  0.2905
 6136SOL    HW230045   0.963   2.401   9.258  0.2293 -1.2795 -0.5942
 6137SOL     OW30046   4.077   2.333   2.206 -0.4994 -0.0038 -0.2011
 6137SOL    HW130047   4.035   2.371   2.283  0.1591 -0.8698  0.5932
 6137SOL    HW230048   4.011   2.270   2.176 -1.8943  2.4817 -2.3094
 6138SOL     OW30049   1.803   2.980   0.548 -0.2155 -0.0207 -0.1572
 6138SOL    HW130050   1.744   2.934   0.488 -2.9579  0.6397  2.0559
 6138SOL    HW230051   1.800   2.915   0.618  1.5609  1.8902  1.7115
 6139SOL     OW30052   1.456   4.254   7.073 -0.3185  0.0123 -0.6143
 6139SOL    HW130053   1.373   4.253   7.122  0.6363  0.4700  1.0182
 6139SOL    HW230054   1.481   4.162   7.075 -1.0920 -0.2144 -1.2915
 6140SOL     OW30055   4.297   4.695   8.085  0.6993 -0.5109 -0.1731
 6140SOL    HW130056   4.211   4.726   8.057  0.2897 -0.4541  1.1499
 6140SOL    HW230057   4.353   0.010   8.027  1.3003 -0.1629  0.7088
 6141SOL     OW30058   1.825   4.417  11.047 -0.2038 -0.3154 -0.4130
 6141SOL    HW130059   1.771   4.466  11.109  0.0094 -0.9914  0.3128
 6141SOL    HW230060   1.894   4.476  11.017 -0.6834  1.0943  1.2909
 6142SOL     OW30061   2.849   1.026   5.928  0.0619 -0.8461 -1.0532
 6142SOL    HW130062   2.845   0.982   5.844 -0.8965 -0.0375 -1.4290
 6142SOL    HW230063   2.760   1.018   5.963  0.6579  0.3923  0.8021
 6143SOL     OW30064   3.940   0.968  15.452 -0.0984 -0.2477 -0.0054
 6143SOL    HW130065   3.883   0.960  15.529  0.8383 -1.1334  0.5980
 6143SOL    HW230066   4.011   1.025  15.481  0.8621 -1.6263  0.3282
 6144SOL     OW30067   3.098   2.323   4.634 -0.1623  0.4483  0.4456
 6144SOL    HW130068   3.153   2.261   4.585  0.2402  0.5217  0.8023
 6144SOL    HW230069   3.148   2.381   4.691 -0.5511  2.9382 -1.7823
 6145SOL     OW30070   4.704   1.779   6.925  0.1918 -0.0638  0.3824
 6145SOL    HW130071   4.614   1.757   6.900 -0.0110  0.5854  0.5428
 6145SOL    HW230072   0.010   1.709   6.873 -1.0588 -0.5693  0.0562
 6146SOL     OW30073   1.954   0.527   9.627  0.4841  0.2172 -0.0687
 6146SOL    HW130074   2.028   0.584   9.648  1.1951  0.5857 -3.7005
 6146SOL    HW230075   1.885   0.559   9.687 -0.0475  1.4396 -1.3259
 6147SOL     OW30076   2.284   2.780  16.905 -0.1810  0.1037  0.4342
 6147SOL    HW130077   2.281   2.703  16.962 -1.7512  0.0072  0.2238
 6147SOL    HW230078   2.251   2.854  16.955 -1.2705 -0.7590  1.0012
 6148SOL     OW30079   0.991   1.622   0.295 -0.0928  0.3244 -0.1926
 6148SOL    HW130080   1.037   1.652   0.374  0.1860 -1.1539  0.2252
 6148SOL    HW230081   0.990   1.705   0.248  1.0675 -0.1282 -1.0370
 6149SOL     OW30082   3.528   2.201   4.713 -0.4408 -0.3936 -0.2975
 6149SOL    HW130083   3.607   2.148   4.724 -1.6073 -2.0662  0.0122
 6149SOL    HW230084   3.460   2.171   4.774  1.2558 -0.9626  1.3015
 6150SOL     OW30085   4.270   0.488   0.162  0.4728 -0.4015  0.0714
 6150SOL    HW130086   4.206   0.442   0.216 -0.2720  1.3287  0.6524
 6150SOL    HW230087   4.230   0.479   0.076 -1.3584  0.2910  0.8474
 6151SOL     OW30088   4.156   3.021   5.502  0.7362 -0.5474  0.1153
 6151SOL    HW130089   4.190   2.937   5.474 -2.8469 -1.9306 -0.0436
 6151SOL    HW230090   4.070   3.014   5.462  0.4717 -1.1161  0.7997
 6152SOL     OW30091   3.810   3.387   5.732  0.0313 -0.5746 -0.2305
 6152SOL    HW130092   3.727   3.346   5.708  0.2784 -0.4808 -1.2343
 6152SOL    HW230093   3.831   3.433   5.651  0.6631 -0.4696 -0.0081
 6153SOL     OW30094   2.349   1.086   8.264 -0.2852 -0.0890  0.5654
 6153SOL    HW130095   2.267   1.100   8.216 -0.1426 -1.6384 -0.1194
 6153SOL    HW230096   2.388   1.172   8.244  0.7188 -1.5266 -3.8012
 6154SOL     OW30097   2.116   0.844   5.958  0.0387  0.3376  0.8792
 6154SOL    HW130098   2.128   0.756   5.994  1.0680 -0.0146 -0.3565
 6154SOL    HW230099   2.032   0.870   5.996 -1.7209  1.8265 -4.0346
 6155SOL     OW30100   0.396   4.498   4.228  0.2393 -0.3495 -0.9965
 6155SOL    HW130101   0.320   4.445   4.203 -0.9320 -1.1124  4.0509
 6155SOL    HW230102   0.463   4.448   4.181  0.2911 -0.1892 -1.0922
 6156SOL     OW30103   0.563   1.856   7.054 -0.3680 -0.8226 -0.2779
 6156SOL    HW130104   0.566   1.844   6.959  1.6535 -2.1542 -0.0564
 6156SOL    HW230105   0.583   1.948   7.071 -1.3133 -0.8393  0.8993
 6157SOL     OW30106   1.633   3.849  13.649 -0.2142 -0.1878  0.1696
 6157SOL    HW130107   1.587   3.766  13.663 -1.6813  0.4024 -1.1376
 6157SOL    HW230108   1.561   3.899  13.687 -0.6916 -0.2462 -0.6556
 6158SOL     OW30109   0.716   2.213   1.518  0.2818  0.1820 -0.4464
 6158SOL    HW130110   0.666   2.143   1.475 -0.1594  1.1903 -1.5890
 6158SOL    HW230111   0.652   2.235   1.586 -1.1179 -0.1504 -1.6394
 6159SOL     OW30112   4.227   0.904   7.112 -0.0076 -0.2277 -0.0950
 6159SOL    HW130113   4.187   0.832   7.161 -0.0068  1.0986  1.8538
 6159SOL    HW230114   4.297   0.923   7.174 -1.2383 -1.2470  1.6169
 6160SOL     OW30115   4.274   0.208  11.753  0.6902  0.4424  0.8638
 6160SOL    HW130116   4.318   0.293  11.758  0.8465  0.4033  0.1139
 6160SOL    HW230117   4.188   0.234  11.788  1.5428  1.4571  2.2311
 6161SOL     OW30118   0.554   1.500   4.410 -0.1426 -0.0678 -0.2501
 6161SOL    HW130119   0.633   1.485   4.357  0.5824 -1.7198  1.3135
 6161SOL    HW230120   0.587   1.581   4.447 -0.1901  0.4339 -1.3039
 6162SOL     OW30121   3.775   2.489  13.260  0.1142  0.1027 -0.0341
 6162SOL    HW130122   3.832   2.530  13.325  0.3152 -2.7261  1.5478
 6162SOL    HW230123   3.826   2.425  13.209 -0.4319 -1.6666  1.6682
 6163SOL     OW30124   0.992   2.830   2.915  0.1172 -0.7308  0.1849
 6163SOL    HW130125   0.990   2.845   2.821 -2.9498  1.3508  0.5784
 6163SOL    HW230126   0.966   2.738   2.923 -0.7526 -0.7605 -3.1181
 6164SOL     OW30127   4.621   3.882   1.212  0.1013  0.1732  0.0863
 6164SOL    HW130128   4.655   3.898   1.124  1.2292 -0.1239  0.4658
 6164SOL    HW230129   4.529   3.900   1.190 -0.2367  1.3275  2.4573
 6165SOL     OW30130   4.069   2.901  12.990 -0.1995 -0.4746 -0.1430
 6165SOL    HW130131   4.126   2.965  13.033  0.1931 -0.2447 -1.0040
 6165SOL    HW230132   4.102   2.902  12.900 -2.5918  2.4688 -1.0154
 6166SOL     OW30133   3.655   2.891   2.451 -0.4924  0.2356  0.1904
 6166SOL    HW130134   3.561   2.888   2.466 -0.7981  3.0536 -1.1115
 6166SOL    HW230135   3.679   2.983   2.457 -0.5759  0.3056 -0.5169
 6167SOL     OW30136   2.975   4.495   0.034  0.0794 -0.5154  0.0574
 6167SOL    HW130137   2.921   4.502  17.698  0.3527  0.2143 -0.0691
 6167SOL    HW230138   3.053   4.542   0.003 -0.4152  1.7240  2.1897
 6168SOL     OW30139   2.247   0.395   6.317 -0.1767  0.2121 -0.6847
 6168SOL    HW130140   2.158   0.429   6.302 -0.3694  0.4159  0.9400
 6168SOL    HW230141   2.231   0.301   6.322  0.7603  0.2315  2.1044
 6169SOL     OW30142   2.986   3.848   1.397  0.1148 -0.2924 -0.1654
 6169SOL    HW130143   2.927   3.813   1.330  2.2603 -0.2967 -2.0917
 6169SOL    HW230144   2.925   3.876   1.464  1.5182 -4.5118  2.8926
 6170SOL     OW30145   0.784   4.187   8.698 -0.2431 -0.2334  0.5500
 6170SOL    HW130146   0.749   4.194   8.609 -0.3672  0.3630  0.6436
 6170SOL    HW230147   0.760   4.096   8.714  0.8694 -0.9586 -1.8907
 6171SOL     OW30148   1.745   0.832   7.703  0.4074  0.1108 -0.0694
 6171SOL    HW130149   1.726   0.871   7.788 -0.9596 -0.3844 -0.1553
 6171SOL    HW230150   1.682   0.875   7.646  0.4875 -0.0071 -0.2472
 6172SOL     OW30151   4.176   3.938   8.992 -0.9603  0.0989 -0.1478
 6172SOL    HW130152   4.084   3.964   9.006 -0.4144  0.6714  2.3634
 6172SOL    HW230153   4.173   3.914   8.899  2.2358  3.7402 -1.1923
 6173SOL     OW30154   0.330   1.676  13.265 -0.7087 -0.0892 -0.8357
 6173SOL    HW130155   0.302   1.607  13.204  3.0501 -1.9394 -0.4607
 6173SOL    HW230156   0.396   1.622  13.308 -0.5550  0.7703 -0.0065
 6174SOL     OW30157   1.691   4.176   4.371 -0.0933 -0.1957  0.4349
 6174SOL    HW130158   1.655   4.228   4.298 -0.0565  0.9735  1.2632
 6174SOL    HW230159   1.643   4.201   4.450  0.9255 -0.4405  1.1272
 6175SOL     OW30160   0.946   4.201   1.942 -0.0040 -0.2247 -0.7693
 6175SOL    HW130161   0.876   4.143   1.971  2.3344 -1.6815  1.9497
 6175SOL    HW230162   0.996   4.146   1.882  1.3716 -1.9101  1.8864
 6176SOL     OW30163   3.439   1.628   1.237 -0.3671 -0.0078  0.5362
 6176SOL    HW130164   3.356   1.631   1.189  0.6436  2.5186 -1.0393
 6176SOL    HW230165   3.494   1.690   1.190 -1.9698 -0.8780 -2.5443
 6177SOL     OW30166   4.392   4.665   6.935  0.3247 -0.4881  0.3565
 6177SOL    HW130167   4.311   4.636   6.893 -0.2422  0.5209  0.7470
 6177SOL    HW230168   4.358   0.003   6.986  1.2732  0.7877 -0.8611
 6178SOL     OW30169   0.846   3.153   3.493  0.0036  0.6018 -0.1372
 6178SOL    HW130170   0.761   3.199   3.493 -0.0481  0.5078 -1.4008
 6178SOL    HW230171   0.842   3.110   3.407 -2.0947 -0.3646  0.4324
 6179SOL     OW30172   1.041   0.708   4.497 -0.4120 -0.2601  0.0262
 6179SOL    HW130173   0.959   0.665   4.472 -1.5275  0.8770  1.7446
 6179SOL    HW230174   1.013   0.778   4.556  1.4168  1.0620 -0.6736
 6180SOL     OW30175   2.222   1.347   4.908  0.6052  0.2424  0.4433
 6180SOL    HW130176   2.139   1.303   4.892  1.9514 -2.3767  0.7980
 6180SOL    HW230177   2.292   1.281   4.902  0.0452 -0.3921  0.9700
 6181SOL     OW30178   1.075   1.845   3.844 -0.0568  0.7895 -0.0589
 6181SOL    HW130179   1.167   1.832   3.823 -0.4868 -1.7484 -0.3614
 6181SOL    HW230180   1.063   1.812   3.933 -2.6283  1.7474 -0.0351
 6182SOL     OW30181   2.868   1.520   7.025  0.0864  0.6867  0.5103
 6182SOL    HW130182   2.778   1.550   7.034  0.7321  2.5722  0.7657
 6182SOL    HW230183   2.891   1.521   7.118 -0.8681 -2.9566  0.8024
 6183SOL     OW30184   0.352   1.691   5.428  0.3807 -0.3282  0.4613
 6183SOL    HW130185   0.411   1.720   5.498 -0.4841  2.0396  0.2210
 6183SOL    HW230186   0.323   1.781   5.410 -1.3747 -0.7877  0.9265
 6184SOL     OW30187   1.989   2.927   5.561 -0.5771  0.3406  0.3633
 6184SOL    HW130188   1.964   3.018   5.576 -0.4991 -0.0311  2.8149
 6184SOL    HW230189   2.037   2.939   5.479  0.3838 -1.6214  0.6412
 6185SOL     OW30190   2.640   1.657   3.438 -0.0411 -0.2930  0.2236
 6185SOL    HW130191   2.635   1.745   3.473 -0.7767  0.1643 -1.0333
 6185SOL    HW230192   2.651   1.612   3.522  0.2509 -0.6530 -0.0057
 6186SOL     OW30193   1.743   3.103   1.318  0.2512  0.1788  0.4109
 6186SOL    HW130194   1.722   3.095   1.411 -1.9842 -3.3680 -0.3711
 6186SOL    HW230195   1.667   3.055   1.287 -0.1905  1.7765 -0.9784
 6187SOL     OW30196   0.779   0.970   9.437 -0.0472  0.3372 -0.0772
 6187SOL    HW130197   0.847   1.010   9.492  0.9454  0.3599 -1.3235
 6187SOL    HW230198   0.832   0.965   9.358  0.9205 -0.7329  0.6235
 6188SOL     OW30199   0.578   0.320  17.530  0.0699 -0.1819 -0.0071
 6188SOL    HW130200   0.567   0.243  17.474 -0.4014 -0.6951  0.8037
 6188SOL    HW230201   0.522   0.384  17.486 -0.5564 -0.6956  0.0426
 6189SOL     OW30202   1.418   1.845   6.256  0.7730 -0.5835  0.9362
 6189SOL    HW130203   1.443   1.760   6.218  0.2998 -0.2478 -0.1125
 6189SOL    HW230204   1.458   1.833   6.342  2.4800 -0.9619  0.1010
 6190SOL     OW30205   0.871   1.565   7.274 -0.6791 -0.1948 -0.2623
 6190SOL    HW130206   0.935   1.636   7.272  0.4162 -1.1286  1.3586
 6190SOL    HW230207   0.883   1.532   7.364  1.1279 -1.0196 -0.8076
 6191SOL     OW30208   3.976   3.108   7.748  0.3628 -0.2116 -0.1181
 6191SOL    HW130209   3.943   3.191   7.713 -0.4963 -0.7645 -0.6398
 6191SOL    HW230210   3.938   3.124   7.835  0.3935 -0.4499 -0.0603
 6192SOL     OW30211   1.246   0.132   4.926  0.0971  0.4883 -0.3093
 6192SOL    HW130212   1.297   0.142   4.846  0.5204  1.6634  0.1025
 6192SOL    HW230213   1.321   0.130   4.984 -0.3875 -0.7756  0.2620
 6193SOL     OW30214   0.339   3.640   8.095  0.5191 -0.8634  0.0378
 6193SOL    HW130215   0.284   3.648   8.174  1.5006 -0.2698  0.6563
 6193SOL    HW230216   0.275   3.638   8.024  0.0574 -1.0063  0.4573
 6194SOL     OW30217   1.406   0.118   8.903  0.6610 -0.3243 -0.2004
 6194SOL    HW130218   1.401   0.142   8.995  0.0587 -0.6341 -0.1495
 6194SOL    HW230219   1.476   0.053   8.898  0.8628 -0.1451  0.3571
 6195SOL     OW30220   0.756   1.641   2.270  0.5002  0.0076 -0.1482
 6195SOL    HW130221   0.674   1.593   2.284  0.7735 -0.8854 -1.6563
 6195SOL    HW230222   0.814   1.596   2.332 -2.5941 -0.8006  2.1811
 6196SOL     OW30223   0.437   0.606   8.292  0.2367  0.0111 -0.1267
 6196SOL    HW130224   0.373   0.641   8.355  0.0590 -1.4718  0.5036
 6196SOL    HW230225   0.427   0.511   8.299  0.1963 -0.0908 -1.5552
 6197SOL     OW30226   1.358   4.570   6.413 -0.2405 -0.1572 -0.2492
 6197SOL    HW130227   1.415   4.582   6.490  0.7643 -0.2277 -0.9756
 6197SOL    HW230228   1.274   4.568   6.458  0.3707 -0.2095  0.9082
 6198SOL     OW30229   3.114   0.380   4.726  0.4840 -0.0502  0.2219
 6198SOL    HW130230   3.178   0.382   4.655  1.5392 -4.0985  1.1049
 6198SOL    HW230231   3.172   0.357   4.798 -0.6363 -0.3137  1.0382
 6199SOL     OW30232   4.027   1.868   9.586 -0.7283 -0.2075  0.1805
 6199SOL    HW130233   4.020   1.855   9.492 -0.2335 -0.2041  0.1407
 6199SOL    HW230234   4.115   1.905   9.594 -1.2994  1.0462  0.5497
 6200SOL     OW30235   2.259   1.758  10.878  0.4150 -0.2286 -0.1984
 6200SOL    HW130236   2.328   1.823  10.888  1.2562 -1.1953  0.2937
 6200SOL    HW230237   2.187   1.821  10.887  1.3938  0.7046  1.0771
 6201SOL     OW30238   4.164   0.017  14.765 -0.3540  0.2667  0.3497
 6201SOL    HW130239   4.113   4.697  14.824 -0.0595 -3.5930 -3.0537
 6201SOL    HW230240   4.193   0.087  14.823  0.2816  0.9239 -0.7756
 6202SOL     OW30241   4.597   3.222   8.247  0.3146 -0.4788  0.1624
 6202SOL    HW130242   4.678   3.175   8.225 -0.5885 -1.5943 -0.8097
 6202SOL    HW230243   4.585   3.188   8.335 -0.8500  2.2300  1.0460
 6203SOL     OW30244   3.358   4.576   5.170 -0.1821 -0.2741  0.0739
 6203SOL    HW130245   3.415   4.652   5.154 -0.9471  0.2425 -0.1548
 6203SOL    HW230246   3.395   4.548   5.254 -0.2372 -0.7654 -0.0651
 6204SOL     OW30247   4.702   4.254   6.581 -0.1088  0.6089 -0.9021
 6204SOL    HW130248   4.688   4.348   6.573  2.3362  1.1370  0.9701
 6204SOL    HW230249   0.060   4.243   6.566 -0.6235 -1.3649 -2.6748
 6205SOL     OW30250   0.416   0.822   2.359  0.2793 -0.0353 -0.1895
 6205SOL    HW130251   0.504   0.785   2.360 -0.0365 -0.8248 -1.4127
 6205SOL    HW230252   0.361   0.762   2.308 -1.7576  0.3774  1.5208
 6206SOL     OW30253   4.502   4.044   8.711  0.3315 -0.1747 -0.2867
 6206SOL    HW130254   4.464   4.003   8.789 -0.2954  0.9644  0.0069
 6206SOL    HW230255   4.491   4.138   8.727 -0.2380 -0.5071  1.3191
 6207SOL     OW30256   4.302   0.682   5.082  0.4009 -0.4313  0.5747
 6207SOL    HW130257   4.351   0.704   5.003  0.5283 -0.2608  0.7024
 6207SOL    HW230258   4.217   0.648   5.054  1.6673 -2.3188 -0.9912
 6208SOL     OW30259   3.041   4.040   2.330  0.2182 -0.2794  0.4488
 6208SOL    HW130260   2.979   4.112   2.333 -1.3367 -1.6292  0.5640
 6208SOL    HW230261   3.043   4.024   2.424 -0.1139  0.4265  0.5704
 6209SOL     OW30262   0.383   2.071   5.858 -0.1940 -0.0937  0.0291
 6209SOL    HW130263   0.475   2.083   5.835 -0.1286 -0.1180  0.2706
 6209SOL    HW230264   0.363   2.154   5.902  1.6356 -0.5619  1.7769
 6210SOL     OW30265   3.403   2.768   7.646  0.4206 -0.4381  0.0636
 6210SOL    HW130266   3.493   2.771   7.612  0.2733  1.2454 -0.1539
 6210SOL    HW230267   3.406   2.783   7.741 -1.7517  0.3799 -0.0013
 6211SOL     OW30268   2.097   4.345  15.799 -1.1127  0.1763  0.0512
 6211SOL    HW130269   2.130   4.257  15.817  1.5753  1.4207  1.1610
 6211SOL    HW230270   2.050   4.331  15.717  0.2862  0.5012 -0.8051
 6212SOL     OW30271   0.398   0.327   6.411 -0.6668 -0.5169  0.1949
 6212SOL    HW130272   0.339   0.337   6.336 -0.2206  0.0142 -0.0833
 6212SOL    HW230273   0.356   0.386   6.473 -1.8931 -0.4273 -0.7032
 6213SOL     OW30274   3.690   4.648  15.557 -0.3430 -0.4582 -0.0068
 6213SOL    HW130275   3.675   0.007  15.557 -1.3064 -0.6124  1.2041
 6213SOL    HW230276   3.674   4.638  15.463 -1.5954  1.1426  0.0266
 6214SOL     OW30277   3.549   1.840   4.944  0.7556 -0.5458  0.4093
 6214SOL    HW130278   3.570   1.822   5.035  2.7469  1.2772  0.3115
 6214SOL    HW230279   3.618   1.787   4.904  0.5322 -2.0268  2.0175
 6215SOL     OW30280   2.590   0.856   6.233 -0.1522  0.7545  0.5708
 6215SOL    HW130281   2.562   0.887   6.319 -0.1920  2.3416 -0.0072
 6215SOL    HW230282   2.583   0.761   6.230  0.3311  0.6974  1.2743
 6216SOL     OW30283   1.853   2.686   8.039  0.3391 -0.1052 -0.2178
 6216SOL    HW130284   1.812   2.615   8.087  0.6924 -0.8247 -0.9773
 6216SOL    HW230285   1.941   2.653   8.018  0.1363  0.0047 -1.2753
 6217SOL     OW30286   4.183   1.235   1.727  0.6122 -0.2714 -0.4346
 6217SOL    HW130287   4.127   1.209   1.800  1.4651  1.5322  0.8508
 6217SOL    HW230288   4.257   1.276   1.771 -0.6751  0.5132  1.0037
 6218SOL     OW30289   4.660   4.179   3.947 -0.3130 -0.0537 -0.1678
 6218SOL    HW130290   4.642   4.271   3.928  1.2139  0.6890  1.9363
 6218SOL    HW230291   4.674   4.150   3.857 -0.7162 -1.1685  0.1339
 6219SOL     OW30292   2.639   2.869   3.864  0.4979 -0.1774 -0.7735
 6219SOL    HW130293   2.613   2.960   3.884 -0.8201 -0.5753 -0.6817
 6219SOL    HW230294   2.733   2.883   3.849  0.6244  1.5622  1.6296
 6220SOL     OW30295   1.608   2.967   7.392 -0.0971  0.6597  0.6998
 6220SOL    HW130296   1.514   2.987   7.403 -0.3358  0.9196 -1.7911
 6220SOL    HW230297   1.622   3.023   7.316 -0.2703  0.1462  0.2920
 6221SOL     OW30298   2.791   0.530  12.306  0.7267  0.3010 -0.0338
 6221SOL    HW130299   2.864   0.499  12.359 -0.1971 -1.1368  0.3763
 6221SOL    HW230300   2.776   0.459  12.244 -0.4186  0.5736 -0.0732
 6222SOL     OW30301   3.428   2.117   1.808 -0.3504  0.2647 -0.3630
 6222SOL    HW130302   3.415   2.029   1.843  0.4948 -0.6140 -2.2543
 6222SOL    HW230303   3.345   2.129   1.761  0.9592  0.3325 -2.6893
 6223SOL     OW30304   1.075   1.631   5.691 -0.0336  0.0349  0.2473
 6223SOL    HW130305   1.167   1.608   5.679  0.5452  2.0675  0.8903
 6223SOL    HW230306   1.052   1.662   5.604  0.8957  0.0950  0.0304
 6224SOL     OW30307   0.866   1.697   4.230 -0.3527 -0.3143 -0.3962
 6224SOL    HW130308   0.940   1.677   4.173  1.7269  4.0456  0.7215
 6224SOL    HW230309   0.822   1.613   4.239 -1.3399  0.1848 -0.5688
 6225SOL     OW30310   0.848   0.848   8.813  0.2250 -0.4253 -0.0192
 6225SOL    HW130311   0.809   0.803   8.739  1.5213 -0.1008 -0.8991
 6225SOL    HW230312   0.840   0.774   8.873 -0.9766 -0.5240 -0.2925
 6226SOL     OW30313   4.536   3.988   2.015  0.0921  0.5848 -0.1487
 6226SOL    HW130314   4.511   3.908   1.971 -0.7388  0.6948  0.1248
 6226SOL    HW230315   4.631   3.975   2.020 -0.1308 -0.8506  0.3815
 6227SOL     OW30316   4.070   1.298   5.094 -0.4223  0.2292 -0.2115
 6227SOL    HW130317   4.106   1.259   5.174  1.0052  0.9517 -0.5148
 6227SOL    HW230318   3.993   1.240   5.088 -0.9364  0.8375  0.5068
 6228SOL     OW30319   0.544   4.386   0.349  0.3402  0.2580 -0.5595
 6228SOL    HW130320   0.637   4.401   0.332  0.5472  0.2096  0.5546
 6228SOL    HW230321   0.544   4.441   0.427  1.5843 -0.2654 -0.1806
 6229SOL     OW30322   1.342   2.432   3.144 -0.1116  0.1443 -0.3603
 6229SOL    HW130323   1.335   2.396   3.055  0.8570 -0.9155 -0.0077
 6229SOL    HW230324   1.398   2.509   3.132  0.3481  0.2340  2.3547
 6230SOL     OW30325   0.959   3.017   9.701  1.2755  0.2031  0.1315
 6230SOL    HW130326   0.940   3.104   9.665 -0.6091  0.2366  1.2424
 6230SOL    HW230327   0.905   3.016   9.780  1.0146  1.4296 -0.0390
 6231SOL     OW30328   1.256   3.775   3.328  0.6403 -0.7999 -0.3812
 6231SOL    HW130329   1.338   3.748   3.285  1.0876  2.2274 -1.4290
 6231SOL    HW230330   1.219   3.841   3.269 -1.0091 -0.9071  0.5393
 6232SOL     OW30331   4.191   4.440   0.106  0.5083  0.4116  0.0935
 6232SOL    HW130332   4.281   4.445   0.140  2.0990 -2.0257 -3.7142
 6232SOL    HW230333   4.216   4.418   0.016 -0.1653 -0.7277  0.1796
 6233SOL     OW30334   3.661   2.981   6.609 -0.2166 -0.6865  0.4133
 6233SOL    HW130335   3.673   2.931   6.528  1.7519 -0.6948  0.7039
 6233SOL    HW230336   3.725   3.052   6.607  1.2191 -1.9054  3.5426
 6234SOL     OW30337   0.653   2.113   5.841  0.2368 -0.5163 -0.0145
 6234SOL    HW130338   0.668   2.201   5.806  1.3611 -0.2520  1.1364
 6234SOL    HW230339   0.696   2.058   5.775 -0.5578 -0.2052 -0.7948
 6235SOL     OW30340   4.370   0.974  15.642 -0.8775 -0.6378  0.2368
 6235SOL    HW130341   4.449   0.956  15.694 -1.1964  0.1073  0.9773
 6235SOL    HW230342   4.402   0.946  15.556  1.4555  0.5058  0.7326
 6236SOL     OW30343   2.394   2.255   2.593  0.1430  0.3902  0.0334
 6236SOL    HW130344   2.379   2.313   2.668 -0.5155 -0.8586  0.8749
 6236SOL    HW230345   2.306   2.219   2.583 -0.2432  0.8635  1.6484
 6237SOL     OW30346   1.644   2.633   4.340 -0.1195 -0.0201 -0.7455
 6237SOL    HW130347   1.569   2.601   4.389 -0.3227  3.8366  1.4726
 6237SOL    HW230348   1.681   2.708   4.387  0.4961  0.1270 -1.4501
 6238SOL     OW30349   3.191   3.261   2.434 -0.1757 -0.2947  0.6239
 6238SOL    HW130350   3.178   3.339   2.489 -1.6466 -0.3692  0.3810
 6238SOL    HW230351   3.165   3.296   2.349  3.3549  0.9185  0.0491
 6239SOL     OW30352   3.258   1.481   7.142  0.0174  0.2290 -0.0548
 6239SOL    HW130353   3.240   1.497   7.049 -1.9839 -0.0938  0.2743
 6239SOL    HW230354   3.170   1.473   7.180  0.0781 -1.2436 -0.2227
 6240SOL     OW30355   3.223   1.630   1.070  0.0637  0.0897  0.5097
 6240SOL    HW130356   3.131   1.651   1.088 -0.2702 -0.3401 -0.7482
 6240SOL    HW230357   3.220   1.559   1.006  0.3903  0.1067  0.4785
 6241SOL     OW30358   1.401   2.922   2.970  0.3681  0.2843  0.3264
 6241SOL    HW130359   1.464   2.858   2.939 -0.1736  0.0337 -0.2541
 6241SOL    HW230360   1.462   2.959   3.034  0.2615 -1.1148  1.2330
 6242SOL     OW30361   1.075   1.074   1.541  0.5144 -0.1470  0.1056
 6242SOL    HW130362   1.106   1.089   1.630 -0.8382  0.6959  0.4387
 6242SOL    HW230363   1.131   1.002   1.512 -1.5404 -1.7236  0.0088
 6243SOL     OW30364   3.743   3.449  15.504  0.1745 -0.3254 -0.1999
 6243SOL    HW130365   3.734   3.413  15.593  0.8391 -1.9554 -0.7994
 6243SOL    HW230366   3.751   3.543  15.522 -0.4940  0.1071 -2.2386
 6244SOL     OW30367   1.908   2.454  11.034  0.4955  0.3633 -0.0902
 6244SOL    HW130368   1.894   2.473  11.127 -0.6277 -0.2214 -0.1367
 6244SOL    HW230369   1.882   2.537  10.994  1.0738  0.4570 -0.2666
 6245SOL     OW30370   1.469   0.059   2.122 -0.1171 -0.2866 -0.4509
 6245SOL    HW130371   1.505   0.035   2.207  2.0487  1.3389 -0.8966
 6245SOL    HW230372   1.481   4.716   2.069 -1.2971 -2.2692  2.2568
 6246SOL     OW30373   2.974   3.448   6.953 -0.2263 -0.2146  0.2096
 6246SOL    HW130374   2.915   3.514   6.915 -0.5589 -0.6793 -0.0792
 6246SOL    HW230375   3.025   3.497   7.017  2.5877 -1.2513 -1.2522
 6247SOL     OW30376   4.441   3.361   4.028 -0.6894  0.3279  0.0940
 6247SOL    HW130377   4.515   3.359   3.967 -0.1495 -1.0105  0.7939
 6247SOL    HW230378   4.483   3.317   4.102  1.1115  1.7100 -0.0924
 6248SOL     OW30379   1.617   4.512   9.789  0.4129  0.0878 -0.2816
 6248SOL    HW130380   1.616   4.605   9.809  2.1822 -0.7432  3.7585
 6248SOL    HW230381   1.541   4.491   9.734 -0.1193  0.2347  0.4084
 6249SOL     OW30382   2.575   0.211   6.058 -0.4484  0.4158 -0.1343
 6249SOL    HW130383   2.628   0.131   6.065 -1.2459  0.1484  2.6224
 6249SOL    HW230384   2.629   0.273   6.106  0.1175 -0.0683 -0.1339
 6250SOL     OW30385   3.788   1.648   8.617  0.1322 -0.0456  0.2559
 6250SOL    HW130386   3.805   1.655   8.523 -1.7237 -0.2460 -0.1045
 6250SOL    HW230387   3.849   1.578   8.641  0.8100  0.2604 -0.5751
 6251SOL     OW30388   0.076   2.699   6.584  0.2328 -0.0900 -0.0692
 6251SOL    HW130389   0.157   2.652   6.606 -0.3131 -0.6425  0.7804
 6251SOL    HW230390   0.018   2.688   6.659  0.2649  2.2859  0.3171
 6252SOL     OW30391   1.150   0.524   5.277  0.4422  0.0723  0.3850
 6252SOL    HW130392   1.230   0.474   5.294  1.2440  1.1598 -0.2331
 6252SOL    HW230393   1.095   0.493   5.350 -0.3854 -2.8839 -1.4892
 6253SOL     OW30394   4.214   0.796  15.942 -0.0544  0.1067  0.1011
 6253SOL    HW130395   4.196   0.802  15.848 -0.5667 -1.3153  0.1232
 6253SOL    HW230396   4.168   0.716  15.966  0.6089 -0.2469  0.1967
 6254SOL     OW30397   4.033   1.604  11.538 -0.7178  0.2128  0.6941
 6254SOL    HW130398   4.107   1.585  11.596 -0.5397 -0.5763  0.2084
 6254SOL    HW230399   4.080   1.629  11.458 -1.3575 -1.0597 -0.0764
 6255SOL     OW30400   0.647   0.452  14.333  0.5934  0.0723 -0.2291
 6255SOL    HW130401   0.574   0.424  14.387  1.1175  1.2577  1.1027
 6255SOL    HW230402   0.676   0.528  14.383 -2.7207 -0.1657  2.0288
 6256SOL     OW30403   1.709   3.186  17.327  0.4368  0.2343  0.1693
 6256SOL    HW130404   1.735   3.258  17.384  0.8221  2.2339 -2.5163
 6256SOL    HW230405   1.633   3.225  17.284 -0.1566 -2.2453 -1.0474
 6257SOL     OW30406   0.504   0.355  10.509  0.5872  0.0813  0.3620
 6257SOL    HW130407   0.452   0.350  10.589 -0.1806 -0.3069 -0.1610
 6257SOL    HW230408   0.577   0.413  10.528  0.2132  0.6404  0.0735
 6258SOL     OW30409   1.350   2.665   9.219  0.4130 -0.5141 -0.0664
 6258SOL    HW130410   1.341   2.760   9.229 -0.0026 -0.9334  3.5810
 6258SOL    HW230411   1.262   2.636   9.198  1.0592 -1.0705 -1.9787
 6259SOL     OW30412   0.755   3.275   7.172 -0.1342 -0.2910 -0.0417
 6259SOL    HW130413   0.686   3.324   7.218 -0.3620 -0.7326  0.0812
 6259SOL    HW230414   0.804   3.354   7.149 -0.6575 -0.0163 -0.2253
 6260SOL     OW30415   4.612   2.706   9.327  0.9715 -0.6385  0.3007
 6260SOL    HW130416   4.575   2.791   9.306  0.9525 -1.3105 -2.3807
 6260SOL    HW230417   4.702   2.737   9.330  0.5055  0.4492  3.5511
 6261SOL     OW30418   1.305   1.556   3.212 -0.3258  0.0296 -0.6891
 6261SOL    HW130419   1.254   1.563   3.293 -1.7969 -0.9663 -1.5222
 6261SOL    HW230420   1.288   1.643   3.174 -1.1672 -0.3854 -1.2902
 6262SOL     OW30421   3.116   3.371   6.078 -0.0087  0.0642 -0.0865
 6262SOL    HW130422   3.066   3.357   6.158  1.5984  0.6149  0.9998
 6262SOL    HW230423   3.089   3.460   6.053 -0.6333 -0.4584 -1.3171
 6263SOL     OW30424   4.708   2.224   6.269  0.4704  0.0813 -0.2902
 6263SOL    HW130425   0.019   2.303   6.242 -0.6475  1.2409  1.2180
 6263SOL    HW230426   4.673   2.248   6.354 -1.7916 -0.4089 -1.0882
 6264SOL     OW30427   3.985   3.537   8.624 -0.1116  0.2054  0.4517
 6264SOL    HW130428   4.050   3.573   8.564  1.2929 -1.4263  0.9889
 6264SOL    HW230429   3.909   3.524   8.566  0.6643 -0.2073 -0.4758
 6265SOL     OW30430   2.675   0.060   4.232  0.9570  0.4311 -0.5975
 6265SOL    HW130431   2.671   0.143   4.280 -1.6957  1.0858 -1.9604
 6265SOL    HW230432   2.758   0.021   4.262  0.8429  0.1367 -0.6610
 6266SOL     OW30433   0.786   0.377   7.686  0.1824 -0.5044 -0.0237
 6266SOL    HW130434   0.808   0.290   7.653 -0.1432  0.0819 -1.8016
 6266SOL    HW230435   0.758   0.410   7.601  0.4254  2.5206  1.0707
 6267SOL     OW30436   3.033   1.295   4.754 -0.0294  0.5360 -0.0876
 6267SOL    HW130437   3.053   1.382   4.720 -3.1085  1.1846 -0.2933
 6267SOL    HW230438   3.077   1.240   4.688 -0.9681 -1.0447  0.5809
 6268SOL     OW30439   0.525   3.861   8.070 -0.4143  0.4666  0.3608
 6268SOL    HW130440   0.464   3.797   8.108 -1.4068  1.7670  0.9885
 6268SOL    HW230441   0.571   3.818   7.998  0.2519  1.6530  0.0813
 6269SOL     OW30442   1.591   4.591   8.336  0.0008  0.5478 -0.1842
 6269SOL    HW130443   1.630   4.557   8.255  0.4724 -0.8185  0.6177
 6269SOL    HW230444   1.522   4.641   8.291 -0.0570  1.7949  1.3098
 6270SOL     OW30445   1.068   0.483   3.027  0.0170 -0.1616 -0.0311
 6270SOL    HW130446   1.138   0.430   2.989 -0.7914 -1.2462 -0.0017
 6270SOL    HW230447   1.118   0.543   3.083 -0.7259  1.1885 -0.7924
 6271SOL     OW30448   0.146   2.748   2.988  0.3839 -0.0594 -0.0233
 6271SOL    HW130449   0.132   2.689   3.062  2.9743  0.1705  0.6367
 6271SOL    HW230450   0.204   2.814   3.027 -1.6283  1.2263  0.7752
 6272SOL     OW30451   0.169   1.020  10.407  0.0267 -0.7633  0.2068
 6272SOL    HW130452   0.183   0.968  10.327 -0.9890  1.3899 -1.3741
 6272SOL    HW230453   0.074   1.009  10.414  0.0394  0.5568  2.4237
 6273SOL     OW30454   0.820   2.201  11.790  0.0215 -0.1582  0.2159
 6273SOL    HW130455   0.827   2.146  11.713 -0.3576 -2.9220  2.1567
 6273SOL    HW230456   0.781   2.146  11.859  0.0773  0.9770  1.1600
 6274SOL     OW30457   3.107   3.582   1.251  0.3777 -0.5957  0.3213
 6274SOL    HW130458   3.016   3.595   1.279  1.2027  0.9480  2.2879
 6274SOL    HW230459   3.154   3.621   1.325  0.8484  0.1102 -0.3542
 6275SOL     OW30460   2.981   3.949   5.736 -0.2141  0.2007 -0.0468
 6275SOL    HW130461   2.909   3.887   5.748  0.1165 -0.4466 -1.5230
 6275SOL    HW230462   2.937   3.993   5.663  0.2239 -1.0369 -1.0565
 6276SOL     OW30463   1.680   2.202   4.987  0.6070 -0.1837  0.3004
 6276SOL    HW130464   1.712   2.261   5.055  2.2108  0.5783 -1.1016
 6276SOL    HW230465   1.677   2.257   4.909  1.1065 -1.3743 -0.5752
 6277SOL     OW30466   4.316   3.786   3.159 -0.2005  0.8591 -0.0695
 6277SOL    HW130467   4.284   3.863   3.205  0.4442  1.3636 -0.4679
 6277SOL    HW230468   4.304   3.795   3.065 -0.4193 -1.1256 -0.2434
 6278SOL     OW30469   4.642   2.255   7.760 -0.1739  0.5189  0.2715
 6278SOL    HW130470   4.612   2.198   7.689  1.4703  0.0338 -0.0487
 6278SOL    HW230471   4.664   2.340   7.721  0.5750 -1.3120 -3.3937
 6279SOL     OW30472   1.108   4.238   3.497  0.6527 -0.5161 -0.0354
 6279SOL    HW130473   1.187   4.225   3.444  0.7454  4.9706 -1.1867
 6279SOL    HW230474   1.128   4.329   3.516 -0.7196 -0.0374 -0.8547
 6280SOL     OW30475   2.547   4.024   2.442  0.2597 -0.4937  0.0143
 6280SOL    HW130476   2.571   3.931   2.435  0.6308 -0.2427 -2.2331
 6280SOL    HW230477   2.459   4.016   2.404 -0.4582 -1.2545  1.8361
 6281SOL     OW30478   0.583   2.978  15.809  0.2270  0.1081 -0.6641
 6281SOL    HW130479   0.496   3.011  15.789 -0.7614 -0.6952  2.2310
 6281SOL    HW230480   0.621   2.990  15.722  0.3806 -1.1680 -0.7695
 6282SOL     OW30481   1.652   1.283   6.296  0.4322 -0.3111 -0.5883
 6282SOL    HW130482   1.674   1.314   6.383 -3.5458  0.9475 -0.0767
 6282SOL    HW230483   1.739   1.289   6.256  1.1489  0.6676  1.1194
 6283SOL     OW30484   3.392   0.552  13.901 -0.1445  0.0923 -0.0039
 6283SOL    HW130485   3.410   0.646  13.893  1.4980 -0.3830 -1.6676
 6283SOL    HW230486   3.462   0.516  13.956  0.0692  0.1424 -0.2436
 6284SOL     OW30487   2.596   0.238   7.232  0.2222  0.7088 -0.1965
 6284SOL    HW130488   2.649   0.243   7.312  0.5283  2.9370 -0.5595
 6284SOL    HW230489   2.506   0.237   7.266  0.9987 -3.0088  1.7885
 6285SOL     OW30490   1.156   0.440   7.957  0.0480 -0.3260  0.1005
 6285SOL    HW130491   1.072   0.405   7.987 -0.5315  0.5207 -0.5351
 6285SOL    HW230492   1.223   0.383   7.993 -0.9554 -0.8046  1.2274
 6286SOL     OW30493   4.725   4.614   4.242 -0.2826 -0.0921  0.4969
 6286SOL    HW130494   4.700   4.522   4.252  0.0737 -0.1684  0.6805
 6286SOL    HW230495   4.732   4.642   4.333  0.4590  3.3630 -0.6292
 6287SOL     OW30496   3.890   0.994   3.590 -0.0868  0.3979 -0.0271
 6287SOL    HW130497   3.830   0.977   3.517 -0.0184 -0.5826  0.1358
 6287SOL    HW230498   3.840   1.062   3.635 -1.7349 -1.2039  0.5691
 6288SOL     OW30499   3.019   4.623  13.911  0.2184  0.6635  0.2795
 6288SOL    HW130500   3.051   4.589  13.995  0.8818  1.5369  0.3821
 6288SOL    HW230501   2.933   4.649  13.943 -1.7898 -2.0339 -2.9904
 6289SOL     OW30502   1.786   4.045   2.290  0.3073 -0.3352 -0.6158
 6289SOL    HW130503   1.856   4.080   2.235  1.3442 -0.6003  0.5299
 6289SOL    HW230504   1.733   4.005   2.220 -1.0132 -3.1741  1.9954
 6290SOL     OW30505   4.596   1.544   4.865  0.5173  0.7256 -0.7463
 6290SOL    HW130506   4.684   1.550   4.902  0.2420  2.1692 -0.3177
 6290SOL    HW230507   4.555   1.508   4.944  2.5083 -0.3920 -0.2141
 6291SOL     OW30508   0.048   0.961  15.945 -0.0260  0.1168 -0.0447
 6291SOL    HW130509   0.119   0.981  15.884 -0.9156  3.0305 -0.1131
 6291SOL    HW230510   0.003   1.044  15.956 -0.0788  0.4286 -2.5068
 6292SOL     OW30511   4.712   0.878   7.575  0.3831  0.0188  0.0538
 6292SOL    HW130512   4.684   0.856   7.486 -2.1861  1.4038  0.4969
 6292SOL    HW230513   4.625   0.869   7.615  0.3764 -1.8936 -0.3615
 6293SOL     OW30514   1.098   3.768   8.004 -0.1183 -0.0860  0.7562
 6293SOL    HW130515   1.005   3.773   8.024 -0.0728 -2.9724  1.6665
 6293SOL    HW230516   1.101   3.695   7.942  1.8937 -0.1678  0.9388
 6294SOL     OW30517   2.422   2.478  17.333 -0.0731  0.0220 -0.3913
 6294SOL    HW130518   2.408   2.538  17.407  0.7956 -2.3406  1.6802
 6294SOL    HW230519   2.475   2.411  17.375  2.5306  1.6199 -1.1214
 6295SOL     OW30520   0.205   0.539  12.089  0.0333  0.2663  0.0162
 6295SOL    HW130521   0.276   0.595  12.055  2.8147 -1.7483  2.5562
 6295SOL    HW230522   0.222   0.541  12.183  0.5285  1.6436 -0.0921
 6296SOL     OW30523   1.735   1.710  16.386 -0.3389 -0.2896  0.5829
 6296SOL    HW130524   1.828   1.686  16.377 -0.6340 -1.1515 -0.1999
 6296SOL    HW230525   1.738   1.805  16.390 -1.8173 -0.1132 -2.5076
 6297SOL     OW30526   3.698   0.683   0.353 -0.0719 -0.0213  0.0001
 6297SOL    HW130527   3.632   0.616   0.373 -1.4719  0.9892 -1.2496
 6297SOL    HW230528   3.781   0.636   0.346 -1.3495 -2.3590  0.5059
 6298SOL     OW30529   2.192   0.243   2.194  0.8492  0.5077  0.6013
 6298SOL    HW130530   2.270   0.262   2.142  2.5908 -1.1885  2.5730
 6298SOL    HW230531   2.161   0.332   2.207 -1.2824 -0.0316 -0.9081
 6299SOL     OW30532   2.898   2.888   6.539 -0.3837  1.1292  0.2423
 6299SOL    HW130533   2.824   2.881   6.598  0.0032  1.6034  0.7787
 6299SOL    HW230534   2.966   2.889   6.606  0.0164 -0.1710 -0.1277
 6300SOL     OW30535   2.225   3.345   2.075 -0.2491  0.0456  0.2852
 6300SOL    HW130536   2.195   3.387   2.156 -1.6880 -1.9625  0.8062
 6300SOL    HW230537   2.292   3.282   2.104  1.2914  1.1580 -0.9020
 6301SOL     OW30538   1.356   1.783   1.299  0.2567 -0.5303  0.2067
 6301SOL    HW130539   1.283   1.762   1.241 -0.7624 -0.1703  1.3817
 6301SOL    HW230540   1.299   1.819   1.366  0.8160  0.4647  0.1458
 6302SOL     OW30541   0.736   3.913   2.254  0.1572  0.1031  0.9923
 6302SOL    HW130542   0.803   3.851   2.224 -0.4660 -0.1562  0.1293
 6302SOL    HW230543   0.723   3.871   2.339  0.0804  0.8080  1.3251
 6303SOL     OW30544   1.557   0.480   8.379 -0.3458  0.7309 -0.1859
 6303SOL    HW130545   1.583   0.529   8.301  3.0377  0.6157  0.9054
 6303SOL    HW230546   1.465   0.507   8.386 -0.2083  1.2243 -0.2918
 6304SOL     OW30547   2.277   3.759  12.160 -0.5297 -0.0724  0.2658
 6304SOL    HW130548   2.353   3.744  12.217 -0.3046  1.8765  0.4787
 6304SOL    HW230549   2.208   3.716  12.210 -1.3835  1.4480  0.3687
 6305SOL     OW30550   3.068   1.400   9.983 -1.0253 -0.3416  0.9180
 6305SOL    HW130551   3.104   1.464   9.922 -2.7235 -1.5612 -1.3606
 6305SOL    HW230552   3.135   1.331   9.983 -2.0171 -1.3040  1.7822
 6306SOL     OW30553   1.089   0.235   8.383 -0.1705  0.2837 -0.1220
 6306SOL    HW130554   1.103   0.245   8.477 -0.3781 -0.8423  0.0234
 6306SOL    HW230555   1.009   0.283   8.365  0.5113  1.6476  0.5097
 6307SOL     OW30556   2.171   4.654   4.171  0.1010 -0.3233 -0.0372
 6307SOL    HW130557   2.171   0.010   4.146  0.3787 -0.8293 -1.9234
 6307SOL    HW230558   2.257   4.637   4.209  0.6707  0.1412 -1.0995
 6308SOL     OW30559   0.137   0.575   3.010 -0.3159 -0.6037  0.6567
 6308SOL    HW130560   0.211   0.616   2.966 -0.0820 -2.7436 -0.9140
 6308SOL    HW230561   0.069   0.568   2.943 -1.1557 -1.0940  1.5653
 6309SOL     OW30562   4.108   2.943   9.987 -0.3429 -0.1450  0.1186
 6309SOL    HW130563   4.090   2.870  10.045  0.2524 -2.5330 -2.7344
 6309SOL    HW230564   4.033   3.002  10.000 -1.2462 -0.7619 -2.2599
 6310SOL     OW30565   4.043   3.744   2.738 -0.9081  0.2453 -0.5776
 6310SOL    HW130566   4.139   3.739   2.737 -1.0107 -1.5730  0.0087
 6310SOL    HW230567   4.007   3.734   2.650  0.5097 -0.3452 -1.0905
 6311SOL     OW30568   2.318   1.866   7.619  0.5150  0.9675 -0.2896
 6311SOL    HW130569   2.265   1.825   7.551  1.8747 -0.7914 -0.3110
 6311SOL    HW230570   2.380   1.902   7.555 -0.5324 -1.3842 -2.6275
 6312SOL     OW30571   4.444   3.836   8.888  0.3198 -0.1931  0.6038
 6312SOL    HW130572   4.489   3.751   8.898 -0.4309 -0.6325  0.1985
 6312SOL    HW230573   4.452   3.862   8.980  0.2356  2.0148 -0.0333
 6313SOL     OW30574   0.627   0.972  12.494  0.1993  0.1600  0.6433
 6313SOL    HW130575   0.538   0.943  12.471  0.7954  0.7189 -2.3967
 6313SOL    HW230576   0.619   1.039  12.561  1.0238  1.4940 -0.5943
 6314SOL     OW30577   4.633   0.241   5.544  0.0544  0.1128 -0.3200
 6314SOL    HW130578   4.631   0.286   5.628  0.5668 -1.6943  0.6669
 6314SOL    HW230579   4.651   0.148   5.557 -0.1441 -0.0219 -0.9985
 6315SOL     OW30580   4.675   3.030   9.658 -0.2580 -0.3659  0.6244
 6315SOL    HW130581   0.014   3.065   9.611 -0.3223 -0.5703  0.3680
 6315SOL    HW230582   4.712   3.015   9.746 -0.0916 -2.4622  0.2099
 6316SOL     OW30583   1.359   4.106   3.408  0.3478 -0.6128 -0.0531
 6316SOL    HW130584   1.370   4.020   3.449 -0.0660 -1.9028 -2.6046
 6316SOL    HW230585   1.424   4.100   3.338 -2.6543  2.5863 -3.1285
 6317SOL     OW30586   1.840   2.270  17.184  0.1378  0.0470  0.4586
 6317SOL    HW130587   1.764   2.301  17.135 -0.9262  0.3191  2.2908
 6317SOL    HW230588   1.813   2.301  17.271 -0.6525  2.9024 -0.8321
 6318SOL     OW30589   2.884   1.278   9.787 -0.0316 -0.0873 -0.3524
 6318SOL    HW130590   2.861   1.369   9.769  1.1661  0.1037 -0.9234
 6318SOL    HW230591   2.949   1.304   9.852 -1.2868  0.4578  0.6865
 6319SOL     OW30592   0.606   3.610  17.621 -0.5140  0.0355 -0.4347
 6319SOL    HW130593   0.680   3.635  17.566 -0.2378 -0.2843 -0.2043
 6319SOL    HW230594   0.641   3.655  17.698  0.0078 -0.2393 -0.5111
 6320SOL     OW30595   0.636   1.265   0.614 -0.0442  0.2938 -0.3394
 6320SOL    HW130596   0.637   1.355   0.581  2.1494  1.8502  4.0383
 6320SOL    HW230597   0.614   1.284   0.705 -0.3520  1.7249 -0.7141
 6321SOL     OW30598   4.397   4.636  16.162 -0.0611  0.0207 -0.2267
 6321SOL    HW130599   4.401   4.552  16.116  1.6143 -0.3029  0.5077
 6321SOL    HW230600   4.488   4.655  16.185 -0.0651  2.5290 -2.2972
 6322SOL     OW30601   4.315   1.871  11.453 -1.1274 -0.3524 -0.3925
 6322SOL    HW130602   4.377   1.861  11.526  1.2799  1.1968 -2.2022
 6322SOL    HW230603   4.299   1.778  11.435  0.5263 -0.1830 -2.7738
 6323SOL     OW30604   2.423   2.112   3.423 -0.7883 -0.0735  0.5371
 6323SOL    HW130605   2.479   2.072   3.357 -2.9949 -0.4031 -1.1471
 6323SOL    HW230606   2.364   2.171   3.374  1.0485  0.4575 -1.0355
 6324SOL     OW30607   3.674   3.548  15.959 -0.1914  0.1299  0.4785
 6324SOL    HW130608   3.589   3.557  16.003 -1.1633 -3.5438 -0.6567
 6324SOL    HW230609   3.688   3.639  15.934 -0.8337 -0.1290 -0.8236
 6325SOL     OW30610   0.002   1.758   1.394 -0.1595 -0.4576 -0.3952
 6325SOL    HW130611   0.033   1.696   1.460 -2.8403 -1.2187  0.1385
 6325SOL    HW230612   0.078   1.759   1.335 -1.4847  2.3590 -2.0136
 6326SOL     OW30613   0.448   4.015   4.544 -0.7209 -0.0492 -0.1691
 6326SOL    HW130614   0.364   3.991   4.583 -1.2218  1.6184 -0.2372
 6326SOL    HW230615   0.494   4.053   4.620 -1.1136 -0.1348  0.1108
 6327SOL     OW30616   4.223   0.399  10.640 -0.1890  0.6359  0.0418
 6327SOL    HW130617   4.288   0.347  10.593 -3.0886 -0.9064 -2.2768
 6327SOL    HW230618   4.268   0.425  10.720  1.9073 -1.6081 -0.4371
 6328SOL     OW30619   2.486   3.154   4.391 -0.6728 -0.4729  0.4392
 6328SOL    HW130620   2.563   3.123   4.343 -0.6843 -3.1601  2.1260
 6328SOL    HW230621   2.437   3.193   4.319 -1.6153  0.8448  1.7845
 6329SOL     OW30622   3.467   1.641   4.115 -0.8965  0.1899  0.0902
 6329SOL    HW130623   3.497   1.614   4.202  1.1675 -0.3646 -0.7696
 6329SOL    HW230624   3.526   1.595   4.054 -0.8932 -2.9015  2.4599
 6330SOL     OW30625   3.290   1.301  12.622 -0.0815  0.1991 -0.0682
 6330SOL    HW130626   3.342   1.380  12.633  1.4841 -0.8642  0.0312
 6330SOL    HW230627   3.315   1.275  12.710 -2.2548 -1.1303  0.1571
 6331SOL     OW30628   1.286   2.395  16.308  0.4141 -0.2180 -0.6834
 6331SOL    HW130629   1.194   2.413  16.287 -0.5369 -0.8969  2.8484
 6331SOL    HW230630   1.277   2.353  16.394  0.0065 -1.1009 -1.1638
 6332SOL     OW30631   3.085   4.354   7.823 -0.2386  0.6267  0.2211
 6332SOL    HW130632   3.122   4.436   7.855  1.5507 -0.0354 -0.1351
 6332SOL    HW230633   3.098   4.298   7.900 -0.0778 -0.1254 -0.3466
 6333SOL     OW30634   0.428   1.201   8.462  0.3892 -0.1025 -0.3791
 6333SOL    HW130635   0.518   1.218   8.436  0.5618 -1.2621 -0.5436
 6333SOL    HW230636   0.421   1.247   8.546  2.1167  0.0740 -0.3323
 6334SOL     OW30637   3.746   0.825  16.021  0.2534 -0.2267 -0.1782
 6334SOL    HW130638   3.663   0.870  16.003 -0.7119 -1.3737  1.3632
 6334SOL    HW230639   3.804   0.900  16.035 -1.1334  0.7264  0.5490
 6335SOL     OW30640   4.349   4.466   7.528  0.0452 -0.4373  0.3767
 6335SOL    HW130641   4.271   4.414   7.547 -0.0962 -1.2643 -2.5253
 6335SOL    HW230642   4.414   4.436   7.592  1.9363 -0.0345 -1.3474
 6336SOL     OW30643   3.598   4.516   0.396 -0.0047  0.5797 -0.1483
 6336SOL    HW130644   3.686   4.550   0.413 -0.0792  1.3817 -1.3779
 6336SOL    HW230645   3.554   4.581   0.450  0.6034  2.3022 -1.7357
 6337SOL     OW30646   4.377   3.448   0.398  0.1182  0.0222  0.5098
 6337SOL    HW130647   4.387   3.380   0.332 -4.1592 -1.2191  1.1223
 6337SOL    HW230648   4.389   3.390   0.473  1.7560  0.7889  0.8437
 6338SOL     OW30649   2.911   0.409   4.425 -0.0453  0.2574  0.5559
 6338SOL    HW130650   2.852   0.397   4.500 -2.5590  0.6524 -1.3627
 6338SOL    HW230651   2.942   0.496   4.450  1.0307  0.1724 -0.5250
 6339SOL     OW30652   4.715   2.513   8.902 -0.1766 -0.0308 -0.1615
 6339SOL    HW130653   0.018   2.461   8.831  0.4947 -2.0374  1.6650
 6339SOL    HW230654   0.059   2.549   8.942  0.5698  0.1785 -1.8369
 6340SOL     OW30655   0.550   3.597   4.975 -0.1814 -0.2204  0.8179
 6340SOL    HW130656   0.600   3.538   4.919 -0.4676  0.8224 -0.5209
 6340SOL    HW230657   0.523   3.546   5.052 -0.2803 -1.1566  0.1602
 6341SOL     OW30658   4.714   3.220   9.326  0.2210 -0.2009  0.3002
 6341SOL    HW130659   0.050   3.175   9.371 -0.3078 -1.4550 -0.1260
 6341SOL    HW230660   4.677   3.269   9.400  0.3831  1.5731 -0.8118
 6342SOL     OW30661   4.109   2.701   2.262  0.3109 -0.4562 -0.0722
 6342SOL    HW130662   4.019   2.675   2.244 -0.6890  1.6585  1.8436
 6342SOL    HW230663   4.168   2.634   2.229 -0.3482 -1.0534 -0.0497
 6343SOL     OW30664   2.011   2.349   8.612  0.6691 -0.4493 -0.0234
 6343SOL    HW130665   2.073   2.332   8.541  0.1558 -1.1715 -0.2979
 6343SOL    HW230666   2.064   2.410   8.664  0.2095 -0.6194  0.6406
 6344SOL     OW30667   1.817   4.331   7.576  0.1040  0.4799  0.8073
 6344SOL    HW130668   1.733   4.376   7.565  0.3431  0.3497 -1.3720
 6344SOL    HW230669   1.865   4.413   7.579  0.7183  0.0940  1.7015
 6345SOL     OW30670   0.160   0.795   5.928 -0.0518  0.2568  0.1342
 6345SOL    HW130671   0.160   0.702   5.906  1.2466  0.2798  0.0292
 6345SOL    HW230672   0.200   0.821   5.845  2.5909 -1.0969  0.9988
 6346SOL     OW30673   3.512   1.725  17.468  0.1477 -0.3217  0.2816
 6346SOL    HW130674   3.557   1.736  17.384  0.4581 -1.1757  0.3409
 6346SOL    HW230675   3.566   1.788  17.517  2.3804 -1.1296 -1.1664
 6347SOL     OW30676   1.447   2.725  10.717  0.1080  0.6380 -0.3746
 6347SOL    HW130677   1.401   2.692  10.640 -0.7028  2.3372 -0.6146
 6347SOL    HW230678   1.465   2.642  10.761  2.2654  1.0158 -0.5181
 6348SOL     OW30679   3.444   4.727  16.081 -0.1233 -0.1238  0.8592
 6348SOL    HW130680   3.511   0.031  16.026 -0.6874 -0.4562 -0.0744
 6348SOL    HW230681   3.492   4.651  16.116  0.2254 -0.9162 -1.3392
 6349SOL     OW30682   3.655   2.229   3.697 -0.1696 -0.4230 -0.3424
 6349SOL    HW130683   3.652   2.323   3.716 -1.1291 -0.8627  1.7348
 6349SOL    HW230684   3.612   2.193   3.775 -0.1918 -1.3826 -0.8032
 6350SOL     OW30685   3.747   4.543   3.616  0.2883  0.0150  0.2526
 6350SOL    HW130686   3.696   4.623   3.601  1.1908  0.9337  2.1292
 6350SOL    HW230687   3.715   4.491   3.542  4.6504 -1.5201 -0.5249
 6351SOL     OW30688   2.479   3.980   8.655  0.5943 -0.1790  0.3107
 6351SOL    HW130689   2.481   4.055   8.715  0.6439 -0.1767  0.3067
 6351SOL    HW230690   2.518   4.019   8.577 -3.4993  2.4302 -0.4368
 6352SOL     OW30691   3.292   1.180   7.707  0.0427  0.3683  0.1475
 6352SOL    HW130692   3.224   1.114   7.715  0.6318 -0.2793 -0.2492
 6352SOL    HW230693   3.290   1.223   7.793 -0.9998  1.3295 -0.3485
 6353SOL     OW30694   1.055   4.253   6.899  0.2880  0.2952 -0.3931
 6353SOL    HW130695   0.975   4.305   6.910 -1.1332 -2.0336  0.2024
 6353SOL    HW230696   1.127   4.316   6.901 -0.0683  0.7015 -0.5433
 6354SOL     OW30697   2.992   4.714  10.566 -0.0495  0.2198 -0.7671
 6354SOL    HW130698   2.926   0.037  10.530  0.2878  0.4415 -1.0346
 6354SOL    HW230699   2.990   4.659  10.488  1.3677 -0.9986  0.0644
 6355SOL     OW30700   4.688   4.574   2.804 -0.0972  0.5226  0.3725
 6355SOL    HW130701   4.689   4.614   2.717  0.3198 -0.7186 -0.1769
 6355SOL    HW230702   4.733   4.492   2.786 -0.0048  0.8477 -0.8848
 6356SOL     OW30703   3.320   4.732  16.535  0.2656  0.0592  0.3986
 6356SOL    HW130704   3.242   0.010  16.481  0.8169  4.2500  0.6976
 6356SOL    HW230705   3.317   0.072  16.593  0.7506 -0.8943  1.6502
 6357SOL     OW30706   2.338   2.247  16.943  0.7839 -0.1306  0.0437
 6357SOL    HW130707   2.391   2.324  16.965 -0.0015  0.3960  0.0832
 6357SOL    HW230708   2.253   2.284  16.918  1.1243  0.4120 -0.3262
 6358SOL     OW30709   3.654   1.903   2.404  0.0804 -0.4817  0.2459
 6358SOL    HW130710   3.735   1.853   2.394  1.2389  1.4895 -0.1311
 6358SOL    HW230711   3.633   1.878   2.494 -0.7163  1.1200  0.4945
 6359SOL     OW30712   2.768   0.995  14.839 -0.0445 -0.6328  0.3310
 6359SOL    HW130713   2.678   0.968  14.821 -0.0311 -0.4192 -0.0350
 6359SOL    HW230714   2.760   1.090  14.834 -0.5574 -0.8032 -2.0239
 6360SOL     OW30715   0.994   1.126   8.082  0.2639  0.0061 -0.8422
 6360SOL    HW130716   0.965   1.215   8.065  1.4738  0.5410 -0.1046
 6360SOL    HW230717   0.923   1.086   8.134 -0.5201  3.2334  0.5634
 6361SOL     OW30718   3.258   0.929   4.059 -0.2921 -0.1672  0.1917
 6361SOL    HW130719   3.334   0.926   4.001 -0.7378 -1.2812 -0.3224
 6361SOL    HW230720   3.296   0.958   4.142 -2.9009  1.5349  0.8185
 6362SOL     OW30721   4.090   4.118  12.382  0.0653 -0.1983 -0.2832
 6362SOL    HW130722   4.136   4.081  12.457  0.4773 -0.0027 -0.4429
 6362SOL    HW230723   4.129   4.205  12.375  2.2176 -1.2201 -0.8675
 6363SOL     OW30724   4.514   3.375   3.130 -0.1392 -0.2889  0.4739
 6363SOL    HW130725   4.450   3.432   3.087  1.2466  0.9045 -0.0061
 6363SOL    HW230726   4.585   3.434   3.156 -1.1472  0.7536  0.8873
 6364SOL     OW30727   1.498   2.394   1.738 -0.3505 -0.0281  0.6744
 6364SOL    HW130728   1.477   2.435   1.822 -0.5988  1.8901 -0.3331
 6364SOL    HW230729   1.478   2.302   1.755 -2.1961 -0.3352 -3.2375
 6365SOL     OW30730   4.081   0.381   5.659  0.5236  0.2725  0.2778
 6365SOL    HW130731   4.090   0.394   5.564 -1.1054  1.9513  0.3449
 6365SOL    HW230732   4.172   0.402   5.682  0.6610  0.9131 -0.8648
 6366SOL     OW30733   1.017   1.704   3.556  0.3772  0.6910  0.1196
 6366SOL    HW130734   1.058   1.759   3.624 -2.4464  1.3175  1.2916
 6366SOL    HW230735   0.925   1.727   3.568  1.1452  2.8065  1.9718
 6367SOL     OW30736   4.135   2.331   4.440 -0.0760 -0.0565 -0.4946
 6367SOL    HW130737   4.184   2.411   4.458  0.2893 -0.3363 -0.2446
 6367SOL    HW230738   4.088   2.352   4.359 -0.4764  0.6733 -0.0753
 6368SOL     OW30739   0.985   1.668   6.747 -0.2250  0.1526  0.4645
 6368SOL    HW130740   0.993   1.655   6.841  0.8186 -1.1219  0.2032
 6368SOL    HW230741   0.988   1.576   6.719  1.8061  0.2118  0.4754
 6369SOL     OW30742   2.094   1.532   2.553 -0.4864  0.0820 -0.2640
 6369SOL    HW130743   2.156   1.602   2.532  0.6823 -0.3035  1.9925
 6369SOL    HW230744   2.097   1.529   2.648  1.2628 -2.2480 -0.4034
 6370SOL     OW30745   3.844   2.300  14.838  0.3801 -0.3144 -0.1655
 6370SOL    HW130746   3.806   2.259  14.761 -1.5497  2.4630 -0.7070
 6370SOL    HW230747   3.764   2.334  14.878  1.1473 -1.1239  2.0732
 6371SOL     OW30748   3.811   4.181   8.458  0.1402  0.3094 -0.2458
 6371SOL    HW130749   3.759   4.194   8.379 -0.8844  0.3387  0.4297
 6371SOL    HW230750   3.750   4.178   8.531  1.0182  0.6554  0.5056
 6372SOL     OW30751   4.138   3.916   6.238  0.8069 -0.4695  0.2719
 6372SOL    HW130752   4.222   3.874   6.216 -0.2654 -1.6197 -1.6435
 6372SOL    HW230753   4.159   4.001   6.200  1.1456 -1.0382 -0.8406
 6373SOL     OW30754   3.108   2.152   7.400 -0.1569  0.2552 -0.2855
 6373SOL    HW130755   3.061   2.173   7.319 -1.1168  2.4758  0.8659
 6373SOL    HW230756   3.039   2.167   7.465 -0.0715  0.0005 -0.1348
 6374SOL     OW30757   1.914   2.749   4.033 -0.0887  0.2142 -0.1176
 6374SOL    HW130758   1.983   2.738   3.968 -1.0167 -2.3705 -0.6972
 6374SOL    HW230759   1.933   2.675   4.090  0.1236 -0.2983 -0.8455
 6375SOL     OW30760   3.357   1.619   8.741  0.6084 -0.4015  0.6541
 6375SOL    HW130761   3.433   1.610   8.684  0.3505  2.0512 -0.0707
 6375SOL    HW230762   3.377   1.695   8.795  0.2192  0.5129 -0.4824
 6376SOL     OW30763   4.476   4.103   6.151  0.5654 -0.2001  0.4475
 6376SOL    HW130764   4.453   4.102   6.243 -0.4825  0.3078  0.1879
 6376SOL    HW230765   4.554   4.047   6.147  0.2317 -0.8876  3.6664
 6377SOL     OW30766   4.292   3.467   5.037  0.5163  0.2256 -0.2641
 6377SOL    HW130767   4.341   3.542   5.003 -0.8671  1.8938  1.4411
 6377SOL    HW230768   4.299   3.420   4.954  1.6278  1.9635 -1.1568
 6378SOL     OW30769   2.263   4.065   2.908  0.1996 -0.0274 -0.1048
 6378SOL    HW130770   2.247   4.154   2.939  1.7699  0.1190  0.3200
 6378SOL    HW230771   2.250   4.085   2.815 -1.5191  0.2069  0.1891
 6379SOL     OW30772   3.398   2.680   8.585 -0.3156  0.3485  1.2736
 6379SOL    HW130773   3.436   2.607   8.636  0.9214  0.1512  0.0699
 6379SOL    HW230774   3.431   2.647   8.501 -0.7169  2.6596  0.2228
 6380SOL     OW30775   0.187   0.033   5.119 -0.9958  0.3254  0.1611
 6380SOL    HW130776   0.129   0.056   5.190 -2.0511  0.0361 -0.6074
 6380SOL    HW230777   0.200   0.112   5.068 -3.0537  0.3628 -0.2867
 6381SOL     OW30778   2.624   1.243  14.866  0.6294  0.3609 -0.4482
 6381SOL    HW130779   2.579   1.327  14.870 -1.0348 -0.3975 -3.7156
 6381SOL    HW230780   2.556   1.177  14.880  0.4386  0.3248 -1.5961
 6382SOL     OW30781   1.145   1.204  15.036 -0.1494 -0.5199  0.3121
 6382SOL    HW130782   1.239   1.183  15.037 -0.5816 -2.4518 -0.6985
 6382SOL    HW230783   1.104   1.127  15.073 -1.6304  0.1700  0.0939
 6383SOL     OW30784   4.105   0.702  12.891 -0.5779 -0.0673  0.6130
 6383SOL    HW130785   4.135   0.621  12.849 -1.2987 -0.4764  0.8921
 6383SOL    HW230786   4.011   0.683  12.882 -0.3414 -1.8826  1.9290
 6384SOL     OW30787   3.928   2.761   8.222 -0.0416 -0.4252 -0.0276
 6384SOL    HW130788   3.869   2.697   8.262 -0.9297  0.0897 -0.5001
 6384SOL    HW230789   4.017   2.737   8.249  0.0920 -1.3735 -1.3357
 6385SOL     OW30790   2.402   2.615   4.856  0.7528  0.4025  0.5814
 6385SOL    HW130791   2.311   2.646   4.863  1.6458  2.3432  3.4841
 6385SOL    HW230792   2.410   2.577   4.768  0.4372  3.4517 -0.7926
 6386SOL     OW30793   3.909   2.641   7.827 -0.1074  0.0993 -0.5873
 6386SOL    HW130794   3.971   2.631   7.754  0.8768 -0.8777  0.3836
 6386SOL    HW230795   3.862   2.721   7.805 -2.0309 -0.8698  0.0464
 6387SOL     OW30796   1.021   0.828   8.314 -1.0471  0.2026  0.0707
 6387SOL    HW130797   0.965   0.892   8.359 -0.3789 -0.1513  1.3871
 6387SOL    HW230798   0.956   0.777   8.266 -2.3753  0.9769  1.0509
 6388SOL     OW30799   3.793   2.740   3.105 -0.3179  0.0184  0.4286
 6388SOL    HW130800   3.712   2.735   3.156  1.0962 -1.6050  2.4820
 6388SOL    HW230801   3.860   2.725   3.171  1.0802  0.0121 -0.9724
 6389SOL     OW30802   1.077   2.441   5.150 -0.1129  0.2638  0.3591
 6389SOL    HW130803   1.136   2.428   5.075 -0.6899 -0.3705  0.0198
 6389SOL    HW230804   1.138   2.453   5.223  0.0386  0.7562  0.1543
 6390SOL     OW30805   1.178   3.403   8.053  0.3524  0.4972  0.3956
 6390SOL    HW130806   1.156   3.408   8.146  1.3159  2.5980  0.5101
 6390SOL    HW230807   1.255   3.460   8.058  0.4468  0.4532 -0.6816
 6391SOL     OW30808   0.930   4.117   7.857  0.4149 -0.0369  0.6088
 6391SOL    HW130809   0.934   4.070   7.940 -1.1488  0.1854  0.8072
 6391SOL    HW230810   1.011   4.090   7.813  0.3356  0.1486  0.3473
 6392SOL     OW30811   2.885   4.569  15.912  0.1497  0.2325 -0.0807
 6392SOL    HW130812   2.975   4.583  15.941 -0.0707 -1.7482  1.5365
 6392SOL    HW230813   2.836   4.650  15.924 -0.7219  0.2146 -3.5088
 6393SOL     OW30814   1.663   0.115   0.995 -0.7054  0.4196 -0.3831
 6393SOL    HW130815   1.576   0.127   1.032 -0.0156  2.8613  0.4129
 6393SOL    HW230816   1.663   0.024   0.964  0.7135  0.1088  0.5721
 6394SOL     OW30817   0.185   3.029  13.721 -0.5847 -0.2467 -0.2983
 6394SOL    HW130818   0.147   2.944  13.699 -2.3750  0.6728 -0.7844
 6394SOL    HW230819   0.275   3.006  13.742 -0.4436  0.8269  0.2805
 6395SOL     OW30820   3.295   3.305  13.666 -0.4600 -0.0964 -0.0051
 6395SOL    HW130821   3.377   3.263  13.639 -0.5587  1.1628 -2.1951
 6395SOL    HW230822   3.315   3.306  13.760 -1.1806 -1.7169  0.1674
 6396SOL     OW30823   0.372   3.330   8.854 -0.0383 -0.6040  0.2870
 6396SOL    HW130824   0.310   3.354   8.923  0.8944  2.8776 -0.1260
 6396SOL    HW230825   0.331   3.369   8.777 -0.0540 -1.8704 -0.3568
 6397SOL     OW30826   4.270   1.824  12.672  0.6945 -0.2072  0.3280
 6397SOL    HW130827   4.277   1.730  12.657 -2.4354 -0.7404  2.4010
 6397SOL    HW230828   4.288   1.862  12.586 -0.7034  0.6274  0.4109
 6398SOL     OW30829   4.009   0.906   5.967  0.2235  0.3463 -0.4862
 6398SOL    HW130830   3.982   0.877   5.880 -2.3770  3.0518 -0.5895
 6398SOL    HW230831   4.063   0.831   5.988  2.9585  1.8871 -2.0642
 6399SOL     OW30832   3.842   3.788   1.853  0.0126 -0.0718  0.1592
 6399SOL    HW130833   3.859   3.845   1.778  1.7191  0.4807  0.9660
 6399SOL    HW230834   3.857   3.701   1.816 -0.5409 -0.6141  1.1806
 6400SOL     OW30835   2.239   0.164   8.537 -0.3658 -1.2937  0.3754
 6400SOL    HW130836   2.319   0.209   8.510 -0.3696 -1.1354  0.6253
 6400SOL    HW230837   2.182   0.189   8.463  1.2138  2.5138  0.4569
 6401SOL     OW30838   3.552   3.594   8.324  0.1884 -0.3056 -0.1122
 6401SOL    HW130839   3.506   3.650   8.262  0.1102 -2.4564 -2.0180
 6401SOL    HW230840   3.513   3.509   8.302  1.6976 -0.8138 -0.8125
 6402SOL     OW30841   2.343   3.406  10.295  0.0366 -0.0632  0.4548
 6402SOL    HW130842   2.260   3.401  10.248 -0.0051  1.7875  0.3121
 6402SOL    HW230843   2.347   3.494  10.334  1.4161  0.1194 -0.1058
 6403SOL     OW30844   1.524   1.105  17.640 -0.4003 -0.1109 -0.3947
 6403SOL    HW130845   1.506   1.086  17.732  1.7060 -3.2805 -0.6309
 6403SOL    HW230846   1.619   1.091  17.630 -0.4780 -1.3433  0.6269
 6404SOL     OW30847   4.224   2.949  17.010 -0.0563 -0.2882 -0.5566
 6404SOL    HW130848   4.298   2.900  16.976  0.2148  0.1893 -0.6665
 6404SOL    HW230849   4.175   2.985  16.936  1.0595  0.3411 -0.9915
 6405SOL     OW30850   1.507   2.988   7.107 -0.1262  0.1393 -0.0716
 6405SOL    HW130851   1.506   2.992   7.011  1.4304 -1.1240 -0.1325
 6405SOL    HW230852   1.487   3.077   7.137 -0.9634  0.7205 -2.2861
 6406SOL     OW30853   2.148   0.996   9.115 -0.0942  0.1600  0.3189
 6406SOL    HW130854   2.187   0.915   9.083 -1.6449 -0.4617  0.0389
 6406SOL    HW230855   2.054   0.981   9.112  0.2204 -1.4541 -1.2727
 6407SOL     OW30856   3.058   3.092   5.267 -0.0562 -0.3717 -0.3067
 6407SOL    HW130857   3.013   3.009   5.254 -1.3636  0.2543  0.2433
 6407SOL    HW230858   2.991   3.146   5.308 -0.8813 -2.6297  1.2622
 6408SOL     OW30859   0.203   0.289   7.190 -0.3481  0.0565  0.0813
 6408SOL    HW130860   0.180   0.325   7.104  1.4264 -0.0360 -0.4339
 6408SOL    HW230861   0.273   0.228   7.167  0.2784  1.0597 -0.6951
 6409SOL     OW30862   0.317   0.946   8.712  0.6656 -0.2707  0.2274
 6409SOL    HW130863   0.269   0.900   8.781 -0.0406  1.3723  0.8321
 6409SOL    HW230864   0.309   1.034   8.748 -0.4690 -0.2075 -0.1748
 6410SOL     OW30865   2.855   3.107   6.955  0.7204  0.0823 -0.2485
 6410SOL    HW130866   2.816   3.149   6.878  1.8537 -0.3454 -1.0533
 6410SOL    HW230867   2.849   3.170   7.027  2.9767 -1.3911  1.2402
 6411SOL     OW30868   0.597   2.121   8.285 -0.1111  0.4934  0.5477
 6411SOL    HW130869   0.687   2.152   8.275 -0.4796  1.0269 -1.0427
 6411SOL    HW230870   0.608   2.034   8.246  0.5860  0.9429 -0.2616
 6412SOL     OW30871   0.435   1.523  12.982 -0.0486  0.1492 -0.0371
 6412SOL    HW130872   0.347   1.491  13.004 -0.1060 -0.8143 -1.6264
 6412SOL    HW230873   0.485   1.490  13.056  0.8680  1.2257 -0.1916
 6413SOL     OW30874   3.849   3.460   6.462  0.9257 -0.5085 -0.0637
 6413SOL    HW130875   3.838   3.499   6.375  1.9183 -0.1109 -0.0098
 6413SOL    HW230876   3.787   3.505   6.520  2.0695  2.4468 -1.1377
 6414SOL     OW30877   3.289   4.653   4.332  0.1646 -0.4473 -0.6421
 6414SOL    HW130878   3.267   4.700   4.412 -1.5840 -0.7057 -0.9755
 6414SOL    HW230879   3.358   4.711   4.300 -0.8807  0.1194 -1.8572
 6415SOL     OW30880   4.382   1.686   9.530  0.2110 -0.4848 -0.8587
 6415SOL    HW130881   4.287   1.696   9.534  0.0947 -2.0581  0.3189
 6415SOL    HW230882   4.400   1.614   9.591  2.6887 -0.5734 -1.6932
 6416SOL     OW30883   4.429   2.421  12.856  0.5175  0.1701  0.5867
 6416SOL    HW130884   4.363   2.490  12.861 -0.1330 -0.5847  2.3654
 6416SOL    HW230885   4.508   2.475  12.856  1.0179 -0.5611  0.5570
 6417SOL     OW30886   4.102   4.524   8.199  0.5680  0.2913  0.1051
 6417SOL    HW130887   4.177   4.565   8.157  1.5068  0.3730  1.8491
 6417SOL    HW230888   4.132   4.468   8.271 -0.5837 -0.5131 -0.0369
 6418SOL     OW30889   4.472   3.998   7.142 -0.0974  0.7643 -0.7072
 6418SOL    HW130890   4.401   4.000   7.078 -0.4347 -1.0029 -0.3795
 6418SOL    HW230891   4.464   4.087   7.176 -0.0575  0.4398  0.1592
 6419SOL     OW30892   2.125   1.249   3.992  0.0794  0.1548  0.3250
 6419SOL    HW130893   2.063   1.185   3.958 -0.7054  1.9724 -1.7280
 6419SOL    HW230894   2.070   1.298   4.054 -0.1512  2.0185 -1.3411
 6420SOL     OW30895   0.919   1.568   7.556  0.2465  0.4810 -0.0984
 6420SOL    HW130896   0.834   1.533   7.581 -0.3564  1.2096 -1.1410
 6420SOL    HW230897   0.970   1.547   7.634 -0.8000  1.9120  0.9595
 6421SOL     OW30898   3.636   2.952   1.963 -0.1278  0.1299  0.1085
 6421SOL    HW130899   3.664   2.957   1.871 -1.5809 -0.8576 -0.3911
 6421SOL    HW230900   3.607   2.861   1.960  0.4751 -0.0735  0.3044
 6422SOL     OW30901   1.668   2.777   7.122 -0.8412  0.2550 -0.1816
 6422SOL    HW130902   1.611   2.854   7.120 -0.7697  0.3096 -0.1339
 6422SOL    HW230903   1.745   2.814   7.080 -0.9613  0.8434  0.1132
 6423SOL     OW30904   3.511   1.758  10.695 -0.2704  0.6826  0.6895
 6423SOL    HW130905   3.458   1.725  10.768 -0.3342 -0.2984  0.1916
 6423SOL    HW230906   3.595   1.714  10.708 -0.4805  0.0953  0.0191
 6424SOL     OW30907   0.229   1.369   2.920  0.5234  0.4260  0.1340
 6424SOL    HW130908   0.324   1.359   2.928  0.2589  0.4589  3.4286
 6424SOL    HW230909   0.205   1.360   2.828 -0.3417 -0.0821  0.4058
 6425SOL     OW30910   3.479   4.098  13.819 -0.1969  0.1816  0.1461
 6425SOL    HW130911   3.446   4.022  13.866 -0.0346 -0.0465 -0.1066
 6425SOL    HW230912   3.432   4.165  13.869 -0.5123  0.6660 -0.7973
 6426SOL     OW30913   1.781   3.434   6.502 -0.0819 -0.8741  0.0370
 6426SOL    HW130914   1.816   3.440   6.413 -1.8775 -0.0900 -0.6105
 6426SOL    HW230915   1.757   3.523   6.526  2.6975 -0.3121  0.7054
 6427SOL     OW30916   4.072   1.289  10.570 -0.2462 -0.6490  0.5886
 6427SOL    HW130917   4.077   1.240  10.487  0.0084  1.0191 -0.3799
 6427SOL    HW230918   3.997   1.345  10.553  0.4908  0.4138  0.8044
 6428SOL     OW30919   2.605   0.380  13.232 -0.9458 -0.0557  0.2554
 6428SOL    HW130920   2.666   0.453  13.217  1.3740 -1.4645  2.8167
 6428SOL    HW230921   2.568   0.373  13.145  0.2928  1.4728 -0.4104
 6429SOL     OW30922   3.337   3.806  10.932 -0.3445 -0.3070 -0.0393
 6429SOL    HW130923   3.345   3.712  10.916  2.6440  0.3180 -2.2776
 6429SOL    HW230924   3.248   3.821  10.902 -0.5523 -3.2989 -0.8273
 6430SOL     OW30925   4.124   2.235   9.976 -0.0028  0.1369  0.4753
 6430SOL    HW130926   4.094   2.173   9.909  0.6726  1.1182 -0.7401
 6430SOL    HW230927   4.197   2.275   9.928 -0.1168 -2.3415 -1.7874
 6431SOL     OW30928   4.015   2.636   8.907 -0.5499  0.2064 -0.2421
 6431SOL    HW130929   4.064   2.711   8.942  1.5068 -1.3594  0.2401
 6431SOL    HW230930   4.019   2.574   8.979  0.1814 -0.6209 -0.9957
 6432SOL     OW30931   0.216   2.659   5.548  0.0808 -1.0951 -0.1027
 6432SOL    HW130932   0.297   2.702   5.522  0.1392 -0.8899  0.4031
 6432SOL    HW230933   0.151   2.699   5.491 -0.6180 -0.0574  1.4109
 6433SOL     OW30934   3.768   3.226  16.140 -0.2293  0.3775  1.0807
 6433SOL    HW130935   3.857   3.261  16.142  0.4322 -1.1634 -0.8393
 6433SOL    HW230936   3.779   3.136  16.171 -1.9314 -0.1478  0.1568
 6434SOL     OW30937   1.973   2.711   5.159  0.6175  0.1223 -0.4004
 6434SOL    HW130938   1.990   2.668   5.243 -1.7419  2.4928  1.2789
 6434SOL    HW230939   2.027   2.788   5.177  2.1381 -0.6221 -1.7544
 6435SOL     OW30940   4.237   2.455   1.014 -0.5430  0.4571  0.3840
 6435SOL    HW130941   4.189   2.454   0.932 -1.7881 -0.1314  1.1209
 6435SOL    HW230942   4.197   2.392   1.074  1.2370  1.1292  2.3246
 6436SOL     OW30943   2.338   1.101   9.284  0.1751 -0.3042 -0.0809
 6436SOL    HW130944   2.411   1.050   9.250  1.0919  0.7030  0.3589
 6436SOL    HW230945   2.263   1.066   9.236 -0.5839  0.0937  0.8144
 6437SOL     OW30946   3.140   3.724   2.564 -0.7531  0.7737 -0.5738
 6437SOL    HW130947   3.163   3.724   2.471 -3.0519  1.0455 -1.1313
 6437SOL    HW230948   3.174   3.808   2.595 -1.1747  1.2869 -1.5009
 6438SOL     OW30949   3.571   0.332   4.112 -0.0934 -0.8650 -0.0119
 6438SOL    HW130950   3.573   0.402   4.177 -0.3093 -1.7077  0.8997
 6438SOL    HW230951   3.615   0.367   4.035  0.7667 -2.1613 -0.1295
 6439SOL     OW30952   4.364   4.380   6.536  0.1314 -0.1462 -0.1398
 6439SOL    HW130953   4.452   4.410   6.559  0.8973 -0.7322 -2.2880
 6439SOL    HW230954   4.350   4.399   6.443 -1.4613 -0.8614 -0.0477
 6440SOL     OW30955   3.540   0.662   2.438  0.6604 -0.0462 -0.1197
 6440SOL    HW130956   3.557   0.585   2.492 -0.2121 -1.4723 -1.8790
 6440SOL    HW230957   3.486   0.622   2.371  0.1339 -0.7753  0.7362
 6441SOL     OW30958   4.320   1.296   4.222  0.6525 -0.2260 -0.1458
 6441SOL    HW130959   4.254   1.315   4.156 -0.1754 -2.0568  0.1339
 6441SOL    HW230960   4.290   1.205   4.234  0.5492 -0.0850  0.6604
 6442SOL     OW30961   0.806   2.059   6.078  0.9577 -0.1421  0.0601
 6442SOL    HW130962   0.796   1.965   6.064 -0.3515 -0.0447  0.2793
 6442SOL    HW230963   0.733   2.090   6.024 -0.4073  0.3717  2.2295
 6443SOL     OW30964   0.980   1.898  17.206 -0.0121 -0.6670 -0.2415
 6443SOL    HW130965   0.946   1.987  17.207  1.3820 -0.1709  2.4702
 6443SOL    HW230966   1.073   1.906  17.228 -0.2910 -2.7720  1.7148
 6444SOL     OW30967   1.595   4.477   7.571 -0.4884 -0.8625  0.0839
 6444SOL    HW130968   1.539   4.462   7.495  1.0184  1.1972 -1.4107
 6444SOL    HW230969   1.571   4.569   7.582 -3.1844 -1.5020 -0.3438
 6445SOL     OW30970   2.764   0.145   2.332 -0.2253 -0.0772  1.0341
 6445SOL    HW130971   2.824   0.093   2.279 -1.2447 -1.2739  1.0703
 6445SOL    HW230972   2.754   0.215   2.268 -0.3346  2.4969  3.8540
 6446SOL     OW30973   2.247   4.599   7.683 -0.7961  0.3106 -0.2728
 6446SOL    HW130974   2.319   4.653   7.650 -0.2091  0.3383  1.0610
 6446SOL    HW230975   2.285   4.581   7.769  1.2429 -1.2425 -1.5141
 6447SOL     OW30976   1.429   3.669   1.727  0.0841  0.2934  0.1406
 6447SOL    HW130977   1.499   3.617   1.688 -0.9006 -1.6785  1.0007
 6447SOL    HW230978   1.373   3.598   1.760  2.5512 -0.6964  2.2514
 6448SOL     OW30979   0.452   1.641   5.807  0.1860  0.3951 -0.4072
 6448SOL    HW130980   0.388   1.675   5.870 -1.6586 -1.6721 -1.1895
 6448SOL    HW230981   0.474   1.715   5.751  0.4702  0.7798  0.2024
 6449SOL     OW30982   3.912   4.679  14.593 -0.2410  0.2785 -0.3172
 6449SOL    HW130983   3.862   4.715  14.665  0.6289  2.7584 -0.9280
 6449SOL    HW230984   3.855   4.678  14.516 -1.6917  0.5701  0.7535
 6450SOL     OW30985   0.666   0.759  16.778 -0.4920  0.0050  0.1750
 6450SOL    HW130986   0.751   0.728  16.747 -0.5831 -0.8533  0.7633
 6450SOL    HW230987   0.604   0.716  16.719  1.2117  0.1530 -1.7272
 6451SOL     OW30988   0.865   0.956  13.202  0.6466 -0.5449 -0.0168
 6451SOL    HW130989   0.822   0.930  13.121 -0.8852  3.2913 -0.3895
 6451SOL    HW230990   0.824   1.041  13.213 -1.4056 -1.4914 -0.2849
 6452SOL     OW30991   4.028   1.998  13.514 -0.6315  0.1294 -0.2816
 6452SOL    HW130992   3.940   2.030  13.491 -0.2436  0.4265 -1.3744
 6452SOL    HW230993   4.044   2.040  13.598  0.0571  0.1107 -0.4108
 6453SOL     OW30994   4.617   3.779   5.374 -1.0100  0.2308 -0.2328
 6453SOL    HW130995   4.704   3.801   5.339 -1.5714 -1.0797 -2.4539
 6453SOL    HW230996   4.612   3.825   5.457  1.3303  0.2140 -0.0813
 6454SOL     OW30997   2.124   0.992  12.885  0.0770  0.0928 -0.9268
 6454SOL    HW130998   2.040   0.995  12.838  0.3793 -0.0137 -1.4716
 6454SOL    HW230999   2.131   1.084  12.910  1.5505 -0.6362  1.2885
 6455SOL     OW31000   1.928   0.880   2.269  0.0098 -0.0049  0.1613
 6455SOL    HW131001   1.884   0.808   2.314 -0.5144  1.0418  1.3203
 6455SOL    HW231002   2.020   0.854   2.275  0.0350 -0.6307 -2.7856
 6456SOL     OW31003   3.553   3.461  12.027  0.3323 -0.5862 -0.2322
 6456SOL    HW131004   3.518   3.527  11.968  0.1358 -0.6704 -0.2104
 6456SOL    HW231005   3.479   3.450  12.087  1.6800 -1.3714  1.2985
 6457SOL     OW31006   0.035   0.808  17.287 -0.5021  0.4160 -0.5441
 6457SOL    HW131007   4.707   0.874  17.260  2.4815  2.9884 -1.4945
 6457SOL    HW231008   0.107   0.806  17.224 -0.0295 -2.3500  0.1172
 6458SOL     OW31009   4.418   2.326  12.249 -0.7332  0.1831  0.0283
 6458SOL    HW131010   4.342   2.279  12.214 -1.8924  1.8497  0.3209
 6458SOL    HW231011   4.461   2.258  12.302  1.0097  0.8665 -0.4926
 6459SOL     OW31012   1.941   3.780   3.825 -0.1533 -0.6414 -0.0972
 6459SOL    HW131013   1.938   3.715   3.895 -0.2108  0.0139  0.5066
 6459SOL    HW231014   1.951   3.722   3.750 -3.6007 -3.1666  1.4304
 6460SOL     OW31015   2.373   4.049   6.539  0.3594  0.8771  0.3125
 6460SOL    HW131016   2.377   3.969   6.592 -0.9480  2.6437  3.1216
 6460SOL    HW231017   2.278   4.063   6.542  0.3120  0.6629 -0.2441
 6461SOL     OW31018   3.488   4.320   4.938  0.1075  0.1021 -0.0475
 6461SOL    HW131019   3.463   4.259   4.868 -1.5134 -0.5818  1.1134
 6461SOL    HW231020   3.440   4.283   5.012  2.7210 -1.8948  0.6502
 6462SOL     OW31021   2.515   4.005  13.985  0.1772 -0.3954 -0.2134
 6462SOL    HW131022   2.453   3.933  13.970 -2.7940  1.8940  0.8850
 6462SOL    HW231023   2.473   4.048  14.060 -0.0771  0.4712 -0.8428
 6463SOL     OW31024   1.872   0.828   5.211 -0.0005  0.6339  0.7195
 6463SOL    HW131025   1.818   0.841   5.289  1.3636  2.5080  1.3575
 6463SOL    HW231026   1.819   0.867   5.142  0.8180  1.1103  0.3563
 6464SOL     OW31027   2.740   4.500  15.283  0.7766  0.1490 -0.1053
 6464SOL    HW131028   2.798   4.558  15.332 -1.2954  1.7917  0.3514
 6464SOL    HW231029   2.785   4.417  15.298  1.9749  0.6197 -1.0912
 6465SOL     OW31030   0.170   1.622   9.229  0.5814  0.2575  0.2293
 6465SOL    HW131031   0.109   1.690   9.258 -0.2944 -0.0143 -0.9983
 6465SOL    HW231032   0.127   1.595   9.149 -0.9962  0.9647  0.8225
 6466SOL     OW31033   1.224   0.572  17.644 -0.6268  0.1698  0.1010
 6466SOL    HW131034   1.149   0.513  17.638 -1.4681  0.8597  3.8522
 6466SOL    HW231035   1.290   0.530  17.589 -1.2126 -1.1399  0.3905
 6467SOL     OW31036   2.718   2.017  12.270 -0.3815  0.1313  0.5535
 6467SOL    HW131037   2.633   1.991  12.235  0.5874 -2.5968  0.2199
 6467SOL    HW231038   2.710   1.972  12.354  1.2326 -1.3297 -0.0910
 6468SOL     OW31039   1.455   3.888  13.374  0.1210 -0.4476  0.1253
 6468SOL    HW131040   1.430   3.831  13.447 -1.4502 -0.9247 -0.7958
 6468SOL    HW231041   1.546   3.863  13.356 -0.2621 -2.3906  0.8625
 6469SOL     OW31042   2.339   1.523   3.347  0.1745 -0.7181  0.0536
 6469SOL    HW131043   2.363   1.438   3.386  0.0532  0.1848  2.1161
 6469SOL    HW231044   2.406   1.575   3.391 -1.3957 -1.8925  3.8562
 6470SOL     OW31045   0.748   0.048   7.177 -0.0292  0.0899  0.3643
 6470SOL    HW131046   0.726   0.128   7.226  1.2326  0.0323  1.0085
 6470SOL    HW231047   0.827   0.076   7.131 -1.1818  2.0277 -0.4788
 6471SOL     OW31048   1.438   2.939  12.557  0.3603 -0.3213 -0.0646
 6471SOL    HW131049   1.519   2.888  12.565  0.1500 -0.7878 -0.8739
 6471SOL    HW231050   1.390   2.915  12.477 -1.2325 -0.1876  0.8664
 6472SOL     OW31051   2.643   3.943   6.395 -0.1369 -0.5093  0.5227
 6472SOL    HW131052   2.572   3.990   6.439  0.2250 -1.2305  1.8642
 6472SOL    HW231053   2.693   4.018   6.364  0.2964 -0.0525  2.3326
 6473SOL     OW31054   1.653   2.030   2.959 -0.1315 -0.5423 -0.0875
 6473SOL    HW131055   1.623   2.039   2.869 -1.2417  0.0847  0.3499
 6473SOL    HW231056   1.743   2.000   2.941  0.1751  1.1688 -1.5002
 6474SOL     OW31057   0.445   4.110   1.109 -0.3588  0.7724  0.1025
 6474SOL    HW131058   0.417   4.029   1.151 -1.0465  1.6987  1.3968
 6474SOL    HW231059   0.536   4.082   1.106 -0.8225 -0.5289 -2.0489
 6475SOL     OW31060   2.613   1.226   9.167 -0.1831 -0.5137 -0.0888
 6475SOL    HW131061   2.571   1.198   9.086  1.7814 -2.0194 -0.5642
 6475SOL    HW231062   2.674   1.154   9.182 -1.4776 -1.0805  2.4562
 6476SOL     OW31063   0.558   0.167   7.539 -0.0830 -0.2495  0.1980
 6476SOL    HW131064   0.516   0.137   7.620 -1.3060  1.2578  0.1137
 6476SOL    HW231065   0.649   0.141   7.554  0.3875  1.4430  0.2884
 6477SOL     OW31066   0.239   4.053   5.340  0.2498  0.3309  0.4476
 6477SOL    HW131067   0.313   4.100   5.302 -0.1488  0.1854 -0.4886
 6477SOL    HW231068   0.249   4.059   5.435 -2.3816  2.3578  0.5673
 6478SOL     OW31069   1.746   0.287   7.788 -0.0857  0.1540  0.0387
 6478SOL    HW131070   1.767   0.254   7.701 -2.4436 -0.4762 -0.2949
 6478SOL    HW231071   1.776   0.378   7.784 -1.3932  0.4260 -3.8411
 6479SOL     OW31072   0.340   4.576   2.452 -0.3402  0.5764 -0.2200
 6479SOL    HW131073   0.426   4.604   2.421 -0.2934  0.0900 -0.5184
 6479SOL    HW231074   0.293   4.556   2.371 -0.2753  2.3965 -0.6995
 6480SOL     OW31075   1.905   3.640   5.761  0.3502 -0.2510  0.4476
 6480SOL    HW131076   1.828   3.696   5.767  0.1676 -0.6684  2.1183
 6480SOL    HW231077   1.960   3.685   5.697  0.9878  0.1221  1.2533
 6481SOL     OW31078   4.146   1.134  10.088 -0.0731  0.5673 -0.3716
 6481SOL    HW131079   4.085   1.208  10.077  0.2688  1.1419  1.6479
 6481SOL    HW231080   4.096   1.078  10.029  0.4748 -0.5089  0.2036
 6482SOL     OW31081   2.303   4.221  17.315 -0.2558 -0.1071 -0.5035
 6482SOL    HW131082   2.346   4.162  17.253  1.8395 -1.7536  2.5033
 6482SOL    HW231083   2.329   4.177  17.396  2.4855  3.7882  0.7262
 6483SOL     OW31084   1.756   3.110   5.123 -0.1290  0.3186  0.6547
 6483SOL    HW131085   1.825   3.046   5.138 -0.0047  0.3787  0.3524
 6483SOL    HW231086   1.773   3.180   5.186 -0.6284 -0.7359  1.9333
 6484SOL     OW31087   4.236   0.327   5.948  0.2012  0.5363 -0.3846
 6484SOL    HW131088   4.242   0.397   6.012 -2.3444  0.4185 -0.0120
 6484SOL    HW231089   4.262   0.371   5.867 -1.4396 -1.4224 -2.0074
 6485SOL     OW31090   1.648   4.413   2.712  0.4107 -0.1141 -0.1475
 6485SOL    HW131091   1.681   4.382   2.796  0.7727  3.0399  0.8913
 6485SOL    HW231092   1.671   4.339   2.656  1.5805 -0.5745  0.9435
 6486SOL     OW31093   4.705   1.541  15.117 -0.4142 -0.2991 -0.0928
 6486SOL    HW131094   4.613   1.549  15.089  0.4981 -1.2873 -3.3895
 6486SOL    HW231095   4.736   1.484  15.047  1.4228 -0.0233  0.5006
 6487SOL     OW31096   4.063   4.626   9.730  0.2215 -0.5337 -0.3959
 6487SOL    HW131097   4.009   4.584   9.663  0.4105 -2.4879  0.6796
 6487SOL    HW231098   4.065   4.715   9.695  3.4654 -0.3315  0.2973
 6488SOL     OW31099   2.672   1.865   4.425  0.0636  0.4186  0.3351
 6488SOL    HW131100   2.674   1.886   4.332 -0.0455  0.9493  0.4554
 6488SOL    HW231101   2.578   1.879   4.442  0.3301  1.1450  1.2245
 6489SOL     OW31102   0.468   1.454   8.984  0.0002 -0.2577  0.3530
 6489SOL    HW131103   0.424   1.441   9.068 -1.9610  1.3138 -0.4149
 6489SOL    HW231104   0.521   1.374   8.980  4.2726  2.6225 -0.9871
 6490SOL     OW31105   2.091   1.488   7.643  0.2126 -0.2589  0.7514
 6490SOL    HW131106   2.062   1.456   7.728 -0.5882  2.8246  1.6335
 6490SOL    HW231107   2.158   1.550   7.672  0.2730 -1.0874  2.3512
 6491SOL     OW31108   1.869   1.726   3.680  0.4249  0.2840 -0.3212
 6491SOL    HW131109   1.886   1.679   3.761 -1.0672  1.3921  0.6393
 6491SOL    HW231110   1.875   1.816   3.713 -1.1207 -0.1977  1.3178
 6492SOL     OW31111   3.097   1.696  15.847 -0.1826  0.2433  0.4721
 6492SOL    HW131112   3.090   1.788  15.873  1.0814  1.0560 -2.0359
 6492SOL    HW231113   3.087   1.661  15.935 -1.4726 -0.7350 -0.0732
 6493SOL     OW31114   2.012   2.936   8.345 -0.0496 -0.4446 -0.5082
 6493SOL    HW131115   1.981   2.938   8.254  1.2766 -1.8864 -0.9827
 6493SOL    HW231116   2.101   2.904   8.334  0.4153  0.8433 -0.5716
 6494SOL     OW31117   0.577   0.364   3.497 -0.4149  1.1498  0.8542
 6494SOL    HW131118   0.641   0.402   3.558 -0.5815  2.5355  0.1579
 6494SOL    HW231119   0.501   0.419   3.513 -2.3735 -1.3626  0.1305
 6495SOL     OW31120   2.467   1.592   6.447  0.2608 -0.2080  0.0936
 6495SOL    HW131121   2.487   1.539   6.369 -0.9100 -1.5515  0.7099
 6495SOL    HW231122   2.400   1.638   6.396 -0.0550  0.2248  0.9075
 6496SOL     OW31123   1.253   1.370   6.224 -0.4687  0.5117 -0.5710
 6496SOL    HW131124   1.290   1.309   6.160  2.2683 -1.2953  2.7834
 6496SOL    HW231125   1.207   1.314   6.286  0.7179  2.1963  1.8206
 6497SOL     OW31126   2.461   0.822   8.781 -0.0281 -0.6897 -0.3264
 6497SOL    HW131127   2.410   0.830   8.700  1.1735  0.4114 -0.9662
 6497SOL    HW231128   2.554   0.820   8.759  0.4382 -2.5921  1.8725
 6498SOL     OW31129   2.655   1.674   8.474  0.0028  0.0555  0.1640
 6498SOL    HW131130   2.703   1.720   8.543 -1.2819  0.2595  0.9214
 6498SOL    HW231131   2.701   1.591   8.482 -2.3927 -1.4964 -2.0924
 6499SOL     OW31132   1.242   1.928   1.498  0.2365 -0.7644  0.0613
 6499SOL    HW131133   1.321   1.973   1.527 -0.0476  0.1227 -0.5314
 6499SOL    HW231134   1.223   1.880   1.578  1.6782 -3.6962 -1.3608
 6500SOL     OW31135   1.409   0.935   4.024 -0.2119  0.5792 -0.5333
 6500SOL    HW131136   1.378   0.848   4.050 -0.8496  0.6772 -0.9714
 6500SOL    HW231137   1.414   0.981   4.107 -0.7645  1.8199 -1.1906
 6501SOL     OW31138   0.411   1.971   2.910 -0.0152 -0.1998  0.1868
 6501SOL    HW131139   0.348   1.899   2.918 -0.9829  0.5416 -0.8187
 6501SOL    HW231140   0.432   1.969   2.817 -0.9042 -2.0393  0.0277
 6502SOL     OW31141   3.099   4.437   0.812 -0.0453 -0.1502  0.6764
 6502SOL    HW131142   3.154   4.440   0.891  1.1716 -1.9160 -0.1162
 6502SOL    HW231143   3.031   4.495   0.847  0.0217  0.8973 -0.9109
 6503SOL     OW31144   2.470   2.900   4.816 -0.0399 -0.2300 -0.4276
 6503SOL    HW131145   2.472   2.879   4.722  0.4143 -1.2321 -0.1975
 6503SOL    HW231146   2.489   2.814   4.852  0.4589  0.7317  1.6137
 6504SOL     OW31147   0.047   0.134  13.442  0.4236  0.6286  0.5425
 6504SOL    HW131148   0.115   0.202  13.446 -0.4094  1.6117 -2.1902
 6504SOL    HW231149   0.078   0.062  13.387 -3.5821 -0.4670 -0.2641
 6505SOL     OW31150   2.382   4.530  14.115 -0.2055  0.4643 -0.0768
 6505SOL    HW131151   2.323   4.454  14.113 -1.5218  1.3844  4.2443
 6505SOL    HW231152   2.461   4.478  14.128  0.3951  1.0857 -1.2143
 6506SOL     OW31153   3.844   3.277   7.300  0.2141  0.2753  0.2241
 6506SOL    HW131154   3.837   3.318   7.213  0.0155  0.7252  0.4553
 6506SOL    HW231155   3.844   3.184   7.279  0.2613  0.3663 -0.1829
 6507SOL     OW31156   3.608   2.260   7.218 -0.8889 -0.2198 -0.1126
 6507SOL    HW131157   3.581   2.199   7.149  0.6063  0.6036 -1.4235
 6507SOL    HW231158   3.525   2.306   7.227 -1.9238 -2.2860  0.9663
 6508SOL     OW31159   1.211   4.047   6.437  0.0429  0.3363 -0.7442
 6508SOL    HW131160   1.192   4.130   6.482  1.7447 -1.3251  3.0428
 6508SOL    HW231161   1.236   3.989   6.508  0.3782  0.5828 -0.6607
 6509SOL     OW31162   2.416   2.723   7.222 -0.1155  0.9381 -0.0832
 6509SOL    HW131163   2.482   2.725   7.152  0.0856 -2.2740 -0.0090
 6509SOL    HW231164   2.335   2.750   7.180 -1.1286 -2.0134 -0.0477
 6510SOL     OW31165   1.790   4.552   6.079  0.3524 -0.3329  0.1927
 6510SOL    HW131166   1.768   4.589   6.165  2.1519  1.1885  0.0015
 6510SOL    HW231167   1.719   4.585   6.023  3.4350  0.0537 -3.4524
 6511SOL     OW31168   4.278   2.381  15.938  0.3249  0.0452 -0.1464
 6511SOL    HW131169   4.220   2.331  15.995 -0.9243  0.2856 -1.2235
 6511SOL    HW231170   4.324   2.305  15.902 -0.1897  0.0898 -0.9048
 6512SOL     OW31171   4.115   1.099  17.117 -0.3501  0.3012 -0.1215
 6512SOL    HW131172   4.110   1.098  17.021 -0.5453  1.0170 -0.1202
 6512SOL    HW231173   4.050   1.031  17.137  1.6125 -1.0516  1.6314
 6513SOL     OW31174   3.486   1.963   6.150 -0.1483 -0.1043 -0.1222
 6513SOL    HW131175   3.558   1.952   6.213 -1.3603  1.5443  1.5529
 6513SOL    HW231176   3.511   2.052   6.125 -2.1265  0.5743  0.3288
 6514SOL     OW31177   2.114   1.647   8.386 -0.2354  0.9120 -0.1316
 6514SOL    HW131178   2.167   1.716   8.426 -0.0686  1.3244 -1.0723
 6514SOL    HW231179   2.182   1.580   8.390  0.6166  1.7730 -0.2209
 6515SOL     OW31180   4.216   3.862   3.633  0.2573 -0.1029 -0.2030
 6515SOL    HW131181   4.199   3.891   3.722  0.6212  1.1911 -0.5558
 6515SOL    HW231182   4.198   3.938   3.578 -1.5682 -2.9059 -3.5259
 6516SOL     OW31183   4.106   4.043   5.707  0.3869 -0.2710 -0.5558
 6516SOL    HW131184   4.172   4.107   5.731 -0.0035 -0.3184  0.6538
 6516SOL    HW231185   4.092   3.989   5.785 -0.6556  2.2331  0.9715
 6517SOL     OW31186   1.373   1.093   8.723 -0.1279  0.0274 -0.2653
 6517SOL    HW131187   1.378   1.118   8.631 -1.0989  2.0825  0.2379
 6517SOL    HW231188   1.404   1.003   8.712 -0.7558 -0.3893  1.3070
 6518SOL     OW31189   1.047   1.972   9.009  0.2572  0.9442 -0.1260
 6518SOL    HW131190   0.991   1.953   8.934 -0.7786  1.3220  0.5509
 6518SOL    HW231191   0.971   1.999   9.060 -0.3598 -1.5416  0.2428
 6519SOL     OW31192   2.273   0.026   0.475  0.0828  0.3205 -0.0601
 6519SOL    HW131193   2.216   0.075   0.417  1.2475  2.1131  0.3065
 6519SOL    HW231194   2.214   4.708   0.527 -0.0760  2.2703  1.7765
 6520SOL     OW31195   3.082   3.272  11.844 -0.1603  0.2703  0.1279
 6520SOL    HW131196   3.037   3.204  11.895  2.0349 -1.1856  0.1494
 6520SOL    HW231197   3.171   3.241  11.861 -0.8997 -2.3760 -0.7276
 6521SOL     OW31198   3.558   3.080   7.473 -0.0894  0.6660 -0.5578
 6521SOL    HW131199   3.581   2.988   7.488  0.7855  0.9132 -0.3604
 6521SOL    HW231200   3.480   3.092   7.527  1.3548 -0.4631  1.8247
 6522SOL     OW31201   3.394   3.069   2.447 -0.1257 -0.1071  0.1579
 6522SOL    HW131202   3.393   3.060   2.542  0.6422  3.0654  0.4805
 6522SOL    HW231203   3.344   3.151   2.438 -1.0622 -0.5333  1.4399
 6523SOL     OW31204   1.372   0.629   7.543 -0.0231 -0.4129  0.2429
 6523SOL    HW131205   1.372   0.553   7.485  0.7612  1.1367 -1.7929
 6523SOL    HW231206   1.278   0.639   7.557 -0.4063 -2.4547 -0.8412
 6524SOL     OW31207   2.452   0.241   2.100 -0.1012 -0.0163  0.5199
 6524SOL    HW131208   2.458   0.331   2.069  2.4087 -0.4481 -0.2267
 6524SOL    HW231209   2.431   0.191   2.021  1.0099  1.1083 -0.4692
 6525SOL     OW31210   0.144   1.664   7.136 -0.0598 -0.1369  0.0346
 6525SOL    HW131211   0.131   1.626   7.223 -0.4356 -0.2518 -0.0702
 6525SOL    HW231212   0.053   1.691   7.121 -0.3640 -0.1048  1.9554
 6526SOL     OW31213   2.359   1.645  11.893  0.1178  0.0276 -0.2607
 6526SOL    HW131214   2.375   1.652  11.798 -0.5451  0.0490 -0.3697
 6526SOL    HW231215   2.401   1.562  11.918  3.3786  2.0620  1.0532
 6527SOL     OW31216   1.147   4.031   2.271 -0.1468 -0.4772  0.5041
 6527SOL    HW131217   1.109   4.021   2.184 -1.3510  0.2645  0.9462
 6527SOL    HW231218   1.166   3.942   2.301  1.9494  0.8920  3.2174
 6528SOL     OW31219   1.822   4.595  12.666 -0.0594 -0.0303 -0.2638
 6528SOL    HW131220   1.889   4.537  12.629  2.0363  3.2845 -1.6353
 6528SOL    HW231221   1.872   4.644  12.731 -1.7715  1.8103 -0.3278
 6529SOL     OW31222   4.057   0.164   8.294 -0.2833 -0.4462  0.5767
 6529SOL    HW131223   4.073   0.136   8.383  2.1809 -0.0979  0.2328
 6529SOL    HW231224   3.986   0.225   8.315 -0.3490 -0.2545 -0.1931
 6530SOL     OW31225   3.420   1.633   6.598 -0.1671  0.7890  0.2121
 6530SOL    HW131226   3.374   1.717   6.605 -3.5832 -0.9924 -0.9198
 6530SOL    HW231227   3.481   1.652   6.526 -1.0187 -1.6681 -1.1447
 6531SOL     OW31228   4.618   4.252   2.442 -0.2795  0.2435  0.3724
 6531SOL    HW131229   4.631   4.258   2.347 -0.0760 -2.8562  0.2040
 6531SOL    HW231230   4.691   4.309   2.467 -0.7127  0.4064  1.2685
 6532SOL     OW31231   0.432   2.689   3.131 -0.3612  0.6630 -0.0606
 6532SOL    HW131232   0.371   2.694   3.205  0.7557 -0.1487  0.9125
 6532SOL    HW231233   0.430   2.595   3.113  0.0676  0.6533 -0.0530
 6533SOL     OW31234   2.042   2.517   8.365  0.0707 -0.0342 -0.1286
 6533SOL    HW131235   2.085   2.444   8.321  0.1380 -0.5032  0.7200
 6533SOL    HW231236   1.951   2.487   8.368  0.9373 -2.5386  0.8939
 6534SOL     OW31237   2.091   2.647  15.672  0.3277  0.2777 -0.3470
 6534SOL    HW131238   2.079   2.617  15.762 -0.4196 -0.8698 -0.8307
 6534SOL    HW231239   2.185   2.632  15.662  0.6319 -0.0784  3.1059
 6535SOL     OW31240   1.787   0.918   7.990  0.0979 -0.0303  0.0340
 6535SOL    HW131241   1.741   1.001   7.983  0.8200  0.2614 -1.2084
 6535SOL    HW231242   1.770   0.892   8.081  0.6683  2.1011  0.7442
 6536SOL     OW31243   1.020   0.977  15.124  0.3931 -0.1278  0.2796
 6536SOL    HW131244   1.001   0.971  15.217 -0.6723  2.8644  0.2481
 6536SOL    HW231245   1.112   0.951  15.123  0.4384  0.0527 -2.5848
 6537SOL     OW31246   3.534   0.913   7.632  0.1933  0.3804 -0.1295
 6537SOL    HW131247   3.534   1.002   7.596 -2.3857 -0.1233 -1.4050
 6537SOL    HW231248   3.445   0.900   7.665 -0.1548  0.5701 -0.9899
 6538SOL     OW31249   4.403   0.932   4.565  0.3388  0.3550  0.2099
 6538SOL    HW131250   4.335   0.980   4.614  1.5522  1.0682  1.2287
 6538SOL    HW231251   4.472   0.953   4.628  0.5366  4.0335 -1.1818
 6539SOL     OW31252   2.364   4.385   0.292  0.5939  0.5039 -0.4540
 6539SOL    HW131253   2.289   4.406   0.348  0.3550 -0.4828 -0.3900
 6539SOL    HW231254   2.389   4.472   0.264 -0.3514  0.4276 -1.5346
 6540SOL     OW31255   4.138   0.495   1.303  0.0450  0.0378 -0.8086
 6540SOL    HW131256   4.043   0.496   1.290 -0.0913 -1.7277  0.0455
 6540SOL    HW231257   4.162   0.413   1.261  0.2444 -0.0558 -0.5092
 6541SOL     OW31258   4.258   3.303  15.887 -0.2415 -0.1842 -0.1161
 6541SOL    HW131259   4.338   3.312  15.940 -0.2803  0.7049 -0.2007
 6541SOL    HW231260   4.193   3.305  15.957  0.2864  0.0296  0.3747
 6542SOL     OW31261   4.582   0.824  11.232  0.2171  0.2125 -0.2555
 6542SOL    HW131262   4.489   0.833  11.249  0.6123 -1.0067  2.4866
 6542SOL    HW231263   4.594   0.731  11.249 -4.4577  0.0719  2.1355
 6543SOL     OW31264   3.229   4.700  11.988 -0.7801  0.2508  0.0795
 6543SOL    HW131265   3.270   4.695  12.074  2.4433 -1.6466 -1.5899
 6543SOL    HW231266   3.236   4.607  11.967  0.8868  0.2315  0.7362
 6544SOL     OW31267   0.456   2.355   8.226 -0.1404 -0.3333 -0.1737
 6544SOL    HW131268   0.490   2.266   8.236  0.4572 -0.1510 -0.6152
 6544SOL    HW231269   0.389   2.343   8.159  0.6602 -0.2871 -0.9857
 6545SOL     OW31270   3.571   0.703   7.453 -0.1844  0.1582  0.3139
 6545SOL    HW131271   3.581   0.738   7.364  0.4568  0.9360  0.6946
 6545SOL    HW231272   3.572   0.786   7.500  1.1688  0.3165 -0.0037
 6546SOL     OW31273   0.302   2.870   6.889  0.3931 -0.0578 -0.1290
 6546SOL    HW131274   0.261   2.950   6.857  0.4470  1.2631  3.1249
 6546SOL    HW231275   0.389   2.877   6.849 -0.1152  2.2785 -0.8450
 6547SOL     OW31276   3.658   4.182   8.673  0.4530  0.0189  0.2679
 6547SOL    HW131277   3.648   4.277   8.674  1.1409  0.0921 -0.4678
 6547SOL    HW231278   3.634   4.162   8.764  1.8430 -2.4490  0.1061
 6548SOL     OW31279   2.294   0.967   4.394 -0.0752  0.3991  0.1538
 6548SOL    HW131280   2.379   1.007   4.377  0.7054 -1.6825 -0.7414
 6548SOL    HW231281   2.265   0.949   4.305 -2.5131 -2.1700  1.4628
 6549SOL     OW31282   0.615   1.650   2.869 -0.5022 -0.0477  0.7312
 6549SOL    HW131283   0.640   1.717   2.933 -0.2060 -1.1068  1.7240
 6549SOL    HW231284   0.566   1.594   2.930 -3.6582  2.1032  0.1678
 6550SOL     OW31285   0.378   4.088   3.497  0.5424 -0.0702  0.4415
 6550SOL    HW131286   0.434   4.014   3.476  1.9226  0.6134  1.7117
 6550SOL    HW231287   0.293   4.068   3.459  0.7695  1.2327 -0.7562
 6551SOL     OW31288   2.911   2.753  13.682  0.2121  0.3861  0.6478
 6551SOL    HW131289   2.927   2.759  13.588 -1.0158 -1.3661  0.3392
 6551SOL    HW231290   2.969   2.827  13.702 -0.4948  0.6557  1.6795
 6552SOL     OW31291   1.345   1.337  17.662  0.1351 -0.0441 -0.2678
 6552SOL    HW131292   1.301   1.328   0.004  0.2439  1.0297 -0.1071
 6552SOL    HW231293   1.426   1.287  17.651  0.4017  0.5745 -1.1409
 6553SOL     OW31294   0.317   4.058  14.288  0.0408 -0.0698 -0.0934
 6553SOL    HW131295   0.265   4.137  14.305  1.7640  1.6490 -2.8192
 6553SOL    HW231296   0.383   4.071  14.355  0.3503 -0.9987 -0.2183
 6554SOL     OW31297   1.022   0.859   2.064  0.0895  1.0957 -0.1261
 6554SOL    HW131298   0.990   0.779   2.020  0.3057  0.8981  0.0791
 6554SOL    HW231299   1.040   0.918   1.991  1.5121 -0.3339 -0.9408
 6555SOL     OW31300   3.000   4.281   8.102 -0.3038 -0.2710  0.3570
 6555SOL    HW131301   2.970   4.217   8.167 -2.6601  3.1119  2.5811
 6555SOL    HW231302   2.922   4.327   8.072  0.5233  1.4035  0.7153
 6556SOL     OW31303   0.095   1.833  11.853 -0.0143 -0.3776  0.2770
 6556SOL    HW131304   0.152   1.826  11.776 -1.4862 -2.4754 -0.6253
 6556SOL    HW231305   0.152   1.875  11.918  0.3404  0.9395 -0.8915
 6557SOL     OW31306   2.419   2.832   4.542  0.6721 -0.2652 -0.0805
 6557SOL    HW131307   2.341   2.802   4.590 -0.3357 -0.7541 -2.0110
 6557SOL    HW231308   2.395   2.898   4.478  1.1963  0.0598  0.0639
 6558SOL     OW31309   2.668   1.372   5.620  0.2185 -0.5238 -0.2480
 6558SOL    HW131310   2.611   1.304   5.585  1.1361 -0.3115 -2.1673
 6558SOL    HW231311   2.682   1.339   5.709  1.3430  0.6100 -0.0025
 6559SOL     OW31312   2.891   4.069  11.322  0.4735 -0.6401  0.2420
 6559SOL    HW131313   2.940   4.151  11.317  0.1450 -0.5037 -0.7970
 6559SOL    HW231314   2.932   4.026  11.397  0.9630  0.4112  0.5771
 6560SOL     OW31315   4.545   1.081   5.328 -0.5108  0.6343  0.2764
 6560SOL    HW131316   4.596   1.130   5.264 -0.1028 -0.0026  0.1096
 6560SOL    HW231317   4.458   1.089   5.290 -0.8560  2.9394  1.5938
 6561SOL     OW31318   3.816   0.172   4.158 -0.1852 -0.2388  0.5504
 6561SOL    HW131319   3.839   0.131   4.074  1.5766  0.3109  0.7592
 6561SOL    HW231320   3.732   0.214   4.140  0.1439  0.2196  0.0606
 6562SOL     OW31321   3.497   2.106   7.005  0.2663 -0.0881  0.1633
 6562SOL    HW131322   3.424   2.155   6.967  1.1730  2.4901  1.7532
 6562SOL    HW231323   3.566   2.088   6.941  0.5874 -2.5968  1.2161
 6563SOL     OW31324   1.018   2.742   4.791  0.1323 -0.6137  0.1345
 6563SOL    HW131325   1.049   2.651   4.790 -0.4924 -0.8448  1.9176
 6563SOL    HW231326   1.075   2.766   4.864 -1.1897  0.1910  0.8844
 6564SOL     OW31327   3.274   1.373   1.663  0.4243  0.6097  0.1034
 6564SOL    HW131328   3.286   1.424   1.583 -1.4235  2.0677  0.7639
 6564SOL    HW231329   3.187   1.339   1.641  0.6007 -0.1010  0.5111
 6565SOL     OW31330   3.655   4.065   5.732  0.3461 -0.1259  0.1776
 6565SOL    HW131331   3.578   4.121   5.729 -0.2787 -0.9738  0.3038
 6565SOL    HW231332   3.622   4.003   5.796  1.1888  1.3674  2.0530
 6566SOL     OW31333   1.728   2.870  16.592  0.3451 -0.4066  0.1104
 6566SOL    HW131334   1.745   2.806  16.523  0.5457 -0.2958  0.0574
 6566SOL    HW231335   1.808   2.881  16.642 -0.2785  0.9070  0.8083
 6567SOL     OW31336   3.945   3.701  16.831  0.2418  0.4739 -0.7665
 6567SOL    HW131337   3.995   3.782  16.818  2.4000 -0.5469  1.2093
 6567SOL    HW231338   3.911   3.682  16.743 -0.6656  0.7881 -0.4779
 6568SOL     OW31339   2.311   1.983   4.785  0.5605 -0.4006  0.8646
 6568SOL    HW131340   2.226   2.021   4.808  0.7604  0.1393  0.7118
 6568SOL    HW231341   2.348   2.067   4.759 -1.7390  0.6717  0.9965
 6569SOL     OW31342   2.966   2.767  12.476  0.2020 -0.2223  0.1258
 6569SOL    HW131343   3.044   2.725  12.512 -1.1132 -1.3690  1.6303
 6569SOL    HW231344   2.968   2.742  12.384  0.9494  2.1103 -0.5038
 6570SOL     OW31345   3.934   4.003   8.056  0.1125 -0.2802  0.3280
 6570SOL    HW131346   3.929   4.097   8.039 -0.2919 -1.0701 -3.7289
 6570SOL    HW231347   3.943   4.001   8.152  1.4656  1.1477  0.2317
 6571SOL     OW31348   2.199   1.964   4.209 -0.1983 -0.9936 -0.3447
 6571SOL    HW131349   2.181   1.920   4.293 -0.6372 -1.8605 -0.8905
 6571SOL    HW231350   2.192   2.054   4.239  1.2716 -1.7713  2.3393
 6572SOL     OW31351   1.652   3.339  15.053 -0.1411 -0.8983  0.1783
 6572SOL    HW131352   1.654   3.434  15.045  0.3355 -0.7110  2.4177
 6572SOL    HW231353   1.708   3.330  15.130 -0.2174 -2.5992  0.0385
 6573SOL     OW31354   2.237   3.385   5.342  0.4304  0.2713  0.4338
 6573SOL    HW131355   2.162   3.442   5.360  0.3829  1.0003 -2.0293
 6573SOL    HW231356   2.227   3.368   5.248  1.5444 -0.3034  0.4151
 6574SOL     OW31357   4.725   0.726   3.409  0.3289 -0.0088  0.1215
 6574SOL    HW131358   4.696   0.755   3.323  0.1017 -0.2016  0.1325
 6574SOL    HW231359   0.077   0.748   3.380 -0.6128  4.2645  0.4681
 6575SOL     OW31360   1.801   2.053   9.483 -0.5693 -0.3379  0.9120
 6575SOL    HW131361   1.773   1.987   9.547 -3.4695  0.2497  0.2186
 6575SOL    HW231362   1.739   2.024   9.416 -0.2136 -1.6897  1.1526
 6576SOL     OW31363   3.194   1.052   5.283 -0.3494  0.2210 -0.2027
 6576SOL    HW131364   3.106   1.015   5.295 -0.0564 -1.0214 -1.9029
 6576SOL    HW231365   3.245   0.972   5.295  1.1046  1.1369 -0.3323
 6577SOL     OW31366   0.453   2.414  11.364 -0.3230 -0.2487 -0.8698
 6577SOL    HW131367   0.452   2.482  11.432  0.9843  1.2571 -2.3526
 6577SOL    HW231368   0.545   2.389  11.369 -0.5016 -0.6378  0.3886
 6578SOL     OW31369   2.953   1.794   4.033  0.2291  0.0824 -0.0191
 6578SOL    HW131370   2.954   1.883   3.998  0.7726 -0.7332 -2.0404
 6578SOL    HW231371   2.862   1.765   4.028 -0.0583  0.9860 -0.0208
 6579SOL     OW31372   2.147   3.901   0.745  0.4510  0.0860 -0.0379
 6579SOL    HW131373   2.219   3.864   0.798  2.4848  1.4642 -1.8293
 6579SOL    HW231374   2.176   3.988   0.717 -1.7673  0.2307 -1.8201
 6580SOL     OW31375   2.651   4.466   6.607  0.4360 -0.1385  0.1457
 6580SOL    HW131376   2.574   4.439   6.557 -1.0370  2.8918  0.8453
 6580SOL    HW231377   2.712   4.392   6.602  1.0672  0.3533  0.5029
 6581SOL     OW31378   1.408   3.416   0.259  0.0130  0.3467  0.0343
 6581SOL    HW131379   1.355   3.349   0.216 -0.0659 -0.4913  1.4595
 6581SOL    HW231380   1.462   3.444   0.185 -1.2727  0.6369 -0.7918
 6582SOL     OW31381   3.280   1.013   8.057 -0.2607  0.7589  0.0719
 6582SOL    HW131382   3.223   1.086   8.034  1.6588  1.8191 -1.3429
 6582SOL    HW231383   3.345   1.058   8.111 -1.2912  1.4451  0.7309
 6583SOL     OW31384   2.877   4.016   6.020  0.0210  0.2262 -0.4439
 6583SOL    HW131385   2.933   3.999   5.943 -0.8175 -4.6233  0.0353
 6583SOL    HW231386   2.847   3.931   6.051 -2.3796  0.8137 -1.1459
 6584SOL     OW31387   3.317   0.724   4.381 -0.3518  0.6105  0.0400
 6584SOL    HW131388   3.229   0.755   4.358  0.2980  1.1024 -1.8067
 6584SOL    HW231389   3.331   0.658   4.314  2.2599 -1.2426  2.4228
 6585SOL     OW31390   1.837   2.335   9.508 -0.0850 -0.2146 -0.0387
 6585SOL    HW131391   1.857   2.242   9.520 -0.0547 -0.4384 -1.9631
 6585SOL    HW231392   1.765   2.345   9.571 -0.1251 -0.1904 -0.0884
 6586SOL     OW31393   2.285   3.499   4.544  0.5582  0.3834  0.2343
 6586SOL    HW131394   2.341   3.575   4.560  1.7243  0.0683 -2.3005
 6586SOL    HW231395   2.257   3.469   4.631 -0.0192 -0.4959 -0.2533
 6587SOL     OW31396   0.988   4.282   3.221  0.3413 -0.2440 -0.2301
 6587SOL    HW131397   0.898   4.249   3.215 -0.1092  1.0119 -0.4857
 6587SOL    HW231398   1.006   4.262   3.313  1.1862 -1.0702 -0.5827
 6588SOL     OW31399   2.453   1.646  17.513 -0.6267  0.1926  0.0494
 6588SOL    HW131400   2.403   1.727  17.520  0.2292  0.9843 -2.6733
 6588SOL    HW231401   2.425   1.619  17.425  1.2852  1.5206 -0.9739
 6589SOL     OW31402   3.890   4.710  12.610 -0.3684 -0.4609  0.5151
 6589SOL    HW131403   3.968   0.022  12.580  0.6378 -1.3619  1.6712
 6589SOL    HW231404   3.933   4.677  12.689  0.4701  0.7676  0.5791
 6590SOL     OW31405   1.656   2.760   2.099  0.0123 -0.1283  0.6172
 6590SOL    HW131406   1.717   2.690   2.077  2.8260  1.7763  2.3125
 6590SOL    HW231407   1.682   2.823   2.031  0.1572 -0.5089  0.3208
 6591SOL     OW31408   2.748   0.072   0.036  0.2289 -0.0509  0.6462
 6591SOL    HW131409   2.698   0.076  17.698 -0.8334  2.2741  1.4052
 6591SOL    HW231410   2.830   0.048  17.735 -0.3128 -1.4646  0.4463
 6592SOL     OW31411   4.438   1.571   6.414 -0.0639 -0.3161  0.4932
 6592SOL    HW131412   4.508   1.605   6.470  2.2830 -1.6686 -1.6356
 6592SOL    HW231413   4.413   1.652   6.370  0.5781  0.3700  1.3722
 6593SOL     OW31414   1.730   4.579   8.080 -0.3113 -0.1681 -0.1191
 6593SOL    HW131415   1.777   4.542   8.005 -0.3039 -2.5572  1.0730
 6593SOL    HW231416   1.752   4.669   8.057 -0.3578 -0.2809 -0.6132
 6594SOL     OW31417   3.440   3.791   2.696  0.2183 -0.6796  0.7205
 6594SOL    HW131418   3.445   3.815   2.603  0.0568 -0.3767  0.7886
 6594SOL    HW231419   3.413   3.875   2.734 -1.7631 -0.6477 -0.7359
 6595SOL     OW31420   0.408   4.128  12.136 -0.1591 -0.2631  0.0974
 6595SOL    HW131421   0.486   4.177  12.162 -0.4650  0.7825 -0.9773
 6595SOL    HW231422   0.344   4.199  12.134 -0.4480 -0.4996  0.8479
 6596SOL     OW31423   2.782   4.479   2.258 -0.4750 -0.4246  0.2043
 6596SOL    HW131424   2.760   4.509   2.345 -0.0761  0.8835 -0.1490
 6596SOL    HW231425   2.851   4.544   2.243  0.1882 -1.2482 -0.3032
 6597SOL     OW31426   0.564   2.633   6.349  0.1892  0.0636  0.0781
 6597SOL    HW131427   0.549   2.635   6.255 -1.2189  3.2221  0.3844
 6597SOL    HW231428   0.628   2.563   6.364 -2.5461 -2.6345 -0.8050
 6598SOL     OW31429   3.774   0.007  14.813  0.0535 -0.3045 -0.4304
 6598SOL    HW131430   3.710   4.678  14.843  0.1231 -0.8451 -1.4604
 6598SOL    HW231431   3.843   0.006  14.880 -0.7234 -1.1475  0.3614
 6599SOL     OW31432   4.149   0.206   6.761  0.1868  0.2997 -0.3158
 6599SOL    HW131433   4.147   0.144   6.834 -2.5438 -0.0551 -0.7234
 6599SOL    HW231434   4.064   0.249   6.762 -0.5659 -1.1805 -1.4013
 6600SOL     OW31435   0.988   1.358   5.956 -0.2041  0.1192  0.3112
 6600SOL    HW131436   1.003   1.281   6.010  2.6477  0.0792 -0.5412
 6600SOL    HW231437   1.011   1.433   6.011 -1.2952 -0.1719  1.1489
 6601SOL     OW31438   0.865   1.412   3.740 -0.2089  0.4992 -0.1816
 6601SOL    HW131439   0.907   1.498   3.730 -0.7757  0.6143 -1.6202
 6601SOL    HW231440   0.781   1.436   3.700  0.4847  0.0941 -1.8612
 6602SOL     OW31441   3.183   4.096   2.108  0.0141  0.4791 -0.5752
 6602SOL    HW131442   3.112   4.075   2.047  0.2743  0.7113 -0.9543
 6602SOL    HW231443   3.149   4.064   2.192  1.5153  1.4872  0.4229
 6603SOL     OW31444   4.169   4.296  12.061  0.3912 -0.6526  0.5397
 6603SOL    HW131445   4.256   4.300  12.021  0.4560 -2.0618  0.5192
 6603SOL    HW231446   4.121   4.306  11.979  0.9436 -1.4464  0.1166
 6604SOL     OW31447   4.245   0.449  13.082  0.6398 -0.3743 -0.3018
 6604SOL    HW131448   4.161   0.456  13.128  1.6305 -2.4495  1.8054
 6604SOL    HW231449   4.273   0.540  13.076  0.8009 -0.4419 -0.5401
 6605SOL     OW31450   3.334   3.908   5.836  0.3239 -0.4295  0.9383
 6605SOL    HW131451   3.330   3.920   5.741 -0.2466 -2.0120  0.7542
 6605SOL    HW231452   3.297   3.994   5.855  0.4687 -0.4978  1.5320
 6606SOL     OW31453   3.774   3.197   7.906 -0.6089  0.1336  0.2071
 6606SOL    HW131454   3.784   3.136   7.979  4.5822  0.5058 -0.1922
 6606SOL    HW231455   3.689   3.170   7.871 -1.2507  2.6239 -0.1713
 6607SOL     OW31456   0.150   2.043   2.155  0.2372 -0.0437 -0.3818
 6607SOL    HW131457   0.063   2.065   2.123 -1.3679 -1.7242  2.8184
 6607SOL    HW231458   0.168   2.132   2.183 -2.6519 -0.3776  2.6013
 6608SOL     OW31459   4.084   1.217  16.067 -0.1502 -0.6839 -0.5073
 6608SOL    HW131460   4.087   1.286  16.133  2.3495 -1.9307  0.6791
 6608SOL    HW231461   4.170   1.174  16.063 -1.0891 -2.5306 -0.5734
 6609SOL     OW31462   2.066   2.562   4.487  0.3007  0.5992  0.3179
 6609SOL    HW131463   2.091   2.633   4.547 -0.9016  3.2551 -2.3002
 6609SOL    HW231464   2.109   2.489   4.531 -2.4571 -1.0295  0.3089
 6610SOL     OW31465   0.800   2.605   7.278  0.5416 -0.0736 -1.1057
 6610SOL    HW131466   0.878   2.604   7.333 -0.3267 -0.4716  0.1273
 6610SOL    HW231467   0.848   2.632   7.200  1.9600 -1.6276 -0.7807
 6611SOL     OW31468   0.720   0.643   9.392 -0.2851  0.2896 -0.2345
 6611SOL    HW131469   0.799   0.692   9.371  0.9108 -1.4614  0.1734
 6611SOL    HW231470   0.660   0.713   9.418 -0.3900 -0.0210  0.3857
 6612SOL     OW31471   4.275   0.205  12.835 -0.4543  0.5898 -0.7523
 6612SOL    HW131472   4.349   0.151  12.861 -0.7104  1.5734  2.0585
 6612SOL    HW231473   4.251   0.149  12.761 -1.6570  0.3488 -0.1753
 6613SOL     OW31474   0.473   0.653   9.915  0.2232 -0.3708 -0.2792
 6613SOL    HW131475   0.524   0.702   9.980  0.3028 -1.1818  0.2757
 6613SOL    HW231476   0.410   0.610   9.972 -1.3629  2.3261  0.0234
 6614SOL     OW31477   1.748   0.555   0.961  0.3176  0.0882 -0.9476
 6614SOL    HW131478   1.784   0.469   0.941  0.0837  0.4057 -2.6780
 6614SOL    HW231479   1.704   0.573   0.878 -1.2157  1.6121  0.1754
 6615SOL     OW31480   1.412   1.380   9.635 -0.2589 -0.0808 -0.1339
 6615SOL    HW131481   1.360   1.458   9.616 -0.9103 -0.7185 -0.9500
 6615SOL    HW231482   1.433   1.355   9.544  1.4734  1.4622 -0.1534
 6616SOL     OW31483   2.150   1.239  12.052  1.0188 -0.5098 -0.2174
 6616SOL    HW131484   2.097   1.279  11.982  0.8633 -0.2163  0.0686
 6616SOL    HW231485   2.171   1.316  12.106 -0.9775  0.2442 -0.5247
 6617SOL     OW31486   1.683   2.624   0.252 -0.1616  0.6007 -0.3126
 6617SOL    HW131487   1.756   2.643   0.193 -0.4185  0.6458 -0.6149
 6617SOL    HW231488   1.727   2.639   0.336 -1.6376  0.1128  0.5511
 6618SOL     OW31489   4.128   4.199   4.146 -0.4300 -0.1331  0.2541
 6618SOL    HW131490   4.213   4.177   4.185  0.2020 -0.8593 -1.5472
 6618SOL    HW231491   4.075   4.203   4.226 -0.6236 -1.0589  0.1731
 6619SOL     OW31492   0.238   3.433   9.061  0.4356  0.4439  0.2305
 6619SOL    HW131493   0.244   3.415   9.155  0.5653  1.6350  0.4497
 6619SOL    HW231494   0.223   3.527   9.062 -1.4873  0.1647 -1.6454
 6620SOL     OW31495   4.176   1.802   8.256 -0.0025  0.1503 -0.0260
 6620SOL    HW131496   4.155   1.872   8.193 -1.5684 -0.4430 -0.1549
 6620SOL    HW231497   4.261   1.842   8.277  0.4093 -0.0489 -1.2652
 6621SOL     OW31498   3.468   4.332  16.964  0.3297  0.3651  0.1289
 6621SOL    HW131499   3.486   4.310  16.873 -1.7380 -2.3025  0.3777
 6621SOL    HW231500   3.507   4.256  17.007 -1.9088 -0.1131  1.3036
 6622SOL     OW31501   2.022   1.665  11.728  0.3139  0.1791 -0.4117
 6622SOL    HW131502   1.997   1.744  11.681 -1.5598  0.5651  1.2198
 6622SOL    HW231503   1.935   1.641  11.760  0.0452 -0.0704 -1.3301
 6623SOL     OW31504   4.066   0.450  17.692  0.0296  0.4505 -0.1878
 6623SOL    HW131505   3.974   0.474  17.686  0.4190  1.8458 -0.4343
 6623SOL    HW231506   4.105   0.514  17.632  2.0642 -0.3423  0.2843
 6624SOL     OW31507   4.183   0.530   6.177 -0.1864 -0.2681  0.0343
 6624SOL    HW131508   4.110   0.491   6.226 -2.6907  1.0797 -2.6334
 6624SOL    HW231509   4.172   0.616   6.218 -0.8215 -0.3475  0.0284
 6625SOL     OW31510   1.612   0.684   7.068 -0.2395 -0.5313 -0.2428
 6625SOL    HW131511   1.558   0.648   6.998 -0.6761 -0.8970  0.2879
 6625SOL    HW231512   1.547   0.664   7.136  1.1695 -0.7478  1.0517
 6626SOL     OW31513   3.010   4.482   7.522 -0.9042 -0.0664  0.6869
 6626SOL    HW131514   2.975   4.448   7.604  0.4642  3.6176  2.7915
 6626SOL    HW231515   3.047   4.401   7.486  0.1714  0.9496 -0.5345
 6627SOL     OW31516   0.726   1.442   2.696 -0.1618 -0.1155 -0.7177
 6627SOL    HW131517   0.688   1.507   2.755  0.9814 -0.1106  0.0045
 6627SOL    HW231518   0.727   1.355   2.734  0.6823  1.0360  1.8772
 6628SOL     OW31519   4.474   4.003   5.767  0.6524 -0.2968 -0.5296
 6628SOL    HW131520   4.461   4.047   5.683  1.5768 -2.7480 -1.9535
 6628SOL    HW231521   4.539   3.937   5.744 -1.2600 -1.4872 -2.3879
 6629SOL     OW31522   1.246   4.444   6.858  0.7632  0.2395 -0.4624
 6629SOL    HW131523   1.284   4.530   6.839  1.3906  0.3898  1.4923
 6629SOL    HW231524   1.319   4.389   6.830  1.5642 -0.4048  2.9460
 6630SOL     OW31525   3.411   0.635  11.678 -0.0979 -0.6364 -0.2386
 6630SOL    HW131526   3.428   0.661  11.768  1.5495  0.5280 -0.8968
 6630SOL    HW231527   3.318   0.654  11.663  0.0349 -1.1718 -1.7297
 6631SOL     OW31528   1.465   3.249  14.655 -0.2698  0.4631  0.4586
 6631SOL    HW131529   1.429   3.193  14.724 -0.9303 -1.8506 -1.7389
 6631SOL    HW231530   1.542   3.201  14.625  0.5713  1.4004  1.1389
 6632SOL     OW31531   2.368   3.742   3.203 -0.0069 -0.1100 -0.5344
 6632SOL    HW131532   2.375   3.791   3.285  1.1900 -0.8570 -0.1908
 6632SOL    HW231533   2.459   3.730   3.175  0.1774  1.9718 -0.7682
 6633SOL     OW31534   1.518   1.405   0.693  0.4679 -0.0556  0.1037
 6633SOL    HW131535   1.565   1.354   0.758  1.0719  0.4406  0.0568
 6633SOL    HW231536   1.556   1.492   0.708  0.2253  0.1778 -0.6251
 6634SOL     OW31537   2.262   2.076   8.646  0.1466 -0.1754  0.5197
 6634SOL    HW131538   2.314   2.118   8.714 -0.7197  0.1760  0.9709
 6634SOL    HW231539   2.269   2.127   8.565 -1.4305  0.0536  0.5252
 6635SOL     OW31540   4.571   2.420   9.968 -0.1798  0.3998  0.1356
 6635SOL    HW131541   4.484   2.402   9.931 -0.3159  1.7724 -0.2157
 6635SOL    HW231542   4.632   2.377   9.908  0.2920  1.0845  0.1206
 6636SOL     OW31543   2.396   3.833   8.298 -0.0112 -0.1916 -0.0454
 6636SOL    HW131544   2.338   3.772   8.343 -1.0543 -1.3598 -2.9609
 6636SOL    HW231545   2.346   3.915   8.302  0.5500  0.1503  0.1171
 6637SOL     OW31546   1.086   2.451   5.451  0.5028  0.3282 -0.7973
 6637SOL    HW131547   1.004   2.418   5.415  0.3269  0.2015 -0.2832
 6637SOL    HW231548   1.124   2.375   5.494  1.2047  1.0967 -0.0531
 6638SOL     OW31549   0.037   2.836   5.407  0.1559 -0.5021 -0.1362
 6638SOL    HW131550   0.013   2.894   5.480  2.7667  0.3022  0.0646
 6638SOL    HW231551   0.028   2.894   5.332  1.9236 -1.9948 -1.4751
 6639SOL     OW31552   1.096   2.886   9.250 -0.3328 -0.6135 -0.3613
 6639SOL    HW131553   1.107   2.800   9.291 -3.0497 -1.0344 -0.4897
 6639SOL    HW231554   1.001   2.899   9.249 -0.3142 -0.4217  0.2739
 6640SOL     OW31555   3.654   1.926  16.054 -0.3044  0.5610  0.0756
 6640SOL    HW131556   3.595   1.982  16.104 -1.4239 -0.8511  0.3440
 6640SOL    HW231557   3.696   1.879  16.126 -2.4052  0.9868  1.5974
 6641SOL     OW31558   1.791   1.091  17.617 -0.1448  0.1148 -0.1479
 6641SOL    HW131559   1.835   1.010  17.639  1.0024  0.6390 -0.5249
 6641SOL    HW231560   1.869   1.145  17.631 -0.9158  0.9793  0.8618
 6642SOL     OW31561   1.617   1.220   5.155  0.7510  0.0138  0.1616
 6642SOL    HW131562   1.567   1.300   5.169  2.2283  0.7696  1.0952
 6642SOL    HW231563   1.655   1.201   5.241 -0.1134 -1.9523  0.1114
 6643SOL     OW31564   0.040   1.091  10.011  0.1904  0.2562 -0.0073
 6643SOL    HW131565   4.723   1.060  10.084  1.7053 -1.4711  0.3522
 6643SOL    HW231566   0.105   1.021  10.006  0.8401  0.7864  0.8517
 6644SOL     OW31567   1.599   3.377  16.398  0.2463  0.2461 -0.1114
 6644SOL    HW131568   1.576   3.314  16.466 -0.5394  1.0753  0.3945
 6644SOL    HW231569   1.691   3.390  16.418  0.0073  2.3501 -0.3798
 6645SOL     OW31570   1.552   3.981   8.960 -0.0552  0.2794 -0.0559
 6645SOL    HW131571   1.559   3.891   8.992  0.0023  0.3164  0.0317
 6645SOL    HW231572   1.632   4.009   9.004 -0.3513 -1.6421  1.6980
 6646SOL     OW31573   3.359   0.646   7.179  0.0662 -0.2390 -0.2711
 6646SOL    HW131574   3.280   0.695   7.201 -0.9327 -1.3071 -1.4692
 6646SOL    HW231575   3.404   0.719   7.137  0.5476 -0.5184 -0.2428
 6647SOL     OW31576   2.741   3.510   9.246  0.6628 -0.4668 -0.2540
 6647SOL    HW131577   2.807   3.458   9.201 -1.3062 -2.1343 -1.2173
 6647SOL    HW231578   2.664   3.508   9.189  1.3225  0.5987 -1.1888
 6648SOL     OW31579   1.331   4.452   5.847 -0.8009 -0.3301 -0.3243
 6648SOL    HW131580   1.288   4.511   5.784 -3.3421 -0.8100  0.9607
 6648SOL    HW231581   1.265   4.383   5.857 -0.8035 -0.2620  0.1136
 6649SOL     OW31582   0.389   4.017   7.909 -0.0164  0.0880 -0.4109
 6649SOL    HW131583   0.455   3.980   7.968 -2.6993 -1.9200  1.2999
 6649SOL    HW231584   0.310   4.000   7.960 -0.1254  0.6458 -0.3845
 6650SOL     OW31585   2.934   1.958   4.497  0.5324  0.3161 -0.4399
 6650SOL    HW131586   2.966   1.911   4.419  1.0030 -0.9827  0.5397
 6650SOL    HW231587   2.842   1.934   4.493  0.5584  0.5390 -2.5024
 6651SOL     OW31588   3.838   4.550   4.045  0.4902 -0.0546  0.0831
 6651SOL    HW131589   3.855   4.483   3.980 -0.9322 -0.2681 -0.0814
 6651SOL    HW231590   3.925   4.579   4.071  0.2939  2.1395 -1.7096
 6652SOL     OW31591   1.311   0.586   3.245  0.0681  0.7096  0.6699
 6652SOL    HW131592   1.330   0.498   3.280  0.5133 -0.2591 -1.9512
 6652SOL    HW231593   1.244   0.620   3.303 -1.1251  0.6661 -0.6867
 6653SOL     OW31594   0.235   3.406  12.948 -0.1355  0.0085 -0.4779
 6653SOL    HW131595   0.263   3.315  12.953  0.7144  0.3724  1.3453
 6653SOL    HW231596   0.285   3.449  13.018 -0.9998 -0.1778  0.2431
 6654SOL     OW31597   1.163   3.042   4.747  0.3848  0.1608  0.3685
 6654SOL    HW131598   1.182   3.056   4.840  1.6357  2.3065 -0.2230
 6654SOL    HW231599   1.108   2.964   4.749  2.8054 -1.5332  1.3267
 6655SOL     OW31600   0.727   4.362   0.877 -0.0978 -0.1665  0.2853
 6655SOL    HW131601   0.636   4.339   0.859 -0.2713  0.9867 -0.3102
 6655SOL    HW231602   0.744   4.426   0.807 -0.1940 -0.1925  0.2384
 6656SOL     OW31603   2.067   0.324   5.638  0.7804 -0.2119 -0.7217
 6656SOL    HW131604   2.107   0.409   5.655 -0.1722  0.4384 -1.7707
 6656SOL    HW231605   2.145   0.273   5.617  0.4677 -0.3543 -1.5045
 6657SOL     OW31606   0.038   3.274  13.504 -0.2522 -0.1567 -0.3136
 6657SOL    HW131607   0.034   3.229  13.588  1.9727  1.7640  0.8426
 6657SOL    HW231608   4.720   3.351  13.522 -0.3197 -0.3281  0.1936
 6658SOL     OW31609   1.298   4.118   0.943  0.6483  0.3504  0.3992
 6658SOL    HW131610   1.392   4.134   0.933  1.0282 -1.0750  1.6585
 6658SOL    HW231611   1.276   4.126   0.850  0.8429 -0.1700  0.3076
 6659SOL     OW31612   3.007   0.469  11.764  0.0147 -0.0014 -0.2517
 6659SOL    HW131613   3.059   0.427  11.831  1.7320  1.4549 -0.6779
 6659SOL    HW231614   2.992   0.397  11.702 -2.0985  0.0568  0.1790
 6660SOL     OW31615   3.138   3.267   2.857 -0.1748  0.1180 -0.1433
 6660SOL    HW131616   3.187   3.316   2.790  1.9769 -0.5855  0.9068
 6660SOL    HW231617   3.120   3.179   2.824  2.7134 -0.0811 -1.2318
 6661SOL     OW31618   1.913   1.950   0.880 -0.2113 -0.3398  0.1277
 6661SOL    HW131619   1.847   1.922   0.943  0.7062  0.3855  1.4007
 6661SOL    HW231620   1.997   1.912   0.907 -0.2727  0.9445  2.1189
 6662SOL     OW31621   4.459   3.047   2.698  0.2278  0.0424  0.0292
 6662SOL    HW131622   4.468   2.958   2.730  1.3624  1.1169  2.6838
 6662SOL    HW231623   4.507   3.094   2.766 -0.8321  1.1290  0.0385
 6663SOL     OW31624   2.304   3.238   4.204  0.7845 -0.3473  0.4369
 6663SOL    HW131625   2.225   3.233   4.150 -0.8274  0.4774  2.7407
 6663SOL    HW231626   2.311   3.330   4.230 -1.1976  0.4855 -1.9702
 6664SOL     OW31627   4.728   2.779  13.226 -0.2933 -0.4069 -0.2407
 6664SOL    HW131628   0.076   2.794  13.182 -0.1530  1.2589  0.6182
 6664SOL    HW231629   4.730   2.843  13.297  1.4842 -0.9145  0.1716
 6665SOL     OW31630   4.342   2.634  16.496  0.5904  0.5620 -0.6618
 6665SOL    HW131631   4.341   2.682  16.413 -2.4568 -1.4846 -1.8228
 6665SOL    HW231632   4.428   2.592  16.490 -0.1110 -1.3238  3.2395
 6666SOL     OW31633   1.866   0.776   8.247 -0.5613 -0.7466 -0.8597
 6666SOL    HW131634   1.866   0.752   8.340  1.3897 -0.9017 -0.8905
 6666SOL    HW231635   1.844   0.868   8.262 -1.1115 -1.1315  0.7070
 6667SOL     OW31636   4.149   4.263   2.762 -0.6273  0.0333  0.0827
 6667SOL    HW131637   4.238   4.287   2.738 -0.5721 -0.1788  0.0819
 6667SOL    HW231638   4.128   4.311   2.843  1.6928 -1.1745  1.3893
 6668SOL     OW31639   0.714   0.199   8.265 -0.3565 -0.1098  0.5503
 6668SOL    HW131640   0.727   0.112   8.303  2.7062 -0.9665 -2.5060
 6668SOL    HW231641   0.687   0.174   8.176 -1.1871 -0.4421  0.8971
 6669SOL     OW31642   0.538   4.308   1.804 -0.3921  0.5460 -0.5088
 6669SOL    HW131643   0.477   4.272   1.739  1.7721 -0.7686 -1.8092
 6669SOL    HW231644   0.594   4.357   1.744 -0.2353 -0.5079 -1.2249
 6670SOL     OW31645   4.691   2.980   4.092  0.5677 -0.0418  0.3321
 6670SOL    HW131646   4.689   2.964   3.998  0.9970  2.7535 -0.1721
 6670SOL    HW231647   0.044   2.948   4.105  0.2267 -0.3383  1.8485
 6671SOL     OW31648   4.395   4.145   1.108  0.2202  0.2956 -0.5526
 6671SOL    HW131649   4.405   4.224   1.054 -1.2510 -0.0953 -1.4015
 6671SOL    HW231650   4.460   4.161   1.176 -1.4501  0.3079  1.0133
 6672SOL     OW31651   2.279   0.681   9.367 -0.2617  0.1644 -0.5086
 6672SOL    HW131652   2.210   0.700   9.303 -1.9815 -2.6675  0.5368
 6672SOL    HW231653   2.269   0.604   9.422 -1.6291 -0.1719 -1.2358
 6673SOL     OW31654   0.905   3.337   8.821  0.0603  0.1703  0.2932
 6673SOL    HW131655   0.819   3.296   8.833 -0.8618  1.3499 -2.0896
 6673SOL    HW231656   0.880   3.427   8.842 -0.4575 -0.3430  1.8952
 6674SOL     OW31657   1.300   2.228   4.769 -0.9287 -0.4621 -0.4748
 6674SOL    HW131658   1.385   2.198   4.739  0.2059  0.6619  1.6295
 6674SOL    HW231659   1.298   2.185   4.854  0.3191  2.3716  0.9945
 6675SOL     OW31660   2.530   4.481   5.551  0.0102 -0.0156 -0.0498
 6675SOL    HW131661   2.496   4.392   5.547  1.8997 -0.8762  2.7765
 6675SOL    HW231662   2.602   4.473   5.489  1.5730  2.7582  1.3492
 6676SOL     OW31663   3.792   2.514   0.654 -0.0100 -0.1598 -0.1637
 6676SOL    HW131664   3.837   2.552   0.579  3.9413 -2.2652  1.1825
 6676SOL    HW231665   3.725   2.456   0.615  0.6284  0.8005 -2.6684
 6677SOL     OW31666   1.801   3.865   8.101  0.6646  0.8700  0.1684
 6677SOL    HW131667   1.822   3.831   8.188 -0.2634 -2.4223 -0.8759
 6677SOL    HW231668   1.837   3.788   8.056  0.3141  0.1175  1.1717
 6678SOL     OW31669   3.335   1.183  12.390 -0.2745 -0.1745 -0.0830
 6678SOL    HW131670   3.259   1.144  12.348  0.7264 -2.9993  0.7620
 6678SOL    HW231671   3.295   1.216  12.471  1.1007 -2.9752  1.7666
 6679SOL     OW31672   3.655   3.168   5.391 -0.0323  0.3010  0.6200
 6679SOL    HW131673   3.740   3.183   5.350 -1.0452 -0.7628 -1.8474
 6679SOL    HW231674   3.679   3.124   5.473  2.2814  0.9815  0.3128
 6680SOL     OW31675   2.662   3.502   4.140 -0.0337  0.2858 -0.2658
 6680SOL    HW131676   2.648   3.533   4.229 -0.2460  0.8446 -0.4864
 6680SOL    HW231677   2.622   3.574   4.090  1.1641  0.2830 -1.2321
 6681SOL     OW31678   0.210   3.836   9.407 -0.5523  0.2379  0.4484
 6681SOL    HW131679   0.162   3.763   9.446 -1.0070 -0.3689 -1.2739
 6681SOL    HW231680   0.144   3.872   9.348  1.1290 -1.3467 -2.4060
 6682SOL     OW31681   3.931   3.820   6.064  0.2313 -0.0247  0.6459
 6682SOL    HW131682   3.965   3.800   5.977 -1.5012 -1.7521  0.3672
 6682SOL    HW231683   4.001   3.873   6.101  3.7954 -3.4086 -1.2657
 6683SOL     OW31684   2.501   1.736  17.140 -0.6610  0.0006  0.2526
 6683SOL    HW131685   2.540   1.651  17.160  0.3588  0.4426  0.1250
 6683SOL    HW231686   2.568   1.797  17.170  0.5159 -2.1777  1.9937
 6684SOL     OW31687   3.773   2.211  13.919 -0.4127  0.5444 -0.6421
 6684SOL    HW131688   3.768   2.182  14.010  1.4721 -1.4808 -1.1968
 6684SOL    HW231689   3.815   2.297  13.925  1.0919 -0.0496 -3.0537
 6685SOL     OW31690   3.973   3.156   1.704  0.3295 -0.3271  0.2286
 6685SOL    HW131691   3.988   3.225   1.639  0.6923  2.0538  2.8782
 6685SOL    HW231692   4.003   3.193   1.787  2.2275 -0.0396 -0.5918
 6686SOL     OW31693   0.883   4.436  14.911  0.0326 -0.0131 -0.5104
 6686SOL    HW131694   0.821   4.508  14.922 -0.6631 -0.5016 -1.2969
 6686SOL    HW231695   0.884   4.432  14.816 -1.1835  2.4674 -0.6522
 6687SOL     OW31696   1.025   0.814  14.122  0.0259  0.3214 -0.0383
 6687SOL    HW131697   1.074   0.818  14.040 -0.7070 -0.9927 -0.5386
 6687SOL    HW231698   0.947   0.767  14.092  1.1522  0.1694 -2.6929
 6688SOL     OW31699   0.033   0.123   8.444  0.1316 -1.1292 -0.1422
 6688SOL    HW131700   0.107   0.072   8.476  0.1701 -0.9995 -0.0235
 6688SOL    HW231701   4.695   0.063   8.454  0.2275 -1.4131 -1.1168
 6689SOL     OW31702   2.394   0.692   3.870 -0.3094 -0.0303 -0.3514
 6689SOL    HW131703   2.325   0.667   3.809  0.3094 -1.2095 -0.5691
 6689SOL    HW231704   2.352   0.739   3.942 -1.8925  0.3076 -1.5020
 6690SOL     OW31705   1.595   1.707   4.978  0.4536 -0.5475  0.4856
 6690SOL    HW131706   1.524   1.688   4.917  1.6305  0.6922 -1.2581
 6690SOL    HW231707   1.599   1.797   4.944  0.9996 -1.1338 -1.0252
 6691SOL     OW31708   0.447   0.013   7.834  0.0839 -0.0414  0.1733
 6691SOL    HW131709   0.381   0.046   7.773  0.5183  2.9830  1.3637
 6691SOL    HW231710   0.428   4.655   7.837  0.0761 -0.0744 -0.8327
 6692SOL     OW31711   4.420   3.495  10.026  0.5521 -0.2987  0.3730
 6692SOL    HW131712   4.333   3.470   9.996  0.3865 -1.1727  1.5780
 6692SOL    HW231713   4.405   3.488  10.121 -1.6606 -3.5597 -0.2270
 6693SOL     OW31714   1.261   2.027   7.276 -0.3331 -0.2987  0.1105
 6693SOL    HW131715   1.336   2.017   7.217 -1.3944 -0.3575 -1.2276
 6693SOL    HW231716   1.293   1.996   7.361  0.7094  1.7847  0.4836
 6694SOL     OW31717   2.540   0.615  13.605 -0.2496 -0.1690 -0.8161
 6694SOL    HW131718   2.580   0.636  13.521  2.0798  3.2805  1.1383
 6694SOL    HW231719   2.495   0.698  13.622  1.5295  0.5814  0.2680
 6695SOL     OW31720   0.909   1.862   2.233 -0.3640  0.1318  0.4581
 6695SOL    HW131721   0.938   1.832   2.146 -0.3973 -1.7186  1.0836
 6695SOL    HW231722   0.853   1.787   2.251 -0.0756 -0.1716  0.1104
 6696SOL     OW31723   1.950   2.242  10.212  0.3101  0.4561 -0.3608
 6696SOL    HW131724   1.930   2.301  10.139 -0.2094  0.2376 -0.3953
 6696SOL    HW231725   1.874   2.186  10.227 -2.5016  4.2428 -0.2965
 6697SOL     OW31726   4.544   4.488  16.987  0.1401 -0.2884 -0.8803
 6697SOL    HW131727   4.515   4.397  16.985  3.9938 -1.4934 -2.1056
 6697SOL    HW231728   4.511   4.527  16.906 -0.5551  3.3611  1.1638
 6698SOL     OW31729   0.477   0.638   3.169  0.2243  0.4620  0.2164
 6698SOL    HW131730   0.544   0.698   3.201  0.6416  1.0570 -1.7966
 6698SOL    HW231731   0.503   0.647   3.078 -0.7743  0.9631 -0.0162
 6699SOL     OW31732   2.169   2.386   4.686 -0.8483  0.2767  0.5740
 6699SOL    HW131733   2.136   2.393   4.775 -0.4734  0.3514  0.7060
 6699SOL    HW231734   2.261   2.361   4.696 -0.8898  0.7063  1.9662
 6700SOL     OW31735   2.031   0.977   5.456 -0.0192 -0.5460  0.2303
 6700SOL    HW131736   1.986   0.928   5.387 -1.6532  1.7915 -0.3873
 6700SOL    HW231737   2.121   0.948   5.439 -0.7416 -1.6642 -1.6811
 6701SOL     OW31738   3.569   0.757   5.489 -0.2319  0.2535  0.6963
 6701SOL    HW131739   3.606   0.765   5.401  0.0891 -1.2220  0.6853
 6701SOL    HW231740   3.482   0.788   5.466 -0.6318 -0.4689  1.2105
 6702SOL     OW31741   4.391   1.711   2.513 -0.0490 -0.0655  0.0783
 6702SOL    HW131742   4.345   1.794   2.500 -1.2572 -0.5444  1.2845
 6702SOL    HW231743   4.336   1.658   2.456 -2.6079  2.9609 -0.2541
 6703SOL     OW31744   3.355   0.374   7.266 -0.1875 -0.5675 -0.6859
 6703SOL    HW131745   3.265   0.372   7.234 -0.4761  0.5974  0.0604
 6703SOL    HW231746   3.386   0.454   7.224  0.3133 -0.5280 -0.2358
 6704SOL     OW31747   3.128   1.317   4.505  0.0050 -0.4219 -0.0490
 6704SOL    HW131748   3.129   1.257   4.431 -0.6316 -0.5843  0.0704
 6704SOL    HW231749   3.218   1.345   4.516  0.4703 -1.1904 -2.0373
 6705SOL     OW31750   4.552   2.237   4.428  0.3532  0.6802 -0.0682
 6705SOL    HW131751   4.496   2.162   4.410  0.7578  0.7125 -1.4447
 6705SOL    HW231752   4.494   2.287   4.484 -0.6289 -1.0153  0.4182
 6706SOL     OW31753   2.267   0.063   5.824  0.0256  0.2376 -0.1195
 6706SOL    HW131754   2.321   0.009   5.766  1.0096  0.2447  0.7816
 6706SOL    HW231755   2.180   0.026   5.814  0.5066 -1.0039  0.3542
 6707SOL     OW31756   2.296   2.324   2.193  0.5539 -0.6784  0.0526
 6707SOL    HW131757   2.338   2.362   2.269  0.8524  1.1441 -1.0290
 6707SOL    HW231758   2.301   2.395   2.129  0.1378 -1.5123 -0.9234
 6708SOL     OW31759   4.411   1.767   2.777  0.4786 -0.2379 -0.7528
 6708SOL    HW131760   4.418   1.737   2.686  1.7182 -1.7778 -0.1553
 6708SOL    HW231761   4.484   1.828   2.773  1.2342 -0.9154  2.6967
 6709SOL     OW31762   2.600   1.248  16.901  0.2818  0.1483 -0.5295
 6709SOL    HW131763   2.539   1.191  16.853 -0.2995  0.2895  0.0490
 6709SOL    HW231764   2.647   1.293  16.831  1.9045 -0.7964 -0.0468
 6710SOL     OW31765   0.562   3.133   1.248  0.0597 -0.3333  0.1301
 6710SOL    HW131766   0.556   3.191   1.324 -0.3722  0.5135 -0.5468
 6710SOL    HW231767   0.600   3.056   1.288  2.3540  1.5561  1.5637
 6711SOL     OW31768   1.420   0.196   4.727 -0.6135  0.5102 -0.2957
 6711SOL    HW131769   1.412   0.221   4.635  1.6744 -0.1098 -0.6672
 6711SOL    HW231770   1.500   0.246   4.742 -0.5598  0.1531  0.6276
 6712SOL     OW31771   0.151   4.553   7.536  0.0450 -0.2968 -0.0904
 6712SOL    HW131772   0.133   4.507   7.454 -1.8265  2.3250 -1.1575
 6712SOL    HW231773   0.101   4.631   7.513 -0.8101 -1.5687 -2.5468
 6713SOL     OW31774   2.733   2.677   2.332  0.3049 -0.7857 -0.5685
 6713SOL    HW131775   2.685   2.757   2.353 -3.0567 -2.5218 -1.5782
 6713SOL    HW231776   2.813   2.694   2.382 -1.8609  2.0770  1.9270
 6714SOL     OW31777   2.565   0.861   5.099 -0.1938 -0.5567  0.3143
 6714SOL    HW131778   2.570   0.924   5.171  0.4163  0.6489 -0.7626
 6714SOL    HW231779   2.611   0.905   5.027 -2.2353 -0.5226 -0.9731
 6715SOL     OW31780   1.699   4.679   2.607 -0.2023 -0.2370 -0.3852
 6715SOL    HW131781   1.789   4.698   2.636 -0.2177 -2.1756  0.9513
 6715SOL    HW231782   1.685   4.590   2.639  1.4410 -0.6812 -0.9059
 6716SOL     OW31783   4.611   0.593   3.978 -0.3483 -0.2685  0.3356
 6716SOL    HW131784   4.605   0.542   4.058 -0.5433  0.7198  0.9534
 6716SOL    HW231785   4.586   0.677   4.018 -0.2532 -0.8586  1.6249
 6717SOL     OW31786   1.291   0.471   9.077  0.3334 -0.0020 -0.1214
 6717SOL    HW131787   1.222   0.491   9.141  1.9083  2.4789  0.7847
 6717SOL    HW231788   1.321   0.385   9.103  0.4244  0.0222 -0.1479
 6718SOL     OW31789   2.029   3.832   2.857 -0.0452 -0.3902 -0.0380
 6718SOL    HW131790   1.993   3.873   2.936 -2.2748  0.6260 -1.5983
 6718SOL    HW231791   2.120   3.815   2.883  0.3477  0.2723 -0.9928
 6719SOL     OW31792   1.055   0.362  17.542  0.1979 -0.5374 -0.2206
 6719SOL    HW131793   0.972   0.334  17.580  0.6544 -0.5011  0.8183
 6719SOL    HW231794   1.114   0.289  17.562  2.0343  0.9869 -0.0125
 6720SOL     OW31795   4.628   2.404   3.596 -0.3090  0.1569 -0.5209
 6720SOL    HW131796   4.545   2.440   3.626 -2.2773 -3.8541 -1.2010
 6720SOL    HW231797   4.618   2.423   3.503  0.3911 -2.7760 -1.1863
 6721SOL     OW31798   2.246   1.627   4.384 -0.5461 -0.3356  0.6086
 6721SOL    HW131799   2.258   1.644   4.290 -0.7312  0.0905  0.6619
 6721SOL    HW231800   2.334   1.638   4.419 -0.6153 -0.4696  0.8247
 6722SOL     OW31801   2.472   0.114  17.682 -0.3600  0.2984  0.0090
 6722SOL    HW131802   2.461   0.207  17.702  0.3826  0.6530 -1.2262
 6722SOL    HW231803   2.512   0.107  17.595 -0.2568  1.0332 -0.0093
 6723SOL     OW31804   3.736   1.371   2.109  0.2767  0.6599 -0.3858
 6723SOL    HW131805   3.691   1.317   2.044 -0.8321 -0.4976  1.3595
 6723SOL    HW231806   3.698   1.340   2.191 -0.5451  1.8024 -0.3381
 6724SOL     OW31807   3.326   3.905  16.082  0.4871 -0.0246  0.4763
 6724SOL    HW131808   3.323   3.907  15.986 -0.9384  0.1599  0.5302
 6724SOL    HW231809   3.235   3.909  16.111  0.0532 -1.5725 -0.6749
 6725SOL     OW31810   4.154   1.581   1.604 -0.6445 -0.1813  0.1889
 6725SOL    HW131811   4.105   1.498   1.603 -1.5298  0.3720 -2.1277
 6725SOL    HW231812   4.091   1.637   1.558  2.4847  0.4117 -3.3502
 6726SOL     OW31813   2.056   1.959   7.427 -0.0803  0.0034 -0.4571
 6726SOL    HW131814   1.979   1.928   7.380  0.2907 -0.7883 -0.5535
 6726SOL    HW231815   2.115   1.883   7.427 -0.4824 -0.3125  2.5445
 6727SOL     OW31816   0.522   0.978   6.439  0.3147  0.6557 -0.2958
 6727SOL    HW131817   0.479   1.052   6.396  0.9387 -0.0014 -2.0353
 6727SOL    HW231818   0.466   0.903   6.423  0.4541  1.0037 -2.3643
 6728SOL     OW31819   4.700   3.739   4.359  0.0635 -0.1404  0.0130
 6728SOL    HW131820   4.700   3.832   4.380  0.1094  0.2465 -1.7110
 6728SOL    HW231821   4.641   3.695   4.421  0.8847 -0.6606  0.4196
 6729SOL     OW31822   1.710   4.275  16.175  0.3068  0.4001  0.6801
 6729SOL    HW131823   1.731   4.255  16.084 -1.7159  0.6014  0.1867
 6729SOL    HW231824   1.767   4.349  16.193  0.2312  0.1975  1.7856
 6730SOL     OW31825   1.378   2.237   8.256  0.3909  0.0817 -0.0874
 6730SOL    HW131826   1.345   2.307   8.200  1.0446  0.9528  0.6116
 6730SOL    HW231827   1.456   2.206   8.211 -0.7504  0.0688 -2.0420
 6731SOL     OW31828   4.613   2.040   6.049  0.0169  0.3018 -0.6526
 6731SOL    HW131829   4.665   2.068   5.973 -1.4683 -0.5521 -1.9872
 6731SOL    HW231830   4.644   2.101   6.115 -0.5540 -0.2491  0.1232
 6732SOL     OW31831   4.672   1.277   7.604  0.3922  0.4673  0.1854
 6732SOL    HW131832   0.006   1.217   7.629 -0.3342 -0.3335  0.2741
 6732SOL    HW231833   4.653   1.239   7.518  0.2646  0.2254  0.3224
 6733SOL     OW31834   2.432   3.365   1.491 -0.5194 -0.3249  0.6810
 6733SOL    HW131835   2.389   3.445   1.460 -1.9203 -0.4769  2.2054
 6733SOL    HW231836   2.447   3.391   1.582  2.7520 -1.6457  0.5071
 6734SOL     OW31837   3.843   4.619   2.067  0.1941 -0.6432  0.0839
 6734SOL    HW131838   3.761   4.665   2.088  0.4827  0.1761 -0.6208
 6734SOL    HW231839   3.911   4.677   2.102  0.9617 -0.3149 -1.9907
 6735SOL     OW31840   1.766   2.665   3.755  0.1025  0.0020 -0.3150
 6735SOL    HW131841   1.846   2.671   3.702  0.5082  0.1079  0.3018
 6735SOL    HW231842   1.806   2.647   3.841 -0.8122  0.9199  0.3103
 6736SOL     OW31843   0.284   2.501   7.373 -0.6049  0.6410  0.1286
 6736SOL    HW131844   0.268   2.456   7.291  1.4000  0.4817 -0.1561
 6736SOL    HW231845   0.359   2.558   7.357 -0.0839  0.0921  0.6273
 6737SOL     OW31846   2.359   0.752   4.577 -0.4568  0.5576 -0.3149
 6737SOL    HW131847   2.353   0.813   4.503  2.2420 -0.4622 -1.3456
 6737SOL    HW231848   2.388   0.812   4.646 -1.1360  1.1191 -0.5157
 6738SOL     OW31849   2.601   0.953   3.602  0.4328 -0.6370  0.2408
 6738SOL    HW131850   2.558   0.875   3.566 -1.0847  0.7749 -0.9959
 6738SOL    HW231851   2.604   1.011   3.526 -0.5798 -1.2681 -0.2785
 6739SOL     OW31852   2.935   2.562  17.416  0.5776  0.2636  0.0043
 6739SOL    HW131853   2.847   2.578  17.381 -0.1852 -1.3529  1.1552
 6739SOL    HW231854   2.928   2.565  17.511  0.4778 -0.1906  0.0138
 6740SOL     OW31855   2.969   2.127   1.315  0.5469  0.3868 -0.5743
 6740SOL    HW131856   3.001   2.209   1.353 -1.5671  0.3857  1.1589
 6740SOL    HW231857   2.919   2.170   1.245 -1.0889 -1.8823 -0.8007
 6741SOL     OW31858   2.658   1.867   6.853 -0.0066  0.3055  0.7557
 6741SOL    HW131859   2.581   1.860   6.910  1.5319 -0.6289  2.6797
 6741SOL    HW231860   2.684   1.956   6.878 -1.9346  0.6910  1.4045
 6742SOL     OW31861   1.513   1.463   4.697  0.1933  0.1187  0.2808
 6742SOL    HW131862   1.489   1.463   4.605 -0.5566 -0.6472  0.4825
 6742SOL    HW231863   1.587   1.403   4.706 -0.8096 -1.5119 -2.4526
 6743SOL     OW31864   0.319   3.387  11.203 -0.0311 -0.1642  0.2936
 6743SOL    HW131865   0.225   3.382  11.184 -0.2335 -0.4312  1.3389
 6743SOL    HW231866   0.337   3.294  11.192  2.0628  0.4298 -1.2157
 6744SOL     OW31867   0.760   0.119   3.571  0.1072 -0.0705  0.4115
 6744SOL    HW131868   0.690   0.148   3.513  1.2866  1.2278 -0.3605
 6744SOL    HW231869   0.765   0.198   3.626 -0.3201  0.8542 -0.8687
 6745SOL     OW31870   2.531   3.980  11.575  0.0819  0.1604  0.7633
 6745SOL    HW131871   2.563   4.036  11.645  1.9303  0.5207 -0.3590
 6745SOL    HW231872   2.610   3.927  11.569  0.6115  0.9665  0.6622
 6746SOL     OW31873   4.132   4.210   7.821  0.4056  0.3721 -0.1852
 6746SOL    HW131874   4.044   4.210   7.859  0.1493  2.4646 -0.7454
 6746SOL    HW231875   4.131   4.134   7.763  1.3087 -0.1089  0.4382
 6747SOL     OW31876   0.696   1.471   9.370  0.6582  0.1933 -0.1784
 6747SOL    HW131877   0.690   1.416   9.448  0.3963  0.3942 -0.0591
 6747SOL    HW231878   0.605   1.498   9.370  0.6304  0.0608  3.4588
 6748SOL     OW31879   0.820   0.423  10.312  0.4769  0.3389 -0.8058
 6748SOL    HW131880   0.729   0.453  10.304  0.5996  0.6212 -1.1277
 6748SOL    HW231881   0.863   0.508  10.301  0.1885  0.6437  0.3337
 6749SOL     OW31882   4.151   2.367  13.634  0.2816  0.1503  1.1208
 6749SOL    HW131883   4.143   2.459  13.659 -0.9725 -0.1354  1.7841
 6749SOL    HW231884   4.173   2.367  13.541 -1.0014  1.1621  0.8209
 6750SOL     OW31885   2.145   1.563   3.842  0.0498  0.0030 -0.3394
 6750SOL    HW131886   2.113   1.473   3.848 -1.8754  0.5934 -1.9675
 6750SOL    HW231887   2.072   1.618   3.870 -0.2508 -0.3754 -0.3880
 6751SOL     OW31888   3.580   1.396   6.306  0.1684  0.1292  0.0147
 6751SOL    HW131889   3.671   1.425   6.306  1.1162 -2.8538  2.1990
 6751SOL    HW231890   3.554   1.410   6.397 -0.6819 -0.4523 -0.1433
 6752SOL     OW31891   2.944   2.111  17.034  0.2028  0.1317 -0.0651
 6752SOL    HW131892   3.025   2.059  17.029  0.1601  0.0499  0.1113
 6752SOL    HW231893   2.954   2.165  16.955  1.7340  0.2039  0.1711
 6753SOL     OW31894   4.628   1.871   0.583  0.2669 -0.5382 -0.1735
 6753SOL    HW131895   4.534   1.859   0.593  0.1483  0.0314 -0.6195
 6753SOL    HW231896   4.630   1.965   0.604  2.0682 -0.3007 -1.3693
 6754SOL     OW31897   4.156   0.376   8.102  0.2067 -0.4098 -0.6388
 6754SOL    HW131898   4.139   0.304   8.162  1.3533  1.2050  1.6070
 6754SOL    HW231899   4.069   0.383   8.062  0.1429  1.2499 -0.2121
 6755SOL     OW31900   3.518   4.436   6.804 -0.1680 -0.2877 -0.5128
 6755SOL    HW131901   3.440   4.472   6.762  0.4737 -1.1029 -2.4167
 6755SOL    HW231902   3.486   4.427   6.893  2.2244  0.3653  0.4073
 6756SOL     OW31903   4.266   3.267  14.675  0.1073 -0.5397  0.1876
 6756SOL    HW131904   4.216   3.220  14.607 -1.0853  0.1723  0.5806
 6756SOL    HW231905   4.190   3.265  14.733 -0.3951  3.0016 -0.3394
 6757SOL     OW31906   0.525   3.718   3.753  0.4105 -0.1348 -0.1717
 6757SOL    HW131907   0.501   3.810   3.763  1.7497  0.0065  1.7128
 6757SOL    HW231908   0.596   3.720   3.817 -0.8011 -0.5702  1.2025
 6758SOL     OW31909   2.252   0.845   5.113  0.1883 -0.5682 -0.2141
 6758SOL    HW131910   2.334   0.850   5.064 -1.0016  1.2244 -2.0266
 6758SOL    HW231911   2.260   0.765   5.165  3.0290 -0.1611  0.0065
 6759SOL     OW31912   0.497   1.519   6.392 -0.7147  0.2650 -0.5176
 6759SOL    HW131913   0.503   1.482   6.480 -0.4151  1.8125  0.1143
 6759SOL    HW231914   0.567   1.585   6.396 -0.9302  0.3089  2.7602
 6760SOL     OW31915   4.049   3.809  12.351  0.1583 -0.4987 -0.1492
 6760SOL    HW131916   3.968   3.775  12.314 -0.3219  1.0885 -0.5817
 6760SOL    HW231917   4.077   3.861  12.276  0.9244  0.6811  0.9449
 6761SOL     OW31918   2.585   1.267   6.146  0.1837 -0.3270  0.4400
 6761SOL    HW131919   2.493   1.250   6.167  0.0230 -1.6680 -1.2929
 6761SOL    HW231920   2.609   1.341   6.202 -0.3025  0.2580 -0.1115
 6762SOL     OW31921   4.466   1.998   2.222 -0.2724 -0.6826  0.2503
 6762SOL    HW131922   4.535   2.059   2.193 -0.4220 -0.8811 -0.5252
 6762SOL    HW231923   4.508   1.958   2.297  0.0235 -0.6868  0.0816
 6763SOL     OW31924   1.741   4.650   7.350 -0.2968  0.0782 -0.4845
 6763SOL    HW131925   1.711   4.559   7.348  0.9402 -0.3710  1.0269
 6763SOL    HW231926   1.687   4.689   7.281 -0.9782 -2.1743 -1.2298
 6764SOL     OW31927   2.138   2.783   5.731  0.2988  0.5572  0.0274
 6764SOL    HW131928   2.069   2.835   5.690 -0.9401 -1.1474 -0.0329
 6764SOL    HW231929   2.104   2.773   5.820 -1.1107  2.5408 -0.2742
 6765SOL     OW31930   1.727   2.519   3.188 -0.4064 -0.3786 -0.2829
 6765SOL    HW131931   1.636   2.550   3.193 -0.4301 -0.7357  1.2708
 6765SOL    HW231932   1.725   2.439   3.135  1.3663 -0.6696  0.1071
 6766SOL     OW31933   2.571   0.943  10.826  0.2506 -0.5869 -0.3008
 6766SOL    HW131934   2.613   1.002  10.889  2.8623 -1.0792 -1.6220
 6766SOL    HW231935   2.657   0.922  10.791 -0.0722 -1.5236 -0.5236
 6767SOL     OW31936   1.870   0.367  12.313  0.0870 -0.0025 -0.5019
 6767SOL    HW131937   1.884   0.278  12.282 -0.8692 -0.0219 -0.8739
 6767SOL    HW231938   1.862   0.415  12.230  2.6341  0.9177 -0.2147
 6768SOL     OW31939   0.165   0.876   9.157  0.3759 -0.0858 -0.2240
 6768SOL    HW131940   0.176   0.970   9.167  1.1873 -0.0985 -0.9696
 6768SOL    HW231941   0.097   0.854   9.220  1.2439  0.6432  0.9734
 6769SOL     OW31942   4.153   0.988   2.440  0.0228 -0.3750  0.6817
 6769SOL    HW131943   4.117   0.920   2.383  0.0787  0.9156 -0.8992
 6769SOL    HW231944   4.173   0.939   2.520  1.0260  0.3894  0.8954
 6770SOL     OW31945   3.520   3.013   3.288 -0.6371 -0.5240  0.4135
 6770SOL    HW131946   3.613   2.996   3.301 -0.7120 -0.3691  1.1693
 6770SOL    HW231947   3.484   2.931   3.322 -0.1801 -0.3703  1.2693
 6771SOL     OW31948   2.747   2.732   8.398  0.1127  0.1146 -0.2506
 6771SOL    HW131949   2.674   2.722   8.459  1.2317  1.2184  1.2751
 6771SOL    HW231950   2.812   2.755   8.464  0.3424  1.4232 -0.9261
 6772SOL     OW31951   0.314   1.396   2.572  0.1903  0.7585 -0.4196
 6772SOL    HW131952   0.220   1.404   2.591  0.5019  0.7599  1.1515
 6772SOL    HW231953   0.343   1.486   2.563  0.5389  0.7072  0.1595
 6773SOL     OW31954   4.174   2.787   0.279 -0.4392 -0.0512 -0.7384
 6773SOL    HW131955   4.127   2.863   0.242  1.1750 -0.1206 -2.9359
 6773SOL    HW231956   4.243   2.829   0.330 -0.5118 -0.8837  0.0359
 6774SOL     OW31957   1.777   2.279   6.525  0.1344 -0.0850  0.0627
 6774SOL    HW131958   1.752   2.307   6.437 -1.3977 -1.9640 -0.0910
 6774SOL    HW231959   1.856   2.331   6.542 -0.4103  0.9178 -0.4856
 6775SOL     OW31960   3.087   4.126  12.297 -0.4334 -0.9893 -0.6010
 6775SOL    HW131961   3.163   4.173  12.331 -1.9464  0.6712  0.5019
 6775SOL    HW231962   3.089   4.049  12.353 -1.7228  0.8774  2.0257
 6776SOL     OW31963   2.699   3.073   9.071  0.3603 -0.9040 -0.0869
 6776SOL    HW131964   2.762   3.142   9.092  0.9104 -1.2185 -0.6892
 6776SOL    HW231965   2.619   3.122   9.052  1.7407  1.4415  0.2544
 6777SOL     OW31966   0.370   3.805  15.196  0.2072  0.5423  0.0991
 6777SOL    HW131967   0.411   3.889  15.219  1.0146 -0.2644  1.6365
 6777SOL    HW231968   0.436   3.771  15.136 -0.0703 -2.2116  1.3307
 6778SOL     OW31969   3.709   0.443   5.340 -0.2841  0.1088  0.2977
 6778SOL    HW131970   3.673   0.428   5.252 -1.8102  0.5289  0.8544
 6778SOL    HW231971   3.732   0.536   5.343  1.6562 -0.3355 -0.3983
 6779SOL     OW31972   3.421   2.543   1.694  0.3946  0.2004 -0.3846
 6779SOL    HW131973   3.350   2.479   1.683 -0.0586  0.5239  0.6278
 6779SOL    HW231974   3.480   2.479   1.733  0.7229  1.8059  1.7186
 6780SOL     OW31975   0.479   4.555  10.427  0.3349  0.1926  0.5445
 6780SOL    HW131976   0.455   4.628  10.370  3.2689 -0.3582 -1.3841
 6780SOL    HW231977   0.520   4.495  10.366 -0.4888 -0.3000  0.4806
 6781SOL     OW31978   0.258   0.792   9.516  0.2525  0.4310 -0.1285
 6781SOL    HW131979   0.174   0.752   9.536 -0.1263  0.4581 -1.6594
 6781SOL    HW231980   0.327   0.735   9.549 -1.0234 -0.8708  0.3050
 6782SOL     OW31981   2.255   0.447   6.714  0.1384  0.6516 -0.2389
 6782SOL    HW131982   2.248   0.501   6.793 -2.0565 -1.3099  0.9130
 6782SOL    HW231983   2.177   0.394   6.730  0.4388  0.3905  0.3865
 6783SOL     OW31984   4.108   0.045   3.911  0.3760 -0.0435  0.2810
 6783SOL    HW131985   4.181   0.087   3.957 -0.0081  1.5965 -0.5944
 6783SOL    HW231986   4.107   4.689   3.937  0.2835 -0.2214 -0.3483
 6784SOL     OW31987   1.918   0.560   3.869  0.0668  0.6167  0.2971
 6784SOL    HW131988   1.879   0.643   3.893 -0.5066  0.1188  1.0728
 6784SOL    HW231989   1.960   0.545   3.954 -0.7306  0.2027  0.6205
 6785SOL     OW31990   0.907   1.436   5.031 -0.4929  0.0056  0.5572
 6785SOL    HW131991   0.903   1.463   4.939 -0.7808  1.3186  0.9416
 6785SOL    HW231992   0.888   1.343   5.020 -1.7500  0.6661 -2.9795
 6786SOL     OW31993   2.088   4.393   6.510 -0.6803 -0.2961 -0.0339
 6786SOL    HW131994   2.113   4.480   6.479  0.0697  0.0541  1.5457
 6786SOL    HW231995   2.029   4.363   6.441 -1.6043  2.0511 -0.2835
 6787SOL     OW31996   0.293   3.337   6.506 -0.1443 -0.4811  0.1117
 6787SOL    HW131997   0.198   3.335   6.500 -0.1282 -1.1070  0.0412
 6787SOL    HW231998   0.313   3.247   6.533 -0.2101 -0.5503 -0.0656
 6788SOL     OW31999   1.279   0.769   5.256  0.1302  0.5777  0.5858
 6788SOL    HW132000   1.322   0.801   5.336 -0.8569  1.3645  0.8022
 6788SOL    HW232001   1.220   0.700   5.285 -1.3369  2.3068  1.7369
 6789SOL     OW32002   3.061   4.418   1.824  0.2610  0.2726 -0.3679
 6789SOL    HW132003   3.086   4.395   1.914  0.2739  0.7362 -0.2553
 6789SOL    HW232004   3.131   4.476   1.795 -1.1476  1.5905 -1.0753
 6790SOL     OW32005   4.458   3.775   4.008  0.1217  0.1457  0.1310
 6790SOL    HW132006   4.464   3.868   3.987  1.1032 -0.3355 -1.7771
 6790SOL    HW232007   4.553   3.762   4.016 -0.1291 -0.7523  1.6882
 6791SOL     OW32008   2.858   2.526  10.710  0.1976  0.0039  0.2344
 6791SOL    HW132009   2.875   2.523  10.804 -4.2472 -1.4357  1.0033
 6791SOL    HW232010   2.920   2.458  10.684 -1.1267 -1.1779  0.1758
 6792SOL     OW32011   4.040   4.585  14.334 -0.4849 -0.0791  0.0058
 6792SOL    HW132012   3.948   4.586  14.360 -0.0916 -0.1036  1.4190
 6792SOL    HW232013   4.041   4.500  14.289 -0.0606  0.0479 -0.2183
 6793SOL     OW32014   1.381   3.539   2.272 -0.1377 -0.6594  0.5146
 6793SOL    HW132015   1.445   3.610   2.261 -0.6915 -0.0138  1.4191
 6793SOL    HW232016   1.437   3.469   2.305 -1.3307 -1.0807  1.6468
 6794SOL     OW32017   0.342   0.429   4.692  0.7061  0.6657  0.3962
 6794SOL    HW132018   0.370   0.363   4.629 -0.9345  0.6301 -0.2929
 6794SOL    HW232019   0.424   0.462   4.730 -0.1509  1.0930  1.8705
 6795SOL     OW32020   4.407   4.182   5.306 -0.2520  0.2781 -0.1038
 6795SOL    HW132021   4.503   4.190   5.312 -0.2080 -0.4853  0.2526
 6795SOL    HW232022   4.384   4.142   5.390  0.7311 -2.0047 -0.9470
 6796SOL     OW32023   3.263   1.425   5.171 -0.1016 -0.1888 -0.9826
 6796SOL    HW132024   3.200   1.354   5.156 -1.0813  0.3720  0.4667
 6796SOL    HW232025   3.193   1.491   5.175  1.4466  1.4242 -0.9118
 6797SOL     OW32026   4.482   0.881  17.271 -0.4914 -0.3201  0.1414
 6797SOL    HW132027   4.490   0.920  17.358  2.0263  1.1647 -0.7726
 6797SOL    HW232028   4.469   0.787  17.287  1.5379 -0.1726  2.6743
 6798SOL     OW32029   1.455   2.061   1.565 -0.2359 -0.2264  0.0662
 6798SOL    HW132030   1.534   2.006   1.569  0.3243  0.3874 -2.4308
 6798SOL    HW232031   1.432   2.057   1.657 -1.1261 -0.2528 -0.1586
 6799SOL     OW32032   1.347   2.913   5.238 -0.6517 -0.2873  0.9800
 6799SOL    HW132033   1.412   2.869   5.183 -1.6377  1.4941 -1.6191
 6799SOL    HW232034   1.300   2.841   5.281 -1.6489  0.9251  1.8946
 6800SOL     OW32035   2.316   1.247   6.239 -0.0023 -0.0656  0.2240
 6800SOL    HW132036   2.246   1.213   6.183  1.2573 -2.0860 -0.1478
 6800SOL    HW232037   2.287   1.249   6.330  0.4433  1.1094  0.3325
 6801SOL     OW32038   0.216   4.541  13.502 -0.2623 -0.3740 -0.0259
 6801SOL    HW132039   0.131   4.535  13.546 -1.6561  2.5460 -2.3242
 6801SOL    HW232040   0.243   4.631  13.518  3.2788 -1.6228  1.1294
 6802SOL     OW32041   0.005   2.681  12.811  0.1260 -0.4565 -0.0087
 6802SOL    HW132042   4.671   2.695  12.876  1.5917 -3.7494  2.2270
 6802SOL    HW232043   4.696   2.687  12.727 -1.9701 -0.3628  1.0985
 6803SOL     OW32044   2.073   2.703   3.812  0.2072 -0.2587 -0.2040
 6803SOL    HW132045   2.143   2.660   3.862 -1.1798 -2.0747  0.1653
 6803SOL    HW232046   2.106   2.793   3.819  0.9888 -0.5497 -0.1157
 6804SOL     OW32047   3.799   2.893   8.018  0.3296  0.1234 -0.4540
 6804SOL    HW132048   3.738   2.920   8.087  1.3275 -0.3320  0.5896
 6804SOL    HW232049   3.868   2.855   8.071  1.4101 -0.8780 -2.5939
 6805SOL     OW32050   4.044   3.166   8.520 -0.5337 -0.9020 -0.1693
 6805SOL    HW132051   4.070   3.077   8.499 -1.0247 -0.9987 -0.3496
 6805SOL    HW232052   4.127   3.208   8.545 -0.5525 -0.8117 -0.2589
 6806SOL     OW32053   3.583   0.478   7.110  0.0216  0.0249 -0.0450
 6806SOL    HW132054   3.530   0.558   7.114  1.2206  0.8561 -0.8227
 6806SOL    HW232055   3.667   0.496   7.153 -0.0800 -0.7511  0.4791
 6807SOL     OW32056   1.254   0.413  11.067 -0.0388 -0.1712 -0.3816
 6807SOL    HW132057   1.208   0.330  11.059 -0.3246 -0.0440 -0.0606
 6807SOL    HW232058   1.204   0.470  11.008 -0.9055 -1.0068 -0.4594
 6808SOL     OW32059   3.192   4.159   0.549 -0.2248  0.0002  0.3927
 6808SOL    HW132060   3.126   4.226   0.566 -0.0695  0.7302 -1.8682
 6808SOL    HW232061   3.150   4.076   0.575 -1.5749  0.2627 -0.9580
 6809SOL     OW32062   2.924   1.625   4.701 -0.1499  0.9331  0.4439
 6809SOL    HW132063   2.842   1.576   4.710  0.3174  0.1444  0.4002
 6809SOL    HW232064   2.901   1.700   4.755 -0.3840  0.7601  0.5847
 6810SOL     OW32065   0.980   1.770   1.944 -0.3790 -0.0536 -0.0443
 6810SOL    HW132066   0.990   1.690   1.995 -0.7406  0.2337  0.4711
 6810SOL    HW232067   1.057   1.759   1.888 -1.5607 -2.7359 -1.1340
 6811SOL     OW32068   2.158   0.193   9.517  0.4854 -0.2919  0.3521
 6811SOL    HW132069   2.210   0.145   9.452 -0.1287 -0.2019 -0.2058
 6811SOL    HW232070   2.154   0.118   9.576 -3.1740 -1.3484 -1.2272
 6812SOL     OW32071   4.101   2.992   4.722  0.6597  0.0354 -0.5287
 6812SOL    HW132072   4.163   3.014   4.653 -0.6298  3.4349 -0.6407
 6812SOL    HW232073   4.066   3.081   4.731  1.0830  0.4848 -3.4492
 6813SOL     OW32074   1.766   1.016   6.351 -0.2806  0.0212  0.2380
 6813SOL    HW132075   1.728   1.093   6.309  0.8170  0.6054  0.2987
 6813SOL    HW232076   1.818   1.053   6.422 -0.6649  0.6559  0.1814
 6814SOL     OW32077   3.430   1.705   2.608  0.0783  0.2328 -0.3042
 6814SOL    HW132078   3.461   1.628   2.655 -2.2169 -2.1534 -2.6682
 6814SOL    HW232079   3.476   1.699   2.524 -0.2568  2.5368 -0.6437
 6815SOL     OW32080   2.668   0.650   2.101 -0.0085  0.3577  0.9764
 6815SOL    HW132081   2.580   0.626   2.131  0.2190 -1.0335  0.5182
 6815SOL    HW232082   2.716   0.637   2.183  0.4997 -2.6362  0.1993
 6816SOL     OW32083   0.553   2.199   2.784  0.2863  0.0591 -0.1697
 6816SOL    HW132084   0.589   2.228   2.868 -0.0451 -0.2854  0.0898
 6816SOL    HW232085   0.476   2.159   2.825 -0.2472 -1.6323 -2.8253
 6817SOL     OW32086   3.912   3.134   8.188  0.2775 -0.1510  0.1935
 6817SOL    HW132087   3.834   3.078   8.195  1.2279 -1.5198 -0.0781
 6817SOL    HW232088   3.982   3.081   8.149 -0.0798 -0.2448 -0.3047
 6818SOL     OW32089   0.892   3.561   5.437 -0.3809 -0.0540 -0.1320
 6818SOL    HW132090   0.866   3.492   5.375 -2.2692  0.3051  0.2640
 6818SOL    HW232091   0.857   3.644   5.405 -0.7556  0.2816  1.1806
 6819SOL     OW32092   1.901   2.208   0.873  0.1292 -0.5117 -0.4114
 6819SOL    HW132093   1.924   2.221   0.965  0.1336  1.0381 -0.6218
 6819SOL    HW232094   1.902   2.113   0.869  0.1304 -0.4181 -2.4611
 6820SOL     OW32095   3.681   1.988   6.394 -0.0091 -0.2357 -0.4361
 6820SOL    HW132096   3.756   2.035   6.357 -1.3919  0.5364 -2.2581
 6820SOL    HW232097   3.674   2.028   6.481 -1.3329 -2.7741  0.6390
 6821SOL     OW32098   4.459   4.220  16.864  0.3237  0.3515 -0.1453
 6821SOL    HW132099   4.366   4.204  16.882  0.2646 -1.8693 -2.3506
 6821SOL    HW232100   4.453   4.211  16.769  1.9476 -0.3547 -0.1755
 6822SOL     OW32101   2.871   1.840   4.860 -0.5422 -0.2805 -0.1744
 6822SOL    HW132102   2.868   1.816   4.953 -0.0387  0.3474  0.0082
 6822SOL    HW232103   2.830   1.927   4.865 -0.1270 -0.1827  1.7370
 6823SOL     OW32104   2.005   3.002   4.659 -0.0724  0.0465 -0.1060
 6823SOL    HW132105   2.064   3.076   4.646  1.0147 -0.5915  1.2065
 6823SOL    HW232106   1.932   3.029   4.604 -0.9255 -1.5610  0.2379
 6824SOL     OW32107   0.164   3.150   9.557 -0.0624 -0.2954 -0.7503
 6824SOL    HW132108   0.234   3.094   9.591  0.1139  0.4594  0.1438
 6824SOL    HW232109   0.210   3.234   9.558 -1.0468  0.2373  0.3321
 6825SOL     OW32110   4.000   0.361   4.257  0.5655 -0.3524 -0.3866
 6825SOL    HW132111   3.962   0.286   4.212  0.0563 -0.9600  1.0383
 6825SOL    HW232112   4.094   0.345   4.246  1.0389  2.0700  0.0724
 6826SOL     OW32113   3.118   1.471   3.572  0.1753  0.1067  0.2739
 6826SOL    HW132114   3.072   1.388   3.586 -0.5264  0.2405 -1.1702
 6826SOL    HW232115   3.043   1.527   3.591  1.2998  0.9296  2.2270
 6827SOL     OW32116   3.306   0.165   6.556 -0.5289  0.2517  0.0974
 6827SOL    HW132117   3.231   0.223   6.542 -1.4780 -1.0141 -0.1640
 6827SOL    HW232118   3.319   0.132   6.467  0.6507  0.0106  0.3678
 6828SOL     OW32119   0.932   2.675   0.998  0.1001  0.1535  0.6036
 6828SOL    HW132120   0.879   2.708   1.071 -1.7193  0.6413 -0.9450
 6828SOL    HW232121   1.023   2.678   1.027  0.5813 -1.8484 -0.6899
 6829SOL     OW32122   2.353   2.953   5.772  0.4354 -0.4947 -0.5546
 6829SOL    HW132123   2.423   2.897   5.739  1.0372 -0.7732  1.1744
 6829SOL    HW232124   2.271   2.903   5.770 -0.3384  0.7552  0.1274
 6830SOL     OW32125   0.570   2.627   6.070 -0.9582  0.1437 -0.7242
 6830SOL    HW132126   0.591   2.686   5.998 -1.6519  1.2570 -0.0147
 6830SOL    HW232127   0.637   2.560   6.058 -0.7386  0.8926 -3.7238
 6831SOL     OW32128   1.238   3.478   1.817  0.3886  0.7034 -0.1007
 6831SOL    HW132129   1.231   3.401   1.873  0.1452  0.8311  0.0473
 6831SOL    HW232130   1.156   3.469   1.768  1.3973 -0.7663 -1.5443
 6832SOL     OW32131   4.072   0.160   9.655 -0.3512 -0.3670 -0.0548
 6832SOL    HW132132   4.106   0.248   9.672 -0.6942 -0.2259 -0.0916
 6832SOL    HW232133   4.098   0.143   9.565  0.1318  1.5715 -0.2802
 6833SOL     OW32134   0.588   0.130  12.710 -0.1744  0.1171  1.1319
 6833SOL    HW132135   0.680   0.107  12.704  0.0896  1.6351 -0.6411
 6833SOL    HW232136   0.590   0.201  12.774 -2.2252  1.2015  0.0286
 6834SOL     OW32137   2.618   3.754   8.182  0.2580  0.2918 -0.5653
 6834SOL    HW132138   2.628   3.662   8.205 -1.1694  0.6056  1.2456
 6834SOL    HW232139   2.532   3.778   8.217  0.4078  1.4050 -0.9524
 6835SOL     OW32140   4.496   1.986   5.342 -0.2687 -0.0900 -0.1974
 6835SOL    HW132141   4.412   1.963   5.382  0.7898  0.2648  2.2070
 6835SOL    HW232142   4.471   1.962   5.252  1.0619 -0.6524 -0.4226
 6836SOL     OW32143   4.107   1.152  15.558 -0.1909 -0.0435  0.5499
 6836SOL    HW132144   4.065   1.231  15.589  0.5265 -0.4622  2.6046
 6836SOL    HW232145   4.194   1.167  15.595  1.2809 -0.0816 -2.8202
 6837SOL     OW32146   1.705   0.096   3.173 -0.0306 -0.2134 -0.1779
 6837SOL    HW132147   1.656   0.178   3.181 -0.7704 -0.6308 -0.4333
 6837SOL    HW232148   1.767   0.109   3.101  2.5250 -1.9957  1.7155
 6838SOL     OW32149   0.701   1.662   6.511 -0.5639  0.6910 -0.2867
 6838SOL    HW132150   0.736   1.738   6.557  1.5368 -0.0926 -0.5623
 6838SOL    HW232151   0.772   1.644   6.449 -1.0877 -1.1217 -0.3603
 6839SOL     OW32152   3.972   2.885   1.760  0.2864 -0.2996 -0.2543
 6839SOL    HW132153   3.978   2.976   1.733  2.3687 -0.9333 -1.9255
 6839SOL    HW232154   4.020   2.875   1.841 -0.5462  3.2620  0.6784
 6840SOL     OW32155   3.811   1.938  14.634 -0.2173  0.2731  0.3090
 6840SOL    HW132156   3.782   2.029  14.625 -1.6064 -0.2335 -0.2400
 6840SOL    HW232157   3.758   1.899  14.565 -0.0187  1.4519 -0.5149
 6841SOL     OW32158   3.212   0.952   7.022 -0.2641 -0.1940 -0.0005
 6841SOL    HW132159   3.295   0.971   7.065 -0.0412  0.0500 -0.5379
 6841SOL    HW232160   3.155   0.994   7.087 -1.4568  0.7218 -1.6444
 6842SOL     OW32161   4.136   2.763   6.048  0.3045  0.4414 -0.0763
 6842SOL    HW132162   4.163   2.801   5.964  0.7778  2.3800  0.9614
 6842SOL    HW232163   4.070   2.825   6.079 -0.4723  0.2060 -1.2378
 6843SOL     OW32164   4.390   1.356   1.867  0.2208  0.3272 -0.0570
 6843SOL    HW132165   4.363   1.418   1.934 -0.4577 -0.6005  0.5336
 6843SOL    HW232166   4.444   1.288   1.909  0.1985 -1.2353 -2.5384
 6844SOL     OW32167   0.824   4.431   7.427 -0.6404 -0.3601 -0.4399
 6844SOL    HW132168   0.885   4.379   7.480 -0.8685  1.3806  1.5105
 6844SOL    HW232169   0.768   4.363   7.389  0.5642 -1.0906 -0.9493
 6845SOL     OW32170   3.446   1.369   8.447  0.2445  0.5588  0.3072
 6845SOL    HW132171   3.456   1.373   8.542 -2.1838  1.0018  0.5567
 6845SOL    HW232172   3.351   1.368   8.431 -0.2335  0.2665  3.2411
 6846SOL     OW32173   4.620   1.972   3.425  0.2292  0.3927 -0.4381
 6846SOL    HW132174   4.567   1.956   3.348  0.9891 -2.2566 -0.4334
 6846SOL    HW232175   4.554   1.999   3.489  2.3164  0.3816  1.7661
 6847SOL     OW32176   0.110   3.893   3.099 -0.3932 -0.1917  0.8027
 6847SOL    HW132177   0.066   3.809   3.110 -0.7206 -0.7985 -5.3407
 6847SOL    HW232178   0.144   3.881   3.010 -1.2990 -1.7831  0.6688
 6848SOL     OW32179   2.439   2.967  15.774 -0.7222 -0.3765  0.2386
 6848SOL    HW132180   2.353   2.926  15.768  0.2989 -2.4155 -0.3514
 6848SOL    HW232181   2.423   3.038  15.711  1.5768 -1.6847 -1.8340
 6849SOL     OW32182   3.976   3.235   4.771  0.1633  0.1148  0.4900
 6849SOL    HW132183   3.935   3.204   4.690 -0.1976 -1.9350  1.4634
 6849SOL    HW232184   4.022   3.308   4.731 -0.5981 -0.2785 -1.1091
 6850SOL     OW32185   3.559   2.404   2.029 -0.1699 -0.5204 -0.1078
 6850SOL    HW132186   3.475   2.359   2.032 -1.0842  1.2176  0.1801
 6850SOL    HW232187   3.601   2.372   1.949  0.1673  2.0105 -0.9179
 6851SOL     OW32188   2.240   3.743   5.993  0.5557 -0.2623  0.0929
 6851SOL    HW132189   2.225   3.836   5.974  1.8446 -0.1220 -0.1883
 6851SOL    HW232190   2.311   3.749   6.057  0.1407 -0.2426  0.5497
 6852SOL     OW32191   1.136   0.409   4.496 -0.7973  0.2122 -0.5315
 6852SOL    HW132192   1.139   0.505   4.501  0.6328  0.2732 -2.3456
 6852SOL    HW232193   1.229   0.387   4.491 -0.5808  1.0941 -0.5214
 6853SOL     OW32194   3.949   2.745   7.011  0.3755  0.1772 -0.3113
 6853SOL    HW132195   3.977   2.823   6.962 -0.4745 -0.1952 -1.3882
 6853SOL    HW232196   4.018   2.685   6.983  0.6944  0.0210  0.8254
 6854SOL     OW32197   4.070   2.225  11.724 -0.8515  0.5947  0.5083
 6854SOL    HW132198   4.006   2.169  11.768 -0.7221 -0.5785 -0.7863
 6854SOL    HW232199   4.110   2.260  11.803 -1.4459  2.5585 -0.0815
 6855SOL     OW32200   4.702   1.119  13.717  0.4527 -0.1685  0.2767
 6855SOL    HW132201   4.716   1.028  13.744  0.9496  0.0524  0.7524
 6855SOL    HW232202   4.711   1.114  13.622 -0.5283  1.7190  0.0859
 6856SOL     OW32203   0.836   2.110   6.507 -0.1347  0.0644 -0.0598
 6856SOL    HW132204   0.918   2.126   6.553 -0.1843 -1.4810  0.5789
 6856SOL    HW232205   0.768   2.159   6.555  0.0026 -0.1906  0.3972
 6857SOL     OW32206   4.409   0.235   6.694  0.1493  0.1021 -0.3949
 6857SOL    HW132207   4.425   0.151   6.651 -0.3021 -0.1764 -0.0147
 6857SOL    HW232208   4.316   0.227   6.715  0.8135 -1.3889  1.9158
 6858SOL     OW32209   1.355   0.381  16.284 -0.1096 -0.6685  0.2239
 6858SOL    HW132210   1.363   0.293  16.321 -0.0319 -0.7037  0.1229
 6858SOL    HW232211   1.311   0.426  16.357 -2.8367 -0.4082 -1.5986
 6859SOL     OW32212   4.520   3.170   2.027 -0.6898  0.1733  0.6919
 6859SOL    HW132213   4.494   3.183   2.118  0.5234 -1.7568  1.3025
 6859SOL    HW232214   4.579   3.095   2.035  1.1068  1.5031 -0.0010
 6860SOL     OW32215   2.633   3.699   1.867  0.2118  0.4021 -0.1992
 6860SOL    HW132216   2.632   3.608   1.836 -1.3816  1.2683 -2.7032
 6860SOL    HW232217   2.579   3.703   1.946 -0.2769  1.7160 -0.6019
 6861SOL     OW32218   1.715   3.167   1.604  0.4530 -1.1172  0.0640
 6861SOL    HW132219   1.655   3.122   1.663 -1.4057  1.0850 -0.1656
 6861SOL    HW232220   1.741   3.240   1.660  0.5887 -0.5049 -0.8011
 6862SOL     OW32221   1.867   1.823   1.496  0.0972  0.4239  0.6197
 6862SOL    HW132222   1.896   1.791   1.411  0.7393 -0.4628  1.1618
 6862SOL    HW232223   1.865   1.917   1.476  0.6314  0.3325  0.1605
 6863SOL     OW32224   0.799   1.932   3.518  0.1721 -0.4285  0.1278
 6863SOL    HW132225   0.763   1.906   3.433 -1.8804  2.6892  0.0407
 6863SOL    HW232226   0.724   1.911   3.574 -0.7945 -1.5758 -1.5705
 6864SOL     OW32227   3.441   3.019   5.764 -0.4736 -0.6597 -0.4106
 6864SOL    HW132228   3.441   2.977   5.678 -0.1137  0.7844 -1.1275
 6864SOL    HW232229   3.415   3.108   5.739  0.4742  0.5487  2.8578
 6865SOL     OW32230   1.328   3.610   4.411  0.1942  0.2370  0.2027
 6865SOL    HW132231   1.409   3.653   4.440  0.0359  0.5257  0.2195
 6865SOL    HW232232   1.328   3.531   4.464  1.7235 -1.4481 -2.3256
 6866SOL     OW32233   1.753   3.133  14.874  0.2741  0.4987  0.2590
 6866SOL    HW132234   1.709   3.218  14.880 -1.1754 -0.1497 -1.3189
 6866SOL    HW232235   1.731   3.105  14.786  1.0986 -1.9185  0.8046
 6867SOL     OW32236   3.896   3.114   9.813 -0.0747 -0.1104 -0.3277
 6867SOL    HW132237   3.841   3.057   9.760  0.0122 -0.7956  0.3252
 6867SOL    HW232238   3.879   3.081   9.901 -1.0200  0.8394 -0.1565
 6868SOL     OW32239   2.108   4.403   4.020  0.2185 -0.0056 -0.1043
 6868SOL    HW132240   2.022   4.412   4.061 -0.0397 -0.4167 -0.5446
 6868SOL    HW232241   2.077   4.341   3.953  0.3192 -0.6219  0.4228
 6869SOL     OW32242   2.450   2.096   2.166 -0.1675 -0.0595 -0.1619
 6869SOL    HW132243   2.398   2.177   2.166 -0.8241 -0.4766 -1.1779
 6869SOL    HW232244   2.498   2.101   2.248 -1.4355 -2.9752  0.7615
 6870SOL     OW32245   2.325   0.588   7.298  0.0354 -0.1350  0.3603
 6870SOL    HW132246   2.230   0.606   7.296 -0.0694 -0.6450  0.7843
 6870SOL    HW232247   2.320   0.547   7.212 -0.5318 -0.0949  0.3695
 6871SOL     OW32248   1.288   4.169  16.611 -0.1353 -0.2869  0.4485
 6871SOL    HW132249   1.266   4.114  16.687  0.1277  0.8023  1.3055
 6871SOL    HW232250   1.372   4.131  16.588  0.2736  1.7240 -1.3469
 6872SOL     OW32251   2.061   4.728   3.074 -0.0465 -0.3299 -0.2048
 6872SOL    HW132252   1.994   0.030   3.018 -0.1292  1.3913  1.0652
 6872SOL    HW232253   2.134   0.007   3.015 -0.2138  0.6748 -0.1628
 6873SOL     OW32254   2.459   2.145  11.287 -0.0035  0.0779 -0.5122
 6873SOL    HW132255   2.541   2.109  11.255  0.4187 -0.3708  1.0747
 6873SOL    HW232256   2.420   2.177  11.206 -0.3827 -0.3029 -0.4852
 6874SOL     OW32257   3.785   1.836   8.032 -0.4330 -0.3620  0.0090
 6874SOL    HW132258   3.846   1.817   7.961  0.2975 -1.5347  0.9467
 6874SOL    HW232259   3.780   1.932   8.027  0.4458 -0.3715 -1.0824
 6875SOL     OW32260   3.407   3.602   3.648  0.1993  0.9497 -0.2555
 6875SOL    HW132261   3.322   3.594   3.692 -0.3666  0.5837 -1.4154
 6875SOL    HW232262   3.453   3.665   3.703  0.8372 -0.0798  0.3825
 6876SOL     OW32263   4.067   0.575  12.566  0.0164 -0.4745 -0.5479
 6876SOL    HW132264   4.097   0.507  12.625  1.3800  1.6275  1.1883
 6876SOL    HW232265   4.144   0.632  12.570 -0.0107 -0.2878 -2.4278
 6877SOL     OW32266   2.475   3.629   4.741  0.8220 -0.4500 -1.2247
 6877SOL    HW132267   2.525   3.669   4.813 -0.6290 -0.6286 -0.1264
 6877SOL    HW232268   2.499   3.680   4.664 -1.7114 -0.0038 -1.7053
 6878SOL     OW32269   1.331   3.579   7.725 -0.3709  0.3103 -0.5755
 6878SOL    HW132270   1.420   3.580   7.759 -0.7399  4.1095  0.1844
 6878SOL    HW232271   1.352   3.651   7.666 -0.3562  0.8825  0.1408
 6879SOL     OW32272   0.222   1.768   1.218 -0.0490  0.3462  0.0051
 6879SOL    HW132273   0.256   1.679   1.205 -0.8659 -0.0066  0.2791
 6879SOL    HW232274   0.283   1.814   1.161  0.5177  0.8960  1.0532
 6880SOL     OW32275   0.984   3.770  16.983 -0.8189 -0.0195 -0.3187
 6880SOL    HW132276   0.917   3.736  17.042 -0.0148  1.5473  1.5312
 6880SOL    HW232277   0.934   3.822  16.920  0.2684  0.4240 -0.8248
 6881SOL     OW32278   4.231   1.463   3.044  0.2062 -0.3494 -0.9439
 6881SOL    HW132279   4.263   1.374   3.063 -0.0887 -0.5820 -1.5551
 6881SOL    HW232280   4.210   1.459   2.951  0.9119 -2.6459 -1.0065
 6882SOL     OW32281   1.849   3.202   4.512  0.1161  0.0276  0.0163
 6882SOL    HW132282   1.882   3.233   4.428 -1.3788  0.9401 -0.2473
 6882SOL    HW232283   1.778   3.141   4.489  0.2733 -0.1787  0.0801
 6883SOL     OW32284   2.889   0.012   2.597  0.1048  0.2695  0.2078
 6883SOL    HW132285   2.849   0.034   2.513 -0.5987 -1.1170  0.1863
 6883SOL    HW232286   2.943   0.091   2.607 -1.1075  0.9216  1.6391
 6884SOL     OW32287   0.555   4.006   5.282  0.1231  0.0515 -0.1675
 6884SOL    HW132288   0.582   3.946   5.213  2.5230  1.2436 -0.2755
 6884SOL    HW232289   0.505   4.065   5.225 -1.7902 -1.2488  0.1748
 6885SOL     OW32290   3.559   4.562   5.362 -0.4426  0.3025 -0.3713
 6885SOL    HW132291   3.646   4.533   5.335  0.2200  0.6579  1.3827
 6885SOL    HW232292   3.568   4.625   5.433  0.0273  0.0002 -0.1666
 6886SOL     OW32293   3.042   1.144  14.375 -0.6224 -0.2933  0.2500
 6886SOL    HW132294   3.042   1.119  14.283 -2.5074  0.2967  0.0798
 6886SOL    HW232295   3.007   1.233  14.376  0.5787  0.2080 -2.9147
 6887SOL     OW32296   2.428   3.485   7.481 -0.5342 -0.1484  0.4605
 6887SOL    HW132297   2.382   3.560   7.443  0.4035 -0.6673 -1.6566
 6887SOL    HW232298   2.485   3.460   7.409  0.4898 -2.1408  1.9560
 6888SOL     OW32299   0.086   0.346   2.049 -0.3519  0.3436 -0.1186
 6888SOL    HW132300   0.149   0.278   2.024  0.0453  0.9938 -0.8626
 6888SOL    HW232301   0.006   0.298   2.028 -2.1587  3.2549  0.1466
 6889SOL     OW32302   1.014   4.351   9.307 -0.1872 -0.2735  0.0304
 6889SOL    HW132303   0.958   4.409   9.257 -1.0029  0.8888  2.2790
 6889SOL    HW232304   0.953   4.321   9.375 -0.2444  2.3373  1.1105
 6890SOL     OW32305   4.313   4.126   3.156 -0.1312 -0.0547  0.3724
 6890SOL    HW132306   4.365   4.190   3.204  1.2283  0.2739 -1.5065
 6890SOL    HW232307   4.262   4.084   3.224  1.4264  0.4270  1.8497
 6891SOL     OW32308   2.191   2.923   4.274  0.5036 -0.3387 -0.3797
 6891SOL    HW132309   2.198   3.017   4.289 -0.3977  0.0323 -2.1973
 6891SOL    HW232310   2.097   2.905   4.274  0.6407 -1.0523 -0.0902
 6892SOL     OW32311   3.106   0.071   5.204  0.1683  0.0253  0.5350
 6892SOL    HW132312   3.038   0.118   5.252 -1.1195 -0.2584 -0.9978
 6892SOL    HW232313   3.188   0.109   5.237  0.5213  0.2163 -0.5738
 6893SOL     OW32314   4.576   3.138   3.243 -0.1805  0.4228 -0.6550
 6893SOL    HW132315   4.667   3.146   3.214  0.1631  2.2287  0.9036
 6893SOL    HW232316   4.535   3.209   3.193  0.0351  1.7069  0.9889
 6894SOL     OW32317   3.767   0.081   0.039 -0.1317  0.2921  0.2545
 6894SOL    HW132318   3.726   0.085   0.125 -2.6592  3.0680 -1.1029
 6894SOL    HW232319   3.860   0.081   0.062  0.0404 -1.3733 -0.4689
 6895SOL     OW32320   4.414   0.157   0.961  0.6713  0.1799 -0.1585
 6895SOL    HW132321   4.434   0.073   1.003 -0.6972 -0.3758 -0.6219
 6895SOL    HW232322   4.490   0.208   0.988  1.1707  0.7155 -2.5434
 6896SOL     OW32323   2.760   1.849   8.942 -0.0116 -0.0138 -0.2268
 6896SOL    HW132324   2.760   1.938   8.979  0.0016 -0.1630  0.1304
 6896SOL    HW232325   2.799   1.808   9.018  0.6659  0.4072 -0.3473
 6897SOL     OW32326   2.390   4.657   8.673  0.4447  0.1001  0.2421
 6897SOL    HW132327   2.316   4.696   8.626 -0.4482  2.1352  3.3218
 6897SOL    HW232328   2.345   4.590   8.724 -1.1190  0.6800 -0.3772
 6898SOL     OW32329   2.354   4.417  17.558  0.5912  0.5180  0.0060
 6898SOL    HW132330   2.276   4.400  17.610  0.8255 -1.4548 -0.2802
 6898SOL    HW232331   2.393   4.329  17.557 -0.6172  0.0165 -2.5919
 6899SOL     OW32332   1.367   4.176  12.562  0.2267 -0.1265  0.2069
 6899SOL    HW132333   1.297   4.138  12.510  0.6100  0.3733 -0.6861
 6899SOL    HW232334   1.407   4.222  12.488  1.9713 -1.4830  0.2858
 6900SOL     OW32335   2.576   1.686   3.710  0.0369 -0.6531 -0.4964
 6900SOL    HW132336   2.572   1.778   3.683  0.2892  0.4697  3.2691
 6900SOL    HW232337   2.483   1.667   3.705  0.3902 -2.6162  0.4856
 6901SOL     OW32338   2.785   0.976   0.253 -0.2863 -0.0253  0.2584
 6901SOL    HW132339   2.875   1.008   0.260  0.0195 -0.7908 -0.1293
 6901SOL    HW232340   2.735   1.053   0.229 -0.6275  0.8443  3.8071
 6902SOL     OW32341   1.709   0.393   4.244 -0.0100  0.3584 -0.1135
 6902SOL    HW132342   1.706   0.354   4.157  0.1645  1.3983 -0.5828
 6902SOL    HW232343   1.797   0.366   4.267  0.7503  1.9728 -1.0940
 6903SOL     OW32344   4.383   4.430  15.738 -0.5750 -0.3811  0.1341
 6903SOL    HW132345   4.300   4.407  15.697 -0.7131 -0.5920  0.5367
 6903SOL    HW232346   4.418   4.341  15.745 -0.3295 -0.1968  1.2034
 6904SOL     OW32347   2.655   2.935   7.136  0.4543 -0.0586 -0.7116
 6904SOL    HW132348   2.606   2.987   7.073  2.5691  3.0302  0.2449
 6904SOL    HW232349   2.623   2.855   7.094 -1.7239  0.8926 -0.8657
 6905SOL     OW32350   2.512   2.550   6.028  0.1122 -0.3492  0.4246
 6905SOL    HW132351   2.459   2.540   5.950  0.5317  3.0509 -0.3130
 6905SOL    HW232352   2.512   2.645   6.044 -1.2864 -0.3572  0.4630
 6906SOL     OW32353   2.438   3.252  10.957  0.8395  0.1083  0.2503
 6906SOL    HW132354   2.367   3.212  10.906 -0.7627  2.0821  0.9509
 6906SOL    HW232355   2.503   3.277  10.892  1.4116  1.1944  1.2460
 6907SOL     OW32356   2.259   0.104   3.988 -0.2010  0.3696  0.0057
 6907SOL    HW132357   2.238   0.190   3.951 -1.3569  1.3579  2.8891
 6907SOL    HW232358   2.352   0.104   4.012 -0.3969 -0.2136  0.7710
 6908SOL     OW32359   1.413   1.959  12.970  0.0968  0.1421  0.0767
 6908SOL    HW132360   1.447   1.904  12.900 -3.8009 -0.4732 -1.3639
 6908SOL    HW232361   1.492   2.014  12.973  1.1284 -1.3492 -0.0206
 6909SOL     OW32362   3.630   3.679   6.441  0.4279  0.1449  0.3487
 6909SOL    HW132363   3.597   3.760   6.403  1.3832  0.0558 -0.6631
 6909SOL    HW232364   3.687   3.652   6.369 -0.6003 -0.7210 -0.1396
 6910SOL     OW32365   3.533   0.524   8.619 -0.5136  0.5383 -0.6720
 6910SOL    HW132366   3.490   0.478   8.547 -0.2420  2.0745 -1.8276
 6910SOL    HW232367   3.495   0.477   8.693  0.7164 -2.2972 -1.8486
 6911SOL     OW32368   2.696   0.400  10.842  0.4007  0.0828  0.6668
 6911SOL    HW132369   2.673   0.493  10.843 -0.7613 -0.2082  0.8670
 6911SOL    HW232370   2.785   0.407  10.808  0.1813  0.5749  0.1829
 6912SOL     OW32371   2.806   2.499  11.963  0.3610  0.0472 -0.3897
 6912SOL    HW132372   2.794   2.483  12.057  1.9815  0.5123 -0.1044
 6912SOL    HW232373   2.865   2.426  11.943 -1.9010 -1.8594 -0.0529
 6913SOL     OW32374   0.495   2.761   4.941  0.2509  0.7173 -0.2534
 6913SOL    HW132375   0.401   2.750   4.949  0.5510 -1.6024 -0.0296
 6913SOL    HW232376   0.509   2.712   4.860 -1.5910 -0.1173 -0.0441
 6914SOL     OW32377   1.784   1.130   4.182 -0.2810  0.8903  0.1674
 6914SOL    HW132378   1.843   1.204   4.197  0.8203 -0.4895  2.6610
 6914SOL    HW232379   1.826   1.087   4.108  0.8878  0.9587  0.8038
 6915SOL     OW32380   2.282   2.358  13.646  0.1584  0.0956 -0.2127
 6915SOL    HW132381   2.242   2.418  13.709  1.6419  0.0709  0.7594
 6915SOL    HW232382   2.218   2.334  13.579  1.5449  1.1687 -1.9376
 6916SOL     OW32383   1.158   0.747  16.944 -0.0165  0.2175  0.5934
 6916SOL    HW132384   1.162   0.700  17.027  1.2398 -2.5767 -1.0646
 6916SOL    HW232385   1.173   0.836  16.977 -0.1832  0.2087  0.6907
 6917SOL     OW32386   3.034   0.386   2.174  0.5853 -0.4231 -0.5516
 6917SOL    HW132387   3.035   0.448   2.247 -1.2998  1.5475 -2.1867
 6917SOL    HW232388   2.941   0.369   2.158  1.1074 -2.2869 -1.5662
 6918SOL     OW32389   3.708   3.644  10.897  0.3944 -0.3743 -0.3318
 6918SOL    HW132390   3.709   3.576  10.830  2.1329 -0.2258 -0.4484
 6918SOL    HW232391   3.710   3.596  10.979 -1.1460  1.6964  0.9173
 6919SOL     OW32392   3.275   0.711   6.669 -0.8189 -0.0780  0.3828
 6919SOL    HW132393   3.322   0.689   6.750  0.2538  0.6930 -0.0285
 6919SOL    HW232394   3.289   0.806   6.662  0.8526 -0.3517  0.0288
 6920SOL     OW32395   1.007   0.395  11.354  0.3013  0.2433 -0.2088
 6920SOL    HW132396   0.916   0.420  11.369 -0.2957 -1.7117 -0.5506
 6920SOL    HW232397   1.027   0.427  11.266 -1.0170 -0.1263 -0.6277
 6921SOL     OW32398   0.756   0.426  10.890  0.4697  0.1699  0.0057
 6921SOL    HW132399   0.732   0.346  10.843  2.1157 -0.6206  0.5280
 6921SOL    HW232400   0.703   0.495  10.850 -2.1513 -2.7256 -1.5138
 6922SOL     OW32401   3.946   2.033  16.070  0.1716  0.2220  0.2054
 6922SOL    HW132402   3.853   2.013  16.074 -0.0082  1.1855  1.0927
 6922SOL    HW232403   3.974   1.997  16.154 -0.4444  0.6555  0.6007
 6923SOL     OW32404   3.575   1.747   3.533  0.1780  0.2336 -0.3988
 6923SOL    HW132405   3.501   1.806   3.519  0.3461  0.1047 -1.7673
 6923SOL    HW232406   3.643   1.806   3.499 -0.5424  0.2702 -1.7711
 6924SOL     OW32407   4.401   2.015   3.580 -0.2345 -0.0765 -0.2185
 6924SOL    HW132408   4.383   2.100   3.620 -0.3576  0.8020 -2.1550
 6924SOL    HW232409   4.311   1.996   3.555  0.1518 -1.3177 -0.6817
 6925SOL     OW32410   3.096   4.518   6.031  0.2376  0.4864 -0.1214
 6925SOL    HW132411   3.063   4.482   5.949 -1.9121  1.4023  0.3423
 6925SOL    HW232412   3.091   4.437   6.081 -0.0262  0.2916 -0.4696
 6926SOL     OW32413   1.351   3.366   3.451 -0.1024 -0.1428  0.3312
 6926SOL    HW132414   1.395   3.446   3.481  0.5918 -0.3447 -0.1516
 6926SOL    HW232415   1.383   3.308   3.520 -1.2236 -1.9047 -0.6264
 6927SOL     OW32416   0.388   3.977   7.624  0.6316 -0.1436 -0.3256
 6927SOL    HW132417   0.328   4.049   7.600  1.4033  0.1244 -1.4429
 6927SOL    HW232418   0.390   3.985   7.719  2.7736 -1.1461 -0.2953
 6928SOL     OW32419   0.319   2.791   3.365  0.3595  0.3646  0.0641
 6928SOL    HW132420   0.321   2.720   3.429  2.0631 -0.0970 -0.5185
 6928SOL    HW232421   0.381   2.852   3.403  0.3525  1.0704 -1.0760
 6929SOL     OW32422   4.321   1.312   4.605 -0.3893 -0.0076  0.2723
 6929SOL    HW132423   4.387   1.278   4.666 -0.1255  0.7170  0.3934
 6929SOL    HW232424   4.251   1.327   4.669 -0.2651 -0.6827  0.5614
 6930SOL     OW32425   4.207   3.161   6.356  0.4337  0.2557 -0.0279
 6930SOL    HW132426   4.205   3.256   6.365  2.2846  0.3273 -0.3825
 6930SOL    HW232427   4.113   3.142   6.359  0.5563 -0.2122  1.2378
 6931SOL     OW32428   3.895   2.321   3.315  0.0005 -0.1382 -0.0083
 6931SOL    HW132429   3.837   2.245   3.311  0.2022 -0.3047  0.2412
 6931SOL    HW232430   3.945   2.313   3.233 -0.9123 -1.3580 -0.4437
 6932SOL     OW32431   1.990   4.235  11.125  0.1942 -0.4920  0.5195
 6932SOL    HW132432   1.981   4.275  11.212 -1.2672  0.7209 -0.1906
 6932SOL    HW232433   1.918   4.276  11.077 -1.3100 -0.6694  2.6117
 6933SOL     OW32434   0.415   4.392   2.013  0.4526  0.4593 -0.1088
 6933SOL    HW132435   0.474   4.449   2.061  0.3159  1.2782 -0.9261
 6933SOL    HW232436   0.475   4.358   1.946 -2.2132 -1.6376 -1.4678
 6934SOL     OW32437   0.532   3.509  16.342  0.2762  0.0992  0.4005
 6934SOL    HW132438   0.498   3.426  16.376 -1.3014  1.4271  2.0192
 6934SOL    HW232439   0.485   3.568  16.400 -1.8412  0.6778 -1.8999
 6935SOL     OW32440   0.565   1.116  13.089 -0.0049 -0.7829 -0.1130
 6935SOL    HW132441   0.631   1.091  13.023  2.6737 -0.2325  2.3644
 6935SOL    HW232442   0.568   1.034  13.139  1.1375 -0.4719  0.3214
 6936SOL     OW32443   3.672   2.715  11.331  0.0053 -0.3146 -0.4540
 6936SOL    HW132444   3.606   2.694  11.264 -1.1940 -0.1084  0.6500
 6936SOL    HW232445   3.727   2.637  11.333 -0.5297 -0.7019 -0.6254
 6937SOL     OW32446   3.210   2.373  14.067 -0.3862 -0.3697 -0.5551
 6937SOL    HW132447   3.261   2.314  14.011 -0.0564 -1.1311  0.5531
 6937SOL    HW232448   3.167   2.434  14.006  1.9934  1.9486  0.0875
 6938SOL     OW32449   4.019   4.133   3.918  0.1449  0.7480  0.3756
 6938SOL    HW132450   4.058   4.161   4.001  1.1387  2.3221 -0.6146
 6938SOL    HW232451   4.046   4.041   3.920  0.7641  0.9076 -0.6641
 6939SOL     OW32452   2.463   2.344   8.297  0.3087  0.1081  0.1159
 6939SOL    HW132453   2.490   2.257   8.268 -1.7126 -0.7451  0.7471
 6939SOL    HW232454   2.509   2.338   8.381 -0.0222  0.7915  0.3477
 6940SOL     OW32455   4.602   2.091   9.121 -0.2524 -0.6066  0.1793
 6940SOL    HW132456   4.559   2.176   9.131  3.0824  1.0089  0.7315
 6940SOL    HW232457   4.583   2.075   9.028 -5.1527  0.1345  1.0399
 6941SOL     OW32458   4.717   0.419   8.767  0.4515 -0.3786 -0.1012
 6941SOL    HW132459   4.724   0.327   8.794 -0.7328 -0.8203 -1.2750
 6941SOL    HW232460   4.703   0.461   8.852  1.7211 -3.2773  1.5478
 6942SOL     OW32461   4.041   1.025   8.734  0.5376  0.5595 -0.0869
 6942SOL    HW132462   4.005   1.113   8.734 -0.2162  0.2525 -0.6059
 6942SOL    HW232463   4.032   1.005   8.641 -1.0353  0.8471  0.0160
 6943SOL     OW32464   0.099   3.090   8.209  0.1616 -0.3910  0.2210
 6943SOL    HW132465   0.108   3.044   8.125 -1.7629 -0.3416 -0.0064
 6943SOL    HW232466   0.078   3.024   8.275 -0.7663  1.0351  1.3520
 6944SOL     OW32467   0.371   0.439   3.946 -0.4663 -0.5752 -0.8005
 6944SOL    HW132468   0.407   0.355   3.919  1.7092 -0.1575  0.7688
 6944SOL    HW232469   0.392   0.480   3.862  1.6771 -2.3028 -1.1008
 6945SOL     OW32470   1.748   3.336   0.433 -0.0913 -0.7720 -0.0412
 6945SOL    HW132471   1.778   3.427   0.426 -0.3504 -0.7835 -1.3210
 6945SOL    HW232472   1.667   3.347   0.483  0.1174 -1.4358  0.4406
 6946SOL     OW32473   1.157   1.718   8.338  0.1296  0.1497  0.5013
 6946SOL    HW132474   1.070   1.758   8.325  1.1364  1.4374 -2.0872
 6946SOL    HW232475   1.213   1.795   8.342  1.4019 -0.7780  0.2747
 6947SOL     OW32476   1.856   3.871   2.626  0.7319 -0.1749 -0.3783
 6947SOL    HW132477   1.887   3.810   2.559  1.1928 -1.2145  0.7892
 6947SOL    HW232478   1.932   3.879   2.683  0.0895  2.3850  0.0888
 6948SOL     OW32479   0.890   4.410   4.823  0.0758  0.2257  0.7035
 6948SOL    HW132480   0.905   4.365   4.740  1.5265 -0.6384  1.4357
 6948SOL    HW232481   0.940   4.362   4.889  0.5504  0.7793  0.7481
 6949SOL     OW32482   3.889   0.609   3.312  0.4169 -0.3071  0.0623
 6949SOL    HW132483   3.838   0.687   3.288 -1.3380 -1.7487 -0.8339
 6949SOL    HW232484   3.923   0.638   3.397  0.4051 -1.2457  0.3899
 6950SOL     OW32485   2.044   3.247   6.632 -0.2934 -0.2176 -0.3634
 6950SOL    HW132486   2.074   3.256   6.541  0.3935  0.1518 -0.1008
 6950SOL    HW232487   2.027   3.341   6.642  0.1707 -0.5088  3.1274
 6951SOL     OW32488   2.554   1.743   5.099  0.7242  0.0542  0.6604
 6951SOL    HW132489   2.543   1.714   5.190 -2.5994  1.1158  0.6162
 6951SOL    HW232490   2.564   1.655   5.063  0.3933  0.5410 -0.6023
 6952SOL     OW32491   0.009   4.013   4.392 -0.5490  0.1617  0.1145
 6952SOL    HW132492   0.077   4.020   4.326 -0.3209 -2.2636  0.0904
 6952SOL    HW232493   4.691   4.090   4.372 -0.8471 -0.4268 -1.2607
 6953SOL     OW32494   1.046   3.070   1.113  0.0882 -0.3360  0.6568
 6953SOL    HW132495   1.028   3.163   1.099  2.0341 -0.3609 -2.0812
 6953SOL    HW232496   1.140   3.069   1.132  0.6234 -0.6756 -1.8849
 6954SOL     OW32497   2.106   1.436   9.466 -0.7057 -0.0103 -0.1327
 6954SOL    HW132498   2.127   1.529   9.469 -1.1749  0.0782  0.5250
 6954SOL    HW232499   2.184   1.405   9.512  0.2837  0.8407 -1.2587
 6955SOL     OW32500   2.898   4.571   5.054  0.2371 -0.1954 -0.1606
 6955SOL    HW132501   2.905   4.666   5.054 -1.0960 -0.1058  0.6350
 6955SOL    HW232502   2.993   4.558   5.060  0.3211  0.6595  0.4208
 6956SOL     OW32503   0.031   4.631   4.945 -0.5016 -0.1634  0.1221
 6956SOL    HW132504   0.077   4.669   5.020  1.5247 -2.2822 -0.0353
 6956SOL    HW232505   0.100   4.592   4.891 -2.0350 -1.5569 -0.8289
 6957SOL     OW32506   2.838   3.288   2.129 -1.3458  0.1446 -0.7226
 6957SOL    HW132507   2.841   3.213   2.189 -0.4829  0.4276 -0.4117
 6957SOL    HW232508   2.793   3.353   2.182  2.0565  0.5471  1.6690
 6958SOL     OW32509   4.205   3.000   7.629  0.3641 -0.3371  0.5922
 6958SOL    HW132510   4.286   2.988   7.677  0.8639 -0.3817 -0.2617
 6958SOL    HW232511   4.153   3.041   7.698 -0.0608  0.9298 -0.4848
 6959SOL     OW32512   1.123   1.787   7.461  0.2513  0.1997 -0.1646
 6959SOL    HW132513   1.093   1.701   7.489 -0.8718  0.7609  0.3822
 6959SOL    HW232514   1.195   1.805   7.521  0.6160 -0.7926 -0.3208
 6960SOL     OW32515   2.066   2.730   5.988 -0.0350  0.0239  0.6392
 6960SOL    HW132516   1.971   2.726   5.998 -0.1713  0.3986 -0.5100
 6960SOL    HW232517   2.097   2.770   6.069  0.8193 -0.0608  0.3624
 6961SOL     OW32518   2.813   3.734   3.824 -0.1996  0.0393 -0.1287
 6961SOL    HW132519   2.820   3.656   3.878 -1.4176 -0.4280 -0.6502
 6961SOL    HW232520   2.884   3.738   3.760 -0.6053 -1.1522 -0.6527
 6962SOL     OW32521   1.126   0.830   3.807 -0.0589 -0.5620 -0.1874
 6962SOL    HW132522   1.093   0.745   3.780  0.4206  0.0350 -2.6315
 6962SOL    HW232523   1.209   0.813   3.851  0.7143 -1.1387 -1.8829
 6963SOL     OW32524   2.055   2.964  14.660 -0.2379  0.5232 -0.0971
 6963SOL    HW132525   1.998   3.004  14.594  3.3187  0.1601 -3.4291
 6963SOL    HW232526   1.992   2.972  14.731  0.3974  0.7155  0.4388
 6964SOL     OW32527   1.289   0.857  12.341  0.1519  0.3666 -0.2782
 6964SOL    HW132528   1.267   0.901  12.258 -1.1983 -1.1858 -0.7246
 6964SOL    HW232529   1.218   0.793  12.336  0.3279  0.0869  0.9308
 6965SOL     OW32530   0.247   0.638   7.289 -0.0250 -0.0288  0.5229
 6965SOL    HW132531   0.243   0.597   7.376 -2.9714  0.1447  0.4600
 6965SOL    HW232532   0.153   0.633   7.271 -0.0701 -0.2205  0.8125
 6966SOL     OW32533   4.419   1.207  10.098 -0.0605  0.0252  0.2422
 6966SOL    HW132534   4.331   1.181  10.069 -0.8699  0.5398  2.2248
 6966SOL    HW232535   4.451   1.274  10.037 -1.9646 -0.7199 -1.5614
 6967SOL     OW32536   0.333   3.846  13.924  0.2672  0.6600 -0.2423
 6967SOL    HW132537   0.258   3.799  13.888  0.9459  0.6615 -1.6325
 6967SOL    HW232538   0.305   3.937  13.917 -0.9714  0.4285  1.6458
 6968SOL     OW32539   0.054   4.599  14.933  0.2232  0.1242 -0.7567
 6968SOL    HW132540   0.033   4.656  15.007  0.5773 -0.4614 -0.2015
 6968SOL    HW232541   0.002   4.635  14.861 -1.7082 -0.2127  0.4747
 6969SOL     OW32542   1.240   2.988  11.015  0.0454  1.0130  0.7110
 6969SOL    HW132543   1.237   2.943  11.099  0.4136  0.3352  0.3667
 6969SOL    HW232544   1.149   2.985  10.984  0.9288 -0.0160 -1.8086
 6970SOL     OW32545   3.811   0.505  17.626  0.0535 -0.4504 -0.3255
 6970SOL    HW132546   3.789   0.421  17.586  1.1830 -1.2731  0.7675
 6970SOL    HW232547   3.750   0.567  17.587 -0.5006  0.0568  1.3270
 6971SOL     OW32548   4.041   1.793   9.311 -0.3940  0.7511  1.0283
 6971SOL    HW132549   3.957   1.815   9.272 -0.0535 -1.3417 -0.9131
 6971SOL    HW232550   4.031   1.701   9.335  0.1944  0.9334  1.9455
 6972SOL     OW32551   0.553   1.746   2.010 -0.5430 -0.3049  0.6905
 6972SOL    HW132552   0.512   1.698   2.083  1.2257 -0.1182  1.8155
 6972SOL    HW232553   0.632   1.695   1.992 -0.6429  0.6913 -2.4314
 6973SOL     OW32554   3.404   3.855  11.593 -0.2219 -0.0102  0.2391
 6973SOL    HW132555   3.398   3.824  11.503  4.0121 -0.3670  0.0831
 6973SOL    HW232556   3.321   3.818  11.623  0.1587 -0.2123  1.0596
 6974SOL     OW32557   1.480   1.331   3.257  0.3632  0.2225  0.1395
 6974SOL    HW132558   1.399   1.364   3.220  0.3380  1.3969  1.2337
 6974SOL    HW232559   1.521   1.417   3.268 -0.3462  0.4240  1.1495
 6975SOL     OW32560   3.069   0.693   0.251  0.2082 -0.1172  0.0891
 6975SOL    HW132561   3.096   0.702   0.342  2.7811  0.8373 -0.7853
 6975SOL    HW232562   3.088   0.782   0.221 -0.0322 -0.2144 -0.3557
 6976SOL     OW32563   3.332   4.631   5.817 -0.0586 -0.5926  0.3424
 6976SOL    HW132564   3.424   4.636   5.792  0.1433  1.3710  1.4763
 6976SOL    HW232565   3.322   4.649   5.911 -0.4756  1.1926 -0.0529
 6977SOL     OW32566   0.306   4.036   9.618 -0.9558 -0.8469  0.2279
 6977SOL    HW132567   0.267   3.971   9.676  0.0499 -2.3798 -0.8065
 6977SOL    HW232568   0.305   3.980   9.540 -0.9269 -1.8770  0.9683
 6978SOL     OW32569   0.216   4.412   3.213 -0.7848  0.3245 -0.0885
 6978SOL    HW132570   0.298   4.373   3.185 -2.4513 -1.6486 -2.1666
 6978SOL    HW232571   0.196   4.471   3.140 -0.5836  1.6471  0.9044
 6979SOL     OW32572   0.141   1.873   3.441 -0.4089  0.2675  0.3416
 6979SOL    HW132573   0.167   1.915   3.359 -0.1211  1.5431  1.0793
 6979SOL    HW232574   0.055   1.914   3.456 -1.0104 -0.4391 -1.1083
 6980SOL     OW32575   2.232   0.338   3.515  0.6002  0.0728  0.4308
 6980SOL    HW132576   2.172   0.303   3.449  1.5652 -0.5914 -0.0972
 6980SOL    HW232577   2.274   0.402   3.458  0.2483  0.4185  0.5592
 6981SOL     OW32578   0.385   0.421  17.362  0.4762  0.1002 -0.1998
 6981SOL    HW132579   0.451   0.471  17.313 -1.6145  1.0120 -2.0869
 6981SOL    HW232580   0.368   0.348  17.302  1.3145 -2.7523  3.0627
 6982SOL     OW32581   0.740   4.639   8.792 -0.6218 -0.4027 -0.6937
 6982SOL    HW132582   0.799   4.600   8.727 -2.4412 -1.8577 -1.4651
 6982SOL    HW232583   0.772   4.729   8.797 -0.5034 -0.5592  1.3574
 6983SOL     OW32584   0.225   1.874  16.985 -0.0891  0.1794  1.3242
 6983SOL    HW132585   0.142   1.832  17.010 -1.3349  2.3072  0.7566
 6983SOL    HW232586   0.209   1.917  16.900  1.4015 -1.6331  0.1178
 6984SOL     OW32587   0.799   2.804   4.475 -0.8861  0.5233  0.0677
 6984SOL    HW132588   0.890   2.796   4.446 -0.9849  1.5955 -0.5378
 6984SOL    HW232589   0.765   2.717   4.452  2.2723 -0.6810 -0.0942
 6985SOL     OW32590   3.196   1.592   4.664  0.0526  0.4553 -0.9407
 6985SOL    HW132591   3.197   1.594   4.568  0.4598 -1.8624 -0.9974
 6985SOL    HW232592   3.104   1.604   4.688 -0.1128  0.3006 -1.4806
 6986SOL     OW32593   2.286   3.674   9.229  0.5817 -0.5810  0.1906
 6986SOL    HW132594   2.317   3.731   9.300 -1.6973  1.3682 -0.3887
 6986SOL    HW232595   2.341   3.599   9.249  1.6936  0.1039 -0.3354
 6987SOL     OW32596   2.316   4.308   7.894 -0.5773 -0.2133 -0.5898
 6987SOL    HW132597   2.363   4.388   7.868 -2.6894  1.0236 -0.5955
 6987SOL    HW232598   2.392   4.251   7.901  0.5326  1.6906  3.1372
 6988SOL     OW32599   2.668   2.117   0.571  0.8634  1.0668  0.5344
 6988SOL    HW132600   2.645   2.195   0.621 -0.3222 -0.0317  1.6840
 6988SOL    HW232601   2.666   2.151   0.481 -0.0377  0.4615  0.3283
 6989SOL     OW32602   2.880   1.930   6.169  0.0615 -0.3927  0.1496
 6989SOL    HW132603   2.875   1.906   6.262  0.6271  0.6390  0.4380
 6989SOL    HW232604   2.942   2.003   6.173  1.1389 -1.3172  0.2019
 6990SOL     OW32605   0.485   3.017   8.721 -0.0678 -0.1489  0.0503
 6990SOL    HW132606   0.400   3.038   8.683  0.9972  1.3227 -1.4972
 6990SOL    HW232607   0.468   3.028   8.815 -0.5446 -1.3951  0.1135
 6991SOL     OW32608   1.300   3.925   4.974 -0.2240  0.0920 -0.1220
 6991SOL    HW132609   1.325   3.987   5.042 -0.7116 -0.9703  1.0097
 6991SOL    HW232610   1.205   3.926   4.981 -0.3496 -3.6370 -1.4025
 6992SOL     OW32611   1.101   1.220   6.399 -0.0834  0.2655  0.0514
 6992SOL    HW132612   1.046   1.286   6.441 -2.1353 -0.7677 -0.9802
 6992SOL    HW232613   1.146   1.194   6.480 -1.4723  0.5457  0.9107
 6993SOL     OW32614   3.842   4.550   2.462 -0.1734  0.3406 -0.0989
 6993SOL    HW132615   3.891   4.487   2.515 -0.8457  1.1376  1.4805
 6993SOL    HW232616   3.913   4.608   2.433 -1.2959 -0.2976 -3.9812
 6994SOL     OW32617   4.262   4.385   1.018  0.0236  0.5089  0.3621
 6994SOL    HW132618   4.290   4.381   1.110 -1.5510 -0.2206  0.8116
 6994SOL    HW232619   4.214   4.468   1.027 -2.4065 -0.7199 -1.3489
 6995SOL     OW32620   1.857   3.739   8.921 -0.2382  0.6712 -0.0213
 6995SOL    HW132621   1.890   3.828   8.912 -0.5388  0.9528  1.6760
 6995SOL    HW232622   1.926   3.694   8.970  0.5817  1.7522 -0.1878
 6996SOL     OW32623   4.382   2.997   4.050  0.2516  0.2400  0.3420
 6996SOL    HW132624   4.381   3.000   3.954  4.4191  1.3333  0.3455
 6996SOL    HW232625   4.471   3.019   4.076 -0.1954  1.4488  0.8510
 6997SOL     OW32626   0.077   1.513   4.472 -0.8651 -0.2491 -0.2235
 6997SOL    HW132627   0.126   1.436   4.445 -1.7494 -0.3027 -1.6447
 6997SOL    HW232628   4.729   1.490   4.513  0.0833 -2.2338  0.5970
 6998SOL     OW32629   2.596   4.162   5.357  0.2784 -0.3245 -0.3779
 6998SOL    HW132630   2.551   4.082   5.384  0.4919 -0.1251  0.5822
 6998SOL    HW232631   2.518   4.217   5.347  1.3719  1.5249  1.2221
 6999SOL     OW32632   2.016   2.456   6.520 -0.2259 -0.2030 -0.5337
 6999SOL    HW132633   1.996   2.479   6.429  1.4139 -1.1164 -1.1335
 6999SOL    HW232634   1.968   2.525   6.565  0.4891 -0.8703  1.2632
 7000SOL     OW32635   0.034   1.561   5.858 -0.2438  0.0673 -0.2105
 7000SOL    HW132636   0.039   1.496   5.788  1.0016 -0.2749  0.1993
 7000SOL    HW232637   4.706   1.522   5.916  0.5052 -0.7753  0.0459
 7001SOL     OW32638   1.773   0.320   6.288 -0.0716 -0.2729 -0.0808
 7001SOL    HW132639   1.759   0.327   6.383  1.4194  0.4120  0.0968
 7001SOL    HW232640   1.867   0.299   6.286  0.1430  0.8811 -2.1120
 7002SOL     OW32641   1.532   0.143   6.476  0.3848  0.1399 -0.4860
 7002SOL    HW132642   1.549   0.119   6.385  0.0276  2.8047 -1.2770
 7002SOL    HW232643   1.588   0.221   6.486 -1.2132  0.9554  2.1548
 7003SOL     OW32644   0.384   2.857   5.805 -0.1051 -0.4552  0.3710
 7003SOL    HW132645   0.411   2.829   5.718  0.9659 -0.5832  0.7407
 7003SOL    HW232646   0.454   2.921   5.816 -2.4181  1.9937  0.6602
 7004SOL     OW32647   0.847   0.055   6.808 -0.0129 -0.0020 -0.8247
 7004SOL    HW132648   0.905   0.067   6.733 -0.6607 -0.0997 -1.3389
 7004SOL    HW232649   0.852   0.140   6.853 -0.1397 -1.5886  2.2433
 7005SOL     OW32650   4.177   2.732   4.778 -0.4959 -0.1833 -0.5818
 7005SOL    HW132651   4.253   2.749   4.722  0.8049 -1.6993  0.7306
 7005SOL    HW232652   4.124   2.810   4.762  1.3139  1.0364 -0.6894
 7006SOL     OW32653   1.333   0.084   3.732 -0.1251  0.1089 -0.0461
 7006SOL    HW132654   1.387   0.143   3.784 -0.9426  1.6837 -0.9614
 7006SOL    HW232655   1.298   0.026   3.799 -0.4181 -0.2605 -0.5246
 7007SOL     OW32656   1.895   0.433   6.007  0.4805 -0.0465 -0.1917
 7007SOL    HW132657   1.924   0.344   5.990  2.9869  1.1912 -2.4251
 7007SOL    HW232658   1.801   0.421   6.019  0.6623 -1.7020 -0.5509
 7008SOL     OW32659   2.065   1.414  11.858  0.1307  0.2525 -0.1298
 7008SOL    HW132660   2.054   1.357  11.782  3.0924  0.9759 -1.1005
 7008SOL    HW232661   2.071   1.500  11.816 -1.9075 -0.0434 -1.0137
 7009SOL     OW32662   3.956   4.022  14.020  0.6944  0.8096  0.1669
 7009SOL    HW132663   3.988   3.934  14.040  1.6544  1.4496  1.5219
 7009SOL    HW232664   3.894   4.001  13.951  1.3598 -0.4266 -0.0616
 7010SOL     OW32665   2.160   3.438   3.559  0.4035  0.0306  0.0092
 7010SOL    HW132666   2.242   3.406   3.597 -0.1854 -2.2426 -0.6381
 7010SOL    HW232667   2.140   3.364   3.502 -0.3593 -1.2114  1.8804
 7011SOL     OW32668   0.208   1.264   4.960  0.0858  0.1424 -0.5541
 7011SOL    HW132669   0.295   1.296   4.981 -0.0108 -0.0686  0.1741
 7011SOL    HW232670   0.223   1.170   4.950  1.7668  0.3528  0.0267
 7012SOL     OW32671   1.653   3.579  11.879 -0.2407  0.1907  0.0709
 7012SOL    HW132672   1.628   3.530  11.800 -0.0143 -2.0860  1.4119
 7012SOL    HW232673   1.639   3.667  11.845  0.1652  0.3521  0.3379
 7013SOL     OW32674   0.468   4.121   0.288 -0.4398 -0.5881 -0.2353
 7013SOL    HW132675   0.487   4.205   0.331 -0.7184 -0.4282 -0.4280
 7013SOL    HW232676   0.463   4.067   0.367 -0.4328  0.7099  0.6530
 7014SOL     OW32677   3.254   4.276   8.614  0.1616  0.0747  0.3274
 7014SOL    HW132678   3.166   4.285   8.651 -0.6969 -1.3949 -1.3670
 7014SOL    HW232679   3.307   4.255   8.690 -0.4638 -1.8613  0.2396
 7015SOL     OW32680   3.970   1.931   5.433  0.2054 -0.1319 -0.1968
 7015SOL    HW132681   3.917   1.863   5.390 -0.5130  0.4726 -0.2792
 7015SOL    HW232682   3.901   1.986   5.470  1.8691  0.2334  2.3646
 7016SOL     OW32683   4.173   3.320  15.481  0.5627 -0.0461 -0.2877
 7016SOL    HW132684   4.245   3.325  15.419  0.6797 -1.5506 -0.2781
 7016SOL    HW232685   4.207   3.244  15.529 -0.1507 -1.6114 -2.2783
 7017SOL     OW32686   2.495   2.166   4.406 -0.1455  0.2148  0.3639
 7017SOL    HW132687   2.444   2.189   4.327  1.8338  1.3257 -0.5933
 7017SOL    HW232688   2.589   2.172   4.386  0.0943  3.4490  2.4374
 7018SOL     OW32689   2.643   3.117   6.624  0.3425 -0.0364  0.5389
 7018SOL    HW132690   2.640   3.169   6.705  0.2792 -0.1643  0.6193
 7018SOL    HW232691   2.658   3.028   6.655 -0.7338 -1.0468 -1.8394
 7019SOL     OW32692   2.817   2.335   3.801  0.3895  0.0272  0.2765
 7019SOL    HW132693   2.772   2.407   3.756  0.4449 -0.3890 -0.4316
 7019SOL    HW232694   2.844   2.374   3.885  0.1834 -0.4897  0.5803
 7020SOL     OW32695   0.476   2.818   6.553  0.0165  0.4772  0.2922
 7020SOL    HW132696   0.531   2.775   6.488 -0.0666  1.5937 -0.5279
 7020SOL    HW232697   0.425   2.743   6.584  2.7416 -0.9806  1.2513
 7021SOL     OW32698   1.183   2.691   9.463 -0.5770 -0.0847  0.4053
 7021SOL    HW132699   1.271   2.657   9.474 -0.9200 -0.9043  0.5966
 7021SOL    HW232700   1.192   2.776   9.507  1.2333 -0.2622  0.3762
 7022SOL     OW32701   0.535   4.597   3.954 -0.4388  0.4824 -0.2220
 7022SOL    HW132702   0.602   4.636   3.898  0.8173 -1.8614 -0.3382
 7022SOL    HW232703   0.460   4.637   3.909 -2.1282 -0.8196  1.4537
 7023SOL     OW32704   1.751   4.344   3.346 -0.2986 -0.6893  0.2839
 7023SOL    HW132705   1.836   4.301   3.334 -0.5391 -0.6301 -1.6379
 7023SOL    HW232706   1.757   4.415   3.282 -1.1508 -1.2894 -0.4670
 7024SOL     OW32707   4.002   2.466   1.663 -0.0023  0.0441 -0.6017
 7024SOL    HW132708   4.027   2.556   1.640  1.5994  0.0487  1.0881
 7024SOL    HW232709   3.943   2.460   1.588 -1.8009 -0.4806  0.8599
 7025SOL     OW32710   1.099   0.172   3.101  0.1822  0.4326  0.5058
 7025SOL    HW132711   1.025   0.192   3.043  0.2871 -1.3234 -0.2538
 7025SOL    HW232712   1.070   0.204   3.187 -0.0710  1.2408  0.1180
 7026SOL     OW32713   4.239   1.339  13.338  0.5018 -0.0749  0.0650
 7026SOL    HW132714   4.177   1.345  13.411  0.7782  3.9437 -0.0188
 7026SOL    HW232715   4.268   1.429  13.326 -1.7723  0.5637 -0.4907
 7027SOL     OW32716   3.750   0.693   9.001 -0.3899  0.5126  0.5184
 7027SOL    HW132717   3.809   0.767   9.015 -0.9836  0.6309  2.3805
 7027SOL    HW232718   3.687   0.723   8.935  1.1938 -0.5637 -1.5094
 7028SOL     OW32719   1.968   1.104  14.208  0.2662  0.5094 -0.3224
 7028SOL    HW132720   2.020   1.049  14.266  1.0482  1.2973 -0.2816
 7028SOL    HW232721   2.032   1.131  14.142 -0.8585 -0.5927 -1.8671
 7029SOL     OW32722   0.518   1.847   5.606  0.4753 -0.0772 -0.3129
 7029SOL    HW132723   0.612   1.857   5.617  0.5194  1.4539 -2.2123
 7029SOL    HW232724   0.484   1.903   5.675 -0.3162  0.7149 -1.3384
 7030SOL     OW32725   4.275   2.118   6.112  0.1957  0.2794 -0.3013
 7030SOL    HW132726   4.273   2.060   6.189 -2.1217  0.5465 -0.1799
 7030SOL    HW232727   4.328   2.191   6.145  0.2370 -0.3388  0.9949
 7031SOL     OW32728   1.512   3.701  16.527 -0.2541 -0.2439 -0.3611
 7031SOL    HW132729   1.590   3.706  16.472 -0.1779 -3.9133 -0.6210
 7031SOL    HW232730   1.561   3.694  16.610  1.3216 -1.0885 -1.3446
 7032SOL     OW32731   4.405   3.196   0.137 -0.5075 -0.0823 -0.7473
 7032SOL    HW132732   4.463   3.133   0.094  1.8416  0.1705  2.0183
 7032SOL    HW232733   4.414   3.272   0.079 -2.4006  1.2801  0.7653
 7033SOL     OW32734   2.945   0.868   5.696  0.0865 -0.2876 -0.1233
 7033SOL    HW132735   2.904   0.781   5.690 -0.3641  0.0039 -1.1533
 7033SOL    HW232736   3.020   0.856   5.638 -0.3529 -1.6413 -0.4205
 7034SOL     OW32737   4.304   1.048  14.961  0.1215 -0.6058  0.5868
 7034SOL    HW132738   4.246   1.110  15.004  1.6695  2.9913 -2.4441
 7034SOL    HW232739   4.356   1.106  14.905 -1.4952  0.6770  0.4184
 7035SOL     OW32740   1.837   1.551   5.005 -0.0872 -0.4870  0.4494
 7035SOL    HW132741   1.909   1.615   5.003 -1.2369  0.7141 -2.1364
 7035SOL    HW232742   1.768   1.613   5.028 -0.6434 -0.8879 -0.1202
 7036SOL     OW32743   2.601   3.306   8.825 -0.6218  0.6521 -0.0015
 7036SOL    HW132744   2.565   3.224   8.792  1.3505 -1.1890  2.4032
 7036SOL    HW232745   2.564   3.362   8.758 -1.3709 -1.6460 -1.5056
 7037SOL     OW32746   4.018   2.705   1.548 -0.2831  0.3463 -0.0149
 7037SOL    HW132747   3.996   2.766   1.618 -0.6702  1.8100 -1.4341
 7037SOL    HW232748   4.094   2.752   1.515 -1.2911 -0.0120 -2.7993
 7038SOL     OW32749   3.467   3.163   0.535  0.2498  0.6824  0.1829
 7038SOL    HW132750   3.548   3.206   0.560  0.4520  0.1013  0.5262
 7038SOL    HW232751   3.414   3.231   0.494 -1.6728 -1.6379 -1.1924
 7039SOL     OW32752   1.907   2.005   8.452 -0.3083  0.3603  0.1963
 7039SOL    HW132753   1.953   2.028   8.533  0.1112  2.9325 -0.7556
 7039SOL    HW232754   1.818   2.006   8.486 -0.2462  1.0122  0.3435
 7040SOL     OW32755   4.538   2.966   9.376 -0.2192  0.0406 -0.1103
 7040SOL    HW132756   4.557   2.990   9.466 -0.2818 -0.4861  0.0410
 7040SOL    HW232757   4.618   2.999   9.335  0.9782 -1.7411  0.7749
 7041SOL     OW32758   2.385   2.027   5.151  0.0768  0.3322  0.1515
 7041SOL    HW132759   2.450   1.997   5.087 -1.0517 -1.3851 -0.1849
 7041SOL    HW232760   2.448   2.063   5.214  0.9470 -1.4042  0.2917
 7042SOL     OW32761   0.455   0.932   4.100  0.4793  0.3719 -0.2262
 7042SOL    HW132762   0.470   0.962   4.010 -0.0702 -0.0304 -0.4519
 7042SOL    HW232763   0.375   0.978   4.127  1.2670  1.7849 -0.2885
 7043SOL     OW32764   2.158   3.302   5.078 -0.5594 -0.1329  0.6886
 7043SOL    HW132765   2.180   3.374   5.019  0.2243 -0.5063  0.5271
 7043SOL    HW232766   2.195   3.227   5.031 -0.3424 -0.6786  1.7276
 7044SOL     OW32767   0.209   2.843   4.099  0.1370 -0.7656 -0.0288
 7044SOL    HW132768   0.187   2.755   4.068 -1.4833 -0.4643  0.2816
 7044SOL    HW232769   0.305   2.835   4.098  0.3302  1.2409  1.8642
 7045SOL     OW32770   1.833   1.128  15.464  0.1227 -0.4032  0.2538
 7045SOL    HW132771   1.929   1.124  15.466  0.1861  1.5654  0.7668
 7045SOL    HW232772   1.819   1.212  15.420  0.6608  0.2896  1.4115
 7046SOL     OW32773   3.490   1.265   5.402  0.1952 -0.0579 -0.5670
 7046SOL    HW132774   3.523   1.354   5.412 -1.9109  0.7738 -1.0086
 7046SOL    HW232775   3.400   1.268   5.434  0.4340 -0.2591  0.1246
 7047SOL     OW32776   2.496   0.737  17.538  0.3725  0.5747 -0.6750
 7047SOL    HW132777   2.555   0.665  17.559  0.3664  0.8636  0.3272
 7047SOL    HW232778   2.428   0.688  17.490 -1.0416  2.0408 -0.1620
 7048SOL     OW32779   3.095   2.001   5.617  0.0542 -0.0337 -0.1135
 7048SOL    HW132780   3.114   1.909   5.598  1.6255  0.1563  0.5550
 7048SOL    HW232781   3.056   1.997   5.705 -0.5344 -0.4181 -0.3933
 7049SOL     OW32782   3.864   2.209  12.063  0.2612 -0.3809 -0.7065
 7049SOL    HW132783   3.868   2.152  11.986  3.8197 -1.7489  0.4899
 7049SOL    HW232784   3.770   2.203  12.084  0.3927 -0.3119 -0.0862
 7050SOL     OW32785   0.980   2.323   0.371  0.4769  1.1568  0.0108
 7050SOL    HW132786   1.012   2.235   0.391 -0.1620  1.1543  1.0114
 7050SOL    HW232787   0.927   2.343   0.449 -1.7161  1.7915 -1.6615
 7051SOL     OW32788   2.940   3.911   7.504 -0.4524 -0.0356  0.2072
 7051SOL    HW132789   2.986   3.897   7.587  0.3876  2.5044  0.1865
 7051SOL    HW232790   3.009   3.955   7.455 -1.8493  2.2066  0.2506
 7052SOL     OW32791   3.196   1.631  11.340  0.1905  0.2603 -0.1671
 7052SOL    HW132792   3.179   1.616  11.433  1.7361  0.6827  0.1869
 7052SOL    HW232793   3.127   1.696  11.327  0.9528  0.6960 -2.1005
 7053SOL     OW32794   4.535   2.836  11.493  0.4078 -0.0099  0.6564
 7053SOL    HW132795   4.609   2.780  11.515 -0.6222 -0.3612  3.2002
 7053SOL    HW232796   4.552   2.921  11.532  2.9237 -0.2387  0.0778
 7054SOL     OW32797   1.295   0.818   5.756 -0.1434 -0.2119 -0.0425
 7054SOL    HW132798   1.292   0.842   5.663  0.1261 -0.9272 -0.2354
 7054SOL    HW232799   1.288   0.904   5.798  1.2390 -0.7243  1.2349
 7055SOL     OW32800   1.777   1.725   8.014  0.6055  0.2344 -0.2101
 7055SOL    HW132801   1.849   1.672   8.048  0.1297  1.6737  3.0720
 7055SOL    HW232802   1.706   1.662   8.022  2.7759 -2.0802  0.7209
 7056SOL     OW32803   1.254   4.209  13.675  0.1073 -0.1433 -0.0924
 7056SOL    HW132804   1.257   4.273  13.603  1.9176 -0.9170 -0.7055
 7056SOL    HW232805   1.341   4.168  13.677  0.9364  1.5835 -0.6732
 7057SOL     OW32806   0.834   1.111   3.480  0.2869 -0.4506 -0.2073
 7057SOL    HW132807   0.789   1.144   3.558 -0.7949 -0.4860 -0.8153
 7057SOL    HW232808   0.856   1.190   3.430 -0.4791  0.2904  0.6260
 7058SOL     OW32809   3.066   2.326  16.402 -0.0484 -0.3182 -0.3951
 7058SOL    HW132810   3.052   2.261  16.471  0.4100  2.3047  2.2040
 7058SOL    HW232811   3.129   2.383  16.447  0.7179 -0.4956 -1.2588
 7059SOL     OW32812   2.807   2.017   3.885  1.0050  0.2575  1.0883
 7059SOL    HW132813   2.723   2.029   3.930  0.5839  0.5330  0.2151
 7059SOL    HW232814   2.821   2.109   3.862 -2.2489  0.1836 -1.1538
 7060SOL     OW32815   1.581   0.053   4.236 -0.1920 -0.1799  0.1843
 7060SOL    HW132816   1.653   0.102   4.276  0.0734 -0.3998 -0.0265
 7060SOL    HW232817   1.504   0.108   4.251 -0.2555 -0.4848  1.0090
 7061SOL     OW32818   1.898   3.337   1.322  0.3019  0.1076 -0.1079
 7061SOL    HW132819   1.808   3.315   1.344  0.1072  1.8546  0.8705
 7061SOL    HW232820   1.954   3.299   1.390 -0.3036 -1.8974 -0.7335
 7062SOL     OW32821   0.845   1.895   4.970 -0.1288 -0.3081  0.5861
 7062SOL    HW132822   0.921   1.845   4.939 -1.3838 -0.3126 -2.4726
 7062SOL    HW232823   0.822   1.843   5.048  1.5056 -2.2806 -0.2376
 7063SOL     OW32824   3.032   1.654   7.619 -0.1547  0.1091  0.5980
 7063SOL    HW132825   3.104   1.604   7.580  0.9719  2.6192 -0.5564
 7063SOL    HW232826   3.062   1.744   7.633  1.6856  0.0610 -3.1527
 7064SOL     OW32827   4.154   0.430   7.600 -1.1576 -0.0232 -0.2876
 7064SOL    HW132828   4.165   0.426   7.505 -0.1919  2.5545 -0.2873
 7064SOL    HW232829   4.240   0.409   7.636 -1.8332  0.3856  1.5598
 7065SOL     OW32830   1.966   0.488   7.462 -0.6366 -0.1123 -0.1839
 7065SOL    HW132831   1.954   0.557   7.527 -1.5764 -0.7980  0.3738
 7065SOL    HW232832   1.916   0.527   7.391 -1.5683 -1.0045 -0.0139
 7066SOL     OW32833   1.115   1.148   8.859 -0.2604  0.0072  0.4505
 7066SOL    HW132834   1.116   1.168   8.765 -1.8912 -2.9300 -0.1945
 7066SOL    HW232835   1.172   1.072   8.867  1.0099  1.2889  3.2610
 7067SOL     OW32836   0.821   0.431   2.168  1.1688 -0.9858  0.0756
 7067SOL    HW132837   0.914   0.445   2.186  1.0730  0.8771 -0.8520
 7067SOL    HW232838   0.827   0.413   2.074 -1.4772  3.2780 -0.8862
 7068SOL     OW32839   1.692   2.659   5.742 -0.1116 -0.7916 -0.1399
 7068SOL    HW132840   1.724   2.685   5.656  1.0612 -0.0498  0.5212
 7068SOL    HW232841   1.707   2.565   5.734 -1.4733 -0.9331 -1.1177
 7069SOL     OW32842   1.461   0.202   6.003 -0.0485 -0.3459 -0.7790
 7069SOL    HW132843   1.384   0.223   6.054 -1.2782 -0.1924 -2.6816
 7069SOL    HW232844   1.524   0.263   6.041 -0.1789 -0.7656  0.0892
 7070SOL     OW32845   4.638   4.620   5.304 -0.2350  0.2733 -0.1649
 7070SOL    HW132846   4.657   4.711   5.281  0.4253  0.3657  0.7474
 7070SOL    HW232847   4.542   4.621   5.305 -0.2698 -3.3548 -0.0670
 7071SOL     OW32848   0.298   3.148  16.777 -0.3026 -0.7421  0.0663
 7071SOL    HW132849   0.357   3.075  16.793  0.5291 -0.0110  0.3546
 7071SOL    HW232850   0.360   3.208  16.736  1.1445 -1.9556  0.5041
 7072SOL     OW32851   2.642   0.579   3.388 -0.3313 -0.0301 -0.7343
 7072SOL    HW132852   2.600   0.612   3.467  1.8442  2.4871 -0.6274
 7072SOL    HW232853   2.689   0.500   3.415 -0.1492 -0.4940 -2.3792
 7073SOL     OW32854   4.578   2.887   7.540  0.1689 -0.3948 -0.2216
 7073SOL    HW132855   4.599   2.896   7.447  0.6290  0.8825  0.0024
 7073SOL    HW232856   4.625   2.805   7.558  0.8393  0.5222  2.1668
 7074SOL     OW32857   3.964   0.672   2.679  0.5619 -0.0225 -0.7091
 7074SOL    HW132858   3.937   0.593   2.726 -0.4488 -0.3776 -1.9063
 7074SOL    HW232859   3.938   0.657   2.588 -1.2739  1.5078 -0.4327
 7075SOL     OW32860   3.495   2.079   3.886 -0.0495  0.1523  0.0878
 7075SOL    HW132861   3.452   2.000   3.918  0.4985  0.6862  2.1753
 7075SOL    HW232862   3.463   2.146   3.947  0.7789  0.4944  0.1556
 7076SOL     OW32863   1.860   2.697  14.632 -0.3706  0.7113 -0.3073
 7076SOL    HW132864   1.937   2.685  14.577  0.3762 -0.7779  1.0455
 7076SOL    HW232865   1.800   2.727  14.564 -3.8572 -2.5986  1.2464
 7077SOL     OW32866   0.761   4.454   0.200 -0.3734 -0.8100 -0.0758
 7077SOL    HW132867   0.807   4.499   0.271 -0.8617 -0.6030  0.1048
 7077SOL    HW232868   0.820   4.383   0.173 -1.4140 -1.2532 -1.1668
 7078SOL     OW32869   2.021   2.567   0.928  0.6974  0.7401  0.1614
 7078SOL    HW132870   2.109   2.590   0.958  0.5536 -1.6745  2.3818
 7078SOL    HW232871   1.991   2.657   0.915  3.1259  1.6573  1.0112
 7079SOL     OW32872   4.542   0.828   5.542  0.0835 -0.3034 -0.4993
 7079SOL    HW132873   4.484   0.886   5.592  1.4894  0.6210  0.0748
 7079SOL    HW232874   4.478   0.806   5.475 -1.5468  2.8216  0.0136
 7080SOL     OW32875   2.855   2.612  16.888  0.6050 -0.2084  0.3528
 7080SOL    HW132876   2.782   2.670  16.865 -1.2277 -2.3308  0.8471
 7080SOL    HW232877   2.822   2.551  16.954  2.4490  2.2349  3.5222
 7081SOL     OW32878   1.818   1.298   2.131  0.3283 -0.0798  0.1713
 7081SOL    HW132879   1.787   1.225   2.184  3.1396 -1.6666 -0.3458
 7081SOL    HW232880   1.911   1.290   2.152  0.7158 -0.8646 -1.7955
 7082SOL     OW32881   1.994   0.737  11.106 -0.3451 -0.3812  0.4018
 7082SOL    HW132882   1.926   0.705  11.165 -0.7817  3.2641  1.8777
 7082SOL    HW232883   2.065   0.687  11.146  1.6591  1.1660 -1.1978
 7083SOL     OW32884   1.965   3.020   4.957  0.1408  0.0722 -0.2984
 7083SOL    HW132885   1.937   2.953   4.895 -0.3487 -0.3748  0.4062
 7083SOL    HW232886   1.955   3.101   4.907 -1.5955  0.5330  0.8192
 7084SOL     OW32887   3.823   0.336   3.348  0.2035 -0.6311 -0.6571
 7084SOL    HW132888   3.733   0.335   3.314  1.2534 -0.2656 -3.4662
 7084SOL    HW232889   3.847   0.428   3.335 -0.4132 -0.5332 -1.1474
 7085SOL     OW32890   4.237   3.127   2.972  0.2415  0.3872 -0.1548
 7085SOL    HW132891   4.143   3.143   2.967 -0.1544 -1.6180  0.9349
 7085SOL    HW232892   4.274   3.207   2.935 -0.6690  0.5778 -0.6592
 7086SOL     OW32893   2.981   4.451  12.502  0.0010  0.0342  0.3690
 7086SOL    HW132894   3.049   4.422  12.563 -0.0819  2.3376  1.5489
 7086SOL    HW232895   2.951   4.528  12.550 -2.2662 -1.1565  0.8878
 7087SOL     OW32896   1.416   3.041  14.853  0.1091  0.1551 -0.3029
 7087SOL    HW132897   1.339   3.046  14.909 -0.3969  2.2416 -1.1817
 7087SOL    HW232898   1.482   3.018  14.919  0.1649 -0.3514 -0.5353
 7088SOL     OW32899   1.771   2.939   1.925 -0.6384  0.2741  0.1902
 7088SOL    HW132900   1.719   3.001   1.874 -0.4592  0.1206 -0.1864
 7088SOL    HW232901   1.865   2.957   1.924 -0.6150  0.2127  2.7742
 7089SOL     OW32902   1.213   1.022   0.287 -0.2991  0.7545  0.7794
 7089SOL    HW132903   1.140   0.992   0.233  0.6632  0.2208 -0.2412
 7089SOL    HW232904   1.192   1.115   0.290  1.5548  1.1837  0.2906
 7090SOL     OW32905   2.955   3.502  11.112 -0.1124 -0.6106  0.0649
 7090SOL    HW132906   2.982   3.468  11.026  0.2659 -1.7652  0.6361
 7090SOL    HW232907   3.008   3.454  11.176 -1.1757 -1.0508  0.6055
 7091SOL     OW32908   4.283   0.013  11.115  0.3757 -0.1717 -0.3362
 7091SOL    HW132909   4.257   4.661  11.139  1.7927 -0.7072 -0.7209
 7091SOL    HW232910   4.374   4.732  11.139  0.1830 -0.2445  0.3400
 7092SOL     OW32911   0.507   3.483   1.236 -0.3292  0.0705  0.7369
 7092SOL    HW132912   0.452   3.456   1.162 -0.3234 -1.7855  1.3926
 7092SOL    HW232913   0.471   3.422   1.301  0.5287  0.8165  1.9129
 7093SOL     OW32914   0.675   2.307   3.745 -0.1156 -0.6183 -0.1376
 7093SOL    HW132915   0.584   2.278   3.740 -0.1436 -0.9398  2.2768
 7093SOL    HW232916   0.718   2.234   3.790  0.3360  1.1282  2.2816
 7094SOL     OW32917   1.859   0.341   8.860 -0.1558  0.4423 -0.1494
 7094SOL    HW132918   1.786   0.403   8.863  0.7501  1.4079  2.3024
 7094SOL    HW232919   1.862   0.309   8.951  0.3628  0.4760 -0.1546
 7095SOL     OW32920   1.764   1.878   5.964 -0.0933 -0.0038 -0.1303
 7095SOL    HW132921   1.858   1.866   5.972 -0.0747 -0.8249 -1.7825
 7095SOL    HW232922   1.732   1.891   6.054 -2.0963 -0.0814 -0.8329
 7096SOL     OW32923   4.109   2.819   2.001 -0.0848 -0.5005 -0.0524
 7096SOL    HW132924   4.039   2.849   2.060 -0.3743  1.5819 -1.4241
 7096SOL    HW232925   4.154   2.903   1.996 -2.1132  0.6916  1.2359
 7097SOL     OW32926   3.960   4.345   8.927 -0.3892  0.6132 -0.4873
 7097SOL    HW132927   3.959   4.437   8.952 -1.5221  0.7540 -1.0665
 7097SOL    HW232928   3.873   4.329   8.893 -0.3603  1.6290 -1.0479
 7098SOL     OW32929   4.725   2.353   8.269 -0.6774  0.0930  0.2608
 7098SOL    HW132930   0.012   2.445   8.258 -1.5996  0.3110  0.1564
 7098SOL    HW232931   4.708   2.331   8.177 -3.0879  1.2510  0.4157
 7099SOL     OW32932   1.054   4.239   4.062  0.2113 -0.0371  0.5646
 7099SOL    HW132933   0.959   4.231   4.075 -0.0170  1.0650 -0.4843
 7099SOL    HW232934   1.073   4.224   3.969  0.3254 -2.0213  0.9104
 7100SOL     OW32935   1.979   2.830  12.505 -0.4357 -0.0632 -0.2564
 7100SOL    HW132936   2.037   2.851  12.431 -1.2881  0.6197 -0.7289
 7100SOL    HW232937   2.012   2.895  12.568  1.3977 -0.5621 -0.6999
 7101SOL     OW32938   4.529   0.360   4.586  0.5406 -0.0635  0.2346
 7101SOL    HW132939   4.536   0.426   4.655 -0.3407  0.4162 -0.1322
 7101SOL    HW232940   4.606   0.305   4.595  1.3211  1.4216  2.7055
 7102SOL     OW32941   4.194   3.183   3.634 -0.0599  0.0157  0.3079
 7102SOL    HW132942   4.187   3.278   3.627  0.2388  0.0804  0.8332
 7102SOL    HW232943   4.260   3.176   3.565 -0.8342 -1.7506 -0.2398
 7103SOL     OW32944   3.828   1.056   6.113  0.9475 -0.3014 -0.2480
 7103SOL    HW132945   3.866   0.984   6.061  0.0001  1.2321 -3.0401
 7103SOL    HW232946   3.853   1.020   6.199  0.8620  0.5420  0.1319
 7104SOL     OW32947   0.693   3.178   8.403 -0.3827  0.0561 -0.1903
 7104SOL    HW132948   0.700   3.130   8.486  1.0932  3.2955  1.5672
 7104SOL    HW232949   0.699   3.108   8.339 -0.4243  1.5472 -1.8247
 7105SOL     OW32950   0.500   4.409   3.217  0.0518 -0.0072 -0.8335
 7105SOL    HW132951   0.526   4.390   3.127 -0.5942  2.5899 -1.5880
 7105SOL    HW232952   0.547   4.489   3.241  1.7351 -0.5010 -2.4898
 7106SOL     OW32953   2.313   1.432   5.376 -0.8018  0.2530 -0.3497
 7106SOL    HW132954   2.317   1.380   5.296 -3.8353 -0.5472  0.0097
 7106SOL    HW232955   2.330   1.372   5.448 -0.3645 -0.7668 -1.3134
 7107SOL     OW32956   3.902   3.932   7.674 -0.5941 -0.3386 -0.3696
 7107SOL    HW132957   3.806   3.940   7.669 -0.3893  1.9330 -0.5509
 7107SOL    HW232958   3.905   3.839   7.696  1.6205  0.0308  0.8200
 7108SOL     OW32959   2.549   3.189  17.424 -0.2551 -0.0404 -0.5791
 7108SOL    HW132960   2.570   3.239  17.503 -0.3279 -0.1164 -0.5121
 7108SOL    HW232961   2.476   3.242  17.395 -2.5917 -1.6351  2.4213
 7109SOL     OW32962   0.841   1.281   7.128 -0.7684 -0.1658 -0.4842
 7109SOL    HW132963   0.827   1.375   7.124 -1.4596 -0.3622 -2.6924
 7109SOL    HW232964   0.784   1.248   7.058  1.4497 -0.9758 -1.9166
 7110SOL     OW32965   4.221   4.481   3.476  0.0007  0.1497 -0.1144
 7110SOL    HW132966   4.197   4.573   3.474  0.3015  0.3227  4.5975
 7110SOL    HW232967   4.148   4.437   3.519  0.5228 -0.7430 -0.1320
 7111SOL     OW32968   0.512   3.821   2.116 -0.4759 -0.0670 -0.2299
 7111SOL    HW132969   0.431   3.794   2.159 -2.1408  0.9297 -2.8338
 7111SOL    HW232970   0.565   3.836   2.195  0.4582 -1.7780 -0.5195
 7112SOL     OW32971   3.840   2.638   7.378 -0.1066 -0.3698  0.4588
 7112SOL    HW132972   3.835   2.545   7.354  2.0002 -1.0007  2.5288
 7112SOL    HW232973   3.918   2.674   7.337 -0.8976  0.4215 -0.3635
 7113SOL     OW32974   0.869   1.225  16.737  0.2542 -0.0609  0.6153
 7113SOL    HW132975   0.908   1.138  16.728  1.1604  0.3976  0.0957
 7113SOL    HW232976   0.811   1.221  16.660 -1.1660 -2.0020  1.7806
 7114SOL     OW32977   4.209   4.456  13.016 -0.6805  0.2616  0.2782
 7114SOL    HW132978   4.278   4.481  13.077  0.3274  2.2951 -1.7053
 7114SOL    HW232979   4.247   4.494  12.937 -0.2458 -2.0812 -0.6328
 7115SOL     OW32980   3.567   3.135   3.986 -0.8101  0.0256 -0.2173
 7115SOL    HW132981   3.512   3.109   4.060  1.6871 -0.7682  1.3509
 7115SOL    HW232982   3.513   3.209   3.958 -1.9364 -0.7930 -0.2253
 7116SOL     OW32983   0.303   3.451   7.151 -0.5397 -0.3083  0.3360
 7116SOL    HW132984   0.327   3.504   7.227 -0.3738  1.0877 -0.7087
 7116SOL    HW232985   0.369   3.479   7.088  0.0049 -0.5140  0.8159
 7117SOL     OW32986   1.397   0.180  16.459  0.7954 -0.3884 -0.1192
 7117SOL    HW132987   1.392   0.191  16.554 -0.2782  1.1694 -0.3543
 7117SOL    HW232988   1.343   0.101  16.450  0.4070 -0.1266 -0.1022
 7118SOL     OW32989   0.877   0.320  14.728  0.3930  0.1598  0.4067
 7118SOL    HW132990   0.902   0.397  14.676 -0.6385 -0.8745 -1.6562
 7118SOL    HW232991   0.950   0.264  14.702 -0.2820 -1.5454  2.2586
 7119SOL     OW32992   2.704   0.575  12.044 -0.1945  0.3343 -0.1976
 7119SOL    HW132993   2.785   0.527  12.057 -0.3587 -0.3338 -1.6764
 7119SOL    HW232994   2.677   0.589  12.135  1.6177 -1.2967  0.5768
 7120SOL     OW32995   2.270   0.020   5.289  0.0796 -0.1396 -0.0332
 7120SOL    HW132996   2.190   0.062   5.258  0.2554 -0.8133 -1.4013
 7120SOL    HW232997   2.335   0.061   5.232  0.2299 -0.6457 -0.2327
 7121SOL     OW32998   0.091   0.964   3.049  0.2456 -0.1030  0.6969
 7121SOL    HW132999   0.084   1.058   3.065  2.3451  0.1695  0.0659
 7121SOL    HW233000   0.097   0.967   2.953  0.4620 -0.2699  0.7041
 7122SOL     OW33001   2.480   0.685  10.076 -0.6145  0.0109  0.1742
 7122SOL    HW133002   2.564   0.718  10.044  1.3247 -1.6800  3.4876
 7122SOL    HW233003   2.439   0.770  10.094  0.4807  0.9344 -1.6210
 7123SOL     OW33004   2.661   4.071   4.790  0.0283 -0.3741 -0.2951
 7123SOL    HW133005   2.594   4.136   4.810 -0.7806 -1.5385  0.7904
 7123SOL    HW233006   2.606   3.993   4.799 -0.7187 -0.1052 -2.4098
 7124SOL     OW33007   1.864   4.722   6.892 -0.8058 -0.5709 -0.0991
 7124SOL    HW133008   1.907   4.636   6.884 -1.1466 -0.5084 -2.6874
 7124SOL    HW233009   1.778   4.689   6.917  0.2397 -1.7257  1.9764
 7125SOL     OW33010   0.389   4.320   8.175 -0.0590  0.0240  0.2394
 7125SOL    HW133011   0.424   4.232   8.190 -0.6566 -0.4352 -1.1188
 7125SOL    HW233012   0.472   4.364   8.193  0.5695 -0.4762 -1.4796
 7126SOL     OW33013   4.654   2.153   2.097 -0.0562 -0.0216 -0.3519
 7126SOL    HW133014   4.615   2.163   2.010  0.3980 -0.0978 -0.5670
 7126SOL    HW233015   4.658   2.240   2.135  2.5372 -0.5056  0.5220
 7127SOL     OW33016   2.765   0.639   5.987  0.2972 -0.1269 -0.0934
 7127SOL    HW133017   2.682   0.662   6.029  0.7621 -2.1079  1.9380
 7127SOL    HW233018   2.812   0.699   6.045 -0.4122  0.7590 -0.4342
 7128SOL     OW33019   2.013   4.209   5.277 -0.2140  0.4438  0.2809
 7128SOL    HW133020   1.957   4.244   5.346 -0.0740  1.4758 -0.1373
 7128SOL    HW233021   2.009   4.285   5.220 -0.8603  1.7337  2.0631
 7129SOL     OW33022   3.429   2.014   0.532  0.3945  0.5047  0.2795
 7129SOL    HW133023   3.346   1.983   0.496  0.2500  0.8430  0.3224
 7129SOL    HW233024   3.485   1.958   0.478 -2.3241 -1.1157 -0.8770
 7130SOL     OW33025   2.914   2.845   7.070  1.1565  0.7647  0.0592
 7130SOL    HW133026   2.838   2.855   7.127 -0.5292 -1.0300 -1.8688
 7130SOL    HW233027   2.907   2.912   7.003  2.4977  1.6293  0.7822
 7131SOL     OW33028   3.028   2.247   5.800 -0.3258  0.4877  0.1515
 7131SOL    HW133029   3.117   2.253   5.835  0.1469  0.4144 -1.0031
 7131SOL    HW233030   2.990   2.174   5.849 -0.6331  1.0167  0.6935
 7132SOL     OW33031   0.656   4.329   5.824  0.5394  0.3754 -0.6144
 7132SOL    HW133032   0.734   4.290   5.786  0.2366 -0.8561  0.0591
 7132SOL    HW233033   0.647   4.402   5.762  2.9877  1.9686  0.9202
 7133SOL     OW33034   2.188   4.081   7.264 -0.2727  0.0958 -0.1600
 7133SOL    HW133035   2.181   4.109   7.172 -1.7121 -3.4158 -1.1090
 7133SOL    HW233036   2.148   4.156   7.308  1.8989  1.3761 -0.3573
 7134SOL     OW33037   2.256   2.690   1.587  0.1207 -0.3683 -0.4612
 7134SOL    HW133038   2.176   2.713   1.539 -0.4871  0.3657  0.8913
 7134SOL    HW233039   2.315   2.765   1.588  1.8493 -1.7290 -0.3809
 7135SOL     OW33040   0.456   0.170   9.129 -0.0946 -0.6365 -0.2954
 7135SOL    HW133041   0.505   0.203   9.054  0.6668 -3.0718 -0.8631
 7135SOL    HW233042   0.398   0.106   9.089 -0.8988 -0.3173  0.3420
 7136SOL     OW33043   3.137   4.074  16.424  0.4210  0.5954  0.2624
 7136SOL    HW133044   3.043   4.085  16.411  0.4234  0.1899 -0.0942
 7136SOL    HW233045   3.158   4.132  16.497 -0.1276  0.0377  0.8635
 7137SOL     OW33046   3.460   4.515   7.894  0.2080  0.1365 -0.1275
 7137SOL    HW133047   3.516   4.569   7.839  0.5564  0.2227  0.3137
 7137SOL    HW233048   3.533   4.462   7.928 -0.0388 -1.5003 -2.1154
 7138SOL     OW33049   0.820   4.582  12.258 -0.1231  0.1508  0.2169
 7138SOL    HW133050   0.797   4.562  12.168 -0.3089 -0.2532  0.3562
 7138SOL    HW233051   0.906   4.620  12.238 -1.2440  2.3582 -0.4693
 7139SOL     OW33052   0.027   2.448   4.882  0.3767  0.0961 -0.1559
 7139SOL    HW133053   0.087   2.442   4.807  0.5555 -0.6617  0.0477
 7139SOL    HW233054   0.054   2.370   4.931 -0.7677  0.0895  0.4505
 7140SOL     OW33055   1.375   4.140   6.007  0.6449  0.6129  0.4427
 7140SOL    HW133056   1.377   4.206   6.077  1.0515 -0.5768  1.5636
 7140SOL    HW233057   1.423   4.173   5.931  1.3816  1.1289  1.1206
 7141SOL     OW33058   3.458   4.264  15.168  0.4215  0.4145 -0.0155
 7141SOL    HW133059   3.404   4.295  15.241  0.9477 -1.9119  1.3685
 7141SOL    HW233060   3.414   4.190  15.125 -0.4923  0.1213  1.4053
 7142SOL     OW33061   3.222   3.971   1.289  0.9192 -0.3313  0.3748
 7142SOL    HW133062   3.250   3.958   1.380  1.3389  1.2228  0.4657
 7142SOL    HW233063   3.132   3.939   1.297  0.3405  0.9218 -1.0893
 7143SOL     OW33064   4.507   1.766   3.621  0.2599 -0.2843  0.0609
 7143SOL    HW133065   4.468   1.750   3.535  0.4170 -0.9713  0.1166
 7143SOL    HW233066   4.508   1.861   3.623  0.8241 -0.3156  1.0241
 7144SOL     OW33067   4.168   3.906   3.906 -0.5893  0.2636 -0.1893
 7144SOL    HW133068   4.140   3.859   3.985  1.0236 -0.5468 -0.1023
 7144SOL    HW233069   4.240   3.950   3.953  0.1199 -0.2701 -0.7741
 7145SOL     OW33070   0.707   3.776  10.499 -0.7500  0.1679 -0.0544
 7145SOL    HW133071   0.709   3.863  10.540  1.6847 -0.0296  0.2582
 7145SOL    HW233072   0.780   3.731  10.541 -0.0342 -0.6035 -2.1145
 7146SOL     OW33073   4.486   0.762   7.433 -0.6384 -0.0911 -0.0770
 7146SOL    HW133074   4.477   0.772   7.527 -1.0820 -2.0421  0.0885
 7146SOL    HW233075   4.448   0.677   7.409 -2.2746  0.5424  0.3149
 7147SOL     OW33076   1.273   1.167   6.606  0.0362  0.0236 -0.0104
 7147SOL    HW133077   1.352   1.216   6.584  0.9479 -1.1777  0.5793
 7147SOL    HW233078   1.298   1.106   6.676 -0.8528  0.0690  0.3399
 7148SOL     OW33079   4.400   0.507   7.379  0.4971  0.3825  0.6618
 7148SOL    HW133080   4.324   0.469   7.333  0.0123 -2.9089  4.2391
 7148SOL    HW233081   4.463   0.439   7.403  1.4686  1.2612  0.5989
 7149SOL     OW33082   1.328   3.273   1.634  0.5880 -0.5378  0.0347
 7149SOL    HW133083   1.233   3.259   1.640  0.4869 -0.2358 -0.8092
 7149SOL    HW233084   1.337   3.323   1.553  1.8709 -1.1072 -0.1731
 7150SOL     OW33085   2.960   4.619   0.460  0.1435 -0.4725  0.2943
 7150SOL    HW133086   2.982   4.694   0.515 -2.1774  1.8408 -1.9773
 7150SOL    HW233087   2.890   4.663   0.412 -0.2338 -0.7921  0.5495
 7151SOL     OW33088   0.959   0.456  13.326 -0.4450  0.5239  0.0818
 7151SOL    HW133089   0.997   0.373  13.355  1.1013 -0.0601 -3.6153
 7151SOL    HW233090   1.044   0.498  13.311  0.4032 -1.0716  0.3705
 7152SOL     OW33091   2.045   2.083   1.351 -0.3863  0.0286  0.0566
 7152SOL    HW133092   1.998   2.140   1.290  1.6040 -0.0315 -1.5214
 7152SOL    HW233093   2.073   2.021   1.284  1.0685 -0.8813  1.4977
 7153SOL     OW33094   1.085   3.102   2.512  0.4675 -0.0277 -0.3043
 7153SOL    HW133095   1.104   3.085   2.420 -0.2845  1.9037 -0.8100
 7153SOL    HW233096   1.150   3.171   2.524 -0.1800  0.5604 -0.1260
 7154SOL     OW33097   2.673   2.765  12.135  0.4346  0.4505 -0.2216
 7154SOL    HW133098   2.625   2.719  12.204 -0.9492 -0.3136 -1.6781
 7154SOL    HW233099   2.612   2.734  12.068 -0.6927  2.5529 -0.1607
 7155SOL     OW33100   3.144   1.229   5.790  0.5481  0.1818 -0.1515
 7155SOL    HW133101   3.205   1.181   5.846  0.6720  1.4712  0.7942
 7155SOL    HW233102   3.087   1.270   5.855  0.0696 -0.4340 -0.1781
 7156SOL     OW33103   3.661   0.628  17.410 -0.2376 -0.3524  0.0122
 7156SOL    HW133104   3.722   0.623  17.337 -0.9709  4.5537 -0.9234
 7156SOL    HW233105   3.591   0.564  17.393 -0.4267  0.2055 -1.2615
 7157SOL     OW33106   0.319   1.647   4.002  0.0885  0.2328  0.2562
 7157SOL    HW133107   0.335   1.611   4.090  2.7979 -1.2664 -0.8523
 7157SOL    HW233108   0.224   1.644   4.009  0.1764  0.6472  1.6925
 7158SOL     OW33109   0.026   4.041   0.204 -0.4330 -0.3004 -0.3551
 7158SOL    HW133110   4.669   4.062   0.194 -0.2711  0.4534 -0.2861
 7158SOL    HW233111   0.029   4.017   0.297  0.0445  1.0874 -0.0072
 7159SOL     OW33112   1.595   2.405   9.854  0.3129 -0.4160  0.2337
 7159SOL    HW133113   1.576   2.391   9.946  0.1006  0.7978  0.3857
 7159SOL    HW233114   1.627   2.321   9.822 -1.0778 -0.6590 -0.4992
 7160SOL     OW33115   1.909   2.943   8.118  0.0249  0.3513 -0.0373
 7160SOL    HW133116   1.894   2.988   8.036 -0.1523  1.0024  0.3542
 7160SOL    HW233117   1.868   2.861   8.090  1.5951 -0.3053 -0.4104
 7161SOL     OW33118   3.793   3.357  15.799 -0.4157 -0.4326 -0.1325
 7161SOL    HW133119   3.740   3.282  15.825 -0.1893 -0.5147  0.1008
 7161SOL    HW233120   3.768   3.420  15.867 -0.3008  1.6264 -1.9782
 7162SOL     OW33121   2.936   2.098   8.413  0.0788  0.0471 -0.2665
 7162SOL    HW133122   3.016   2.073   8.367  0.0300 -0.7308  0.0838
 7162SOL    HW233123   2.926   2.188   8.382  0.9824  0.5488  0.9146
 7163SOL     OW33124   2.206   3.712   2.277 -0.4544  0.2638  0.3234
 7163SOL    HW133125   2.273   3.705   2.209 -0.5484  2.3154  0.0249
 7163SOL    HW233126   2.144   3.647   2.243  0.6270 -1.8269  2.2983
 7164SOL     OW33127   1.538   2.453   0.019  0.3783 -0.1552  0.3835
 7164SOL    HW133128   1.537   2.368   0.063  1.5030  1.5100  3.5618
 7164SOL    HW233129   1.481   2.508   0.072  0.4490 -0.5806  0.8955
 7165SOL     OW33130   3.005   2.667   6.360  0.5883  0.2262 -0.5098
 7165SOL    HW133131   2.989   2.739   6.421 -2.4497 -0.1889 -0.8088
 7165SOL    HW233132   3.083   2.700   6.316 -0.7115  3.4086 -0.4219
 7166SOL     OW33133   3.224   4.509  16.714  0.1180 -0.1017  0.0363
 7166SOL    HW133134   3.247   4.559  16.636  0.0323  1.1703  0.8261
 7166SOL    HW233135   3.210   4.576  16.781 -0.8319  0.3743 -0.6370
 7167SOL     OW33136   2.167   1.217   4.402 -0.0306  0.3167  0.2593
 7167SOL    HW133137   2.237   1.265   4.445 -1.1916  2.0514  0.2267
 7167SOL    HW233138   2.208   1.131   4.391 -1.7687 -0.6123  0.9740
 7168SOL     OW33139   2.729   3.997  11.753 -0.0843 -0.6567 -0.0187
 7168SOL    HW133140   2.818   3.962  11.747 -0.1154 -0.6637 -0.4915
 7168SOL    HW233141   2.739   4.084  11.791  1.6081 -0.6483 -0.4795
 7169SOL     OW33142   2.026   0.563   1.961 -0.3198  1.0702 -0.2483
 7169SOL    HW133143   1.961   0.494   1.973  1.1572 -0.1888  0.5319
 7169SOL    HW233144   2.032   0.572   1.866 -1.0755  0.5215 -0.3499
 7170SOL     OW33145   0.056   4.193   5.715  0.2240 -0.1556 -0.6649
 7170SOL    HW133146   0.121   4.132   5.680  2.8351  1.2806  1.6918
 7170SOL    HW233147   0.021   4.145   5.790  0.0519  0.2300 -0.4930
 7171SOL     OW33148   4.395   3.841   5.210  0.6508  0.1421  0.2971
 7171SOL    HW133149   4.490   3.836   5.222  0.4634 -0.4706  1.6103
 7171SOL    HW233150   4.364   3.769   5.265 -0.1409 -0.7346 -1.2892
 7172SOL     OW33151   3.543   4.007  14.576 -0.1379  0.0498 -0.1330
 7172SOL    HW133152   3.611   3.940  14.566  0.7577  0.5447  2.7258
 7172SOL    HW233153   3.479   3.960  14.523 -1.9679  1.4737  0.8377
 7173SOL     OW33154   3.282   1.103   2.152  0.2316 -0.0246  0.4100
 7173SOL    HW133155   3.228   1.026   2.168  1.4307 -1.0784 -0.5538
 7173SOL    HW233156   3.238   1.150   2.080  1.3088 -1.2130 -1.0198
 7174SOL     OW33157   4.182   3.424   4.318 -0.3305  0.2891 -0.2276
 7174SOL    HW133158   4.229   3.344   4.298 -1.4309 -0.7902  1.4923
 7174SOL    HW233159   4.195   3.470   4.235  2.3223 -0.0361  0.0249
 7175SOL     OW33160   4.317   3.615   8.044 -0.4061  0.9869 -0.6931
 7175SOL    HW133161   4.390   3.555   8.063 -1.0123  1.3460  2.9101
 7175SOL    HW233162   4.281   3.575   7.966 -1.0685  1.4436 -0.6159
 7176SOL     OW33163   4.341   4.601   1.722 -0.3300 -0.2496 -0.3811
 7176SOL    HW133164   4.298   4.613   1.807 -3.6567  0.5405 -2.1649
 7176SOL    HW233165   4.423   4.554   1.736 -1.0839 -1.3063  0.4651
 7177SOL     OW33166   1.053   2.118   5.957  0.6718  0.2033 -0.5150
 7177SOL    HW133167   0.969   2.137   6.000  0.6417  0.5033 -0.7070
 7177SOL    HW233168   1.084   2.050   6.017  0.0380  0.1825 -0.2038
 7178SOL     OW33169   3.198   1.259   7.959 -0.3731 -0.0051 -0.0177
 7178SOL    HW133170   3.107   1.272   7.983 -0.6315 -1.0714 -0.3740
 7178SOL    HW233171   3.242   1.326   8.011 -3.3883  2.5402 -0.7945
 7179SOL     OW33172   4.291   2.269  10.436 -0.0622 -0.5949  0.6181
 7179SOL    HW133173   4.227   2.333  10.468 -0.0254 -1.1792  1.8611
 7179SOL    HW233174   4.291   2.216  10.516 -2.4726  0.9940  1.6543
 7180SOL     OW33175   3.595   2.340   1.769  0.1931 -0.3283  0.5231
 7180SOL    HW133176   3.537   2.264   1.775  0.0971 -0.0344  3.3848
 7180SOL    HW233177   3.675   2.291   1.748  0.9201  1.4504 -0.8279
 7181SOL     OW33178   3.144   4.718   6.827  0.0478 -0.3872  0.0589
 7181SOL    HW133179   3.116   4.678   6.744  1.0882 -0.3874 -0.2901
 7181SOL    HW233180   3.074   4.682   6.881 -0.9467  0.5611 -0.5815
 7182SOL     OW33181   4.253   1.912   5.428 -0.0123 -0.0736  0.3208
 7182SOL    HW133182   4.161   1.938   5.427 -0.1669 -0.6340 -0.0739
 7182SOL    HW233183   4.252   1.838   5.488 -2.0077  0.1628  0.5818
 7183SOL     OW33184   0.747   2.510   3.349 -0.1446  0.5264 -0.5893
 7183SOL    HW133185   0.720   2.558   3.271 -1.1665  0.6824 -0.1382
 7183SOL    HW233186   0.761   2.574   3.418  3.6262  0.8034 -1.5742
 7184SOL     OW33187   0.056   2.505   8.553  0.3126  0.0350  0.4371
 7184SOL    HW133188   0.122   2.467   8.494 -1.8259 -1.0811 -1.2388
 7184SOL    HW233189   0.030   2.432   8.610 -1.6923  0.5796  0.1946
 7185SOL     OW33190   4.426   4.634   1.041 -0.1989  0.2841 -0.2581
 7185SOL    HW133191   4.444   4.638   1.135  1.2591  2.1316 -0.6153
 7185SOL    HW233192   4.470   4.552   1.021  0.0516  0.5522 -0.7970
 7186SOL     OW33193   0.536   2.521   0.213  0.1915  0.3008 -0.0676
 7186SOL    HW133194   0.509   2.473   0.135 -1.6764  1.2349  0.0183
 7186SOL    HW233195   0.452   2.564   0.228 -0.7204 -0.4551 -2.9897
 7187SOL     OW33196   4.065   2.675  13.154 -0.0832  0.1771 -0.2363
 7187SOL    HW133197   4.034   2.758  13.118  0.5451 -0.3117 -1.8959
 7187SOL    HW233198   4.106   2.649  13.072 -0.5828 -0.0574 -0.4072
 7188SOL     OW33199   4.287   1.619   6.136  0.0188  0.6722  0.1497
 7188SOL    HW133200   4.264   1.672   6.212  3.9512 -1.2859  2.7113
 7188SOL    HW233201   4.310   1.697   6.086  2.1849  0.0971  0.2528
 7189SOL     OW33202   0.596   3.160   1.983  0.7289 -0.1857  0.3214
 7189SOL    HW133203   0.682   3.154   2.023  0.5718  1.7718  0.9845
 7189SOL    HW233204   0.581   3.085   1.926  0.2691 -2.4842  3.5163
 7190SOL     OW33205   0.631   4.604   1.973  0.5701 -0.4124 -0.1559
 7190SOL    HW133206   0.670   4.690   1.960  0.9182 -1.0300 -3.2478
 7190SOL    HW233207   0.686   4.544   1.923  0.7280 -0.4869  0.1075
 7191SOL     OW33208   0.092   1.343   8.056  0.4855  0.2272 -0.2355
 7191SOL    HW133209   0.114   1.352   8.149  0.4888 -0.7238 -0.1428
 7191SOL    HW233210   0.151   1.273   8.028 -1.4874 -2.3619  2.1519
 7192SOL     OW33211   0.634   3.509   2.767 -0.0398  0.0527 -0.0868
 7192SOL    HW133212   0.549   3.540   2.736  0.1081  0.7615  0.2265
 7192SOL    HW233213   0.689   3.576   2.727 -3.0105  3.2730  1.2844
 7193SOL     OW33214   0.643   0.341   3.239 -0.5119  0.1804  0.3835
 7193SOL    HW133215   0.625   0.355   3.332 -0.1166 -0.5662  0.5706
 7193SOL    HW233216   0.626   0.428   3.202 -1.7533 -0.0398  0.4424
 7194SOL     OW33217   0.959   3.989   6.979  0.1678  0.0114 -0.5360
 7194SOL    HW133218   1.032   4.050   6.971  0.3919 -0.2203 -0.2289
 7194SOL    HW233219   0.897   4.045   6.931  0.2625  0.9017  0.3681
 7195SOL     OW33220   3.322   3.278   9.038  0.3336  0.3118 -0.1901
 7195SOL    HW133221   3.338   3.325   9.120 -0.9919 -0.5811  0.5865
 7195SOL    HW233222   3.395   3.218   9.023  0.5441  1.0935 -2.2047
 7196SOL     OW33223   0.923   4.406   2.287 -0.5287  0.4377  0.3983
 7196SOL    HW133224   0.828   4.396   2.284 -0.3761 -0.9955  0.0461
 7196SOL    HW233225   0.933   4.478   2.226  0.2050 -2.8167 -3.3324
 7197SOL     OW33226   2.810   2.091  16.412  0.0274 -0.4979  0.3302
 7197SOL    HW133227   2.752   2.166  16.423  0.1278 -0.1480 -1.4762
 7197SOL    HW233228   2.743   2.022  16.409  0.4181 -0.8812  0.3830
 7198SOL     OW33229   1.136   1.208   2.340 -0.5986  0.5460 -0.2939
 7198SOL    HW133230   1.197   1.183   2.270  0.0903  0.9047  0.1762
 7198SOL    HW233231   1.142   1.134   2.401 -1.4084  0.5282 -0.2300
 7199SOL     OW33232   3.442   4.377   5.567 -0.3237  0.0575  0.2017
 7199SOL    HW133233   3.522   4.422   5.541  1.0333 -2.3885  0.1255
 7199SOL    HW233234   3.373   4.443   5.557 -0.6577 -0.6456 -2.2516
 7200SOL     OW33235   3.898   4.024  12.801  0.3505 -0.0586 -0.3301
 7200SOL    HW133236   3.944   4.096  12.845  1.0161 -0.4600 -0.3817
 7200SOL    HW233237   3.959   3.952  12.818  1.8355  1.5863  1.2984
 7201SOL     OW33238   1.106   4.197   4.569 -0.5237  0.4684  1.2944
 7201SOL    HW133239   1.073   4.276   4.527 -0.5392 -0.0508  0.3239
 7201SOL    HW233240   1.194   4.194   4.531 -0.2223 -1.5330  2.1518
 7202SOL     OW33241   3.810   4.348   2.663  0.4663 -0.2771  0.2348
 7202SOL    HW133242   3.881   4.286   2.680  0.0938 -0.1750  2.1630
 7202SOL    HW233243   3.734   4.291   2.662  0.9781 -0.8685 -3.1058
 7203SOL     OW33244   4.695   1.010   8.943  0.0601  0.4003 -0.0621
 7203SOL    HW133245   4.670   1.066   8.870 -3.8818 -2.1306 -0.6259
 7203SOL    HW233246   0.051   0.990   8.923  0.0253  1.9455 -1.7993
 7204SOL     OW33247   2.006   4.033   4.125  0.4392 -0.3190  0.1787
 7204SOL    HW133248   1.936   3.993   4.178  0.3200  0.8514  0.9058
 7204SOL    HW233249   1.953   4.029   4.045 -0.9022  0.5016  1.0283
 7205SOL     OW33250   2.465   1.631   4.608 -0.2713 -0.1161  0.2307
 7205SOL    HW133251   2.478   1.726   4.600 -1.8995  0.1175  0.2322
 7205SOL    HW233252   2.372   1.611   4.621 -0.5530  0.7674 -0.4523
 7206SOL     OW33253   4.592   3.063  13.650  0.3655  0.3642  0.0049
 7206SOL    HW133254   4.627   2.990  13.701  0.7747  2.7939  3.2246
 7206SOL    HW233255   4.501   3.033  13.656  0.5573  0.1989  2.4317
 7207SOL     OW33256   1.849   4.236   1.787  0.2693  0.6491 -0.2665
 7207SOL    HW133257   1.855   4.331   1.795 -1.8953  0.6493  1.0845
 7207SOL    HW233258   1.761   4.227   1.750  0.8253 -0.3435 -1.3863
 7208SOL     OW33259   2.552   3.701  13.386  0.2032  0.2871  0.5264
 7208SOL    HW133260   2.609   3.630  13.356 -0.0724  1.3385 -2.4720
 7208SOL    HW233261   2.532   3.658  13.469 -1.1164  1.0227  0.5924
 7209SOL     OW33262   2.099   0.528  13.196 -0.5098 -0.0434 -0.4626
 7209SOL    HW133263   2.101   0.456  13.133  0.2821 -1.1493  0.8220
 7209SOL    HW233264   2.038   0.589  13.155 -3.2475 -1.4102  1.5392
 7210SOL     OW33265   0.276   2.684   8.173  0.3811 -0.4198 -0.1404
 7210SOL    HW133266   0.304   2.774   8.157 -2.1872 -0.0735 -2.7521
 7210SOL    HW233267   0.330   2.627   8.119  0.6080 -0.6433  0.3208
 7211SOL     OW33268   3.649   1.857   9.753  0.0777 -0.4298  0.2985
 7211SOL    HW133269   3.732   1.810   9.764 -1.3151 -2.5623  1.6274
 7211SOL    HW233270   3.672   1.912   9.678  2.9988 -0.2999  1.2894
 7212SOL     OW33271   4.276   0.281   4.295  0.3722 -0.4743 -0.3113
 7212SOL    HW133272   4.356   0.239   4.327  0.5078 -1.9132 -2.5217
 7212SOL    HW233273   4.267   0.350   4.361  1.9297 -0.5498 -0.0220
 7213SOL     OW33274   0.073   3.474   9.577  0.1116  0.0955 -0.2064
 7213SOL    HW133275   0.037   3.556   9.611 -1.7013 -0.2647 -1.2347
 7213SOL    HW233276   4.724   3.432   9.567 -1.1128  2.6061 -0.4160
 7214SOL     OW33277   0.830   0.088  12.664  1.0538 -0.2397 -0.0675
 7214SOL    HW133278   0.913   0.074  12.710  0.8672 -0.2837  0.2519
 7214SOL    HW233279   0.846   0.176  12.631 -1.1192  0.5293  0.9267
 7215SOL     OW33280   1.045   2.089  17.486 -0.2428  0.2151  0.3692
 7215SOL    HW133281   1.002   2.141  17.418  0.3841 -1.0507 -1.0043
 7215SOL    HW233282   0.973   2.029  17.507  1.3077 -1.2345  1.5124
 7216SOL     OW33283   3.906   3.389   7.725  0.2563 -0.5092  0.2359
 7216SOL    HW133284   3.856   3.358   7.649 -0.9932  0.3718  0.6901
 7216SOL    HW233285   3.860   3.335   7.789  0.3197 -0.5717  0.2288
 7217SOL     OW33286   2.470   1.062   8.983  0.7801 -0.4997  0.6117
 7217SOL    HW133287   2.493   0.976   8.948  1.0000  0.1291 -0.7847
 7217SOL    HW233288   2.388   1.078   8.936  1.5126 -2.0570 -1.1770
 7218SOL     OW33289   0.156   0.666  11.249 -0.2242 -0.1500  0.4171
 7218SOL    HW133290   0.071   0.623  11.252  0.3301 -1.3473 -0.6819
 7218SOL    HW233291   0.180   0.677  11.156  0.1098 -1.0718  0.3952
 7219SOL     OW33292   1.828   3.698   9.523 -0.3796 -0.4227  0.2814
 7219SOL    HW133293   1.908   3.745   9.500 -1.2089  0.9801  0.2823
 7219SOL    HW233294   1.816   3.645   9.444  1.8577 -1.3819  0.5701
 7220SOL     OW33295   2.827   3.827   4.487  0.4823  0.4326  0.1539
 7220SOL    HW133296   2.767   3.873   4.428  0.3545 -0.5670 -0.4933
 7220SOL    HW233297   2.839   3.746   4.436  0.0641  1.0155 -0.8859
 7221SOL     OW33298   0.380   0.576   2.631  0.1013 -0.3616  0.5711
 7221SOL    HW133299   0.444   0.518   2.671 -0.8910 -0.6812  1.6691
 7221SOL    HW233300   0.393   0.548   2.540  0.4335 -0.7300  0.7332
 7222SOL     OW33301   2.512   3.678   3.975  0.3875  0.5850 -0.0264
 7222SOL    HW133302   2.529   3.772   3.978 -1.5696  0.8867  1.1227
 7222SOL    HW233303   2.533   3.658   3.883  2.4721 -0.5277  0.6888
 7223SOL     OW33304   1.533   0.450   5.123  0.2587 -0.3103  0.1250
 7223SOL    HW133305   1.598   0.498   5.174 -1.9996  0.3052  2.4191
 7223SOL    HW233306   1.468   0.443   5.193 -0.5879  1.8478 -0.4483
 7224SOL     OW33307   3.426   4.427   1.720 -0.0353 -0.2526 -0.3533
 7224SOL    HW133308   3.517   4.455   1.707  0.0385 -0.1858  0.3431
 7224SOL    HW233309   3.438   4.368   1.794 -0.5768 -0.1334 -0.1697
 7225SOL     OW33310   1.299   3.500  16.538 -0.2274  0.2858 -0.1105
 7225SOL    HW133311   1.288   3.539  16.624 -1.6869  0.7852 -0.5230
 7225SOL    HW233312   1.375   3.548  16.505 -0.2432  0.9165  0.7743
 7226SOL     OW33313   0.463   1.626   2.606  1.0352 -0.3835 -0.4100
 7226SOL    HW133314   0.445   1.719   2.596 -1.0315 -0.7938 -0.4298
 7226SOL    HW233315   0.523   1.624   2.680  1.1645  0.8888 -0.4780
 7227SOL     OW33316   0.991   2.170   4.953 -0.2715  0.8051 -0.2339
 7227SOL    HW133317   0.942   2.088   4.947 -0.5439  0.7903  2.1049
 7227SOL    HW233318   1.080   2.141   4.971 -1.0192  1.0464  3.9678
 7228SOL     OW33319   0.314   3.042  11.804 -0.1486  0.5022 -0.2148
 7228SOL    HW133320   0.343   3.107  11.868 -0.2647  2.4200 -2.1018
 7228SOL    HW233321   0.223   3.038  11.835  0.0699 -0.6153  0.2951
 7229SOL     OW33322   3.127   4.395   3.826  0.4513  0.0987 -0.8373
 7229SOL    HW133323   3.130   4.488   3.803 -0.4025  0.0939 -0.9769
 7229SOL    HW233324   3.031   4.385   3.826  0.3960  0.6383 -0.8479
 7230SOL     OW33325   1.498   4.555   2.019 -0.2305  0.5425 -0.0693
 7230SOL    HW133326   1.504   4.487   2.086  0.2110  1.0798  0.4334
 7230SOL    HW233327   1.484   4.501   1.941  0.7319  0.4406 -0.1799
 7231SOL     OW33328   3.137   0.694   1.602 -0.5406  0.7215  0.1465
 7231SOL    HW133329   3.052   0.664   1.634 -0.2726 -0.5911 -0.3944
 7231SOL    HW233330   3.201   0.623   1.610  0.9159  2.1067  0.7988
 7232SOL     OW33331   1.503   3.907  12.459 -0.4083  0.1996 -0.1425
 7232SOL    HW133332   1.507   3.980  12.521 -3.0477  1.0657 -0.9935
 7232SOL    HW233333   1.552   3.842  12.509 -2.6410 -1.1526  0.2867
 7233SOL     OW33334   3.152   0.264   3.544  0.3067 -0.7060 -0.0881
 7233SOL    HW133335   3.227   0.204   3.540  1.0684  0.2750 -0.4017
 7233SOL    HW233336   3.109   0.241   3.627 -0.1528 -1.6747 -0.6011
 7234SOL     OW33337   3.263   0.221  17.318 -0.1757  0.1918 -0.8720
 7234SOL    HW133338   3.336   0.166  17.346  0.2798  1.3253  0.2300
 7234SOL    HW233339   3.216   0.166  17.255 -1.8322  0.1386  0.3878
 7235SOL     OW33340   3.205   3.527   5.189 -0.3017  1.1019 -0.3572
 7235SOL    HW133341   3.144   3.458   5.216  0.8105 -0.0348 -0.7515
 7235SOL    HW233342   3.144   3.574   5.132  0.5217  2.8391  0.1912
 7236SOL     OW33343   0.146   1.754  17.483  0.2645 -0.4971  0.3561
 7236SOL    HW133344   0.114   1.675  17.439  0.9870  0.1362 -1.3351
 7236SOL    HW233345   0.231   1.724  17.514  0.5592 -0.0230  0.0106
 7237SOL     OW33346   0.658   4.479   8.129 -0.0447  0.3328  0.5656
 7237SOL    HW133347   0.688   4.405   8.076  0.2052  1.4377 -0.8407
 7237SOL    HW233348   0.699   4.469   8.215 -0.8082  2.1257  1.1269
 7238SOL     OW33349   2.972   0.116   6.435 -0.2239 -0.1079 -0.1530
 7238SOL    HW133350   3.017   0.201   6.439 -2.2751  0.8945  1.5961
 7238SOL    HW233351   2.958   0.106   6.341  1.0299  1.4551 -0.5017
 7239SOL     OW33352   0.001   3.362  10.455  0.3035  0.1130 -0.0305
 7239SOL    HW133353   4.685   3.386  10.378 -1.1805  1.5228  1.4145
 7239SOL    HW233354   4.721   3.439  10.510 -2.4450  0.5529 -1.4608
 7240SOL     OW33355   3.037   3.461   5.735 -0.5497 -0.1427 -0.3637
 7240SOL    HW133356   3.090   3.382   5.725 -1.7582 -0.9071 -0.7239
 7240SOL    HW233357   2.989   3.427   5.811  0.2300 -1.1082 -0.3149
 7241SOL     OW33358   3.247   3.585   7.869  0.1603  0.1056 -0.0062
 7241SOL    HW133359   3.288   3.500   7.887 -0.6845 -0.2593  0.1696
 7241SOL    HW233360   3.162   3.585   7.913 -0.5087 -0.3134 -1.3169
 7242SOL     OW33361   1.042   0.480  10.833  0.3163 -0.1752 -0.4503
 7242SOL    HW133362   0.949   0.501  10.832 -0.1930 -2.3473  1.4322
 7242SOL    HW233363   1.039   0.386  10.815 -1.0282 -0.3070  0.4484
 7243SOL     OW33364   4.436   3.441   5.868  0.7152 -0.4166  0.2344
 7243SOL    HW133365   4.467   3.366   5.818  1.5833  0.8590 -1.1317
 7243SOL    HW233366   4.354   3.475   5.831 -0.6384  0.1256  3.6877
 7244SOL     OW33367   1.409   0.908   7.234  0.4411  0.3296  0.2221
 7244SOL    HW133368   1.393   1.001   7.246 -1.5349  0.2067 -1.4366
 7244SOL    HW233369   1.337   0.887   7.175  0.2902  2.1025 -0.2182
 7245SOL     OW33370   1.077   0.236   3.629 -0.0795  0.3003 -0.9157
 7245SOL    HW133371   1.141   0.258   3.697 -1.1487  1.2944 -0.2239
 7245SOL    HW233372   0.988   0.257   3.657  0.4731  0.4346  0.7368
 7246SOL     OW33373   1.795   4.196   5.887 -0.2363  0.3028 -0.1528
 7246SOL    HW133374   1.746   4.177   5.967  0.3161  0.2010  0.1637
 7246SOL    HW233375   1.716   4.174   5.839 -0.6215  1.9721 -0.2725
 7247SOL     OW33376   3.824   1.383   8.899  0.3052  0.4035 -0.5874
 7247SOL    HW133377   3.897   1.419   8.951 -0.8944  2.5302 -0.3653
 7247SOL    HW233378   3.866   1.324   8.837  2.0282  0.9134  0.0892
 7248SOL     OW33379   1.112   0.050   1.585  0.0821  0.9300 -0.5814
 7248SOL    HW133380   1.168   0.070   1.510 -0.9446  3.3983 -0.7025
 7248SOL    HW233381   1.105   0.125   1.644  0.3250 -0.9671  1.8363
 7249SOL     OW33382   1.673   3.931   8.719  0.4299  0.4176  0.1206
 7249SOL    HW133383   1.612   3.976   8.777 -1.1468 -1.4969 -0.0364
 7249SOL    HW233384   1.711   4.007   8.675 -1.1508 -0.6510 -3.1030
 7250SOL     OW33385   2.422   2.638   2.213 -0.3367  0.0294  0.1586
 7250SOL    HW133386   2.457   2.695   2.282 -0.2140 -0.9335  0.8990
 7250SOL    HW233387   2.395   2.570   2.275 -0.7731 -0.4334 -0.5482
 7251SOL     OW33388   2.538   0.693  15.305  0.4088 -0.5076 -0.8100
 7251SOL    HW133389   2.584   0.644  15.237 -1.4838 -1.0291 -1.7202
 7251SOL    HW233390   2.512   0.772  15.257 -0.5616 -0.2488  0.1459
 7252SOL     OW33391   0.861   0.292   7.983 -0.2009  0.5218 -0.0729
 7252SOL    HW133392   0.872   0.200   8.009 -0.9428  0.3683 -0.3174
 7252SOL    HW233393   0.872   0.285   7.888  2.2762 -0.7530  0.3112
 7253SOL     OW33394   4.192   0.337   7.061 -0.1366  0.5561 -0.3397
 7253SOL    HW133395   4.209   0.407   6.998 -0.2293  1.9808  1.2305
 7253SOL    HW233396   4.181   0.259   7.007 -1.8646 -0.0444  0.8649
 7254SOL     OW33397   3.766   3.809   1.434  0.0218  0.9454  0.3926
 7254SOL    HW133398   3.795   3.718   1.432 -0.6553  0.7289  0.1654
 7254SOL    HW233399   3.845   3.852   1.466  2.7365 -2.2179 -2.1113
 7255SOL     OW33400   3.387   4.541  12.823 -0.3664  0.3364  0.0240
 7255SOL    HW133401   3.483   4.542  12.828 -0.4455 -0.3623  1.6393
 7255SOL    HW233402   3.371   4.592  12.902  2.6215  0.4605  0.5588
 7256SOL     OW33403   2.029   3.295   8.132 -0.1619  0.2042 -0.1606
 7256SOL    HW133404   2.116   3.260   8.152 -0.5984  0.1217  1.5663
 7256SOL    HW233405   2.012   3.257   8.046  0.8551 -0.2869 -0.1460
 7257SOL     OW33406   3.254   4.725  13.037 -0.5987  0.3472 -0.4407
 7257SOL    HW133407   3.176   0.043  13.033 -0.2991  0.7693 -0.5377
 7257SOL    HW233408   3.217   4.638  13.055 -0.8311  1.0727  2.4836
 7258SOL     OW33409   2.984   1.393  15.926  0.1317  0.8053 -0.0319
 7258SOL    HW133410   3.007   1.470  15.978 -0.5507  0.7132  0.4094
 7258SOL    HW233411   2.945   1.432  15.848 -1.8416 -0.8748  0.0964
 7259SOL     OW33412   3.275   1.516  11.580 -0.7844 -0.2807  0.6316
 7259SOL    HW133413   3.347   1.476  11.530 -1.4140  1.7980 -1.9718
 7259SOL    HW233414   3.295   1.495  11.671  2.4433  0.2607  0.0724
 7260SOL     OW33415   2.533   2.010  16.510 -0.2544  0.5024  0.0740
 7260SOL    HW133416   2.457   2.068  16.501 -0.2259  0.4945 -0.2067
 7260SOL    HW233417   2.505   1.927  16.470 -0.2009  0.1267  0.8188
 7261SOL     OW33418   4.359   3.384  13.263  0.1715  0.3480  0.3221
 7261SOL    HW133419   4.265   3.367  13.268 -0.0425  1.1571 -0.9015
 7261SOL    HW233420   4.394   3.320  13.325 -1.8170 -1.2032 -0.1767
 7262SOL     OW33421   2.595   1.830   3.073  0.0908  0.5139  0.1832
 7262SOL    HW133422   2.660   1.765   3.099 -1.0804 -0.3058  1.0443
 7262SOL    HW233423   2.520   1.774   3.051  1.0179 -0.0420 -1.5386
 7263SOL     OW33424   0.614   0.498   4.747  0.0283 -1.1532 -0.0867
 7263SOL    HW133425   0.670   0.537   4.680 -2.2248  1.7571 -0.2927
 7263SOL    HW233426   0.622   0.568   4.811  1.7967 -2.4445  1.0865
 7264SOL     OW33427   1.466   4.265   6.606  0.4220 -0.3356 -0.0313
 7264SOL    HW133428   1.502   4.314   6.680  0.0888 -1.6544  1.0092
 7264SOL    HW233429   1.379   4.304   6.599 -1.2257 -3.6893  1.2198
 7265SOL     OW33430   2.711   0.926   8.305 -0.3402 -0.4358  0.0009
 7265SOL    HW133431   2.666   0.965   8.230 -1.5534 -1.0436  0.4305
 7265SOL    HW233432   2.766   0.864   8.257 -2.5864 -0.3784 -2.6407
 7266SOL     OW33433   0.462   3.915   6.742  0.2330 -0.2676 -0.5198
 7266SOL    HW133434   0.373   3.940   6.766 -0.6204 -2.5748 -1.2779
 7266SOL    HW233435   0.494   3.859   6.812  0.6069 -1.2855 -1.4992
 7267SOL     OW33436   1.867   1.026  15.731 -0.1808  0.9402  0.1071
 7267SOL    HW133437   1.842   1.093  15.667 -0.5685  0.0706 -0.6539
 7267SOL    HW233438   1.907   0.959  15.675  1.6625 -0.3387  2.9955
 7268SOL     OW33439   4.283   3.799  10.204 -0.0312  0.7294  0.1102
 7268SOL    HW133440   4.230   3.745  10.145  2.4865 -1.1328 -0.4518
 7268SOL    HW233441   4.230   3.804  10.283 -0.6622  0.2283 -0.2762
 7269SOL     OW33442   1.589   4.275   8.919  0.1980  0.4973 -0.1226
 7269SOL    HW133443   1.647   4.206   8.887 -0.0461  1.2138 -2.1045
 7269SOL    HW233444   1.586   4.338   8.847  0.4197  0.7858  0.1223
 7270SOL     OW33445   2.580   1.187   2.014  0.2717  0.6944 -0.1615
 7270SOL    HW133446   2.675   1.186   2.006  0.4009 -3.1793  1.7486
 7270SOL    HW233447   2.563   1.093   2.009 -2.2931  1.0092  2.2315
 7271SOL     OW33448   2.674   2.761  15.850  0.7512  0.4486 -0.6999
 7271SOL    HW133449   2.708   2.767  15.761 -0.0779 -1.4132 -1.1493
 7271SOL    HW233450   2.579   2.767  15.838  0.6810  0.2165 -0.2712
 7272SOL     OW33451   2.350   0.421   5.427  0.7382  0.1216 -0.1879
 7272SOL    HW133452   2.435   0.411   5.384  1.5292  0.0425  1.3665
 7272SOL    HW233453   2.342   0.331   5.460  0.3484 -0.0013 -0.6266
 7273SOL     OW33454   3.571   3.278  12.921 -0.1583 -0.8236 -0.7058
 7273SOL    HW133455   3.564   3.374  12.928 -1.5536 -1.0478  0.9025
 7273SOL    HW233456   3.578   3.254  13.014 -0.3942 -2.0471 -1.0167
 7274SOL     OW33457   1.167   4.296   2.793 -0.0520  0.1468  0.1560
 7274SOL    HW133458   1.139   4.224   2.737 -2.6333  1.0933  0.2350
 7274SOL    HW233459   1.083   4.329   2.826  0.6672  0.5740  1.5928
 7275SOL     OW33460   2.437   4.736   4.840 -0.0150 -0.4444 -0.2319
 7275SOL    HW133461   2.376   0.061   4.882 -1.4801 -2.0764  0.0053
 7275SOL    HW233462   2.496   0.053   4.788 -2.0179  0.9622 -1.0783
 7276SOL     OW33463   0.856   2.576   2.950 -0.5490  0.2203  0.0340
 7276SOL    HW133464   0.791   2.603   3.015  1.4573  0.6941  1.8310
 7276SOL    HW233465   0.897   2.509   3.004  2.8340 -0.0342 -2.8709
 7277SOL     OW33466   1.574   0.179   5.021 -0.3702 -0.2003  0.0516
 7277SOL    HW133467   1.590   0.211   4.932 -0.5783 -0.7094 -0.1672
 7277SOL    HW233468   1.557   0.260   5.070  2.2227  1.3279 -1.5560
 7278SOL     OW33469   0.344   1.419   9.225  0.8203 -0.3577 -0.5085
 7278SOL    HW133470   0.388   1.436   9.309  1.9747  0.2785 -1.2491
 7278SOL    HW233471   0.290   1.497   9.217  0.1281 -0.5816  1.8441
 7279SOL     OW33472   1.067   2.860   8.945 -0.0234  0.5579  0.2322
 7279SOL    HW133473   1.001   2.791   8.947 -0.1084  0.6480  0.5491
 7279SOL    HW233474   1.064   2.886   9.037 -1.1513  0.1876  0.3068
 7280SOL     OW33475   0.703   1.187   5.313  0.0417 -0.4415  0.3405
 7280SOL    HW133476   0.624   1.186   5.259  0.4317 -0.7086 -0.2190
 7280SOL    HW233477   0.748   1.116   5.267 -0.4281  0.3749 -1.4028
 7281SOL     OW33478   0.905   3.766   2.108 -0.4388  0.4027 -0.5086
 7281SOL    HW133479   0.841   3.768   2.037  2.0858 -2.1062 -2.8844
 7281SOL    HW233480   0.990   3.747   2.068 -0.5207 -0.1635 -0.4121
 7282SOL     OW33481   3.270   3.846   1.839 -0.1015  0.4197 -0.1753
 7282SOL    HW133482   3.333   3.917   1.836  0.1504  0.2731  1.4598
 7282SOL    HW233483   3.183   3.886   1.841  0.1978  1.0341  1.0258
 7283SOL     OW33484   4.632   0.238   7.620  0.0545 -0.4256 -0.2297
 7283SOL    HW133485   4.696   0.227   7.550 -0.3802 -0.7279 -0.5824
 7283SOL    HW233486   4.680   0.201   7.695  0.4832  0.4257 -0.0863
 7284SOL     OW33487   2.356   2.257   8.954 -0.2688  0.0040 -0.0697
 7284SOL    HW133488   2.360   2.316   9.030  1.3289  1.2265 -1.0963
 7284SOL    HW233489   2.449   2.246   8.933 -0.0370  1.5632  0.0827
 7285SOL     OW33490   2.578   1.001   1.620 -0.1868  0.0113 -0.2223
 7285SOL    HW133491   2.631   1.017   1.542  1.1401  0.3327  0.7400
 7285SOL    HW233492   2.645   0.947   1.663  0.1556  1.6840  1.3480
 7286SOL     OW33493   2.743   2.949   2.723 -0.0686 -0.2465  0.1257
 7286SOL    HW133494   2.685   2.895   2.777 -0.0979 -0.2601  0.0802
 7286SOL    HW233495   2.751   3.024   2.782  1.5459  1.0244 -1.7164
 7287SOL     OW33496   3.368   0.184   5.220  0.4030 -0.0587  0.1105
 7287SOL    HW133497   3.381   0.224   5.306  1.3683  0.6338 -0.3580
 7287SOL    HW233498   3.458   0.158   5.199  0.9327  0.6614  1.4698
 7288SOL     OW33499   3.308   3.658   4.244  0.0006  0.0297 -0.6811
 7288SOL    HW133500   3.363   3.727   4.209 -0.2501  0.2431 -0.6571
 7288SOL    HW233501   3.365   3.581   4.248  1.7300  1.3458 -0.0700
 7289SOL     OW33502   0.132   2.871   9.385  1.0892 -0.1780 -0.2982
 7289SOL    HW133503   0.149   2.941   9.447  0.5265 -0.2594 -0.0546
 7289SOL    HW233504   0.157   2.795   9.437 -2.5510 -0.3324  1.1986
 7290SOL     OW33505   1.824   3.584   7.086  0.0291 -0.2849  0.1126
 7290SOL    HW133506   1.767   3.542   7.150  0.1685 -2.4839 -1.1946
 7290SOL    HW233507   1.887   3.626   7.145 -1.3719 -1.0050  2.1171
 7291SOL     OW33508   4.678   2.429   2.112 -0.3293 -0.0806 -0.2218
 7291SOL    HW133509   4.656   2.412   2.020  0.0122 -1.6828 -0.0122
 7291SOL    HW233510   0.012   2.494   2.111 -1.2971  0.9118 -2.5730
 7292SOL     OW33511   1.070   1.553   6.159 -0.4684 -0.0588  0.0319
 7292SOL    HW133512   1.133   1.604   6.108  3.4179 -2.3940  2.4756
 7292SOL    HW233513   1.126   1.481   6.188  0.5699  1.0199  0.7360
 7293SOL     OW33514   3.961   3.807   3.211 -0.2728 -0.0064  0.4832
 7293SOL    HW133515   3.877   3.789   3.252 -1.0394  0.7091 -0.7929
 7293SOL    HW233516   3.935   3.793   3.120  2.4091  1.7746 -0.5671
 7294SOL     OW33517   1.946   4.235  10.040 -0.1363  0.1687  0.4019
 7294SOL    HW133518   1.937   4.309   9.980  0.8017 -1.2093 -1.4788
 7294SOL    HW233519   1.941   4.286  10.121 -0.3795 -2.0201  1.7606
 7295SOL     OW33520   4.474   3.653   2.193  0.4952  0.4396  0.0880
 7295SOL    HW133521   4.409   3.657   2.263  0.2344 -2.7358  0.0266
 7295SOL    HW233522   4.522   3.577   2.227  0.4599 -0.4130 -1.7682
 7296SOL     OW33523   1.897   0.589   2.420 -0.1304  0.4904  0.0180
 7296SOL    HW133524   1.847   0.532   2.362 -1.1154 -1.2982  2.6786
 7296SOL    HW233525   1.829   0.652   2.445  1.4830  2.5109 -0.6187
 7297SOL     OW33526   3.342   4.377   2.553 -0.2379 -0.2911  0.1798
 7297SOL    HW133527   3.412   4.342   2.499 -0.0450  1.3910 -0.6695
 7297SOL    HW233528   3.284   4.302   2.546  0.0057 -0.7677  2.9964
 7298SOL     OW33529   3.398   3.148   4.477 -0.2849  0.0329 -0.3103
 7298SOL    HW133530   3.489   3.170   4.457 -0.7877  2.0553 -0.3333
 7298SOL    HW233531   3.405   3.154   4.572 -2.4697 -0.2123 -0.1411
 7299SOL     OW33532   2.418   1.746   2.215 -0.7483 -1.1844 -0.0570
 7299SOL    HW133533   2.332   1.773   2.245 -0.7167  1.7120 -2.6178
 7299SOL    HW233534   2.472   1.819   2.245  0.4552 -0.5703 -3.6465
 7300SOL     OW33535   0.505   2.856   0.216  0.6124  0.0955  0.3003
 7300SOL    HW133536   0.455   2.804   0.279  1.6673 -0.2967  0.8171
 7300SOL    HW233537   0.437   2.913   0.179 -1.4427 -2.2865  0.4672
 7301SOL     OW33538   4.312   3.480   4.582  0.6380 -0.4181 -0.0623
 7301SOL    HW133539   4.276   3.554   4.632  0.4540  1.2053 -2.6214
 7301SOL    HW233540   4.261   3.473   4.502  1.3581  0.9785 -0.6529
 7302SOL     OW33541   3.529   0.907   3.179  0.7169 -0.1712  0.1884
 7302SOL    HW133542   3.477   0.877   3.104  1.8653  0.4731 -0.8733
 7302SOL    HW233543   3.616   0.902   3.141  0.7997  0.9320  0.2391
 7303SOL     OW33544   4.469   0.148   5.951 -0.1573 -0.1175 -0.1424
 7303SOL    HW133545   4.459   0.061   5.913 -1.6527 -0.1359  0.2869
 7303SOL    HW233546   4.405   0.200   5.903  0.1329  0.1992 -0.1808
 7304SOL     OW33547   1.584   4.244   1.706  0.2864 -0.0041 -0.1361
 7304SOL    HW133548   1.576   4.290   1.623 -0.7872  0.0136 -0.0206
 7304SOL    HW233549   1.513   4.289   1.753 -1.5269 -0.9695 -1.9358
 7305SOL     OW33550   3.497   4.585   7.375 -0.2805  0.1484  0.2733
 7305SOL    HW133551   3.409   4.569   7.407  0.3213 -0.0772  1.8228
 7305SOL    HW233552   3.485   4.656   7.311  1.9150  0.9855  0.7768
 7306SOL     OW33553   0.396   0.038   3.377 -0.1477  0.5949 -0.0912
 7306SOL    HW133554   0.399   4.711   3.448 -0.5553 -0.3484 -0.9155
 7306SOL    HW233555   0.484   0.016   3.348 -0.8595 -0.2438 -1.6411
 7307SOL     OW33556   2.008   0.609   8.112 -0.1760 -0.5679  0.0839
 7307SOL    HW133557   1.941   0.541   8.101  2.0177 -2.8447  0.7899
 7307SOL    HW233558   1.961   0.680   8.156  0.6553  1.5527 -2.4856
 7308SOL     OW33559   2.336   0.310   7.357  0.0198 -0.0778 -0.0864
 7308SOL    HW133560   2.272   0.286   7.424  0.6251 -1.8569 -0.1438
 7308SOL    HW233561   2.333   0.405   7.363 -2.8933  0.0010 -2.9096
 7309SOL     OW33562   0.821   1.957   4.130 -0.1359  0.4472  0.5574
 7309SOL    HW133563   0.823   2.008   4.211 -0.3966  1.8365 -0.3030
 7309SOL    HW233564   0.795   1.870   4.159  1.9166 -0.3622  0.0037
 7310SOL     OW33565   3.504   0.069   4.210  0.8239  0.1580 -0.3940
 7310SOL    HW133566   3.522   0.153   4.168  0.8714  0.7957  0.9087
 7310SOL    HW233567   3.505   0.001   4.142  0.0441 -1.0633  0.8244
 7311SOL     OW33568   3.316   4.238   1.300 -0.5536  0.0125  0.0287
 7311SOL    HW133569   3.268   4.158   1.277 -1.5835  1.1011 -1.6185
 7311SOL    HW233570   3.404   4.205   1.285 -1.3481 -1.6943 -0.8748
 7312SOL     OW33571   2.816   2.428   7.202  0.0966  0.3915 -0.4017
 7312SOL    HW133572   2.857   2.485   7.137  2.2697  0.6023  1.1471
 7312SOL    HW233573   2.807   2.497   7.267  0.6510  0.0054  0.0865
 7313SOL     OW33574   4.251   3.620  12.346  0.2968  0.5406  0.4944
 7313SOL    HW133575   4.180   3.680  12.367 -0.8993 -0.6033 -0.3272
 7313SOL    HW233576   4.256   3.561  12.421 -2.1250  1.0878  1.0634
 7314SOL     OW33577   2.358   1.942   9.597  0.1340  0.0956 -0.5014
 7314SOL    HW133578   2.271   1.938   9.557 -1.2234  0.4926  2.4847
 7314SOL    HW233579   2.408   1.980   9.524 -2.4443  2.9835 -0.7627
 7315SOL     OW33580   1.527   2.342   7.247 -0.5394  0.1796  0.7577
 7315SOL    HW133581   1.437   2.331   7.277 -1.2707  0.7144 -1.2543
 7315SOL    HW233582   1.583   2.324   7.322  0.1010 -2.5407 -0.3736
 7316SOL     OW33583   1.247   4.661  16.397 -0.0377  0.5402 -0.0164
 7316SOL    HW133584   1.311   4.610  16.446  1.2429  0.9972 -1.2068
 7316SOL    HW233585   1.166   4.617  16.421 -0.0935  0.4481 -0.3702
 7317SOL     OW33586   0.885   1.564   6.353  0.2658  0.3782 -0.7803
 7317SOL    HW133587   0.855   1.601   6.270 -0.5956  0.7629 -0.2959
 7317SOL    HW233588   0.968   1.557   6.306  0.0994 -1.0227 -0.8402
 7318SOL     OW33589   0.151   0.320   8.016  0.4340  0.6019 -0.0019
 7318SOL    HW133590   0.241   0.292   8.031 -0.2830 -0.7765  1.6313
 7318SOL    HW233591   0.114   0.326   8.104 -1.2531  3.0897 -0.8528
 7319SOL     OW33592   0.497   3.855   2.844  0.0477  0.1756  0.7628
 7319SOL    HW133593   0.449   3.786   2.798  0.5115 -0.7439  1.6354
 7319SOL    HW233594   0.590   3.834   2.832 -0.8994 -2.8012 -1.5444
 7320SOL     OW33595   1.166   2.306  13.013 -0.1315 -0.0609 -0.4331
 7320SOL    HW133596   1.256   2.284  12.989 -0.7742 -1.1157 -1.9430
 7320SOL    HW233597   1.187   2.331  13.103 -2.0156  1.2560 -0.3761
 7321SOL     OW33598   3.298   0.511   3.570 -0.2742  0.0539 -0.0173
 7321SOL    HW133599   3.301   0.484   3.662  1.4174 -1.3922 -0.5061
 7321SOL    HW233600   3.238   0.446   3.532 -0.5476  0.1139  0.3118
 7322SOL     OW33601   0.973   0.472   5.480 -0.4533 -0.4028 -0.7568
 7322SOL    HW133602   0.988   0.539   5.547 -0.7074 -0.1288 -0.9706
 7322SOL    HW233603   0.879   0.472   5.493 -0.1244  4.7191  1.5414
 7323SOL     OW33604   3.898   1.749   7.079  0.5388 -0.1747  0.2467
 7323SOL    HW133605   3.854   1.830   7.104  1.5594  0.4776 -0.0729
 7323SOL    HW233606   3.928   1.717   7.164 -1.6392  0.6028  1.3270
 7324SOL     OW33607   3.950   1.728   1.483  0.8310 -0.0654  0.3512
 7324SOL    HW133608   3.892   1.789   1.528 -0.7302 -1.4618  0.2212
 7324SOL    HW233609   3.961   1.761   1.394  0.4666  1.6062  0.9346
 7325SOL     OW33610   0.631   0.607  11.915  0.4570  0.2992  0.0663
 7325SOL    HW133611   0.557   0.663  11.893 -1.2409 -1.4887  1.2379
 7325SOL    HW233612   0.666   0.594  11.827  4.0241  1.2744  1.3608
 7326SOL     OW33613   3.428   2.986  17.036 -0.4710  0.0690  0.7046
 7326SOL    HW133614   3.403   3.035  17.114 -4.0910 -3.7160  1.9261
 7326SOL    HW233615   3.410   2.900  17.074 -2.0788 -0.3886 -1.0707
 7327SOL     OW33616   1.807   3.365  10.818  0.0161 -0.5653 -0.1421
 7327SOL    HW133617   1.761   3.392  10.739  0.2643  0.2424 -0.0158
 7327SOL    HW233618   1.838   3.454  10.836 -1.3974 -0.4447  1.7292
 7328SOL     OW33619   0.132   2.712   0.027 -0.0207  0.2900 -0.6813
 7328SOL    HW133620   0.116   2.624   0.062 -0.7088  1.0822  0.9768
 7328SOL    HW233621   0.190   2.696  17.695  2.2019  2.0549  0.6934
 7329SOL     OW33622   0.162   4.600   4.040 -0.4315  0.5133  0.0053
 7329SOL    HW133623   0.112   4.592   4.122 -0.2631  1.9122  0.2494
 7329SOL    HW233624   0.138   4.692   4.026  2.2998  1.2450  0.1542
 7330SOL     OW33625   4.692   4.473  13.553 -0.3865  0.7853  0.4319
 7330SOL    HW133626   4.615   4.416  13.556  1.5581 -2.0098 -2.1301
 7330SOL    HW233627   4.648   4.558  13.550 -1.9372 -0.0123  0.6751
 7331SOL     OW33628   3.848   0.336   6.803 -0.3738  0.0937 -0.1166
 7331SOL    HW133629   3.806   0.318   6.718  3.5881  0.9788 -2.2883
 7331SOL    HW233630   3.787   0.302   6.868  0.9585 -2.3272 -0.1125
 7332SOL     OW33631   3.512   0.117   4.485 -0.3690  0.1172  0.0901
 7332SOL    HW133632   3.483   0.110   4.394  0.7430 -2.1123 -0.0871
 7332SOL    HW233633   3.512   0.024   4.507  0.6609 -0.4433 -2.2798
 7333SOL     OW33634   3.198   2.540   4.273  0.1185  0.1075  0.6504
 7333SOL    HW133635   3.259   2.589   4.218 -2.1355  0.9693 -1.0935
 7333SOL    HW233636   3.210   2.569   4.363  1.6529  2.6523 -0.3569
 7334SOL     OW33637   3.765   3.475  11.124 -0.1190  0.0994 -0.4044
 7334SOL    HW133638   3.727   3.388  11.137 -3.3146  1.8884  2.4097
 7334SOL    HW233639   3.858   3.453  11.118 -0.6084 -2.1014  0.4044
 7335SOL     OW33640   2.390   2.689   3.049 -0.6157  0.1354  0.2736
 7335SOL    HW133641   2.296   2.700   3.058 -0.9339 -3.1063  0.8124
 7335SOL    HW233642   2.396   2.602   3.087 -2.4089 -0.0887  0.0070
 7336SOL     OW33643   0.240   3.456   9.377  0.3801 -0.3912  0.1266
 7336SOL    HW133644   0.178   3.457   9.450  0.7487 -1.4271  0.4490
 7336SOL    HW233645   0.201   3.535   9.337  1.3051  0.7874  1.5725
 7337SOL     OW33646   3.546   2.041   3.499  0.2546 -0.1403 -0.2340
 7337SOL    HW133647   3.610   2.112   3.504 -0.2935  0.3042  0.4076
 7337SOL    HW233648   3.482   2.064   3.567  1.5893 -0.7920  1.2383
 7338SOL     OW33649   0.268   0.332   6.176 -0.3613 -0.7552 -0.2684
 7338SOL    HW133650   0.304   0.250   6.142  1.8825  0.1811 -0.1904
 7338SOL    HW233651   0.312   0.394   6.117  1.1941 -1.1014  0.5225
 7339SOL     OW33652   4.195   0.497  11.261 -0.1442  0.3907 -0.4698
 7339SOL    HW133653   4.212   0.417  11.212  1.3572  0.3370  0.1397
 7339SOL    HW233654   4.266   0.489  11.324 -0.3216 -1.1289 -0.4749
 7340SOL     OW33655   3.592   4.617   1.282  0.4137  0.2459  0.5138
 7340SOL    HW133656   3.527   4.639   1.349  0.7548  1.4644  0.4451
 7340SOL    HW233657   3.677   4.640   1.319 -0.6202  1.7862  1.9155
 7341SOL     OW33658   0.386   3.911   6.458 -0.4012  0.0664 -0.1611
 7341SOL    HW133659   0.454   3.874   6.401  0.0733 -0.9272  1.0328
 7341SOL    HW233660   0.429   3.924   6.543  2.5135 -1.3377 -1.4384
 7342SOL     OW33661   2.449   2.912   0.199 -0.2195 -0.0638  0.3343
 7342SOL    HW133662   2.461   2.998   0.239  1.8419 -0.8381  1.3724
 7342SOL    HW233663   2.395   2.919   0.120 -1.2561 -2.2005  0.8561
 7343SOL     OW33664   2.134   0.205  13.303  0.4378 -0.0186 -0.0402
 7343SOL    HW133665   2.116   0.286  13.351 -4.2364 -0.2323 -1.4402
 7343SOL    HW233666   2.206   0.161  13.350  1.3866 -1.2850 -2.7007
 7344SOL     OW33667   1.757   0.679   9.713  0.4476 -0.4818 -0.0330
 7344SOL    HW133668   1.768   0.761   9.665  2.4353  0.7651  2.5248
 7344SOL    HW233669   1.662   0.679   9.724  0.6759  1.6947  1.8753
 7345SOL     OW33670   3.064   1.908  16.015  0.1220 -0.7033  0.7366
 7345SOL    HW133671   3.017   1.989  16.037 -2.3224 -1.4689 -1.5715
 7345SOL    HW233672   3.154   1.940  16.013 -0.7750  1.6439 -2.6429
 7346SOL     OW33673   2.919   2.088   9.127 -0.1484 -0.0578  0.5043
 7346SOL    HW133674   2.837   2.128   9.153 -0.5970 -1.0539  0.6139
 7346SOL    HW233675   2.975   2.160   9.157 -2.7783  2.5238 -0.8616
 7347SOL     OW33676   2.759   2.223   4.292  0.6565  0.1731  0.1748
 7347SOL    HW133677   2.739   2.317   4.286  1.2363  0.1608 -1.8071
 7347SOL    HW233678   2.816   2.226   4.369 -0.1543 -0.1118  0.7869
 7348SOL     OW33679   0.756   4.713   0.106  0.0110  0.0158  0.2342
 7348SOL    HW133680   0.707   4.719   0.024  1.4330 -1.1253 -0.6914
 7348SOL    HW233681   0.741   4.621   0.129 -1.4261  0.0868 -0.4249
 7349SOL     OW33682   4.339   3.838   8.423  0.1624 -0.0510 -0.2627
 7349SOL    HW133683   4.290   3.901   8.476  0.7455 -0.3397  0.6233
 7349SOL    HW233684   4.295   3.820   8.340 -0.4189  0.8812 -0.1583
 7350SOL     OW33685   0.598   4.224   4.120  0.2012 -0.2910 -0.0999
 7350SOL    HW133686   0.648   4.197   4.197  0.4802  0.7943  0.1051
 7350SOL    HW233687   0.544   4.146   4.109 -3.1572  1.9662  0.4838
 7351SOL     OW33688   3.140   3.785  17.613 -0.1404  0.1117 -0.1089
 7351SOL    HW133689   3.077   3.853  17.588  0.4374 -0.3271 -2.6493
 7351SOL    HW233690   3.108   3.754  17.698 -0.5776 -1.9260 -1.0113
 7352SOL     OW33691   4.341   2.689  13.803  0.7914 -0.1598  0.3468
 7352SOL    HW133692   4.397   2.679  13.726 -1.6322  0.5709 -1.5164
 7352SOL    HW233693   4.397   2.672  13.878  1.4828 -2.1449 -0.6092
 7353SOL     OW33694   2.179   1.519   6.535  0.2867 -0.0207 -0.5897
 7353SOL    HW133695   2.240   1.455   6.498 -0.1175 -0.0547 -1.1905
 7353SOL    HW233696   2.134   1.463   6.597  0.0054  0.8188 -0.0357
 7354SOL     OW33697   0.576   0.043   9.659  0.2937 -0.8613  0.4411
 7354SOL    HW133698   0.627   0.001   9.728  1.4311 -0.0920  0.0660
 7354SOL    HW233699   0.527   0.114   9.700  0.8978 -0.4756  0.4996
 7355SOL     OW33700   2.560   1.418  10.320 -0.0692 -0.9013 -0.1836
 7355SOL    HW133701   2.469   1.395  10.306 -0.2412 -0.6582  0.5610
 7355SOL    HW233702   2.589   1.338  10.365  0.7121  0.0307  0.9627
 7356SOL     OW33703   0.451   4.598   4.948  0.1113  0.1128 -0.4300
 7356SOL    HW133704   0.541   4.573   4.927  0.9123  0.9085  2.1134
 7356SOL    HW233705   0.461   4.653   5.025 -1.1880 -3.5401  2.3580
 7357SOL     OW33706   3.433   3.209  13.387 -0.2768  0.5384 -0.1176
 7357SOL    HW133707   3.467   3.210  13.476 -3.7594  0.2953  1.1862
 7357SOL    HW233708   3.352   3.159  13.391 -1.3243  2.5157  3.1138
 7358SOL     OW33709   2.373   3.950   0.214  0.2500 -0.2326  0.3351
 7358SOL    HW133710   2.320   3.901   0.150 -1.8233  1.4447  0.7740
 7358SOL    HW233711   2.391   3.884   0.281  0.2986 -1.0348 -0.4688
 7359SOL     OW33712   1.991   4.612  10.022  0.1520 -0.0350  0.6951
 7359SOL    HW133713   2.044   4.537  10.051 -0.2552 -0.0140  1.4903
 7359SOL    HW233714   2.066   4.656   9.981 -0.6974  1.3170  0.6041
 7360SOL     OW33715   1.637   2.346   6.788 -0.5490 -0.1429  0.2003
 7360SOL    HW133716   1.680   2.326   6.871 -0.2005  0.9770  0.2956
 7360SOL    HW233717   1.709   2.314   6.733 -1.2101  0.3594 -0.9515
 7361SOL     OW33718   1.622   0.408   0.256  0.3287  0.3660  0.0050
 7361SOL    HW133719   1.603   0.443   0.343  1.0883  2.1625 -0.5398
 7361SOL    HW233720   1.536   0.414   0.215  0.0392 -0.4782  0.4968
 7362SOL     OW33721   3.046   2.553   7.701 -0.1146  0.2772  0.1593
 7362SOL    HW133722   3.048   2.638   7.745 -2.5619  3.3420 -5.6758
 7362SOL    HW233723   3.120   2.560   7.641 -0.0136 -3.4705 -0.1722
 7363SOL     OW33724   2.011   3.308   3.362  0.2266 -0.9587 -0.2380
 7363SOL    HW133725   1.931   3.259   3.379 -0.3146 -0.2828 -0.8865
 7363SOL    HW233726   2.077   3.239   3.357  1.1532 -0.2472  1.7624
 7364SOL     OW33727   2.433   3.949   0.832  0.5221  0.0704 -0.8366
 7364SOL    HW133728   2.487   4.028   0.829  0.2235  0.3790  1.7183
 7364SOL    HW233729   2.431   3.934   0.927  1.7295  0.8699 -0.6857
 7365SOL     OW33730   3.711   2.280   5.142  0.1752  0.1413 -0.0977
 7365SOL    HW133731   3.771   2.342   5.100 -0.8082 -0.6926 -2.6697
 7365SOL    HW233732   3.682   2.337   5.214 -0.6150 -1.5219  0.9088
 7366SOL     OW33733   4.246   1.998  11.778 -0.2825 -0.0835 -0.5886
 7366SOL    HW133734   4.257   2.028  11.868 -3.4071 -0.2248 -0.1540
 7366SOL    HW233735   4.242   1.902  11.785 -1.3873 -0.0928 -1.2580
 7367SOL     OW33736   0.859   1.192   4.921  0.3156  0.4464 -0.0960
 7367SOL    HW133737   0.797   1.193   4.848 -0.3636 -0.0373  0.4735
 7367SOL    HW233738   0.921   1.122   4.901  0.0115  0.0799  0.2258
 7368SOL     OW33739   3.815   1.158   2.696 -0.1930  0.1341  0.9061
 7368SOL    HW133740   3.729   1.152   2.653  0.5075 -1.9273 -0.2037
 7368SOL    HW233741   3.805   1.209   2.777 -1.9276  3.1203 -1.1901
 7369SOL     OW33742   3.277   2.183   5.996  0.1292  0.5230 -0.3681
 7369SOL    HW133743   3.309   2.273   5.996 -1.3456  1.0350  2.0954
 7369SOL    HW233744   3.357   2.130   6.001  0.3570  1.0763  1.6027
 7370SOL     OW33745   0.769   2.726   7.796 -0.0622  0.1971  0.7489
 7370SOL    HW133746   0.817   2.666   7.738 -0.5253 -2.7030  3.3572
 7370SOL    HW233747   0.689   2.733   7.743  0.4741  2.1494  0.2250
 7371SOL     OW33748   0.227   3.792   8.595  0.6655  0.4046 -0.4970
 7371SOL    HW133749   0.287   3.767   8.665  1.7499 -0.6250 -1.8008
 7371SOL    HW233750   0.143   3.794   8.641  1.2980 -1.8385  0.7508
 7372SOL     OW33751   1.210   1.245  13.051 -0.1086  0.3274 -0.4594
 7372SOL    HW133752   1.183   1.329  13.090 -0.4633  1.5782 -3.4057
 7372SOL    HW233753   1.285   1.233  13.109  0.7811  0.5452 -1.5787
 7373SOL     OW33754   2.832   0.495  12.632  0.3651 -0.2108 -0.3208
 7373SOL    HW133755   2.801   0.404  12.633 -1.7952  0.5180 -0.9497
 7373SOL    HW233756   2.912   0.484  12.581  0.9923  1.6322  0.2884
 7374SOL     OW33757   2.689   4.086   2.001 -0.1300  0.2631  0.0240
 7374SOL    HW133758   2.716   4.173   2.032  3.8441 -0.7594 -0.6659
 7374SOL    HW233759   2.699   4.092   1.906 -0.6734 -1.6998 -0.1396
 7375SOL     OW33760   2.217   3.648   4.059  0.1477 -0.3472  0.6927
 7375SOL    HW133761   2.301   3.630   4.017  0.0672  1.4945 -0.2362
 7375SOL    HW233762   2.225   3.738   4.092  0.2923 -0.2483  0.3885
 7376SOL     OW33763   3.632   2.146   7.750 -0.0935 -0.4430  0.4430
 7376SOL    HW133764   3.655   2.234   7.779 -2.4953  0.1621  0.5357
 7376SOL    HW233765   3.705   2.113   7.697 -2.2138 -1.1324 -2.0429
 7377SOL     OW33766   4.592   0.911  16.120  0.3433 -0.1262 -0.5850
 7377SOL    HW133767   4.648   0.922  16.044 -0.0361 -1.0383 -0.9959
 7377SOL    HW233768   4.616   0.822  16.144 -1.9123 -0.2280  1.2849
 7378SOL     OW33769   2.268   2.648  12.685 -0.0180 -0.5371  0.3362
 7378SOL    HW133770   2.320   2.570  12.667 -2.5889 -1.8186 -1.5013
 7378SOL    HW233771   2.260   2.683  12.596  3.8346 -2.3574 -0.7351
 7379SOL     OW33772   1.134   3.763   7.184 -0.4798 -0.1361 -0.2821
 7379SOL    HW133773   1.196   3.744   7.114  0.9112  3.1401  0.0363
 7379SOL    HW233774   1.056   3.802   7.144 -0.4062  0.3689  0.0671
 7380SOL     OW33775   2.169   2.299  17.336  0.2666 -0.2159  0.1621
 7380SOL    HW133776   2.250   2.344  17.360  0.6321 -1.6954  1.7775
 7380SOL    HW233777   2.109   2.367  17.305 -0.1522 -0.7706 -0.2464
 7381SOL     OW33778   4.406   1.953   0.758  0.1329 -0.0366  0.3633
 7381SOL    HW133779   4.454   1.896   0.819  1.7834  1.0268  0.0842
 7381SOL    HW233780   4.456   2.035   0.750 -0.9544  0.6037  0.1274
 7382SOL     OW33781   0.424   2.576   8.914 -0.8518 -0.4961 -0.6741
 7382SOL    HW133782   0.428   2.567   8.819 -0.3635  0.4003 -0.7436
 7382SOL    HW233783   0.494   2.514   8.934  0.9937  2.3360  1.6543
 7383SOL     OW33784   1.608   2.566   9.189 -0.0832  0.0109  0.0658
 7383SOL    HW133785   1.604   2.470   9.180 -1.1551  0.1477 -0.8984
 7383SOL    HW233786   1.515   2.585   9.205  0.6747  1.8756  2.0924
 7384SOL     OW33787   0.538   2.053  13.274  0.4765 -0.4776 -0.2122
 7384SOL    HW133788   0.575   1.979  13.226  0.4498 -1.7431  1.6829
 7384SOL    HW233789   0.596   2.125  13.253  1.0450 -0.5668  1.0426
 7385SOL     OW33790   3.287   1.478   6.088  0.4156 -0.4248 -0.5415
 7385SOL    HW133791   3.255   1.552   6.138 -1.1432 -0.6650 -1.2073
 7385SOL    HW233792   3.378   1.507   6.076  0.3148 -0.3481 -1.1089
 7386SOL     OW33793   2.347   4.495   5.309  0.0979  0.8146  0.0061
 7386SOL    HW133794   2.302   4.578   5.291  0.2309  0.5893 -1.3126
 7386SOL    HW233795   2.432   4.509   5.266 -0.5671  1.7787 -0.9676
 7387SOL     OW33796   1.731   4.533  17.548 -0.6199  0.4832  0.2654
 7387SOL    HW133797   1.730   4.599  17.479  0.7811  1.1391  0.8856
 7387SOL    HW233798   1.710   4.590  17.622 -1.0171  0.5916  0.0658
 7388SOL     OW33799   0.039   0.867   0.946 -0.3675 -0.7230 -0.9191
 7388SOL    HW133800   4.695   0.858   0.893  0.5220 -1.3611 -2.1586
 7388SOL    HW233801   0.085   0.785   0.927 -1.5668 -1.3332 -1.1759
 7389SOL     OW33802   0.411   2.535   8.636 -0.3615 -0.3193 -0.1396
 7389SOL    HW133803   0.356   2.508   8.562 -0.1378 -1.7563  0.2262
 7389SOL    HW233804   0.492   2.498   8.602  0.5988  1.3135  0.3561
 7390SOL     OW33805   3.715   4.017  15.571  0.5103 -0.4444  0.4883
 7390SOL    HW133806   3.675   4.013  15.658  0.5291  2.5691  0.6306
 7390SOL    HW233807   3.638   3.982  15.526  2.1407 -0.8005 -2.0752
 7391SOL     OW33808   1.600   1.524   4.244  0.0676  0.4933  0.4458
 7391SOL    HW133809   1.688   1.548   4.272  0.8177 -0.1484 -1.4261
 7391SOL    HW233810   1.623   1.436   4.215  1.6264  1.5268 -1.3760
 7392SOL     OW33811   0.071   2.792  13.638  0.1871  0.1155 -0.6454
 7392SOL    HW133812   0.076   2.703  13.603  0.1244 -0.7531  1.5534
 7392SOL    HW233813   0.007   2.769  13.706  1.8487 -1.4006  0.4243
 7393SOL     OW33814   2.921   3.372   4.659  0.1396  0.1773  0.2591
 7393SOL    HW133815   2.868   3.319   4.718 -0.7953 -0.1462 -0.8640
 7393SOL    HW233816   2.900   3.459   4.693  0.4805 -0.0289  1.0050
 7394SOL     OW33817   1.518   2.634   7.373  0.6649 -0.0840  0.0619
 7394SOL    HW133818   1.508   2.617   7.279 -1.6633  3.2497 -0.3065
 7394SOL    HW233819   1.545   2.725   7.385  1.3852 -0.2911 -0.0070
 7395SOL     OW33820   3.726   3.411   2.667 -0.3875  0.2932 -0.2927
 7395SOL    HW133821   3.713   3.505   2.668  1.1384  0.5060  0.4981
 7395SOL    HW233822   3.698   3.391   2.578  2.5895  0.0951 -1.1994
 7396SOL     OW33823   0.334   4.526   9.282  0.1241 -0.0921  0.0053
 7396SOL    HW133824   0.322   4.533   9.377  0.1551  0.5444 -0.0331
 7396SOL    HW233825   0.314   4.437   9.254  0.1149  0.5269 -1.9658
 7397SOL     OW33826   0.381   4.291   5.470 -0.0299 -0.1608  0.1729
 7397SOL    HW133827   0.296   4.321   5.502 -0.4166 -0.6065 -0.4338
 7397SOL    HW233828   0.410   4.375   5.434  0.5019 -0.2743  0.3274
 7398SOL     OW33829   2.333   2.622   6.820  0.5200 -0.1657  0.5199
 7398SOL    HW133830   2.326   2.547   6.878 -2.1733  1.1699  1.9278
 7398SOL    HW233831   2.243   2.621   6.788 -0.0783 -0.4044  2.2163
 7399SOL     OW33832   1.562   1.974   3.895 -0.8808 -0.4549  0.0931
 7399SOL    HW133833   1.641   1.972   3.842  0.2879 -0.4118  1.8388
 7399SOL    HW233834   1.534   2.065   3.900  1.0822  0.1833 -0.7841
 7400SOL     OW33835   0.234   4.221   1.870 -0.2912 -0.1961  0.0172
 7400SOL    HW133836   0.293   4.235   1.796 -0.9018  1.0215 -0.2474
 7400SOL    HW233837   0.291   4.227   1.946  0.0272  0.5934 -0.2910
 7401SOL     OW33838   2.659   0.595   1.810 -0.1616  0.3420  0.0624
 7401SOL    HW133839   2.650   0.598   1.905  0.7785 -1.4587  0.2083
 7401SOL    HW233840   2.571   0.595   1.772  1.0017 -0.9426 -2.6460
 7402SOL     OW33841   0.824   1.837  11.428  0.6902  0.2301 -0.0459
 7402SOL    HW133842   0.783   1.879  11.353 -1.7215  0.5101  1.4303
 7402SOL    HW233843   0.753   1.781  11.457  1.1085 -0.4830 -0.3980
 7403SOL     OW33844   0.113   1.055  15.373 -0.2726 -0.5188 -0.0510
 7403SOL    HW133845   0.159   1.054  15.289  0.2983  0.7185  0.2336
 7403SOL    HW233846   0.035   1.108  15.355  0.4281  1.5869  3.0255
 7404SOL     OW33847   0.331   2.606   7.704  0.0408  0.7253 -0.4525
 7404SOL    HW133848   0.390   2.566   7.768  1.9587 -0.7160 -3.1328
 7404SOL    HW233849   0.370   2.576   7.622  0.5015  2.3057 -0.8111
 7405SOL     OW33850   4.451   1.227  14.819 -0.1516  0.5505  0.2745
 7405SOL    HW133851   4.422   1.225  14.728 -0.2642 -1.7747  0.3564
 7405SOL    HW233852   4.539   1.195  14.802 -1.2150 -2.2748  0.0949
 7406SOL     OW33853   0.401   0.322   5.290 -0.1055 -0.6873 -0.0415
 7406SOL    HW133854   0.444   0.373   5.222  1.6231 -0.6482  1.0916
 7406SOL    HW233855   0.475   0.267   5.316  1.4163  0.4338 -2.0155
 7407SOL     OW33856   3.800   2.124   8.371 -0.4768  0.0034 -0.5159
 7407SOL    HW133857   3.866   2.164   8.427 -0.7120  2.0878 -1.7082
 7407SOL    HW233858   3.828   2.147   8.282 -0.7944  2.8421  0.1019
 7408SOL     OW33859   0.329   2.762   6.139  0.0548 -0.1062  0.5270
 7408SOL    HW133860   0.310   2.698   6.207 -1.9874  1.2428  1.1939
 7408SOL    HW233861   0.402   2.723   6.091 -1.8412 -3.2901  0.3043
 7409SOL     OW33862   0.630   0.553  10.679  0.1833  0.1264  0.1234
 7409SOL    HW133863   0.543   0.588  10.659 -0.4781 -1.1704  0.7278
 7409SOL    HW233864   0.688   0.609  10.626 -0.4743  0.2933 -0.4246
 7410SOL     OW33865   3.691   0.015  15.184 -0.4446 -0.8292 -0.3235
 7410SOL    HW133866   3.744   0.084  15.145 -1.3052  0.0098 -0.0242
 7410SOL    HW233867   3.751   4.677  15.189 -0.5494 -0.6473  4.2253
 7411SOL     OW33868   1.283   2.367   7.034 -0.5026 -0.0179  0.0860
 7411SOL    HW133869   1.351   2.430   7.058 -0.4206 -0.5195  1.1703
 7411SOL    HW233870   1.311   2.350   6.944  1.8203  1.7816  0.4501
 7412SOL     OW33871   3.895   1.175   4.222 -0.0528  0.9732  0.4772
 7412SOL    HW133872   3.909   1.081   4.216 -3.9393  0.5204 -1.8364
 7412SOL    HW233873   3.843   1.180   4.302 -0.3468  0.0335  0.3390
 7413SOL     OW33874   1.959   0.847  17.723  0.2228 -0.2125 -0.1547
 7413SOL    HW133875   2.037   0.863  17.670 -0.5475  0.5793 -1.0670
 7413SOL    HW233876   1.978   0.758   0.010  1.3999  0.2058  0.3458
 7414SOL     OW33877   1.787   4.057   7.517  0.6245 -0.3786  0.4163
 7414SOL    HW133878   1.801   4.146   7.550  2.1726 -0.7645  0.7919
 7414SOL    HW233879   1.711   4.029   7.568  0.3690 -0.4513  0.0014
 7415SOL     OW33880   4.314   1.220   3.115 -0.1388  0.2573  0.1431
 7415SOL    HW133881   4.358   1.209   3.199 -0.2693 -1.7878 -0.0539
 7415SOL    HW233882   4.343   1.141   3.069  0.8373  0.2328  0.8046
 7416SOL     OW33883   1.491   4.004   6.696  0.1563 -0.4762 -0.3204
 7416SOL    HW133884   1.407   3.958   6.701 -0.6804  1.2883  1.6829
 7416SOL    HW233885   1.458   4.086   6.661  0.0323 -0.0038  0.8997
 7417SOL     OW33886   2.784   1.012  15.113  0.5722  0.4564  0.0655
 7417SOL    HW133887   2.761   1.105  15.115  0.9090  0.5332  0.2631
 7417SOL    HW233888   2.777   0.999  15.018 -2.0415 -0.8573  0.4505
 7418SOL     OW33889   0.660   1.666  15.825 -0.6668  0.2610 -0.3833
 7418SOL    HW133890   0.605   1.661  15.747  0.0215 -1.2289 -0.7587
 7418SOL    HW233891   0.721   1.724  15.779 -0.9845  0.3932 -0.6410
 7419SOL     OW33892   2.339   1.305  10.256 -0.1399  0.6944  0.1469
 7419SOL    HW133893   2.263   1.273  10.304 -1.1631  1.9063 -0.6584
 7419SOL    HW233894   2.344   1.251  10.178  1.2080  2.2722 -0.8549
 7420SOL     OW33895   3.942   4.694   3.149  0.0089 -0.0346  0.0149
 7420SOL    HW133896   3.962   4.635   3.222  0.5585  0.6658  0.4290
 7420SOL    HW233897   3.932   4.626   3.083  0.3661  1.8304 -1.9344
 7421SOL     OW33898   3.719   3.043   4.659  0.9686 -0.0558 -0.3913
 7421SOL    HW133899   3.634   3.000   4.652 -0.1905  2.1813 -0.1831
 7421SOL    HW233900   3.771   3.005   4.588  0.0481  1.0340 -1.6521
 7422SOL     OW33901   1.915   3.389   6.223 -0.0552  0.2741  0.3125
 7422SOL    HW133902   1.970   3.458   6.259  0.0873  0.4230 -0.1799
 7422SOL    HW233903   1.958   3.376   6.138 -0.8762 -1.4879  0.1598
 7423SOL     OW33904   1.029   2.070   1.416 -0.0132  0.5156 -0.2423
 7423SOL    HW133905   1.077   2.099   1.338  3.3345 -0.1527  1.5707
 7423SOL    HW233906   1.091   2.008   1.453 -0.9711 -0.6375 -0.5974
 7424SOL     OW33907   2.590   4.005  12.122 -0.4980  0.0278 -0.3141
 7424SOL    HW133908   2.545   4.009  12.038  0.7938  1.4686 -0.9368
 7424SOL    HW233909   2.584   3.912  12.145 -0.1425  0.0087 -0.2862
 7425SOL     OW33910   3.282   1.407   4.098 -0.0494 -0.0850  0.5773
 7425SOL    HW133911   3.206   1.458   4.125 -0.5022 -1.3546  1.6721
 7425SOL    HW233912   3.301   1.449   4.013  1.2548 -0.5568  0.6281
 7426SOL     OW33913   0.117   4.517  11.152 -0.1956  0.7364  0.4002
 7426SOL    HW133914   0.051   4.531  11.084  0.2492 -0.5763 -0.2780
 7426SOL    HW233915   0.130   4.423  11.156 -0.2349  0.6350 -2.2578
 7427SOL     OW33916   3.767   0.946   8.379  0.1142  0.0937  0.0177
 7427SOL    HW133917   3.718   0.870   8.410  1.3281 -0.1627  1.2857
 7427SOL    HW233918   3.706   1.011   8.414  0.8821 -0.6336  2.7090
 7428SOL     OW33919   1.517   2.270   1.384 -0.1852  0.2631 -0.0218
 7428SOL    HW133920   1.492   2.351   1.428  0.9901 -0.2067  1.5147
 7428SOL    HW233921   1.472   2.204   1.437 -1.2378 -0.3726 -1.7031
 7429SOL     OW33922   4.082   0.596  13.945 -0.2880  0.1314 -0.4265
 7429SOL    HW133923   4.131   0.678  13.939 -1.9246  1.0471 -1.2003
 7429SOL    HW233924   4.147   0.530  13.971 -0.9362 -0.9226 -1.5062
 7430SOL     OW33925   3.892   3.699   9.136  0.2564 -0.4249  0.1518
 7430SOL    HW133926   3.972   3.696   9.083 -0.1566 -2.2346 -0.3516
 7430SOL    HW233927   3.869   3.607   9.127  0.7975 -0.6440  0.9865
 7431SOL     OW33928   0.736   4.717   1.279  0.3416  0.3156 -0.1531
 7431SOL    HW133929   0.809   4.656   1.266 -0.4282 -0.3231 -1.4407
 7431SOL    HW233930   0.777   0.067   1.293 -0.0855  0.4069  0.4901
 7432SOL     OW33931   3.092   2.939  13.758 -0.5866 -0.3660  0.0083
 7432SOL    HW133932   3.141   2.903  13.832 -1.2312  0.4357  0.8073
 7432SOL    HW233933   3.161   2.979  13.704 -0.5557  0.0816  0.3842
 7433SOL     OW33934   3.886   2.162  17.555 -0.2135 -0.3914 -0.6365
 7433SOL    HW133935   3.976   2.174  17.525 -0.2041 -0.0747 -0.4786
 7433SOL    HW233936   3.860   2.254  17.563 -1.8975 -0.9233 -0.0896
 7434SOL     OW33937   3.169   3.362   8.823 -0.3262  0.4695 -0.0070
 7434SOL    HW133938   3.230   3.350   8.897 -0.2437 -1.9609 -0.4907
 7434SOL    HW233939   3.194   3.285   8.774 -0.2705  0.6601 -0.2777
 7435SOL     OW33940   3.547   3.261   3.596  0.5654  0.5201 -0.9115
 7435SOL    HW133941   3.631   3.243   3.639  0.1205 -0.6054 -0.4926
 7435SOL    HW233942   3.548   3.354   3.575 -0.5571  0.6384 -0.4523
 7436SOL     OW33943   2.805   4.486   0.647  0.0987 -0.2038 -0.0143
 7436SOL    HW133944   2.746   4.560   0.662  2.0930  1.5204 -0.6761
 7436SOL    HW233945   2.861   4.536   0.588 -0.1447  0.9819  0.7570
 7437SOL     OW33946   3.322   4.522   6.630 -0.1611  0.0508  0.6211
 7437SOL    HW133947   3.250   4.516   6.567  0.7427 -0.1276 -0.3957
 7437SOL    HW233948   3.404   4.522   6.581 -0.9656 -0.9083 -0.6993
 7438SOL     OW33949   2.025   3.600   2.087  0.5074  0.6466  0.5361
 7438SOL    HW133950   1.941   3.575   2.125  0.4442  0.0289 -0.0078
 7438SOL    HW233951   2.047   3.521   2.037  0.1423 -0.1348  1.6127
 7439SOL     OW33952   3.219   3.730  14.367  0.6165  0.1667 -0.4295
 7439SOL    HW133953   3.266   3.806  14.333 -0.2847 -0.9175 -3.9973
 7439SOL    HW233954   3.282   3.661  14.345  1.0496 -0.1263  1.6997
 7440SOL     OW33955   4.221   3.485   1.977 -0.0151  0.6579 -0.8357
 7440SOL    HW133956   4.300   3.466   1.927  0.8834 -0.1370  0.9012
 7440SOL    HW233957   4.223   3.433   2.057 -1.3885 -0.1044 -1.2930
 7441SOL     OW33958   1.321   1.736   7.803 -0.3696  0.1093 -0.6157
 7441SOL    HW133959   1.262   1.802   7.768  0.1435  0.2747 -1.1733
 7441SOL    HW233960   1.394   1.791   7.833  0.1259 -1.4646  1.0457
 7442SOL     OW33961   1.077   2.566   1.889 -0.1868 -0.6489 -1.1209
 7442SOL    HW133962   1.093   2.477   1.919 -1.3157 -0.2797  0.5886
 7442SOL    HW233963   1.096   2.615   1.969  1.6587 -1.7400 -0.8934
 7443SOL     OW33964   2.704   1.683   0.073 -0.3940 -0.3158 -0.2835
 7443SOL    HW133965   2.789   1.675   0.115  0.2178  0.5192 -1.3990
 7443SOL    HW233966   2.700   1.777   0.061  1.5564 -0.4876 -2.2984
 7444SOL     OW33967   1.569   2.019   4.449  0.3025 -0.0529  0.3327
 7444SOL    HW133968   1.653   2.006   4.404 -1.3684  1.6986 -3.2598
 7444SOL    HW233969   1.541   1.928   4.457  1.2026 -0.4132 -0.6445
 7445SOL     OW33970   4.009   4.037   6.843  0.3502  0.0545  0.4833
 7445SOL    HW133971   4.009   4.109   6.780  0.4623  0.2360  0.6866
 7445SOL    HW233972   3.945   3.979   6.801 -0.5238 -0.9797  3.2309
 7446SOL     OW33973   2.833   3.303   6.198 -0.1304  0.5934 -0.0397
 7446SOL    HW133974   2.866   3.228   6.248 -1.4829  1.0715  1.5866
 7446SOL    HW233975   2.784   3.349   6.267 -1.6574  0.5416 -1.0973
 7447SOL     OW33976   4.572   0.016   6.405 -0.3656  0.5037 -0.2034
 7447SOL    HW133977   4.564   4.723   6.314 -1.5012  0.5611 -0.1211
 7447SOL    HW233978   4.479   0.029   6.422 -0.6306 -2.5693  0.7634
 7448SOL     OW33979   1.746   1.616  16.656 -0.3076  0.1900  0.1033
 7448SOL    HW133980   1.708   1.647  16.574  0.2599  0.6463  0.0156
 7448SOL    HW233981   1.830   1.591  16.617 -0.8053  1.0851 -1.5636
 7449SOL     OW33982   3.461   2.976  12.110  0.4106  0.6815  0.4817
 7449SOL    HW133983   3.538   2.979  12.167  0.0235 -1.6301  1.1131
 7449SOL    HW233984   3.505   2.971  12.025 -0.4643 -0.8111  0.1214
 7450SOL     OW33985   0.244   0.068   2.558 -0.3791 -0.6692  0.5788
 7450SOL    HW133986   0.312   0.133   2.544 -0.3184 -0.5198  1.5661
 7450SOL    HW233987   0.285   0.002   2.503 -0.9377 -0.4615 -0.0923
 7451SOL     OW33988   0.707   2.616   9.208 -0.5174 -0.3795  0.3766
 7451SOL    HW133989   0.753   2.537   9.235  1.4546  0.3465 -0.8476
 7451SOL    HW233990   0.634   2.577   9.159 -0.2715 -1.0427  0.5432
 7452SOL     OW33991   1.322   0.705   4.105  0.5323 -0.1970  0.1298
 7452SOL    HW133992   1.248   0.644   4.103  1.9596 -1.9395  0.0470
 7452SOL    HW233993   1.310   0.725   4.197  2.0118 -0.9058  0.4664
 7453SOL     OW33994   0.398   2.329   4.089  0.3453  0.9778 -0.4618
 7453SOL    HW133995   0.335   2.334   4.161  1.9252 -1.1831  1.0945
 7453SOL    HW233996   0.402   2.234   4.081  0.8332  1.0322 -0.8401
 7454SOL     OW33997   1.933   0.179   3.822 -0.3249  0.0719  0.1459
 7454SOL    HW133998   1.969   0.092   3.838  1.7408  0.9822  0.4719
 7454SOL    HW233999   2.006   0.239   3.807  0.4649 -0.0407  3.5371
 7455SOL     OW34000   1.166   4.009   7.425 -0.0184  0.1471 -0.7330
 7455SOL    HW134001   1.184   4.029   7.517  0.8865  3.1194 -1.5373
 7455SOL    HW234002   1.071   4.006   7.417 -0.2756  1.9482  1.6198
 7456SOL     OW34003   0.988   1.938   4.689 -0.1873  0.4861 -0.3297
 7456SOL    HW134004   1.077   1.926   4.723  0.2295  1.8384 -0.9436
 7456SOL    HW234005   0.991   2.031   4.666  1.5364  0.3846 -0.4965
 7457SOL     OW34006   2.327   1.135   2.824 -0.2837 -0.0112 -0.7446
 7457SOL    HW134007   2.268   1.089   2.883  0.5084  0.7341  0.6273
 7457SOL    HW234008   2.387   1.065   2.797  0.0449 -0.1080  0.2572
 7458SOL     OW34009   3.471   3.761   4.570  0.0757  0.1694 -0.5479
 7458SOL    HW134010   3.408   3.689   4.572  0.9849 -0.6260 -0.9461
 7458SOL    HW234011   3.492   3.767   4.663 -2.9770 -0.8060  0.1925
 7459SOL     OW34012   4.325   0.766  11.305  0.2307  0.5008 -0.1441
 7459SOL    HW134013   4.341   0.679  11.342 -1.2410 -0.5578 -2.0342
 7459SOL    HW234014   4.237   0.750  11.272  0.4318 -1.4573  0.2665
 7460SOL     OW34015   1.327   4.289   8.432 -0.2364  0.1817 -0.1015
 7460SOL    HW134016   1.282   4.373   8.422 -2.2844 -1.0055 -0.8763
 7460SOL    HW234017   1.254   4.231   8.453  2.5945 -3.0639  0.7115
 7461SOL     OW34018   2.593   2.061   2.633 -0.2894  0.2163  0.0636
 7461SOL    HW134019   2.555   2.148   2.645 -2.1316 -0.4895 -0.6015
 7461SOL    HW234020   2.580   2.032   2.723 -1.0358  1.5379  0.3865
 7462SOL     OW34021   0.458   3.215   2.581  0.0557  0.2038 -0.4890
 7462SOL    HW134022   0.517   3.229   2.655  0.4659  2.1463 -1.1775
 7462SOL    HW234023   0.382   3.244   2.631 -0.7613 -2.8071 -0.0208
 7463SOL     OW34024   3.043   3.616   4.193  0.1573 -0.3473  0.1054
 7463SOL    HW134025   3.032   3.557   4.267  0.8050  1.6588  1.7706
 7463SOL    HW234026   3.126   3.650   4.224  0.5939 -1.5847  0.3126
 7464SOL     OW34027   3.497   3.259   4.974 -0.0957 -0.0131 -0.0354
 7464SOL    HW134028   3.589   3.236   4.982  0.3601  1.9684  0.5011
 7464SOL    HW234029   3.485   3.348   5.008 -0.4730  0.0494 -0.3274
 7465SOL     OW34030   4.358   1.268  15.699  0.3045 -0.2064  0.4936
 7465SOL    HW134031   4.337   1.343  15.755 -0.7702 -1.4274  1.7167
 7465SOL    HW234032   4.381   1.200  15.762  2.0015 -2.7059 -2.8413
 7466SOL     OW34033   3.556   4.577  15.811 -0.1716  0.6227 -0.4778
 7466SOL    HW134034   3.599   4.589  15.726 -0.3673  0.0341 -0.6597
 7466SOL    HW234035   3.579   4.660  15.854 -0.3690 -1.6492  3.9106
 7467SOL     OW34036   2.735   0.662   2.366  0.0303 -0.2453 -0.2868
 7467SOL    HW134037   2.704   0.750   2.383 -1.8054 -0.7794 -0.8740
 7467SOL    HW234038   2.675   0.620   2.427 -0.1125 -0.5449 -0.6295
 7468SOL     OW34039   2.257   2.792   7.773  0.1401 -0.0888  0.0670
 7468SOL    HW134040   2.232   2.731   7.704  2.2723 -0.7303 -0.1408
 7468SOL    HW234041   2.349   2.769   7.786  0.5037 -0.0534 -2.4348
 7469SOL     OW34042   4.160   3.270   8.976 -0.1706  0.4859 -0.0360
 7469SOL    HW134043   4.159   3.176   8.958 -0.8708  0.2357  1.2775
 7469SOL    HW234044   4.158   3.303   8.886 -0.8776  1.8210  0.4847
 7470SOL     OW34045   1.990   2.107   6.154  0.2034  0.6516 -0.4021
 7470SOL    HW134046   1.994   2.022   6.198  0.6126  1.0576  0.3351
 7470SOL    HW234047   2.050   2.160   6.206  1.9180 -1.3194 -0.3890
 7471SOL     OW34048   1.445   4.319   8.198 -0.0525 -0.1065 -0.3285
 7471SOL    HW134049   1.507   4.246   8.205 -0.3448 -0.2272  0.9717
 7471SOL    HW234050   1.403   4.325   8.284  0.3686 -0.0015 -0.1302
 7472SOL     OW34051   0.972   3.723   0.252 -0.1421  1.1426 -0.1467
 7472SOL    HW134052   0.910   3.673   0.305  1.5510 -1.2735 -0.4588
 7472SOL    HW234053   1.046   3.665   0.268 -0.5307  1.1329  1.5764
 7473SOL     OW34054   1.265   0.289   8.166 -0.4041  0.0821  0.4573
 7473SOL    HW134055   1.214   0.254   8.239 -0.4983  0.4370  0.5627
 7473SOL    HW234056   1.288   0.372   8.209  0.6588 -0.5669  1.1445
 7474SOL     OW34057   1.448   0.735  12.553  0.0058 -0.3400  0.0790
 7474SOL    HW134058   1.433   0.642  12.572 -0.8038 -0.4114 -0.8937
 7474SOL    HW234059   1.371   0.776  12.515  0.3220  1.4887  1.3987
 7475SOL     OW34060   3.788   0.589  17.139 -0.2234  0.3767  0.3008
 7475SOL    HW134061   3.875   0.629  17.128  0.8752 -1.7213  1.3866
 7475SOL    HW234062   3.739   0.619  17.063 -0.0315  1.8931  0.7708
 7476SOL     OW34063   2.816   3.657   1.263  0.1625  0.4088  0.0896
 7476SOL    HW134064   2.723   3.655   1.242 -0.1846 -0.4573  1.7235
 7476SOL    HW234065   2.822   3.606   1.344 -1.7407 -0.2403 -0.1979
 7477SOL     OW34066   1.226   4.383   3.750 -0.0146 -0.1706 -0.5090
 7477SOL    HW134067   1.183   4.440   3.813  0.6594  1.7898 -1.7854
 7477SOL    HW234068   1.246   4.437   3.673  1.4169  1.7336  1.1788
 7478SOL     OW34069   3.712   4.201   4.680 -0.1611 -0.3914  0.0201
 7478SOL    HW134070   3.683   4.289   4.657  0.9164 -0.2387 -0.7250
 7478SOL    HW234071   3.630   4.151   4.680 -1.3404  1.5526  0.2493
 7479SOL     OW34072   1.725   0.050  12.509 -0.1230  0.5414 -0.1823
 7479SOL    HW134073   1.756   4.709  12.558 -1.8446 -0.0937 -0.1058
 7479SOL    HW234074   1.803   0.068  12.456 -0.0413  0.6890 -0.0095
 7480SOL     OW34075   1.994   0.215   4.700 -0.5461 -0.7609 -0.1237
 7480SOL    HW134076   1.925   0.167   4.745  1.0083  0.6173  3.7200
 7480SOL    HW234077   1.945   0.297   4.691 -0.0832 -0.3044  1.5057
 7481SOL     OW34078   4.062   2.319   5.007 -0.1299 -1.2118  0.6163
 7481SOL    HW134079   4.141   2.369   4.984  0.0922 -1.7245  0.2605
 7481SOL    HW234080   3.995   2.388   5.007 -0.4773 -1.5575  2.0766
 7482SOL     OW34081   3.471   4.165   5.391  0.3468 -0.1871 -0.2771
 7482SOL    HW134082   3.472   4.255   5.424 -0.9831 -0.0518 -0.6193
 7482SOL    HW234083   3.409   4.169   5.318 -0.1555 -0.5630  0.1352
 7483SOL     OW34084   2.333   0.287  12.057  0.4543 -0.7335 -0.2518
 7483SOL    HW134085   2.392   0.311  11.985  0.0503 -0.7015 -0.5673
 7483SOL    HW234086   2.325   0.366  12.110  0.7770 -1.2677  0.5882
 7484SOL     OW34087   3.995   3.165   3.299  0.2255  0.1194 -0.1943
 7484SOL    HW134088   3.974   3.217   3.221 -1.3617  2.1682  1.6238
 7484SOL    HW234089   3.982   3.235   3.363  1.0900 -1.3766  1.5857
 7485SOL     OW34090   3.109   0.474   3.809 -0.4368 -0.4712 -0.5471
 7485SOL    HW134091   3.117   0.392   3.859 -2.8760 -0.8155 -0.7063
 7485SOL    HW234092   3.167   0.533   3.856  1.2410 -1.5538 -1.2394
 7486SOL     OW34093   3.071   2.766  10.213  0.0063  0.6959  0.3279
 7486SOL    HW134094   3.151   2.813  10.235 -1.1268  3.2765 -1.0675
 7486SOL    HW234095   3.073   2.762  10.117  1.5194 -2.1532  0.4887
 7487SOL     OW34096   1.108   0.953  13.261 -0.1228  0.2438  0.1147
 7487SOL    HW134097   1.016   0.941  13.241 -0.0468 -0.4729  0.2135
 7487SOL    HW234098   1.104   1.024  13.326  3.9966 -0.2944  1.0131
 7488SOL     OW34099   3.523   2.332  14.834  0.3190 -0.3447 -0.1663
 7488SOL    HW134100   3.455   2.319  14.769  1.3249  1.4153 -1.5540
 7488SOL    HW234101   3.533   2.427  14.837 -0.5573 -0.2274 -1.4385
 7489SOL     OW34102   4.065   2.034   7.794 -0.4464 -0.3110 -0.4696
 7489SOL    HW134103   4.079   2.114   7.844 -1.6035 -1.2991  1.4447
 7489SOL    HW234104   4.142   2.031   7.737 -0.8342  0.8158 -1.0497
 7490SOL     OW34105   2.915   2.244   5.492  0.2675 -0.2905  0.4505
 7490SOL    HW134106   2.938   2.173   5.552  0.6054 -1.3894 -1.0025
 7490SOL    HW234107   2.950   2.319   5.540 -0.9595  0.6558 -0.1197
 7491SOL     OW34108   1.883   0.049   9.457  0.1941 -0.2366  0.4434
 7491SOL    HW134109   1.895   0.144   9.457  0.3976 -0.2557 -0.9586
 7491SOL    HW234110   1.790   0.044   9.478  0.1607 -0.5627  0.2048
 7492SOL     OW34111   3.812   1.865   9.186  0.2980  0.3618 -0.5584
 7492SOL    HW134112   3.751   1.905   9.249 -2.0206 -0.7173 -2.1335
 7492SOL    HW234113   3.823   1.937   9.123  1.7582 -3.2619 -4.4293
 7493SOL     OW34114   3.154   3.438  15.261 -0.2011 -0.4200 -0.2818
 7493SOL    HW134115   3.172   3.375  15.192 -0.7812 -1.3365  0.4006
 7493SOL    HW234116   3.061   3.455  15.247 -0.0230  0.8823  0.1409
 7494SOL     OW34117   2.444   1.847  10.254 -0.0364  0.1469  0.8543
 7494SOL    HW134118   2.378   1.778  10.250 -1.5948  1.8299 -1.8894
 7494SOL    HW234119   2.449   1.877  10.163 -0.4667 -1.5598  0.2630
 7495SOL     OW34120   4.662   2.844   0.890 -0.0515  0.0524 -0.2340
 7495SOL    HW134121   4.710   2.881   0.964  1.3024 -1.0167 -0.5848
 7495SOL    HW234122   4.572   2.855   0.921  0.3273 -0.2172  0.9764
 7496SOL     OW34123   2.296   0.322   2.911  0.6287 -0.1571  0.3167
 7496SOL    HW134124   2.337   0.346   2.828  0.4582  0.1869  0.3303
 7496SOL    HW234125   2.279   0.409   2.946  1.2326 -0.0567  0.3501
 7497SOL     OW34126   0.889   2.537   7.645 -0.1000  0.2008  0.7464
 7497SOL    HW134127   0.924   2.572   7.563  1.1019 -2.6777  0.0020
 7497SOL    HW234128   0.829   2.469   7.615 -0.0253  1.2391 -1.7751
 7498SOL     OW34129   1.209   2.807   8.214  0.1193  0.2387 -0.2411
 7498SOL    HW134130   1.141   2.810   8.147  0.1269  3.9735 -0.0700
 7498SOL    HW234131   1.269   2.880   8.197  1.9472 -1.2407 -0.1496
 7499SOL     OW34132   0.361   0.429   1.856  0.3717 -0.0961  0.4313
 7499SOL    HW134133   0.317   0.345   1.868 -0.4693  0.3148  0.1666
 7499SOL    HW234134   0.284   0.480   1.832 -0.1163 -0.8302  0.4541
 7500SOL     OW34135   2.447   4.304   3.188 -0.2046 -0.1370  0.3660
 7500SOL    HW134136   2.463   4.360   3.264  0.5383 -0.8382  0.7155
 7500SOL    HW234137   2.476   4.362   3.117  3.2991 -0.2265  1.7475
 7501SOL     OW34138   3.625   3.440  10.707  0.0832  0.3328  0.0334
 7501SOL    HW134139   3.618   3.521  10.655 -0.9480 -0.2218 -0.6908
 7501SOL    HW234140   3.537   3.405  10.701  0.9226 -1.8348  0.6170
 7502SOL     OW34141   2.515   2.154   3.695  0.2448  0.0068 -0.1494
 7502SOL    HW134142   2.487   2.246   3.691 -0.2510 -0.2040 -1.4292
 7502SOL    HW234143   2.508   2.139   3.601  0.6747 -0.2693 -0.1364
 7503SOL     OW34144   4.013   0.101   8.588  0.2784  1.1043 -0.4691
 7503SOL    HW134145   4.037   0.021   8.636  1.0861  1.8196  0.3178
 7503SOL    HW234146   3.974   0.152   8.659 -0.4401  0.3136 -0.2774
 7504SOL     OW34147   0.767   4.437   4.501  0.4043 -0.5175 -0.5760
 7504SOL    HW134148   0.696   4.377   4.524 -0.9154  1.1123 -0.3738
 7504SOL    HW234149   0.709   4.493   4.449  0.7535 -1.0033 -1.4896
 7505SOL     OW34150   3.324   2.061   3.678  0.4015 -0.5117  0.0114
 7505SOL    HW134151   3.400   2.034   3.730  1.6393  0.9497 -0.9984
 7505SOL    HW234152   3.250   2.063   3.738  3.0173  0.9496  3.2087
 7506SOL     OW34153   4.716   3.767   4.725  0.0511  0.0695  0.2740
 7506SOL    HW134154   4.628   3.732   4.714  0.1243 -0.2356  0.6595
 7506SOL    HW234155   4.726   3.769   4.821  1.1127  0.1664  0.1696
 7507SOL     OW34156   4.054   0.126   5.999  0.0120 -0.0361 -0.0089
 7507SOL    HW134157   4.123   0.184   5.967 -2.4396  2.7284 -0.2888
 7507SOL    HW234158   3.975   0.179   5.992  0.0821  0.0770  0.0499
 7508SOL     OW34159   0.080   0.494   3.760  0.7900 -0.2700  0.0722
 7508SOL    HW134160   0.014   0.488   3.829  0.5424 -1.3454 -0.2569
 7508SOL    HW234161   0.071   0.583   3.725 -1.4954 -0.7780 -0.6202
 7509SOL     OW34162   2.164   4.067  10.981  0.0181 -0.0790  0.0142
 7509SOL    HW134163   2.102   4.044  10.911  1.2057 -1.0224 -0.7182
 7509SOL    HW234164   2.103   4.114  11.038 -1.8110  0.3751 -2.2945
 7510SOL     OW34165   4.520   3.090  11.583 -0.5188 -0.1725  0.4602
 7510SOL    HW134166   4.527   3.173  11.537 -0.3515 -0.6250 -0.3236
 7510SOL    HW234167   4.446   3.126  11.631 -0.3496 -0.9233  1.2885
 7511SOL     OW34168   3.238   2.591   3.668 -0.2961  0.5248  0.1086
 7511SOL    HW134169   3.157   2.602   3.618 -0.7525  0.9167  0.9474
 7511SOL    HW234170   3.287   2.527   3.615 -1.9615 -0.1629 -0.5971
 7512SOL     OW34171   1.465   3.261   5.946 -0.3761  0.1124  0.2572
 7512SOL    HW134172   1.518   3.328   5.904  2.0305  1.1057  4.7818
 7512SOL    HW234173   1.535   3.200   5.969  0.4082  1.1227  0.5325
 7513SOL     OW34174   0.561   4.385   2.704 -0.0537 -0.4624 -0.1870
 7513SOL    HW134175   0.640   4.391   2.651  0.3461  1.6408  0.6618
 7513SOL    HW234176   0.537   4.294   2.688 -0.4042 -0.4002 -0.0158
 7514SOL     OW34177   3.555   2.941  16.202  0.4414 -0.6168 -0.4066
 7514SOL    HW134178   3.649   2.958  16.207  0.8124 -2.1210 -2.2062
 7514SOL    HW234179   3.553   2.846  16.213  2.3311 -0.5656  0.4814
 7515SOL     OW34180   1.072   1.177   3.294  0.2071  0.2081 -0.4786
 7515SOL    HW134181   1.090   1.197   3.202  0.7904 -0.6353 -0.5515
 7515SOL    HW234182   1.096   1.084   3.297  0.6222  0.2675 -1.8536
 7516SOL     OW34183   2.022   3.171   9.138  0.6438 -0.0300 -0.1812
 7516SOL    HW134184   1.965   3.098   9.113  0.8910 -0.1918 -0.2723
 7516SOL    HW234185   1.953   3.232   9.164  0.4343 -1.1204  1.8448
 7517SOL     OW34186   2.624   0.610   5.088  0.3277  0.5660  0.1696
 7517SOL    HW134187   2.601   0.701   5.106  1.5767  1.2008 -1.3757
 7517SOL    HW234188   2.659   0.623   4.999 -1.3202 -0.3813 -0.6251
 7518SOL     OW34189   2.721   4.538   2.795  0.2695 -0.1001 -0.9870
 7518SOL    HW134190   2.693   4.492   2.715  0.4314  0.2917 -1.2705
 7518SOL    HW234191   2.794   4.596   2.774  1.7596 -1.1541  1.3044
 7519SOL     OW34192   0.939   2.293   8.718 -0.8334 -0.1314 -0.1259
 7519SOL    HW134193   0.854   2.257   8.693 -0.5860 -1.1144  0.4476
 7519SOL    HW234194   1.008   2.230   8.697  1.1389  1.6603  0.9686
 7520SOL     OW34195   1.399   1.132   8.417 -0.1273 -0.1112  0.6917
 7520SOL    HW134196   1.339   1.092   8.354  0.5025  0.0932 -0.0296
 7520SOL    HW234197   1.465   1.063   8.426  1.1093  0.9695 -0.3051
 7521SOL     OW34198   2.762   0.629   8.677  0.1718 -0.0646  0.4101
 7521SOL    HW134199   2.799   0.716   8.696 -1.4516  1.5825 -4.0246
 7521SOL    HW234200   2.737   0.598   8.764 -1.3196 -2.2788 -0.8287
 7522SOL     OW34201   0.476   4.687   5.509  0.0787 -0.3553 -0.0295
 7522SOL    HW134202   0.387   4.699   5.539  0.3120  1.3295 -0.0309
 7522SOL    HW234203   0.502   0.042   5.495  0.0693 -0.3201  0.1917
 7523SOL     OW34204   4.295   1.038   4.273 -0.1486  0.4021  0.2031
 7523SOL    HW134205   4.339   0.955   4.290 -2.5779 -1.0765 -0.7204
 7523SOL    HW234206   4.220   1.029   4.331  0.9208  0.0880  1.5469
 7524SOL     OW34207   2.624   1.837  17.482  0.5747 -0.1589  0.2704
 7524SOL    HW134208   2.580   1.755  17.502 -2.9311  1.3578 -1.2375
 7524SOL    HW234209   2.635   1.880  17.567  2.3905 -0.5771  0.2446
 7525SOL     OW34210   0.017   4.499   8.954  0.1092  0.6626 -0.6093
 7525SOL    HW134211   0.018   4.537   8.867 -0.3969 -3.4550 -2.4157
 7525SOL    HW234212   4.693   4.425   8.943  0.0360  0.6216  0.0731
 7526SOL     OW34213   1.796   2.504  12.807 -0.4114 -0.4186 -0.5726
 7526SOL    HW134214   1.827   2.580  12.857 -2.2131 -0.7425  1.0163
 7526SOL    HW234215   1.859   2.499  12.735  1.5971  1.9570  1.0043
 7527SOL     OW34216   0.698   1.632  16.740  0.2231 -0.2909  0.3605
 7527SOL    HW134217   0.609   1.619  16.773  0.2228 -0.0856  0.4399
 7527SOL    HW234218   0.683   1.699  16.673 -1.7604  0.6375  1.7374
 7528SOL     OW34219   0.281   0.501  10.052 -0.5037 -0.0746  0.0439
 7528SOL    HW134220   0.298   0.417  10.094  1.3646 -0.9684 -2.5343
 7528SOL    HW234221   0.185   0.502  10.048 -0.5007 -0.2316 -0.0474
 7529SOL     OW34222   1.181   2.682   7.167 -0.2757  0.0658  0.2980
 7529SOL    HW134223   1.274   2.690   7.146  0.1015 -0.5035  1.7641
 7529SOL    HW234224   1.174   2.762   7.219  0.4277  1.2585 -1.4434
 7530SOL     OW34225   2.828   4.208   8.673  0.2017 -0.4143  0.1750
 7530SOL    HW134226   2.747   4.202   8.623  1.3432 -2.4086 -1.4044
 7530SOL    HW234227   2.859   4.118   8.680  1.5796  0.0183 -0.2399
 7531SOL     OW34228   1.290   1.019  15.441  0.5080  0.2532 -0.1745
 7531SOL    HW134229   1.384   1.026  15.456  0.9959  0.6288 -3.5382
 7531SOL    HW234230   1.255   1.107  15.455  0.5746 -0.0380  1.7759
 7532SOL     OW34231   0.111   2.596   3.560  0.0688  0.4150 -0.0853
 7532SOL    HW134232   0.118   2.514   3.511 -0.4751  0.2169  0.1756
 7532SOL    HW234233   0.202   2.617   3.583  0.7807 -1.9898 -0.7006
 7533SOL     OW34234   0.743   0.539  17.668  0.3762 -0.2207  0.1400
 7533SOL    HW134235   0.692   0.465  17.634  0.0399 -0.8325  2.0048
 7533SOL    HW234236   0.739   0.520   0.019  1.3471  1.1176  0.4554
 7534SOL     OW34237   2.976   3.646   5.136  0.0224  0.0642  0.1263
 7534SOL    HW134238   2.935   3.677   5.217  1.7831 -0.0840  1.0799
 7534SOL    HW234239   2.986   3.738   5.113 -1.6415  0.6835  1.8638
 7535SOL     OW34240   4.299   0.139   3.312 -0.7214  0.1019  0.0059
 7535SOL    HW134241   4.292   0.085   3.391 -1.5533 -2.3127 -1.7349
 7535SOL    HW234242   4.371   0.195   3.343  0.4888 -1.6249  0.3233
 7536SOL     OW34243   4.199   1.868   6.753  0.4891  0.2171  0.3812
 7536SOL    HW134244   4.148   1.869   6.672  0.1831  3.4589  0.6116
 7536SOL    HW234245   4.137   1.915   6.810 -1.7283 -1.1756 -0.8487
 7537SOL     OW34246   3.657   0.785   6.835 -0.0725  0.4122 -0.5970
 7537SOL    HW134247   3.640   0.788   6.741  1.6779 -0.9634 -0.9596
 7537SOL    HW234248   3.729   0.721   6.837 -1.6751 -1.3847  0.1363
 7538SOL     OW34249   3.608   0.389  10.532 -0.0515  0.0436 -0.5417
 7538SOL    HW134250   3.593   0.405  10.625 -0.2160  1.5767 -0.8266
 7538SOL    HW234251   3.704   0.390  10.537 -0.0923  0.4488  0.1448
 7539SOL     OW34252   1.830   4.327   4.107 -0.8048 -0.6437 -0.0416
 7539SOL    HW134253   1.734   4.322   4.109 -0.8332 -0.6512 -2.2893
 7539SOL    HW234254   1.844   4.233   4.106  4.4031  0.1748 -1.1373
 7540SOL     OW34255   2.885   2.120  10.849  0.0015  0.1348 -0.3857
 7540SOL    HW134256   2.879   2.189  10.915  1.2858  0.6097 -0.7656
 7540SOL    HW234257   2.914   2.166  10.770 -0.4859  1.6838  0.3425
 7541SOL     OW34258   3.254   2.221   3.470  0.3131 -0.1416 -0.2419
 7541SOL    HW134259   3.281   2.159   3.538 -3.6326 -0.9080  0.6118
 7541SOL    HW234260   3.270   2.164   3.395  1.7726  2.0070 -1.5556
 7542SOL     OW34261   1.213   3.328   0.094 -0.4050  0.6903  0.0741
 7542SOL    HW134262   1.248   3.310   0.007  0.0413  4.1959 -0.4705
 7542SOL    HW234263   1.126   3.360   0.072 -1.4956 -1.9614  0.5462
 7543SOL     OW34264   1.592   0.735   7.373  0.1370  0.3447  0.6143
 7543SOL    HW134265   1.526   0.723   7.441  2.1088 -0.7352  2.3176
 7543SOL    HW234266   1.546   0.795   7.315 -0.2426  1.5880  2.2037
 7544SOL     OW34267   1.568   1.522   2.618 -0.2227  0.5481 -0.2804
 7544SOL    HW134268   1.558   1.440   2.666  1.0964 -0.8426 -2.3526
 7544SOL    HW234269   1.558   1.492   2.528 -2.8094  0.8689 -0.0792
 7545SOL     OW34270   0.567   2.732  12.215  0.3869 -0.2477 -1.0954
 7545SOL    HW134271   0.639   2.707  12.273  0.7212 -0.5347 -1.6380
 7545SOL    HW234272   0.484   2.712  12.259 -0.8469 -0.0918 -3.3365
 7546SOL     OW34273   1.698   2.836  16.025  0.1647 -0.8432  0.5046
 7546SOL    HW134274   1.701   2.834  16.121  1.7189 -0.6960  0.4601
 7546SOL    HW234275   1.728   2.748  16.001 -0.3781 -0.9456  0.1840
 7547SOL     OW34276   3.880   0.464   0.322  0.3995  0.2551 -0.5002
 7547SOL    HW134277   3.932   0.543   0.335  1.4117 -0.3919 -0.6887
 7547SOL    HW234278   3.945   0.402   0.290 -0.3959 -0.8010 -0.0883
 7548SOL     OW34279   1.894   2.006   5.119 -1.0720 -0.1127  0.3216
 7548SOL    HW134280   1.854   1.972   5.198 -1.0613  1.4907  1.0201
 7548SOL    HW234281   1.824   2.066   5.092 -0.5177  1.6042  2.6796
 7549SOL     OW34282   4.185   0.085   5.044 -0.1166  0.3516 -0.8192
 7549SOL    HW134283   4.173   0.067   4.951 -0.5841  3.2924 -1.3454
 7549SOL    HW234284   4.169   4.734   5.080 -1.7301  1.4280  1.1044
 7550SOL     OW34285   1.847   2.590   6.176  0.0582 -0.6135 -0.2984
 7550SOL    HW134286   1.774   2.619   6.121  2.2543  3.3682 -1.1890
 7550SOL    HW234287   1.853   2.663   6.238  0.9552 -1.2582  0.3604
 7551SOL     OW34288   3.594   2.399   2.750 -0.0758  0.2672  0.6497
 7551SOL    HW134289   3.656   2.449   2.802 -0.1533  0.3221  0.6890
 7551SOL    HW234290   3.553   2.471   2.703 -0.0377 -0.0601  0.1061
 7552SOL     OW34291   1.567   2.725   1.621  0.1662  0.3128 -0.5998
 7552SOL    HW134292   1.525   2.652   1.575 -1.1754  0.6176  0.1278
 7552SOL    HW234293   1.656   2.716   1.588  2.5803 -1.3573  6.3120
 7553SOL     OW34294   0.267   2.619   0.263  0.1532 -0.7073 -0.4885
 7553SOL    HW134295   0.213   2.589   0.336  1.3141 -1.5689  0.0117
 7553SOL    HW234296   0.208   2.635   0.189  0.3320  0.6280 -0.3483
 7554SOL     OW34297   0.143   1.856  12.981 -1.0953  0.0858  0.0047
 7554SOL    HW134298   0.055   1.840  13.013 -0.4024 -1.7819  0.9413
 7554SOL    HW234299   0.178   1.907  13.055  1.6819 -1.7120 -0.0763
 7555SOL     OW34300   0.016   2.886   3.851  0.6028 -0.0864  0.2745
 7555SOL    HW134301   0.104   2.889   3.814  1.5976 -0.6808  2.5514
 7555SOL    HW234302   4.725   2.795   3.846  2.2068 -0.6904  2.4589
 7556SOL     OW34303   3.779   3.047   6.194 -0.5321  0.1258 -0.1645
 7556SOL    HW134304   3.842   3.091   6.251  1.6733  1.7252 -3.8366
 7556SOL    HW234305   3.743   3.121   6.145 -0.2370 -0.5444 -1.3848
 7557SOL     OW34306   3.927   0.921   7.492 -0.1461  0.3581  0.3213
 7557SOL    HW134307   3.943   0.944   7.583 -3.0207 -1.6450  1.2986
 7557SOL    HW234308   3.958   0.831   7.490 -0.4218  0.2585  0.5968
 7558SOL     OW34309   1.531   1.792   0.357  0.0059  0.5537 -0.7389
 7558SOL    HW134310   1.583   1.871   0.343 -0.0455  0.5688 -0.8498
 7558SOL    HW234311   1.557   1.757   0.442  0.2029  2.1698 -0.1413
 7559SOL     OW34312   4.443   2.892   2.288 -0.2912 -0.0935  0.0690
 7559SOL    HW134313   4.357   2.926   2.264 -0.2963 -1.0221 -1.2424
 7559SOL    HW234314   4.423   2.806   2.324 -0.6398 -0.3067 -0.6471
 7560SOL     OW34315   0.826   0.149   3.210  0.0410  0.1892 -0.0389
 7560SOL    HW134316   0.762   0.217   3.233 -3.6701 -2.7979 -1.4721
 7560SOL    HW234317   0.878   0.167   3.288 -3.6304 -0.3259  2.5241
 7561SOL     OW34318   4.574   3.156   6.601  0.3537 -0.0243  0.3100
 7561SOL    HW134319   4.485   3.184   6.623 -0.6319 -0.7781 -2.7080
 7561SOL    HW234320   4.557   3.084   6.541 -1.7155  0.4662  0.3071
 7562SOL     OW34321   2.300   2.468   5.843  0.3992  0.6656  0.9305
 7562SOL    HW134322   2.219   2.519   5.850  0.5616  1.3167 -1.7540
 7562SOL    HW234323   2.316   2.465   5.749  1.0538 -0.0369  1.0601
 7563SOL     OW34324   1.248   1.560   3.492 -0.6049 -0.1739 -0.0726
 7563SOL    HW134325   1.194   1.638   3.509 -1.0740  0.1275 -3.0730
 7563SOL    HW234326   1.185   1.491   3.512  1.0127 -1.4108  0.7639
 7564SOL     OW34327   0.269   2.115   7.594  0.3029 -0.3379  0.2411
 7564SOL    HW134328   0.213   2.050   7.552 -0.2378  1.1636 -1.3604
 7564SOL    HW234329   0.230   2.113   7.682  1.4409 -2.0560  0.7053
 7565SOL     OW34330   3.063   1.306   9.188  0.0317 -0.1127  0.5117
 7565SOL    HW134331   3.075   1.399   9.167  0.8877 -0.6420 -1.3285
 7565SOL    HW234332   3.041   1.310   9.282  0.8710  0.8690  0.6639
 7566SOL     OW34333   3.415   4.708   6.887  0.1754 -0.8421  0.3999
 7566SOL    HW134334   3.400   0.013   6.972 -2.2305  0.6459 -0.7300
 7566SOL    HW234335   3.329   4.678   6.857 -0.4780  1.2830  0.1359
 7567SOL     OW34336   1.070   3.106   2.845  0.1392  0.2801  0.0621
 7567SOL    HW134337   1.045   3.038   2.907 -1.3049  1.3920  0.6798
 7567SOL    HW234338   1.007   3.086   2.776 -1.3164 -0.2247  1.5651
 7568SOL     OW34339   4.359   3.557   8.917  0.2148 -0.3536  0.9630
 7568SOL    HW134340   4.380   3.530   9.007  0.3957 -1.4297  0.6001
 7568SOL    HW234341   4.270   3.592   8.923 -0.2641 -1.3180 -0.5448
 7569SOL     OW34342   1.621   2.493   1.123 -0.3943 -0.2911 -0.1066
 7569SOL    HW134343   1.686   2.517   1.190 -0.9586  0.9642 -0.0140
 7569SOL    HW234344   1.673   2.434   1.068 -1.7417 -1.1739 -0.4184
 7570SOL     OW34345   3.937   2.986   6.864  0.5949  0.2578 -0.3990
 7570SOL    HW134346   3.844   2.961   6.867  0.9509 -0.7444  2.0190
 7570SOL    HW234347   3.938   3.067   6.915 -1.7597 -0.0418  0.1196
 7571SOL     OW34348   3.726   0.100   7.156 -0.0719 -0.2516 -0.0286
 7571SOL    HW134349   3.726   0.086   7.062 -1.7593 -0.9581  0.0669
 7571SOL    HW234350   3.637   0.136   7.160 -0.1914 -0.5494  0.0538
 7572SOL     OW34351   4.295   4.172   0.339 -0.2431 -0.0688 -0.4848
 7572SOL    HW134352   4.217   4.116   0.341 -1.5034  1.6448 -1.6563
 7572SOL    HW234353   4.287   4.222   0.421 -0.4180 -1.2464  0.2188
 7573SOL     OW34354   3.602   4.357   3.019  0.0384 -0.6446  0.0495
 7573SOL    HW134355   3.535   4.362   2.951  0.2926 -1.1903 -0.2356
 7573SOL    HW234356   3.580   4.429   3.079  0.7431 -1.2889  1.1001
 7574SOL     OW34357   3.572   1.862  11.943  0.6220 -0.2091 -0.0069
 7574SOL    HW134358   3.493   1.855  11.998 -0.1378 -0.3174 -1.1106
 7574SOL    HW234359   3.563   1.779  11.895  0.1725 -0.2544  0.1534
 7575SOL     OW34360   1.226   4.671   3.956 -0.2061  0.0733 -0.0629
 7575SOL    HW134361   1.248   0.022   3.989  2.8189 -0.5569 -0.3878
 7575SOL    HW234362   1.145   4.648   4.002  0.8209 -0.5870  1.4073
 7576SOL     OW34363   0.508   3.511   6.989 -0.0162  0.3467  0.1369
 7576SOL    HW134364   0.599   3.493   7.011 -0.9933 -1.8337  2.3732
 7576SOL    HW234365   0.507   3.503   6.893 -1.1142  0.0571  0.1772
 7577SOL     OW34366   0.465   4.576   9.532 -0.0029 -0.5117  0.2821
 7577SOL    HW134367   0.468   4.643   9.601  1.1246  1.0437 -1.2583
 7577SOL    HW234368   0.543   4.604   9.484 -1.6000  0.3787 -1.8071
 7578SOL     OW34369   3.586   3.981   2.274 -0.0626 -0.4759  0.3869
 7578SOL    HW134370   3.650   3.997   2.205 -1.1351 -0.1051 -0.5204
 7578SOL    HW234371   3.633   4.034   2.338 -0.7156  0.8288 -0.2060
 7579SOL     OW34372   4.544   2.859  10.863  0.1000 -0.4817 -0.0319
 7579SOL    HW134373   4.549   2.768  10.835 -0.8809 -0.7457  0.6524
 7579SOL    HW234374   4.622   2.870  10.918  1.7381 -1.3358 -2.1590
 7580SOL     OW34375   1.285   1.142   7.339  0.0091 -0.2957 -0.4097
 7580SOL    HW134376   1.267   1.058   7.381  1.1314 -0.7371 -0.8159
 7580SOL    HW234377   1.193   1.166   7.327  1.1907  3.8480 -1.0297
 7581SOL     OW34378   4.030   2.491   3.797  0.4943 -0.7346 -0.2697
 7581SOL    HW134379   3.972   2.499   3.873  2.1190  3.2777  0.5537
 7581SOL    HW234380   4.030   2.400   3.769 -3.9024 -0.7162 -0.3382
 7582SOL     OW34381   2.122   4.009   6.890 -0.0252  0.0170 -0.6718
 7582SOL    HW134382   2.120   3.921   6.928  0.4004 -0.0962 -0.9092
 7582SOL    HW234383   2.033   4.029   6.862  0.4848  1.4679 -1.2772
 7583SOL     OW34384   0.710   4.018   1.079 -0.2116 -0.5786 -0.2104
 7583SOL    HW134385   0.734   3.930   1.107  1.6951  0.0239  0.0536
 7583SOL    HW234386   0.791   4.049   1.038 -0.2386  0.6358  0.6616
 7584SOL     OW34387   1.525   3.661  15.310  0.2448 -0.2449  0.0037
 7584SOL    HW134388   1.551   3.676  15.219  1.0924  0.1095  0.3069
 7584SOL    HW234389   1.461   3.590  15.306 -0.5776  0.4180  1.3657
 7585SOL     OW34390   3.635   0.448   5.052 -0.7081 -0.5280 -0.2663
 7585SOL    HW134391   3.585   0.405   4.983  0.5559 -1.3703 -0.6516
 7585SOL    HW234392   3.646   0.531   5.005  0.1097 -0.7067 -0.3850
 7586SOL     OW34393   0.880   1.528   4.749  0.3363 -0.5147 -0.4511
 7586SOL    HW134394   0.810   1.588   4.724  0.9889  0.3177 -0.2745
 7586SOL    HW234395   0.870   1.479   4.667 -0.7465 -0.1635 -0.5247
 7587SOL     OW34396   3.242   4.362   4.388  0.3406  0.1278 -0.2815
 7587SOL    HW134397   3.160   4.319   4.366  0.0888  0.1610  0.5745
 7587SOL    HW234398   3.227   4.454   4.367  1.0709  0.7346  1.8667
 7588SOL     OW34399   1.048   1.181  10.697  0.4411  0.0631  0.1869
 7588SOL    HW134400   0.964   1.176  10.651 -0.1998  1.6936  1.1869
 7588SOL    HW234401   1.094   1.106  10.659 -0.3181 -0.7312  0.8298
 7589SOL     OW34402   3.822   2.942   9.196  0.3381 -0.2214  0.3298
 7589SOL    HW134403   3.784   2.887   9.128  0.4565 -2.6695  2.2610
 7589SOL    HW234404   3.846   3.020   9.146 -1.2952 -1.0990 -1.7846
 7590SOL     OW34405   3.018   0.307   0.478 -0.0795 -0.1423 -0.3992
 7590SOL    HW134406   2.999   0.324   0.386 -0.1210 -2.8340 -0.8949
 7590SOL    HW234407   3.005   0.395   0.513  2.9789 -0.1306  0.6962
 7591SOL     OW34408   0.943   2.694   0.133  0.6210 -0.1045  0.0339
 7591SOL    HW134409   0.961   2.600   0.125  0.0704 -0.0779 -1.5288
 7591SOL    HW234410   0.848   2.696   0.140  0.5620 -2.0999 -0.1597
 7592SOL     OW34411   1.066   1.030   1.815  0.5178  0.4933  0.3741
 7592SOL    HW134412   1.090   1.109   1.863  0.4167  0.5004  0.4116
 7592SOL    HW234413   0.977   1.055   1.791  0.6338  0.6909  0.1553
 7593SOL     OW34414   3.309   3.189  16.857  0.5508 -0.2206  1.1052
 7593SOL    HW134415   3.351   3.104  16.838  0.7451  0.2603 -0.6574
 7593SOL    HW234416   3.225   3.176  16.814  1.1554  0.3465 -0.2596
 7594SOL     OW34417   3.079   0.954   6.777 -0.1835  0.5001  0.0067
 7594SOL    HW134418   3.109   0.973   6.866  0.6531 -1.7581  0.2116
 7594SOL    HW234419   3.138   1.021   6.743 -0.0298  1.8334  2.9017
 7595SOL     OW34420   2.343   1.604   4.915 -0.3493 -0.2806 -0.6367
 7595SOL    HW134421   2.350   1.510   4.899 -1.9757 -0.7187  1.1820
 7595SOL    HW234422   2.392   1.605   4.996  0.2412  1.2436 -1.0087
 7596SOL     OW34423   3.029   1.204  12.699 -0.3680  0.6502  0.4328
 7596SOL    HW134424   3.113   1.225  12.658 -0.1357 -1.9626 -0.4127
 7596SOL    HW234425   3.027   1.271  12.768  1.2047  0.3381  0.7758
 7597SOL     OW34426   3.025   0.263   2.594  0.0115  0.4767 -0.5403
 7597SOL    HW134427   2.998   0.355   2.601  0.3164  0.5409 -0.2644
 7597SOL    HW234428   3.106   0.261   2.643  0.2153 -0.2212 -0.9107
 7598SOL     OW34429   0.291   2.415   2.735 -0.4210  0.1705 -0.6791
 7598SOL    HW134430   0.253   2.503   2.733 -1.1550 -0.2109 -2.5321
 7598SOL    HW234431   0.384   2.438   2.733 -0.6811  1.4753  1.8652
 7599SOL     OW34432   1.391   2.734   6.816  0.1373  0.4451  0.3766
 7599SOL    HW134433   1.351   2.814   6.784  2.8686  2.7579  2.7565
 7599SOL    HW234434   1.354   2.664   6.762  0.0359  0.6950  0.1237
 7600SOL     OW34435   1.147   3.543  16.804  0.1640 -0.1251  0.7782
 7600SOL    HW134436   1.066   3.571  16.763 -0.0026  0.4697  1.5128
 7600SOL    HW234437   1.113   3.537  16.893  2.1878  0.8764  1.6318
 7601SOL     OW34438   4.686   1.560   1.666 -0.1607 -0.1069  0.7104
 7601SOL    HW134439   4.690   1.499   1.593 -0.3017 -2.4655  2.6853
 7601SOL    HW234440   4.591   1.577   1.667  0.0245  0.9646 -0.6013
 7602SOL     OW34441   3.386   2.577   6.239 -0.5631  0.0213 -0.2403
 7602SOL    HW134442   3.469   2.601   6.278 -0.0489 -1.2864 -0.5300
 7602SOL    HW234443   3.350   2.516   6.303 -1.3526 -0.4927 -1.1604
 7603SOL     OW34444   0.791   4.312   6.938  0.1634 -0.2376  0.4499
 7603SOL    HW134445   0.743   4.296   6.856 -1.9583 -0.5756  1.7538
 7603SOL    HW234446   0.753   4.393   6.973 -0.6184  1.2133 -3.7248
 7604SOL     OW34447   0.619   2.737   3.665  0.1852 -0.5204 -0.4398
 7604SOL    HW134448   0.686   2.680   3.628 -0.4570 -2.1254  0.8772
 7604SOL    HW234449   0.667   2.799   3.720  0.7568  0.7349 -2.3624
 7605SOL     OW34450   2.627   1.892  16.069  0.8927  0.3417  0.1992
 7605SOL    HW134451   2.586   1.957  16.127 -1.8344  0.0476 -1.3631
 7605SOL    HW234452   2.629   1.932  15.983  0.5523  1.6358  0.7846
 7606SOL     OW34453   0.147   1.126   3.955  0.4178  0.0126  0.5626
 7606SOL    HW134454   0.171   1.101   3.866  1.0737 -0.7760  0.9601
 7606SOL    HW234455   0.234   1.143   3.991  1.3627  0.4111 -1.9130
 7607SOL     OW34456   1.249   4.056  11.213 -0.4024 -0.1318 -0.3394
 7607SOL    HW134457   1.204   3.974  11.192 -2.2550  0.8393 -0.1909
 7607SOL    HW234458   1.195   4.128  11.180  1.1261  1.7965  1.3950
 7608SOL     OW34459   2.207   1.612  17.730 -0.2724  0.4813 -0.2400
 7608SOL    HW134460   2.220   1.699  17.693  0.5260 -0.5971 -2.5033
 7608SOL    HW234461   2.268   1.557  17.681 -1.8040 -0.9431 -0.5587
 7609SOL     OW34462   3.688   1.059   8.052 -0.2140 -0.3613  0.5975
 7609SOL    HW134463   3.604   1.065   8.098 -0.5117 -0.8647  0.1250
 7609SOL    HW234464   3.674   1.131   7.991  1.0394 -0.2251  0.4787
 7610SOL     OW34465   3.398   0.415   8.338 -0.2979  0.0014  0.4376
 7610SOL    HW134466   3.417   0.504   8.309 -1.8047 -0.1678 -1.0792
 7610SOL    HW234467   3.456   0.357   8.290  0.7123  0.7251  0.7802
 7611SOL     OW34468   2.117   3.020   6.963  0.0049 -0.2812 -0.3934
 7611SOL    HW134469   2.178   3.028   6.891  1.2023  2.2261  0.8953
 7611SOL    HW234470   2.091   3.112   6.970  1.7917  0.1900 -0.0466
 7612SOL     OW34471   0.235   2.763   8.644 -0.4664 -0.7551 -0.1899
 7612SOL    HW134472   0.309   2.764   8.704 -1.2283 -1.6615  0.7677
 7612SOL    HW234473   0.228   2.669   8.631 -0.4569 -0.8897  0.8253
 7613SOL     OW34474   4.058   2.432  10.594 -0.4861 -0.0663  0.2157
 7613SOL    HW134475   3.975   2.477  10.611  0.3546  0.7255  2.2543
 7613SOL    HW234476   4.127   2.498  10.602  0.1381 -0.6761 -0.1662
 7614SOL     OW34477   3.268   3.408   6.481  0.3960  0.4070  0.5194
 7614SOL    HW134478   3.291   3.495   6.448 -1.7350  0.1832 -1.5431
 7614SOL    HW234479   3.312   3.344   6.425  1.4004  2.0851 -0.6104
 7615SOL     OW34480   2.232   3.370   9.028 -0.3526 -0.0250  0.0708
 7615SOL    HW134481   2.205   3.279   9.032  0.8155 -0.2916  1.9011
 7615SOL    HW234482   2.222   3.395   9.120  1.2678  1.0551 -0.0271
 7616SOL     OW34483   4.086   2.017   3.587  0.2262  0.5216 -0.2121
 7616SOL    HW134484   4.107   1.946   3.648 -2.7629 -1.0638 -1.0005
 7616SOL    HW234485   4.101   2.089   3.649  0.5836 -0.4080  0.7820
 7617SOL     OW34486   2.362   4.110  14.182  0.6832 -0.4998  0.0010
 7617SOL    HW134487   2.338   4.196  14.149  0.8267 -0.9591 -1.3077
 7617SOL    HW234488   2.307   4.107  14.261  0.6207  0.6217  0.0056
 7618SOL     OW34489   1.271   3.304   2.561 -0.2383 -0.0569 -0.0860
 7618SOL    HW134490   1.306   3.258   2.637 -2.8280 -1.9410 -0.0306
 7618SOL    HW234491   1.354   3.338   2.527 -0.7415 -0.1587 -1.4246
 7619SOL     OW34492   0.806   0.139   5.219 -0.1430  0.5454  0.1103
 7619SOL    HW134493   0.809   0.180   5.133 -0.6742 -0.7204 -0.5155
 7619SOL    HW234494   0.887   0.089   5.210 -0.5286 -0.0894  0.1252
 7620SOL     OW34495   4.400   0.533   3.158  0.0374 -0.3451  0.1904
 7620SOL    HW134496   4.482   0.484   3.151 -1.3062 -2.5339 -0.2289
 7620SOL    HW234497   4.422   0.607   3.102 -0.7084 -0.9905 -0.9520
 7621SOL     OW34498   1.409   0.775   0.971 -0.0354 -0.3141  0.1081
 7621SOL    HW134499   1.415   0.843   0.905 -1.8472 -0.0130  0.2713
 7621SOL    HW234500   1.322   0.741   0.949 -0.1039 -0.7750  1.0951
 7622SOL     OW34501   1.332   4.182  11.703  0.0460  0.1344  0.9612
 7622SOL    HW134502   1.250   4.171  11.750 -0.0901  2.2208  1.2358
 7622SOL    HW234503   1.339   4.277  11.688  2.4985  0.1162  2.0901
 7623SOL     OW34504   4.087   2.412   8.737  0.1255  0.3060 -0.0439
 7623SOL    HW134505   4.176   2.438   8.714  0.1697 -0.9349 -1.2749
 7623SOL    HW234506   4.059   2.491   8.783  2.3258 -0.0906  1.9153
 7624SOL     OW34507   2.250   2.290   8.445  0.0655 -0.6204  0.1836
 7624SOL    HW134508   2.219   2.248   8.364  1.2662 -1.6947  0.2829
 7624SOL    HW234509   2.325   2.334   8.406 -1.4753  0.5126 -1.5224
 7625SOL     OW34510   1.057   3.465  16.092 -0.1559 -0.1328 -0.0561
 7625SOL    HW134511   1.027   3.452  16.002 -0.3609  2.0054 -0.3025
 7625SOL    HW234512   0.980   3.430  16.137 -0.6561  1.5903  0.4311
 7626SOL     OW34513   2.403   2.292  11.038 -0.0964 -0.5853 -0.2725
 7626SOL    HW134514   2.433   2.294  10.947 -0.3949 -0.2660 -0.3652
 7626SOL    HW234515   2.462   2.361  11.069  0.4631  0.4003 -3.4926
 7627SOL     OW34516   1.662   1.625   7.043 -0.7153  0.8276  0.4223
 7627SOL    HW134517   1.708   1.617   7.126  0.2331  2.9747  0.1132
 7627SOL    HW234518   1.653   1.720   7.048  0.2340  0.8350  1.9948
 7628SOL     OW34519   1.220   3.122   7.713 -0.5708  0.0318 -0.3523
 7628SOL    HW134520   1.294   3.065   7.733 -0.3803  0.7380  0.9411
 7628SOL    HW234521   1.187   3.135   7.802  2.0606  1.5188  0.3975
 7629SOL     OW34522   4.493   0.523   4.858  0.1729  0.8663  0.4185
 7629SOL    HW134523   4.474   0.445   4.911  0.4428 -0.4643 -1.4388
 7629SOL    HW234524   4.588   0.517   4.856  0.1891  1.4813 -0.6855
 7630SOL     OW34525   0.448   3.387   3.020 -0.1337 -0.3484 -0.1651
 7630SOL    HW134526   0.474   3.311   2.968 -0.3397 -0.9420  0.6037
 7630SOL    HW234527   0.374   3.361   3.074 -0.6009  2.7443  0.7170
 7631SOL     OW34528   0.415   1.492   8.569 -0.0318 -0.0813  0.3943
 7631SOL    HW134529   0.491   1.443   8.601 -0.5851  0.7224  2.9601
 7631SOL    HW234530   0.386   1.514   8.658 -2.8771  2.8224 -1.2456
 7632SOL     OW34531   1.333   1.550   7.602 -0.0969  0.6293 -0.0165
 7632SOL    HW134532   1.290   1.471   7.636 -1.4030  1.4051  0.1076
 7632SOL    HW234533   1.323   1.617   7.669 -0.7072 -1.0205  1.5564
 7633SOL     OW34534   1.131   0.025  15.961 -0.2502 -0.5934  0.3831
 7633SOL    HW134535   1.131   0.098  16.024 -0.7710 -0.1285 -0.1530
 7633SOL    HW234536   1.083   4.699  16.016  1.3831 -3.2400 -1.1870
 7634SOL     OW34537   4.226   1.996   0.561 -0.4377  0.1886 -0.6456
 7634SOL    HW134538   4.272   1.949   0.491 -1.9070 -1.9130 -0.1834
 7634SOL    HW234539   4.283   1.997   0.638 -0.8844  0.6593 -0.3236
 7635SOL     OW34540   1.908   0.359   8.592  0.4073  0.3662  0.6521
 7635SOL    HW134541   1.901   0.343   8.687 -0.2219 -1.4107  0.3118
 7635SOL    HW234542   1.992   0.405   8.594  1.5182 -1.6997  1.0075
 7636SOL     OW34543   4.045   1.260  16.596  0.3102 -0.2921  0.0291
 7636SOL    HW134544   4.084   1.347  16.606 -0.5385  0.1896 -0.8322
 7636SOL    HW234545   4.104   1.228  16.528  0.9145  1.0357 -0.0651
 7637SOL     OW34546   3.608   0.037   5.166 -0.6245 -0.4283  0.0626
 7637SOL    HW134547   3.610   4.693   5.114  2.0193  0.3427 -1.0295
 7637SOL    HW234548   3.686   0.025   5.220  0.7358 -0.6667 -1.9524
 7638SOL     OW34549   2.808   2.703   6.149  0.1099 -0.0013 -0.0637
 7638SOL    HW134550   2.748   2.633   6.174 -0.9248  1.1401  0.5913
 7638SOL    HW234551   2.865   2.702   6.226 -1.5905 -0.2544  1.1719
 7639SOL     OW34552   1.378   3.370   4.549  0.4654 -0.0229  0.2429
 7639SOL    HW134553   1.382   3.319   4.630 -0.1286  1.2259  1.0747
 7639SOL    HW234554   1.459   3.343   4.508  0.6046  3.9081 -2.0215
 7640SOL     OW34555   2.685   1.573   3.184 -0.0832 -0.0118 -0.0468
 7640SOL    HW134556   2.620   1.506   3.162 -1.6696  0.8511  2.0039
 7640SOL    HW234557   2.669   1.591   3.277 -1.8887  0.7247 -0.4879
 7641SOL     OW34558   2.302   2.522   8.102  0.2420 -0.8472  0.1910
 7641SOL    HW134559   2.314   2.433   8.135  1.9084 -1.7732 -2.8990
 7641SOL    HW234560   2.221   2.522   8.052  1.5305  0.1545 -1.9010
 7642SOL     OW34561   0.532   0.260   7.294 -0.3866  0.7945 -0.7342
 7642SOL    HW134562   0.544   0.355   7.289  1.0872  0.5938 -1.0477
 7642SOL    HW234563   0.541   0.239   7.387  0.6015  0.8790 -0.8042
 7643SOL     OW34564   0.810   0.745   8.182  0.6142  0.8580  0.5956
 7643SOL    HW134565   0.799   0.653   8.156  0.8563  0.9145  0.2841
 7643SOL    HW234566   0.720   0.768   8.203  0.6824  1.2733  0.4325
 7644SOL     OW34567   3.609   3.428   5.315 -0.6890  0.3515  0.3568
 7644SOL    HW134568   3.625   3.346   5.270 -1.8708  0.0703  0.4514
 7644SOL    HW234569   3.543   3.469   5.259 -0.8368 -1.9431 -1.1173
 7645SOL     OW34570   4.567   4.487  12.471  0.0538 -0.4048  0.3415
 7645SOL    HW134571   4.540   4.550  12.538  1.5269 -0.4228  0.9483
 7645SOL    HW234572   4.491   4.429  12.474  0.6453 -1.0099  3.3910
 7646SOL     OW34573   4.000   2.200  16.393 -0.3812 -0.6668  0.3455
 7646SOL    HW134574   3.984   2.143  16.468  1.3809 -0.6642  0.7381
 7646SOL    HW234575   3.943   2.157  16.329 -0.2005 -2.7310  1.5629
 7647SOL     OW34576   2.717   2.386   6.303  0.1297 -0.1590 -0.2509
 7647SOL    HW134577   2.705   2.305   6.252 -2.0922  1.3055 -2.0642
 7647SOL    HW234578   2.638   2.380   6.357  3.0332 -1.5812  3.8230
 7648SOL     OW34579   3.513   3.252  17.040  0.3093  0.1352 -0.4197
 7648SOL    HW134580   3.421   3.275  17.046  0.2128 -0.3949  0.0135
 7648SOL    HW234581   3.502   3.159  17.020 -1.7656  0.8469 -2.5949
 7649SOL     OW34582   3.172   1.818   6.667  0.2202 -0.5712  0.5403
 7649SOL    HW134583   3.266   1.840   6.668  0.0339  0.2406 -0.2336
 7649SOL    HW234584   3.137   1.907   6.669  0.4577 -0.4603 -0.3507
 7650SOL     OW34585   4.622   1.388   8.508 -0.2166 -0.2190 -0.7947
 7650SOL    HW134586   4.622   1.300   8.469 -1.9318  0.4429 -2.2231
 7650SOL    HW234587   4.711   1.394   8.545  0.0342  1.5316 -1.6997
 7651SOL     OW34588   0.307   3.278   4.749 -0.1889 -0.0510 -0.0147
 7651SOL    HW134589   0.310   3.243   4.660  1.1348  0.2292 -0.0809
 7651SOL    HW234590   0.292   3.370   4.726 -2.9182 -0.0626  1.8083
 7652SOL     OW34591   0.025   1.480   6.393 -0.0749 -0.2927 -0.1432
 7652SOL    HW134592   0.000   1.507   6.481  0.4655  1.5019 -0.5435
 7652SOL    HW234593   0.077   1.555   6.367  0.5754 -0.1499  1.5684
 7653SOL     OW34594   4.599   3.896  13.804  0.1008  0.2688  0.4542
 7653SOL    HW134595   4.652   3.942  13.869  0.4298  0.3312  0.1428
 7653SOL    HW234596   4.508   3.921  13.818  0.3418  0.7820  1.0863
 7654SOL     OW34597   3.279   0.108   6.306  0.1690 -0.3688 -0.0698
 7654SOL    HW134598   3.282   0.187   6.252 -2.5005 -0.0868  0.1723
 7654SOL    HW234599   3.220   0.054   6.253  1.5042 -1.3186 -0.5754
 7655SOL     OW34600   1.770   0.529   3.045  0.1623 -0.0438 -0.0973
 7655SOL    HW134601   1.682   0.510   3.014  0.1185  0.6945 -0.4153
 7655SOL    HW234602   1.774   0.513   3.139 -0.0293 -1.1616 -0.2792
 7656SOL     OW34603   3.678   4.290   7.152 -0.4893 -0.4446  0.2892
 7656SOL    HW134604   3.644   4.275   7.240  0.6986  0.4800  0.9120
 7656SOL    HW234605   3.764   4.331   7.162 -1.2363  0.9197  1.1135
 7657SOL     OW34606   3.180   2.779   1.786  0.2839  0.0069 -0.0254
 7657SOL    HW134607   3.097   2.742   1.758  0.1361 -0.8304  1.5559
 7657SOL    HW234608   3.237   2.704   1.800 -1.7572 -1.5048  0.0310
 7658SOL     OW34609   1.375   0.349   3.416  0.2071 -0.0492  0.0024
 7658SOL    HW134610   1.328   0.294   3.479  1.4535 -1.8160 -0.6237
 7658SOL    HW234611   1.436   0.299   3.363 -0.4068  1.5055 -2.1719
 7659SOL     OW34612   3.048   2.317  15.661 -0.1778 -0.5817 -0.1462
 7659SOL    HW134613   2.958   2.315  15.630 -0.0051  0.4968 -0.7060
 7659SOL    HW234614   3.041   2.373  15.738 -0.1904 -2.1123  0.9621
 7660SOL     OW34615   3.485   0.908  12.388 -0.1468  0.0221 -0.9074
 7660SOL    HW134616   3.570   0.925  12.428 -1.8353  0.9675  2.2780
 7660SOL    HW234617   3.447   0.996  12.385  0.8364  0.4911  0.4754
 7661SOL     OW34618   4.170   3.832   1.829  0.8205  0.1195  0.4329
 7661SOL    HW134619   4.128   3.797   1.908  1.4018 -1.2274  0.1515
 7661SOL    HW234620   4.256   3.792   1.834 -0.3629 -2.2725  1.8001
 7662SOL     OW34621   1.589   3.449   6.964  0.5407 -0.7067  0.0687
 7662SOL    HW134622   1.647   3.524   6.974  0.2268 -0.3952 -0.4529
 7662SOL    HW234623   1.631   3.377   7.011  0.6100 -0.9025 -0.2941
 7663SOL     OW34624   2.213   1.870   5.297 -0.1952 -0.1121 -0.4944
 7663SOL    HW134625   2.199   1.799   5.235 -0.4931 -0.4117 -0.0873
 7663SOL    HW234626   2.279   1.920   5.248  1.4483 -0.3788  1.4173
 7664SOL     OW34627   2.640   2.104  12.915 -0.4504  0.1741 -0.7589
 7664SOL    HW134628   2.636   2.122  12.821  0.5056  0.0193 -0.8347
 7664SOL    HW234629   2.729   2.138  12.928  1.2683 -2.8217 -4.5829
 7665SOL     OW34630   1.116   0.442  14.279 -0.1138  0.6397 -0.0095
 7665SOL    HW134631   1.138   0.362  14.328 -0.3530  0.7356  0.2561
 7665SOL    HW234632   1.116   0.418  14.187  0.6496  1.3775 -0.1964
 7666SOL     OW34633   2.154   0.146   1.919 -0.5071  0.0376  0.7243
 7666SOL    HW134634   2.067   0.132   1.958 -0.6059 -0.4389  0.3255
 7666SOL    HW234635   2.128   0.202   1.847  0.7260 -0.2442  0.0705
 7667SOL     OW34636   3.371   2.775   3.410  0.0557 -1.0512 -0.6196
 7667SOL    HW134637   3.277   2.758   3.407 -0.4931  1.5123  1.5817
 7667SOL    HW234638   3.393   2.766   3.503  0.4683  0.3516 -0.5770
 7668SOL     OW34639   2.266   3.773   1.852 -0.4982  0.1355  1.2438
 7668SOL    HW134640   2.330   3.814   1.794 -1.2085 -1.4210 -0.6526
 7668SOL    HW234641   2.197   3.750   1.789  0.3385 -0.7233  0.6425
 7669SOL     OW34642   4.455   1.827   6.021  0.6207 -0.6636 -0.2828
 7669SOL    HW134643   4.429   1.849   5.931 -1.2215  2.2267  0.9675
 7669SOL    HW234644   4.488   1.914   6.041 -0.5552 -0.2949  0.0456
 7670SOL     OW34645   2.713   2.952   9.317  0.0506  0.7981  0.3863
 7670SOL    HW134646   2.733   2.988   9.231  0.1395  1.6933  0.7809
 7670SOL    HW234647   2.620   2.931   9.314  0.7131 -2.1343  0.4216
 7671SOL     OW34648   4.673   3.304  17.519 -0.2420 -0.3241  0.0793
 7671SOL    HW134649   4.669   3.225  17.466 -1.4274 -0.1902 -0.0338
 7671SOL    HW234650   4.734   3.363  17.475  1.2149 -2.2191 -0.4121
 7672SOL     OW34651   3.158   4.047   6.150  0.1438 -0.2833 -0.2422
 7672SOL    HW134652   3.072   4.011   6.131 -0.4923  0.8445  0.5819
 7672SOL    HW234653   3.212   3.967   6.152 -0.8211 -0.9066  0.5090
 7673SOL     OW34654   0.607   0.193   5.422 -0.3574 -0.3549  0.7997
 7673SOL    HW134655   0.681   0.157   5.372 -0.5817  1.5060 -0.8913
 7673SOL    HW234656   0.659   0.250   5.479  0.9810 -2.1542  1.3846
 7674SOL     OW34657   3.615   4.034   1.469  0.5333 -0.1638  0.1932
 7674SOL    HW134658   3.676   3.960   1.471 -1.5788 -1.8120  1.9162
 7674SOL    HW234659   3.672   4.096   1.515 -0.5490  1.2820 -0.4263
 7675SOL     OW34660   0.703   0.529   3.791  0.0637  0.3006  0.1670
 7675SOL    HW134661   0.713   0.601   3.728 -1.4253  0.0996 -0.2950
 7675SOL    HW234662   0.664   0.580   3.862 -0.3832 -0.1702  0.2587
 7676SOL     OW34663   3.731   2.111   8.039 -0.5851 -0.0988  0.3346
 7676SOL    HW134664   3.723   2.122   7.944  1.1650  0.2928  0.2295
 7676SOL    HW234665   3.781   2.190   8.060  1.8613 -1.3767 -0.6569
 7677SOL     OW34666   0.939   2.283   1.023  0.1000  0.5754  0.3094
 7677SOL    HW134667   0.867   2.327   0.978 -0.3904  0.4364  0.9580
 7677SOL    HW234668   0.918   2.296   1.116 -0.6452  0.0078  0.2155
 7678SOL     OW34669   1.410   4.144  11.419 -0.5510  0.1486  0.1542
 7678SOL    HW134670   1.351   4.133  11.344 -0.0455  2.1173 -0.5441
 7678SOL    HW234671   1.351   4.130  11.493 -1.0575  2.1424  0.1261
 7679SOL     OW34672   0.656   2.168   9.046 -0.7460 -0.1277 -0.0598
 7679SOL    HW134673   0.618   2.082   9.063  0.1878  0.0310  2.7659
 7679SOL    HW234674   0.743   2.146   9.079 -0.4380 -0.2448 -0.9560
 7680SOL     OW34675   0.192   2.240  10.289 -0.0582  0.5188  0.0498
 7680SOL    HW134676   0.234   2.178  10.349  1.0106 -0.1840 -1.4434
 7680SOL    HW234677   0.192   2.321  10.340 -1.6260  2.3779 -2.9046
 7681SOL     OW34678   2.687   1.292   3.783  0.5217 -0.2378 -0.2179
 7681SOL    HW134679   2.595   1.270   3.797  0.8672  0.4827  3.1580
 7681SOL    HW234680   2.722   1.217   3.735  2.6845  1.2682 -0.9898
 7682SOL     OW34681   1.619   2.982  15.060  0.1310 -0.3227  0.0119
 7682SOL    HW134682   1.666   2.909  15.019 -2.1015 -0.2269 -2.6944
 7682SOL    HW234683   1.666   3.049  15.011  1.5292  0.2716  2.1381
 7683SOL     OW34684   0.315   3.324  15.673  0.2285 -0.1562  0.1829
 7683SOL    HW134685   0.284   3.250  15.725 -0.0723 -1.0504 -1.2902
 7683SOL    HW234686   0.360   3.286  15.598  1.8390  2.3526 -0.1124
 7684SOL     OW34687   1.322   3.312   7.545 -0.0212  0.6927 -0.2851
 7684SOL    HW134688   1.295   3.257   7.618  2.1798  1.0316  0.7794
 7684SOL    HW234689   1.302   3.399   7.578 -0.3257  0.4327  0.2172
 7685SOL     OW34690   4.455   1.606  11.174  0.0869  0.4335 -0.0345
 7685SOL    HW134691   4.402   1.566  11.105  2.6926 -2.0175 -0.6662
 7685SOL    HW234692   4.537   1.627  11.128  1.9318  0.0705  3.1267
 7686SOL     OW34693   1.978   1.326   4.205  0.4727 -0.3729 -0.3900
 7686SOL    HW134694   2.039   1.312   4.278 -0.7450  1.3236  0.9428
 7686SOL    HW234695   1.941   1.412   4.223  1.3030  0.2299 -1.6000
 7687SOL     OW34696   1.090   2.480  15.829 -0.2474 -0.4637  0.4873
 7687SOL    HW134697   1.149   2.553  15.847 -0.6880 -0.0664  0.3516
 7687SOL    HW234698   1.005   2.522  15.812 -0.1237 -0.5921 -0.4754
 7688SOL     OW34699   4.092   2.651   7.588  0.2597 -0.4153 -0.7139
 7688SOL    HW134700   4.067   2.672   7.498 -1.9908 -0.5658 -0.1290
 7688SOL    HW234701   4.145   2.729   7.601 -2.3925  0.9985  1.6512
 7689SOL     OW34702   0.054   0.531   8.539 -0.0643  0.3173 -0.4637
 7689SOL    HW134703   0.043   0.471   8.613  1.6027  2.3495  1.4298
 7689SOL    HW234704   4.711   0.585   8.547 -0.9647 -1.0804 -0.0899
 7690SOL     OW34705   2.999   2.249   7.891  0.3080 -0.1744 -0.4200
 7690SOL    HW134706   2.930   2.182   7.893  0.6608 -0.5984 -2.8951
 7690SOL    HW234707   3.075   2.201   7.924 -0.8611 -1.2319  0.7600
 7691SOL     OW34708   4.371   3.062  13.151  0.2908 -0.3319 -0.3142
 7691SOL    HW134709   4.413   3.112  13.221 -1.3091  0.2482  0.2374
 7691SOL    HW234710   4.338   2.989  13.203 -2.7817 -0.7052 -2.7713
 7692SOL     OW34711   2.838   1.841   5.187 -0.1789  0.0116 -0.5163
 7692SOL    HW134712   2.832   1.926   5.230  1.4129  0.5837 -1.4422
 7692SOL    HW234713   2.749   1.806   5.197 -0.8187  1.3878 -1.2917
 7693SOL     OW34714   2.625   2.613   1.849  0.1257 -0.1919 -0.0966
 7693SOL    HW134715   2.632   2.518   1.835  0.0767 -0.4547  1.6140
 7693SOL    HW234716   2.671   2.613   1.933  1.6556  1.0774 -0.9376
 7694SOL     OW34717   0.807   1.198   3.137  0.1119 -0.2742 -0.6194
 7694SOL    HW134718   0.800   1.264   3.206  1.3486  1.3718 -2.0944
 7694SOL    HW234719   0.898   1.185   3.111  0.0049 -1.5906 -0.3522
 7695SOL     OW34720   0.471   2.520   1.925 -0.2825 -0.0612 -0.5430
 7695SOL    HW134721   0.407   2.450   1.939 -0.5597  0.3281  0.1199
 7695SOL    HW234722   0.439   2.556   1.842  1.7940  0.2240 -1.2098
 7696SOL     OW34723   4.538   0.663   8.224  0.1756 -0.0314 -0.0756
 7696SOL    HW134724   4.511   0.641   8.314 -0.3775  0.1306 -0.2020
 7696SOL    HW234725   4.482   0.623   8.158  0.2184 -0.2703  0.0307
 7697SOL     OW34726   0.226   2.692   4.922 -0.0915  0.3735 -0.3190
 7697SOL    HW134727   0.165   2.761   4.898 -2.3882 -0.8484  1.9909
 7697SOL    HW234728   0.165   2.619   4.932  0.9753 -0.2922  1.4691
 7698SOL     OW34729   0.219   4.392   8.371  0.5324  0.1826 -0.6138
 7698SOL    HW134730   0.242   4.383   8.279  0.6005  1.8721 -0.7754
 7698SOL    HW234731   0.298   4.359   8.412  0.6259  3.1426  1.6478
 7699SOL     OW34732   0.829   2.854   9.260  1.1159 -0.0463 -0.6517
 7699SOL    HW134733   0.771   2.899   9.321  0.4541 -1.1297 -0.4642
 7699SOL    HW234734   0.777   2.774   9.246  1.1641 -0.3995  1.1374
 7700SOL     OW34735   4.461   2.803   5.680  0.1797  0.4003  0.2449
 7700SOL    HW134736   4.545   2.791   5.724  1.2185  3.1440 -0.9562
 7700SOL    HW234737   4.472   2.750   5.601  1.0119  1.2917 -0.2415
 7701SOL     OW34738   3.699   1.273  14.258  0.3153 -0.5297  0.0728
 7701SOL    HW134739   3.665   1.311  14.340  1.0822  0.6832 -0.1711
 7701SOL    HW234740   3.655   1.331  14.195 -0.2743 -0.4012  0.5978
 7702SOL     OW34741   0.416   0.237  16.811 -0.9237 -0.3923 -0.5264
 7702SOL    HW134742   0.340   0.295  16.812  0.2686  1.1140  1.6747
 7702SOL    HW234743   0.376   0.162  16.766 -2.5350 -0.0974  0.4306
 7703SOL     OW34744   2.527   0.395  15.198  0.5352 -0.4588  0.5286
 7703SOL    HW134745   2.606   0.419  15.247  1.8147 -0.6259 -1.4438
 7703SOL    HW234746   2.502   0.311  15.237 -0.4502  0.3582  1.6792
 7704SOL     OW34747   1.217   0.091   2.218  0.5696  0.3397  0.5154
 7704SOL    HW134748   1.303   0.048   2.208  1.0168  1.7710 -1.7434
 7704SOL    HW234749   1.213   0.112   2.312 -0.6330  1.1899  0.2569
 7705SOL     OW34750   2.070   3.006  12.689  0.1493  0.1991  0.4383
 7705SOL    HW134751   2.161   2.978  12.685  0.3319  1.0010 -0.8566
 7705SOL    HW234752   2.066   3.099  12.671  0.7094  0.2502  0.5967
 7706SOL     OW34753   3.208   0.707   5.887  0.1045  0.0792  0.1272
 7706SOL    HW134754   3.162   0.791   5.893 -0.7298 -0.4560  1.1337
 7706SOL    HW234755   3.285   0.734   5.837  0.2198 -2.5584 -1.1029
 7707SOL     OW34756   3.743   1.763  15.854  0.4304  0.6967 -0.1294
 7707SOL    HW134757   3.650   1.754  15.833  0.1450 -0.3653  1.5079
 7707SOL    HW234758   3.738   1.828  15.924  0.8573  0.9126 -0.3033
 7708SOL     OW34759   2.731   4.551   3.587 -0.5174 -0.2309 -0.5228
 7708SOL    HW134760   2.641   4.549   3.621  0.5352  1.3791  2.3333
 7708SOL    HW234761   2.703   4.535   3.497 -0.8870 -1.9343 -0.1052
 7709SOL     OW34762   3.651   4.118  12.811  0.1593  0.2142  0.1688
 7709SOL    HW134763   3.737   4.079  12.796 -0.6087 -1.3728 -0.0596
 7709SOL    HW234764   3.686   4.207  12.818  0.4113  0.0093  1.4806
 7710SOL     OW34765   2.333   4.365   7.273  0.0318  0.4987  0.1311
 7710SOL    HW134766   2.318   4.320   7.356 -0.2561 -0.1690 -0.2769
 7710SOL    HW234767   2.326   4.296   7.207  3.0526 -0.4294  0.7717
 7711SOL     OW34768   1.628   4.399   7.227  0.1644  0.0293 -0.3319
 7711SOL    HW134769   1.563   4.371   7.163 -0.0954 -1.3819  0.5403
 7711SOL    HW234770   1.679   4.318   7.225 -0.7190 -0.5985  1.2600
 7712SOL     OW34771   2.675   2.000   4.168 -0.3262  0.1188  0.1957
 7712SOL    HW134772   2.638   2.052   4.096  1.0684  0.4106 -0.3099
 7712SOL    HW234773   2.729   2.070   4.205 -0.2700 -0.9600  2.1566
 7713SOL     OW34774   0.313   0.933   6.772  0.2403  0.1331 -0.1481
 7713SOL    HW134775   0.335   0.997   6.840  1.4893 -0.0457 -0.3811
 7713SOL    HW234776   0.273   0.992   6.709 -1.8547  0.3201  1.3539
 7714SOL     OW34777   2.979   4.632   3.999 -0.2878  0.2511 -0.4390
 7714SOL    HW134778   2.983   4.685   3.920 -2.7680  1.4104  0.1833
 7714SOL    HW234779   2.955   4.701   4.062  3.0767  1.0678 -0.0759
 7715SOL     OW34780   1.057   0.773   2.501 -0.1565 -0.8160 -0.1905
 7715SOL    HW134781   0.999   0.799   2.429 -1.3395 -2.3185  0.2168
 7715SOL    HW234782   1.002   0.732   2.567  1.9564 -1.4516  1.1715
 7716SOL     OW34783   0.018   2.165   5.834 -0.7360 -0.3645  0.6571
 7716SOL    HW134784   0.088   2.214   5.877 -0.8902  0.3695  0.0791
 7716SOL    HW234785   0.015   2.235   5.768  0.6657 -1.8267 -0.9564
 7717SOL     OW34786   0.011   3.620  14.701  0.6704 -0.2853  0.1716
 7717SOL    HW134787   4.717   3.673  14.775 -0.8356 -0.0067 -0.6276
 7717SOL    HW234788   0.101   3.652  14.704  0.6291 -0.2913  1.7448
 7718SOL     OW34789   2.983   3.880   9.268  0.2807 -0.3509  0.3303
 7718SOL    HW134790   2.971   3.789   9.294 -0.9154  0.0567  1.2160
 7718SOL    HW234791   2.973   3.920   9.354 -0.4332 -1.6617  0.8515
 7719SOL     OW34792   1.607   0.379  13.725 -0.3122 -0.0372  0.3654
 7719SOL    HW134793   1.634   0.340  13.642  2.0158 -0.6984  1.4452
 7719SOL    HW234794   1.624   0.299  13.775  2.8715 -0.5847 -1.6179
 7720SOL     OW34795   4.576   0.536   8.990  0.3606 -0.4630  0.0678
 7720SOL    HW134796   4.489   0.503   9.011  0.6478 -0.5237  1.1647
 7720SOL    HW234797   4.599   0.607   9.050 -0.4456 -1.8625  2.0485
 7721SOL     OW34798   1.351   0.213  11.538  0.0337  0.2892  0.6302
 7721SOL    HW134799   1.257   0.226  11.522  0.4624  0.6201 -1.5628
 7721SOL    HW234800   1.351   0.128  11.582 -0.2824 -0.1492 -0.2127
 7722SOL     OW34801   3.779   1.533  13.436  0.0249 -0.3389  0.2250
 7722SOL    HW134802   3.802   1.587  13.361 -1.0286  2.9881  2.3115
 7722SOL    HW234803   3.737   1.599  13.492 -0.2501 -1.0595  0.8779
 7723SOL     OW34804   3.203   4.272   7.542  0.9562  0.0895 -0.1041
 7723SOL    HW134805   3.272   4.338   7.547  0.9184  0.1808 -0.7687
 7723SOL    HW234806   3.219   4.216   7.618  0.5714 -1.1446 -0.9334
 7724SOL     OW34807   3.935   1.582  15.817  0.5713 -0.3801 -0.5180
 7724SOL    HW134808   3.945   1.562  15.724  1.6322 -1.8449 -0.0929
 7724SOL    HW234809   3.871   1.653  15.825  0.8978 -0.2419  0.8869
 7725SOL     OW34810   3.203   2.435   7.943 -0.0372  0.9303  0.3258
 7725SOL    HW134811   3.258   2.385   7.882 -2.4848 -0.6970 -0.5249
 7725SOL    HW234812   3.118   2.412   7.905  1.6875 -0.3477 -2.8154
 7726SOL     OW34813   1.438   0.365   4.504  0.2546 -0.0216  0.1758
 7726SOL    HW134814   1.486   0.436   4.547  1.5660 -0.2504 -0.9352
 7726SOL    HW234815   1.453   0.384   4.412 -2.7225  0.9815 -0.1038
 7727SOL     OW34816   2.210   0.843   2.228  0.4757 -0.5257  0.4746
 7727SOL    HW134817   2.298   0.865   2.257 -0.3768  2.0422  1.1250
 7727SOL    HW234818   2.229   0.824   2.137  0.6483 -0.2905  0.4614
 7728SOL     OW34819   0.481   3.227   5.861  0.0186  0.4719 -0.2716
 7728SOL    HW134820   0.550   3.274   5.815  0.6958 -0.8792 -0.6496
 7728SOL    HW234821   0.422   3.296   5.890 -0.4833  0.4331 -1.2038
 7729SOL     OW34822   2.634   0.594   6.584 -0.2537  0.4967  0.2674
 7729SOL    HW134823   2.655   0.585   6.677  1.7226  1.2883 -0.0959
 7729SOL    HW234824   2.555   0.542   6.568  0.6209 -0.6448 -0.3880
 7730SOL     OW34825   0.131   2.395   7.164 -0.0139  0.6757 -0.3522
 7730SOL    HW134826   0.111   2.402   7.070 -2.3680 -1.8018 -0.0305
 7730SOL    HW234827   0.164   2.305   7.164  1.2635  1.1488  2.0832
 7731SOL     OW34828   4.729   4.120  16.852 -0.0019  0.2831 -0.5377
 7731SOL    HW134829   0.021   4.188  16.791  1.4343  0.1835  0.0040
 7731SOL    HW234830   4.633   4.124  16.845  0.0739 -1.9606 -2.9063
 7732SOL     OW34831   4.030   4.137   3.494 -0.5899  0.5295  0.0562
 7732SOL    HW134832   3.935   4.126   3.496 -0.3738 -1.8915 -3.5621
 7732SOL    HW234833   4.033   4.229   3.522  1.9423  0.2062  0.8651
 7733SOL     OW34834   4.173   0.251   6.326  0.3851 -0.1200 -0.1822
 7733SOL    HW134835   4.109   0.274   6.394  0.7314 -0.5416  0.2875
 7733SOL    HW234836   4.240   0.317   6.344  0.2940  0.2080 -1.0629
 7734SOL     OW34837   1.295   3.921   9.004  0.1556 -0.1636  0.6909
 7734SOL    HW134838   1.331   3.933   9.092  0.7965 -1.3039  0.5793
 7734SOL    HW234839   1.365   3.965   8.956 -0.4326  0.8616  0.7644
 7735SOL     OW34840   4.658   2.651  15.320 -0.1075  0.1530  0.0074
 7735SOL    HW134841   4.645   2.734  15.272 -0.6781  0.0950  0.0595
 7735SOL    HW234842   4.646   2.583  15.254 -1.7401 -0.7384  1.2362
 7736SOL     OW34843   3.286   2.930   6.435  0.6692 -0.1581 -0.7007
 7736SOL    HW134844   3.215   2.931   6.370  0.5386  1.5951 -0.5293
 7736SOL    HW234845   3.347   2.875   6.387  0.7174 -0.7026 -0.0223
 7737SOL     OW34846   1.514   0.302  15.980  0.3076 -0.1410 -0.0885
 7737SOL    HW134847   1.609   0.304  15.976  0.3108 -0.0633  0.0382
 7737SOL    HW234848   1.497   0.273  16.070  2.5581 -0.1973  0.3086
 7738SOL     OW34849   0.179   2.577   2.076  0.1518  0.5691  0.1151
 7738SOL    HW134850   0.225   2.654   2.043 -0.5349  0.6169 -0.7412
 7738SOL    HW234851   0.218   2.498   2.039 -0.4454  0.7334 -0.8603
 7739SOL     OW34852   3.419   4.337  15.767  0.2146  0.1812 -0.2456
 7739SOL    HW134853   3.444   4.426  15.793  0.5776 -0.6252  2.2104
 7739SOL    HW234854   3.427   4.294  15.852 -1.2559  1.8049  0.7094
 7740SOL     OW34855   3.522   2.621   8.356  0.1375  0.3482 -0.3161
 7740SOL    HW134856   3.453   2.680   8.325  0.4136  0.4705 -0.6895
 7740SOL    HW234857   3.498   2.539   8.312 -1.9522 -0.3513  2.1222
 7741SOL     OW34858   1.766   0.232  11.369  0.8498  0.0407 -0.1962
 7741SOL    HW134859   1.709   0.263  11.298  0.2732 -2.2507 -0.7193
 7741SOL    HW234860   1.712   0.171  11.419  1.4044 -1.6399 -1.6662
 7742SOL     OW34861   1.013   2.978   2.126 -0.1449 -0.6245  0.3560
 7742SOL    HW134862   0.973   3.057   2.090 -0.8564 -0.3082  1.8262
 7742SOL    HW234863   0.939   2.917   2.126  0.3875 -1.2633  0.0499
 7743SOL     OW34864   1.247   1.821   4.765 -0.1696 -0.4995  0.5316
 7743SOL    HW134865   1.248   1.791   4.675  0.3009  0.3074  0.2663
 7743SOL    HW234866   1.305   1.755   4.803  1.0692  0.1495 -0.2150
 7744SOL     OW34867   2.159   4.440  12.096 -0.6602  0.0391 -0.7636
 7744SOL    HW134868   2.155   4.439  12.001  1.0343  1.3452 -0.8588
 7744SOL    HW234869   2.192   4.355  12.125 -0.1703  0.2477 -0.6997
 7745SOL     OW34870   0.291   1.739   5.123  0.3633 -0.0628  0.7145
 7745SOL    HW134871   0.358   1.724   5.057  0.4848 -2.5599  1.3963
 7745SOL    HW234872   0.339   1.706   5.199 -0.5690  1.4457  1.9558
 7746SOL     OW34873   3.337   3.146   5.502 -0.7843 -0.0415  0.1188
 7746SOL    HW134874   3.338   3.123   5.409 -0.4648  0.7617 -0.0765
 7746SOL    HW234875   3.429   3.173   5.500 -0.4360 -1.4656 -2.4389
 7747SOL     OW34876   0.571   3.263   3.978  0.6929 -0.1708 -0.2429
 7747SOL    HW134877   0.540   3.354   3.970 -0.4299 -0.5681 -0.5070
 7747SOL    HW234878   0.611   3.245   3.893  1.6453 -0.5345  0.2824
 7748SOL     OW34879   3.696   1.327   7.945 -0.1607  0.2493 -0.1905
 7748SOL    HW134880   3.643   1.308   7.867 -1.4956 -0.2071  0.8254
 7748SOL    HW234881   3.675   1.420   7.944  0.5282  0.4112  0.4895
 7749SOL     OW34882   2.610   1.835   6.585 -0.4946  0.0397  0.0681
 7749SOL    HW134883   2.634   1.830   6.677 -0.0931 -0.6471 -0.0705
 7749SOL    HW234884   2.562   1.752   6.580  0.2338 -0.3935  0.1766
 7750SOL     OW34885   3.512   4.494   0.996  0.5560  0.7567 -0.1396
 7750SOL    HW134886   3.543   4.544   1.072  0.0832 -1.1883  1.3387
 7750SOL    HW234887   3.591   4.449   0.965  1.2315  1.1622  0.9582
 7751SOL     OW34888   0.953   4.377   2.948  0.2599 -0.4144 -0.9444
 7751SOL    HW134889   0.877   4.320   2.935 -0.4299 -0.0302  1.3197
 7751SOL    HW234890   0.974   4.343   3.035 -2.4176 -0.2168 -0.2068
 7752SOL     OW34891   2.880   3.875   6.503  0.0104  0.4246 -0.3540
 7752SOL    HW134892   2.926   3.793   6.483  0.6308  1.0483 -1.5264
 7752SOL    HW234893   2.797   3.867   6.456  0.6965 -0.1081 -1.4911
 7753SOL     OW34894   3.983   0.984  11.338  0.3205 -0.0427  0.1958
 7753SOL    HW134895   4.005   0.976  11.431 -2.1884 -1.1727  0.6917
 7753SOL    HW234896   3.911   0.921  11.343  1.1480 -1.0409 -0.2778
 7754SOL     OW34897   4.207   4.234  15.640 -0.0141 -0.0915  0.7083
 7754SOL    HW134898   4.208   4.182  15.720 -0.5886  0.9837  1.4201
 7754SOL    HW234899   4.121   4.210  15.605  1.7051 -0.2680 -3.4307
 7755SOL     OW34900   3.434   1.543  13.226  0.1268  0.2997 -0.0649
 7755SOL    HW134901   3.400   1.629  13.202  0.8538  0.4954 -0.3997
 7755SOL    HW234902   3.457   1.551  13.319 -0.6717  2.8940 -0.0983
 7756SOL     OW34903   2.955   3.671   2.101  0.3981 -0.1937 -0.2365
 7756SOL    HW134904   2.917   3.663   2.013 -0.6984  1.1272  0.1035
 7756SOL    HW234905   2.916   3.754   2.131 -1.2390 -1.3304  0.8215
 7757SOL     OW34906   1.339   2.444   5.812 -0.3475  0.0868 -0.0837
 7757SOL    HW134907   1.419   2.392   5.803 -1.3731 -0.7443 -4.5076
 7757SOL    HW234908   1.341   2.459   5.906 -0.6335  0.2735 -0.1076
 7758SOL     OW34909   0.142   2.794  14.043  0.1084 -0.3060 -0.4127
 7758SOL    HW134910   0.191   2.772  13.963  0.9669 -1.7114  0.5054
 7758SOL    HW234911   0.201   2.857  14.082  0.8881 -1.6036  0.5051
 7759SOL     OW34912   2.357   3.408   8.261 -0.3331 -0.2122 -0.8240
 7759SOL    HW134913   2.302   3.332   8.237 -0.3415 -0.9652  1.5910
 7759SOL    HW234914   2.286   3.458   8.301 -1.2339 -1.7461 -0.5034
 7760SOL     OW34915   2.266   0.443   9.532 -0.5276  0.2287  0.0833
 7760SOL    HW134916   2.246   0.350   9.524 -3.0094  0.5662  2.8708
 7760SOL    HW234917   2.232   0.464   9.618 -1.3772  0.5320 -0.3236
 7761SOL     OW34918   1.282   2.505   8.915  0.1507 -0.5824  0.0207
 7761SOL    HW134919   1.305   2.588   8.871 -2.6236  1.1821  1.9457
 7761SOL    HW234920   1.228   2.465   8.846 -1.7387  2.7508 -0.4257
 7762SOL     OW34921   2.304   3.240   0.097 -0.0160 -0.0013  1.0421
 7762SOL    HW134922   2.335   3.218   0.185  1.7889  0.9079  0.6237
 7762SOL    HW234923   2.328   3.165   0.042 -2.3529 -0.0400  0.1029
 7763SOL     OW34924   3.145   2.114   1.533 -0.1918 -0.3090  0.2472
 7763SOL    HW134925   3.123   2.095   1.441 -0.6611 -0.8545  0.4760
 7763SOL    HW234926   3.191   2.044   1.578 -1.0787 -1.2251 -0.2852
 7764SOL     OW34927   0.255   4.186   2.266  0.0748 -0.2769 -0.0040
 7764SOL    HW134928   0.344   4.174   2.233  0.4576  1.2305  0.5026
 7764SOL    HW234929   0.264   4.170   2.360 -2.8101 -0.3006  0.2767
 7765SOL     OW34930   0.934   2.929   3.592 -0.3548  0.2602 -0.3117
 7765SOL    HW134931   0.982   2.968   3.665 -0.8608 -1.5877  1.0286
 7765SOL    HW234932   0.893   3.012   3.569 -1.1618 -0.8255 -2.8986
 7766SOL     OW34933   2.050   2.463   3.661  0.1738 -0.5677  0.6844
 7766SOL    HW134934   2.037   2.468   3.566  0.8339 -1.0734  0.5699
 7766SOL    HW234935   2.051   2.553   3.695  1.4818 -0.1059 -0.5328
 7767SOL     OW34936   1.264   1.259   9.889 -0.5704 -0.2914 -0.3261
 7767SOL    HW134937   1.263   1.298   9.801  1.6263 -0.8532 -0.6101
 7767SOL    HW234938   1.234   1.173   9.862  1.4674 -1.2105  0.3894
 7768SOL     OW34939   3.134   2.046   2.985  0.2341 -0.6538 -0.3815
 7768SOL    HW134940   3.162   1.968   3.033  0.6362 -0.6721 -0.6417
 7768SOL    HW234941   3.113   2.014   2.897 -3.0687  1.5126 -0.3567
 7769SOL     OW34942   3.418   1.920   7.308 -0.3759 -0.2820  0.0664
 7769SOL    HW134943   3.374   1.898   7.226 -0.6178 -0.5297  0.2614
 7769SOL    HW234944   3.508   1.907   7.279 -0.2268  0.9002 -0.0092
 7770SOL     OW34945   2.973   4.004   0.615 -0.8770  0.5467 -0.1314
 7770SOL    HW134946   2.954   4.097   0.627  0.1999  1.0531 -2.4410
 7770SOL    HW234947   2.898   3.971   0.665 -0.1020 -0.5011  0.3189
 7771SOL     OW34948   3.817   0.099  10.482  0.2111  0.2765 -0.3924
 7771SOL    HW134949   3.796   0.162  10.550  0.7119 -1.3662  1.2908
 7771SOL    HW234950   3.820   0.162  10.410 -3.0660 -0.8531 -1.5222
 7772SOL     OW34951   2.225   2.288   6.596 -0.6900  0.8016 -0.0769
 7772SOL    HW134952   2.161   2.356   6.571 -2.3934 -1.2829 -1.3902
 7772SOL    HW234953   2.272   2.293   6.513  0.6382 -2.3262  0.5148
 7773SOL     OW34954   3.631   2.742   5.609  0.1236 -0.3437  0.3973
 7773SOL    HW134955   3.688   2.711   5.679 -0.7691 -1.9876  0.4271
 7773SOL    HW234956   3.682   2.811   5.567 -1.5956  1.1330  0.7416
 7774SOL     OW34957   0.548   3.436   6.399 -0.6199 -0.4262  0.2844
 7774SOL    HW134958   0.601   3.401   6.471  2.0512 -3.0836 -3.0135
 7774SOL    HW234959   0.462   3.408   6.429 -1.2056  1.1271  0.0529
 7775SOL     OW34960   2.116   3.069  10.839  0.0686 -0.0976  0.6075
 7775SOL    HW134961   2.185   3.056  10.773  0.0206  0.3541  0.4687
 7775SOL    HW234962   2.161   3.133  10.894 -1.1661  1.8209 -0.6147
 7776SOL     OW34963   1.202   0.951  10.607 -0.8437  0.2189 -0.2712
 7776SOL    HW134964   1.293   0.925  10.623 -0.9674 -0.0015  0.0921
 7776SOL    HW234965   1.147   0.885  10.649 -1.9567  1.3742  0.0782
 7777SOL     OW34966   4.210   2.270  13.118  0.3235 -0.0436  0.0063
 7777SOL    HW134967   4.290   2.219  13.101  0.8749  1.0186 -0.5590
 7777SOL    HW234968   4.220   2.334  13.048  2.1012 -0.1477  0.1457
 7778SOL     OW34969   1.268   1.235   5.492 -0.0744  0.7165  0.7291
 7778SOL    HW134970   1.358   1.203   5.487  0.3070  1.6402  1.6032
 7778SOL    HW234971   1.282   1.326   5.519  0.5125  0.4321  1.3694
 7779SOL     OW34972   0.849   3.620   2.357 -0.4008  0.2095  0.5301
 7779SOL    HW134973   0.914   3.559   2.321  0.0743  0.8173  0.3560
 7779SOL    HW234974   0.779   3.555   2.354  2.0144 -2.4275  1.2629
 7780SOL     OW34975   2.011   0.471   7.040  0.2189 -0.5920  0.3946
 7780SOL    HW134976   1.985   0.380   7.032  0.2460 -0.5784  0.1563
 7780SOL    HW234977   2.105   0.455   7.048  0.1733 -0.3191  1.5487
 7781SOL     OW34978   3.343   0.560   2.289  0.3488 -0.4278  0.6305
 7781SOL    HW134979   3.294   0.548   2.208  1.8011  0.3962 -0.3696
 7781SOL    HW234980   3.296   0.641   2.307  0.8890 -0.2660  1.3185
 7782SOL     OW34981   4.646   2.659   2.683  0.5280  0.1813  0.2344
 7782SOL    HW134982   0.005   2.671   2.689  0.5485 -0.0513  0.3593
 7782SOL    HW234983   4.640   2.640   2.590 -0.6922  0.4364  0.2580
 7783SOL     OW34984   0.972   1.581   9.479  0.0930  0.6885 -0.0352
 7783SOL    HW134985   0.926   1.654   9.521 -0.7392 -2.2561  4.1646
 7783SOL    HW234986   0.905   1.567   9.412 -1.7276 -2.0987  2.3279
 7784SOL     OW34987   2.572   3.171   6.050  0.0608 -0.0596 -0.3284
 7784SOL    HW134988   2.609   3.083   6.044 -0.6396 -0.3611 -0.1253
 7784SOL    HW234989   2.651   3.220   6.075 -0.4019  0.9626 -0.8478
 7785SOL     OW34990   4.734   1.771  17.113  0.2661 -0.0391 -0.2289
 7785SOL    HW134991   4.651   1.733  17.084  0.3409 -0.1541 -0.2883
 7785SOL    HW234992   0.026   1.709  17.180 -0.9153  0.7986  1.0499
 7786SOL     OW34993   1.535   1.095   4.527  0.0086  0.1035  0.2996
 7786SOL    HW134994   1.625   1.123   4.512  0.0208 -0.7824 -1.2932
 7786SOL    HW234995   1.535   1.077   4.621  1.9825  0.2829  0.3391
 7787SOL     OW34996   1.561   0.029   6.220  0.8762 -0.3698  0.0738
 7787SOL    HW134997   1.584   0.070   6.137 -1.6885 -0.4296 -0.6430
 7787SOL    HW234998   1.645   4.719   6.227  1.5527  0.7198 -0.9206
 7788SOL     OW34999   2.840   3.788   6.148 -0.0598 -0.1427  0.3017
 7788SOL    HW135000   2.790   3.707   6.157 -1.1987  0.5310  0.1482
 7788SOL    HW235001   2.874   3.807   6.236  1.9325  0.2342 -0.5619
 7789SOL     OW35002   1.967   0.914   9.524 -0.0461  0.1893  0.0973
 7789SOL    HW135003   1.946   0.862   9.447 -0.7052 -0.1551  0.5052
 7789SOL    HW235004   2.042   0.863   9.554 -0.3953  0.4979  1.5105
 7790SOL     OW35005   4.261   3.137   5.907  0.0885 -0.2458 -0.2882
 7790SOL    HW135006   4.183   3.192   5.902 -0.3917 -0.6699  2.4998
 7790SOL    HW235007   4.208   3.058   5.890 -0.7129  0.1506  0.3574
 7791SOL     OW35008   1.492   4.268  16.350 -0.0658  0.2680  0.2170
 7791SOL    HW135009   1.562   4.271  16.286  0.6080  2.9997  1.0911
 7791SOL    HW235010   1.483   4.180  16.386  1.0723 -0.7870 -2.1552
 7792SOL     OW35011   2.686   2.540   6.839 -0.0733  0.0756 -0.5030
 7792SOL    HW135012   2.668   2.491   6.920  2.2498  0.9982  0.5535
 7792SOL    HW235013   2.719   2.483   6.770  0.9322  1.7137 -1.3768
 7793SOL     OW35014   1.981   0.038   2.705  0.5400 -0.1088 -0.0003
 7793SOL    HW135015   2.042   0.074   2.641 -0.6535 -1.1336 -1.6905
 7793SOL    HW235016   1.961   4.684   2.678 -0.5941 -0.3239  1.5387
 7794SOL     OW35017   3.217   2.613   5.629  0.4956 -0.3431  0.9298
 7794SOL    HW135018   3.169   2.554   5.571 -0.5588  3.6864 -2.3302
 7794SOL    HW235019   3.300   2.566   5.640 -0.4134 -2.7061 -2.2923
 7795SOL     OW35020   3.390   4.704   2.247 -0.0300 -0.5243  0.1803
 7795SOL    HW135021   3.325   4.721   2.315 -2.3143 -1.0239 -1.8526
 7795SOL    HW235022   3.330   4.660   2.187 -0.4903  2.2528 -1.3845
 7796SOL     OW35023   2.384   1.774   6.248 -0.2735  0.1886 -0.7888
 7796SOL    HW135024   2.384   1.862   6.284 -0.1849 -0.5524  1.0291
 7796SOL    HW235025   2.478   1.761   6.232  0.6805  2.9319  2.8040
 7797SOL     OW35026   1.571   0.620   4.002  0.4334  0.5430 -0.1282
 7797SOL    HW135027   1.482   0.655   4.010 -0.1513 -1.0747  0.4493
 7797SOL    HW235028   1.562   0.554   3.933 -1.1768  0.4209  0.1885
 7798SOL     OW35029   3.009   0.073   1.782  0.2664  0.5216 -0.7500
 7798SOL    HW135030   3.090   0.040   1.744  1.2294  1.3106  0.6126
 7798SOL    HW235031   3.049   0.107   1.863 -1.7363  1.3596 -0.1154
 7799SOL     OW35032   1.572   3.496   1.303  0.2001  0.2156  0.3884
 7799SOL    HW135033   1.564   3.583   1.264  0.7599 -0.4646 -1.2331
 7799SOL    HW235034   1.630   3.449   1.243 -0.7497  0.1971 -0.5068
 7800SOL     OW35035   2.775   0.140   6.619  0.5359  0.3974 -0.2567
 7800SOL    HW135036   2.829   0.189   6.680  1.5788 -0.8939 -0.1334
 7800SOL    HW235037   2.849   0.108   6.568 -0.0725 -2.1503  0.4348
 7801SOL     OW35038   2.992   3.873   8.994 -0.1599  0.3546  0.0011
 7801SOL    HW135039   2.979   3.900   9.085  1.7927 -0.1370  0.4146
 7801SOL    HW235040   3.067   3.923   8.962  0.8505 -1.5996 -0.7008
 7802SOL     OW35041   2.988   2.117   8.839  0.2175  0.4994 -0.4070
 7802SOL    HW135042   2.972   2.108   8.933  0.4571 -4.1964 -0.8017
 7802SOL    HW235043   3.083   2.125   8.834  0.3456 -1.2933 -1.1233
 7803SOL     OW35044   1.959   1.657  12.040  0.1284 -0.1284  0.2932
 7803SOL    HW135045   1.868   1.665  12.013 -0.4822 -0.6185  2.1971
 7803SOL    HW235046   1.990   1.747  12.037  1.8238 -0.7181 -0.0719
 7804SOL     OW35047   3.952   2.347  12.306 -0.5461  0.7203 -0.6340
 7804SOL    HW135048   4.031   2.364  12.357 -1.2793  0.5829  0.5662
 7804SOL    HW235049   3.984   2.373  12.220 -0.0538 -0.6118 -0.8563
 7805SOL     OW35050   0.912   0.196  11.110 -0.5897 -0.0860 -0.3151
 7805SOL    HW135051   0.871   0.175  11.193 -0.3664 -1.5165 -0.5667
 7805SOL    HW235052   0.905   0.292  11.105  0.5284 -0.0104 -0.4558
 7806SOL     OW35053   3.401   3.079   2.742 -0.1414  0.0531 -0.6203
 7806SOL    HW135054   3.431   3.021   2.812  0.3091  1.6558  0.5206
 7806SOL    HW235055   3.438   3.165   2.761  1.7292 -0.2544 -2.8547
 7807SOL     OW35056   3.898   3.205  10.872 -0.0615  0.3728 -0.1520
 7807SOL    HW135057   3.905   3.253  10.954 -3.1197 -1.0011  0.8990
 7807SOL    HW235058   3.918   3.270  10.804  0.8814  1.8814  1.5854
 7808SOL     OW35059   1.261   1.739   6.873 -0.1911 -0.3300 -0.3718
 7808SOL    HW135060   1.306   1.823   6.877 -1.3903  0.2457  0.8276
 7808SOL    HW235061   1.184   1.764   6.823 -0.6890 -0.0550  0.5496
 7809SOL     OW35062   1.361   3.077   3.229  0.3843  0.2717  0.0501
 7809SOL    HW135063   1.359   3.043   3.318 -1.7184 -1.6848 -0.7616
 7809SOL    HW235064   1.307   3.155   3.241 -1.2900 -0.9419  0.3187
 7810SOL     OW35065   4.727   0.161   5.275  0.3405 -0.1090 -0.0387
 7810SOL    HW135066   4.695   0.188   5.189 -2.8743 -0.0368  1.1757
 7810SOL    HW235067   4.701   0.230   5.337 -0.1318 -0.4331  0.1187
 7811SOL     OW35068   3.980   2.229   3.754 -0.5641  0.0377  0.0650
 7811SOL    HW135069   3.890   2.226   3.721 -0.2119 -1.7624 -0.7197
 7811SOL    HW235070   3.977   2.180   3.836 -1.7737  1.2629  0.7593
 7812SOL     OW35071   0.096   2.381  11.478  0.4306 -0.3768  0.2217
 7812SOL    HW135072   0.151   2.354  11.551  1.0330  0.2364 -0.0038
 7812SOL    HW235073   0.076   2.296  11.439 -0.0948  0.4396 -1.3015
 7813SOL     OW35074   4.457   2.214  13.002  0.0394 -0.4087  0.2657
 7813SOL    HW135075   4.547   2.195  12.976 -0.7402 -1.1788 -1.8901
 7813SOL    HW235076   4.446   2.293  12.950  1.5288 -0.0504  0.5222
 7814SOL     OW35077   4.509   0.980  16.369 -0.1930 -0.3721  0.5601
 7814SOL    HW135078   4.421   0.950  16.392 -0.5398 -0.1842 -0.5093
 7814SOL    HW235079   4.521   0.943  16.281  0.2426  1.1450 -0.0113
 7815SOL     OW35080   1.217   0.217  12.468 -0.1676 -0.4904 -0.2132
 7815SOL    HW135081   1.155   0.187  12.401 -0.2444 -1.6729  0.3787
 7815SOL    HW235082   1.303   0.208  12.427 -1.1852  0.4189 -2.5424
 7816SOL     OW35083   0.316   0.744   3.754 -0.2923  0.2750 -0.1928
 7816SOL    HW135084   0.226   0.754   3.723 -0.3511  1.7194  0.4467
 7816SOL    HW235085   0.365   0.717   3.676  0.2997  0.7426  0.0195
 7817SOL     OW35086   3.931   2.400   4.227  0.0757 -0.0304 -0.1600
 7817SOL    HW135087   3.869   2.428   4.294  0.4459  2.0098 -0.6697
 7817SOL    HW235088   3.917   2.470   4.163 -2.8524 -0.9479 -0.5221
 7818SOL     OW35089   3.015   1.412   1.086  0.5256  0.0947  0.1229
 7818SOL    HW135090   3.003   1.507   1.094 -1.0070 -0.1383  0.6413
 7818SOL    HW235091   2.952   1.384   1.020  0.9804 -1.4356  0.3320
 7819SOL     OW35092   2.838   3.653   6.851 -0.0852 -0.3293 -0.3793
 7819SOL    HW135093   2.760   3.685   6.896  0.3210 -0.2053  0.2406
 7819SOL    HW235094   2.850   3.733   6.799  0.9624 -1.8115 -2.3790
 7820SOL     OW35095   0.691   1.523   6.830 -0.3905 -0.5575  0.1620
 7820SOL    HW135096   0.657   1.586   6.766 -1.0363 -0.7440  0.3148
 7820SOL    HW235097   0.785   1.528   6.816 -0.1979 -1.7680  1.0051
 7821SOL     OW35098   1.615   4.535   4.791 -0.1112  0.1850  0.3106
 7821SOL    HW135099   1.577   4.588   4.861 -0.2625  1.4538 -0.7286
 7821SOL    HW235100   1.557   4.574   4.725 -1.1080 -2.7535 -0.5476
 7822SOL     OW35101   0.697   3.554   1.031 -0.2891 -0.0748 -0.6394
 7822SOL    HW135102   0.636   3.522   1.098  1.9025 -3.4093 -0.1757
 7822SOL    HW235103   0.756   3.612   1.078 -1.2563 -0.2148  0.7449
 7823SOL     OW35104   2.010   2.040   4.028  0.0900  0.3828 -0.1736
 7823SOL    HW135105   2.056   2.119   4.056 -3.3986  2.2584  0.3772
 7823SOL    HW235106   2.085   1.984   4.048  1.7881  2.1258 -1.5973
 7824SOL     OW35107   0.514   2.087   5.323 -0.2246 -0.2864 -0.1686
 7824SOL    HW135108   0.444   2.024   5.342  0.1359  0.1272  2.5592
 7824SOL    HW235109   0.526   2.062   5.232 -0.9170  0.3788 -0.4473
 7825SOL     OW35110   2.141   2.219   4.301 -0.0043 -0.4434 -0.5998
 7825SOL    HW135111   2.167   2.291   4.358  1.3643 -0.6003 -1.0400
 7825SOL    HW235112   2.045   2.222   4.294  0.1583  0.6691 -2.3811
 7826SOL     OW35113   1.493   0.897   2.543 -0.4114  0.2531 -0.3706
 7826SOL    HW135114   1.495   0.928   2.634  0.6912  1.3733 -0.7778
 7826SOL    HW235115   1.584   0.913   2.518 -0.3211 -2.2212 -1.5318
 7827SOL     OW35116   0.271   0.166   1.960 -0.0308 -0.2470  0.0040
 7827SOL    HW135117   0.271   0.074   1.984  0.1664 -0.8488 -2.2820
 7827SOL    HW235118   0.365   0.179   1.972 -0.0946 -0.1562  0.4066
 7828SOL     OW35119   2.623   3.291   6.855 -0.7256  0.0462 -0.2095
 7828SOL    HW135120   2.690   3.336   6.804 -1.3405  0.7832 -0.3662
 7828SOL    HW235121   2.599   3.356   6.922 -0.4956  0.6472 -0.7100
 7829SOL     OW35122   1.827   4.534   6.562  0.1805  0.2968 -0.4817
 7829SOL    HW135123   1.821   4.439   6.571 -0.4965  0.3224 -0.6974
 7829SOL    HW235124   1.890   4.554   6.631 -0.8324  2.4325 -0.1731
 7830SOL     OW35125   4.474   4.385  17.524 -0.0410  0.2924 -0.0927
 7830SOL    HW135126   4.498   4.308  17.577  1.6096  1.2136  0.5091
 7830SOL    HW235127   4.552   4.436  17.546 -1.2938  1.8463  0.7043
 7831SOL     OW35128   1.411   0.031   8.232  0.1406  0.2887 -0.2550
 7831SOL    HW135129   1.331   0.076   8.205 -0.1074  0.5774  0.9530
 7831SOL    HW235130   1.447   0.096   8.293  1.7556 -1.0820  0.2418
 7832SOL     OW35131   3.717   1.594   9.212  0.4678  0.4786 -0.0706
 7832SOL    HW135132   3.743   1.613   9.302 -1.1495  2.2827  0.0075
 7832SOL    HW235133   3.693   1.685   9.199  1.4612  0.7673  0.1399
 7833SOL     OW35134   1.720   2.191   9.789  0.1935 -0.6066 -0.1581
 7833SOL    HW135135   1.814   2.203   9.775 -0.2367  2.3761 -0.5288
 7833SOL    HW235136   1.707   2.101   9.758  0.5055 -1.5075  2.2635
 7834SOL     OW35137   0.671   3.793  15.991 -0.0181  0.0606  0.0279
 7834SOL    HW135138   0.706   3.794  15.902  1.5674  0.4127  0.6465
 7834SOL    HW235139   0.597   3.735  15.980 -0.8707  1.2645 -0.5801
 7835SOL     OW35140   4.678   0.815   2.028 -0.1636 -0.1479 -0.1726
 7835SOL    HW135141   0.026   0.852   2.057  0.0849 -0.1553 -0.8746
 7835SOL    HW235142   4.692   0.771   1.944  2.6696  2.8922 -1.3288
 7836SOL     OW35143   2.839   2.870  17.694  0.6354  0.3528  0.3292
 7836SOL    HW135144   2.878   2.840  17.613 -1.9837 -0.0326 -0.7745
 7836SOL    HW235145   2.895   2.839   0.023 -0.0666 -1.4496  0.0859
 7837SOL     OW35146   2.862   2.148   1.677 -0.3604  0.2538 -0.2438
 7837SOL    HW135147   2.814   2.066   1.683 -0.9381  0.6305  0.2661
 7837SOL    HW235148   2.936   2.136   1.617 -1.8184 -1.4890 -1.7191
 7838SOL     OW35149   4.435   3.010   0.595  0.0919  0.5142  0.6446
 7838SOL    HW135150   4.383   3.032   0.518  0.9385  1.4474  0.3478
 7838SOL    HW235151   4.386   2.930   0.618  0.0626  0.4180  0.2416
 7839SOL     OW35152   0.849   2.593  15.803  0.5568  0.0307  0.4385
 7839SOL    HW135153   0.791   2.663  15.834  1.5277  0.7004  0.7611
 7839SOL    HW235154   0.772   2.537  15.791  0.7626 -0.2986  0.6783
 7840SOL     OW35155   1.883   4.494   4.952  0.2187 -0.3542 -0.8612
 7840SOL    HW135156   1.809   4.535   4.909  0.8920 -0.4219 -2.0748
 7840SOL    HW235157   1.912   4.433   4.884 -0.7774 -0.5531 -1.1012
 7841SOL     OW35158   2.815   0.802   7.163 -0.1278  0.5655 -0.2435
 7841SOL    HW135159   2.731   0.768   7.196 -0.3810 -0.9668 -2.4568
 7841SOL    HW235160   2.865   0.721   7.165 -0.5457  0.3257  0.9058
 7842SOL     OW35161   2.685   4.118   2.701 -0.1824 -0.1204  0.1142
 7842SOL    HW135162   2.663   4.079   2.617  0.5195 -2.1111  0.8554
 7842SOL    HW235163   2.606   4.170   2.720 -0.1915 -0.0910 -0.0029
 7843SOL     OW35164   1.721   2.782   2.819  0.1513  0.0238  0.2722
 7843SOL    HW135165   1.713   2.877   2.829 -2.3123 -0.3812  2.2678
 7843SOL    HW235166   1.631   2.754   2.802  0.3124 -0.6701  0.5705
 7844SOL     OW35167   0.499   1.373   6.633 -0.1841  0.3094  0.0799
 7844SOL    HW135168   0.549   1.334   6.705  0.9103 -0.4997 -1.1038
 7844SOL    HW235169   0.413   1.390   6.669 -0.0405 -2.9514  1.9154
 7845SOL     OW35170   1.429   3.396  12.299  0.2143  0.2007 -0.0916
 7845SOL    HW135171   1.470   3.435  12.222 -0.8681  2.3665  0.4226
 7845SOL    HW235172   1.405   3.481  12.337 -0.9142 -0.9451  1.7346
 7846SOL     OW35173   2.538   3.455   1.722 -0.6932  0.3271  1.0331
 7846SOL    HW135174   2.586   3.405   1.789 -0.3332  0.2038  0.6851
 7846SOL    HW235175   2.451   3.451   1.761 -0.8874 -1.1847  0.4515
 7847SOL     OW35176   1.292   0.389   6.168 -0.1521  0.3492 -0.5602
 7847SOL    HW135177   1.207   0.431   6.171 -0.4484 -0.2646 -0.4117
 7847SOL    HW235178   1.332   0.397   6.255 -0.8294 -1.7148 -0.0798
 7848SOL     OW35179   4.269   1.323  11.475 -0.4195  0.0930  0.3218
 7848SOL    HW135180   4.319   1.250  11.438 -0.8614 -0.8480  1.5523
 7848SOL    HW235181   4.279   1.307  11.569 -0.0726 -1.3293  0.0486
 7849SOL     OW35182   0.699   3.984   2.620 -0.9279 -0.0433  0.3012
 7849SOL    HW135183   0.722   3.906   2.671 -0.3736 -0.2899 -0.3294
 7849SOL    HW235184   0.774   3.996   2.562  0.5162 -1.5226  1.8698
 7850SOL     OW35185   0.876   1.813  16.160  0.3774  0.0743  0.0873
 7850SOL    HW135186   0.888   1.749  16.090  0.9582 -0.0753  0.3228
 7850SOL    HW235187   0.897   1.894  16.114  0.4310 -0.9294 -1.6632
 7851SOL     OW35188   3.481   0.885   4.512  0.3286 -0.4747 -0.2684
 7851SOL    HW135189   3.432   0.807   4.484  1.1761 -0.4775 -1.7921
 7851SOL    HW235190   3.421   0.933   4.568  1.1299  1.3235 -0.9661
 7852SOL     OW35191   2.983   3.479   1.644 -0.3405 -0.5197  0.8693
 7852SOL    HW135192   3.056   3.531   1.678  1.1491 -1.1085 -1.4652
 7852SOL    HW235193   3.032   3.412   1.598  0.0206 -0.1285  0.6866
 7853SOL     OW35194   2.307   2.565  17.079  0.0410  0.2081 -0.6761
 7853SOL    HW135195   2.221   2.550  17.118 -0.5995  2.9745 -1.0092
 7853SOL    HW235196   2.367   2.543  17.150  1.3393  1.3971 -1.3842
 7854SOL     OW35197   3.591   3.541   4.045  0.0540  0.1199  0.5379
 7854SOL    HW135198   3.583   3.634   4.024 -0.9425 -0.5825 -2.2017
 7854SOL    HW235199   3.530   3.507   3.980  0.8940 -1.4098  0.5671
 7855SOL     OW35200   1.655   3.250   8.215  0.0518  0.6392  0.2385
 7855SOL    HW135201   1.589   3.304   8.258 -0.0393  0.2294  0.6096
 7855SOL    HW235202   1.719   3.216   8.277  0.0056  1.3273  0.6656
 7856SOL     OW35203   3.421   3.130  16.086 -0.3294 -0.0556  0.4862
 7856SOL    HW135204   3.454   3.065  16.148  1.1693 -1.5360 -1.8807
 7856SOL    HW235205   3.372   3.180  16.152 -1.8449  0.0976 -0.7627
 7857SOL     OW35206   0.742   1.124  15.275  1.0104  0.0674  0.0982
 7857SOL    HW135207   0.711   1.034  15.286  0.5021 -0.0124 -1.9825
 7857SOL    HW235208   0.837   1.113  15.269  0.8747 -1.4555  0.8471
 7858SOL     OW35209   2.787   3.892   1.591  0.1472  0.6324  0.3537
 7858SOL    HW135210   2.752   3.977   1.616 -0.2669  0.6432 -0.2705
 7858SOL    HW235211   2.714   3.855   1.541  1.8575 -1.3342 -0.6933
 7859SOL     OW35212   3.391   2.807   2.112  0.6533  0.1805  0.2764
 7859SOL    HW135213   3.352   2.724   2.083  1.2744 -0.2636  0.7044
 7859SOL    HW235214   3.467   2.812   2.055  1.5605 -0.3027  1.4274
 7860SOL     OW35215   3.438   4.365   4.220 -0.2971 -0.2456  0.6100
 7860SOL    HW135216   3.383   4.344   4.145  0.3843  2.0571 -0.5455
 7860SOL    HW235217   3.374   4.398   4.283 -1.1004  0.6995 -0.7106
 7861SOL     OW35218   0.133   2.097   7.122  0.3486  0.2380  0.0761
 7861SOL    HW135219   0.069   2.081   7.053  1.6821  1.5688 -1.4903
 7861SOL    HW235220   0.213   2.060   7.086 -0.1225 -0.3443 -0.3703
 7862SOL     OW35221   1.731   4.100  15.575 -0.6062 -0.1869  0.0153
 7862SOL    HW135222   1.673   4.052  15.515 -0.6708 -0.9296  0.6756
 7862SOL    HW235223   1.730   4.034  15.644  1.4267  0.0603  0.2647
 7863SOL     OW35224   3.033   2.569   5.989  0.2367 -0.1514 -0.2024
 7863SOL    HW135225   2.994   2.627   6.054  1.6022 -0.2330  0.6832
 7863SOL    HW235226   2.959   2.510   5.982  0.4328 -0.0456 -3.3486
 7864SOL     OW35227   0.389   3.986   1.940  0.1654  0.5730  0.0176
 7864SOL    HW135228   0.421   4.002   1.851 -0.9622  0.7542 -0.3580
 7864SOL    HW235229   0.461   3.929   1.967  0.1001  0.3659 -0.2503
 7865SOL     OW35230   0.137   2.943   3.195 -0.5483  0.7223 -0.1567
 7865SOL    HW135231   0.081   2.865   3.196  0.2193  0.1453 -1.9186
 7865SOL    HW235232   0.199   2.920   3.264  0.8395 -1.0100 -1.9804
 7866SOL     OW35233   3.588   2.416   0.472 -0.2268 -0.1224  0.0953
 7866SOL    HW135234   3.520   2.432   0.537  1.0001 -0.1555  1.3760
 7866SOL    HW235235   3.537   2.365   0.409  0.0066 -0.7087  0.3790
 7867SOL     OW35236   2.907   4.160   7.219  0.9755 -0.7082 -0.5714
 7867SOL    HW135237   2.928   4.199   7.134 -2.1138  0.8747 -0.6005
 7867SOL    HW235238   2.989   4.115   7.239  0.1428 -1.4168  1.2920
 7868SOL     OW35239   3.353   3.936  11.180  0.1951 -0.1063 -0.1208
 7868SOL    HW135240   3.385   3.884  11.107  0.8319  1.2351 -0.8100
 7868SOL    HW235241   3.261   3.946  11.156 -0.2252 -2.7186  0.4171
 7869SOL     OW35242   2.363   1.834  16.866 -0.3391 -0.1904  0.0902
 7869SOL    HW135243   2.306   1.891  16.917 -0.2652 -1.4051  1.5104
 7869SOL    HW235244   2.407   1.787  16.937  0.3162 -1.3982 -1.1105
 7870SOL     OW35245   3.662   2.731   2.698  0.1431  0.5415 -0.2962
 7870SOL    HW135246   3.583   2.689   2.664 -1.0191  2.3301  0.2248
 7870SOL    HW235247   3.685   2.784   2.622  0.7232  0.5275 -0.1313
 7871SOL     OW35248   0.471   2.935   8.021 -0.3784  0.4093  0.3440
 7871SOL    HW135249   0.563   2.906   8.022 -0.2610  0.8145  1.5541
 7871SOL    HW235250   0.448   2.927   7.929 -1.1106 -1.1820  0.6609
 7872SOL     OW35251   2.796   0.049   0.343  0.0713  0.3154 -0.4398
 7872SOL    HW135252   2.792   0.140   0.313  2.6644  0.8739  0.9406
 7872SOL    HW235253   2.704   0.023   0.335  0.8468 -2.2085 -1.1284
 7873SOL     OW35254   2.533   0.485   4.666 -0.2016 -0.2078  0.5998
 7873SOL    HW135255   2.560   0.518   4.580 -1.6287 -0.6872 -0.0463
 7873SOL    HW235256   2.493   0.403   4.637 -0.5777  0.4216 -0.6780
 7874SOL     OW35257   3.475   1.885  10.418  0.4200 -0.4316 -0.0370
 7874SOL    HW135258   3.542   1.839  10.468  0.8246  0.1969  0.0066
 7874SOL    HW235259   3.526   1.892  10.337  1.7559  2.1243  1.0414
 7875SOL     OW35260   4.449   2.666   8.112 -0.4339 -0.4501  0.5058
 7875SOL    HW135261   4.533   2.692   8.073 -0.8948 -0.0314 -0.1840
 7875SOL    HW235262   4.463   2.571   8.110  0.9331 -0.2537  0.2844
 7876SOL     OW35263   2.413   2.415   3.052  0.1247 -0.3402  0.0765
 7876SOL    HW135264   2.433   2.342   2.992  0.5930  0.3930 -0.6616
 7876SOL    HW235265   2.456   2.384   3.131 -2.3481  2.0180  2.3272
 7877SOL     OW35266   1.286   4.733  11.221 -0.1537  0.4426  0.1768
 7877SOL    HW135267   1.196   4.703  11.231 -1.3120  2.6020 -3.9344
 7877SOL    HW235268   1.274   0.070  11.161  1.4436 -0.8745 -1.7301
 7878SOL     OW35269   2.867   1.336   4.524 -0.5460 -0.2110 -0.6003
 7878SOL    HW135270   2.831   1.413   4.567 -1.3609 -0.9421  0.0243
 7878SOL    HW235271   2.961   1.357   4.530  0.1642 -3.9614  1.7974
 7879SOL     OW35272   3.146   2.492   8.648 -0.3865  0.6123  0.0413
 7879SOL    HW135273   3.203   2.453   8.582 -1.1521 -2.2236  1.0485
 7879SOL    HW235274   3.061   2.461   8.618 -0.2333  2.7662 -2.6592
 7880SOL     OW35275   0.129   2.535  13.269 -0.4097  0.3736  0.7922
 7880SOL    HW135276   0.157   2.484  13.193 -0.9230  1.0683  0.1312
 7880SOL    HW235277   0.057   2.586  13.230 -1.8756 -1.6116  0.9067
 7881SOL     OW35278   0.723   3.478   2.066 -0.3097 -0.2155  0.4219
 7881SOL    HW135279   0.757   3.563   2.092 -0.2469 -0.1713  0.1971
 7881SOL    HW235280   0.801   3.426   2.088 -0.1163  0.3342  1.0130
 7882SOL     OW35281   4.038   4.234  12.911  0.1538  0.5657 -0.2401
 7882SOL    HW135282   4.081   4.301  12.858  0.3005 -1.1180 -2.2288
 7882SOL    HW235283   4.112   4.190  12.953  0.6276  0.0841 -1.6041
 7883SOL     OW35284   1.283   3.700   2.643  0.4477 -0.1107 -0.3212
 7883SOL    HW135285   1.371   3.664   2.631 -0.6972 -2.5325 -1.4854
 7883SOL    HW235286   1.307   3.793   2.641  0.5840 -0.1401  0.1837
 7884SOL     OW35287   1.940   3.531   4.809 -0.3927  0.2292 -0.4590
 7884SOL    HW135288   1.967   3.622   4.794  1.2577  0.0127  1.1793
 7884SOL    HW235289   1.908   3.538   4.899  0.5721  1.9248 -0.2508
 7885SOL     OW35290   2.422   3.633   2.034  0.3625 -0.2164 -0.3449
 7885SOL    HW135291   2.416   3.540   2.013  4.8832  0.3347 -4.0639
 7885SOL    HW235292   2.355   3.675   1.981  1.1842  2.3479  0.6265
 7886SOL     OW35293   0.833   3.855   5.910  0.2163 -0.7231  0.3166
 7886SOL    HW135294   0.746   3.849   5.870 -0.2148 -2.0040  1.4356
 7886SOL    HW235295   0.877   3.780   5.870 -0.7289 -2.3132  2.3021
 7887SOL     OW35296   1.189   2.710   5.413  0.1020  0.0382  0.1967
 7887SOL    HW135297   1.123   2.644   5.393  1.1757 -0.9898 -0.0204
 7887SOL    HW235298   1.237   2.688   5.493 -0.2501 -1.0097  0.1217
 7888SOL     OW35299   2.522   3.048   6.915  0.4296  0.0425 -0.1284
 7888SOL    HW135300   2.435   3.057   6.876  0.4014 -0.1545 -0.1089
 7888SOL    HW235301   2.553   3.139   6.921 -1.7135  0.8426 -1.2086
 7889SOL     OW35302   3.556   3.428   0.114 -0.3890 -0.4968 -0.1015
 7889SOL    HW135303   3.611   3.389   0.183  0.5971  1.5866  0.2822
 7889SOL    HW235304   3.477   3.442   0.166  0.8054 -2.2794  2.2232
 7890SOL     OW35305   4.094   2.270   7.905  0.2338 -0.1814  0.4052
 7890SOL    HW135306   4.081   2.345   7.962  3.2648  0.9388 -0.3665
 7890SOL    HW235307   4.147   2.302   7.832  0.0434 -1.6068 -0.3784
 7891SOL     OW35308   0.958   1.429  13.369  0.1731 -0.2214  0.4216
 7891SOL    HW135309   0.988   1.430  13.460  0.6226 -0.1547  0.2751
 7891SOL    HW235310   1.034   1.389  13.326 -0.3561 -0.2178 -0.5268
 7892SOL     OW35311   2.375   1.980  13.010  0.4193 -0.0088  0.5871
 7892SOL    HW135312   2.389   1.901  12.958  0.7824  0.2840  0.2352
 7892SOL    HW235313   2.446   2.036  12.978  0.2085  0.8073  1.5714
 7893SOL     OW35314   3.942   2.181   6.803  0.1607 -0.4589 -0.2944
 7893SOL    HW135315   3.986   2.116   6.858  0.7856  0.0958 -0.1434
 7893SOL    HW235316   3.909   2.243   6.868 -0.0186 -0.1017 -0.7241
 7894SOL     OW35317   0.005   2.841   1.785  0.3934 -0.5260  0.1165
 7894SOL    HW135318   4.684   2.834   1.861 -1.3516 -0.6137 -1.1968
 7894SOL    HW235319   0.030   2.749   1.775 -2.2512 -1.2982  0.8056
 7895SOL     OW35320   4.299   0.660   2.199  0.0048 -0.5067 -0.2135
 7895SOL    HW135321   4.274   0.651   2.291 -1.4210  3.2262 -0.2292
 7895SOL    HW235322   4.235   0.726   2.171  0.7608  0.8766  1.3915
 7896SOL     OW35323   2.642   0.621   3.912 -0.0552 -0.0021 -0.4349
 7896SOL    HW135324   2.612   0.535   3.940  3.1350 -1.1435 -0.4667
 7896SOL    HW235325   2.558   0.666   3.913  0.4405  0.9545 -2.8363
 7897SOL     OW35326   0.298   2.483   8.397 -0.2604 -0.1268  0.1680
 7897SOL    HW135327   0.280   2.543   8.324 -0.9138  0.3349  0.7086
 7897SOL    HW235328   0.364   2.433   8.349  1.2862  1.2537  0.8249
 7898SOL     OW35329   1.468   2.680   8.403  0.0139 -0.0178  0.1728
 7898SOL    HW135330   1.399   2.642   8.457  0.4112 -0.6214  0.2587
 7898SOL    HW235331   1.550   2.662   8.448  0.0825 -3.6885 -1.3919
 7899SOL     OW35332   3.352   1.420   8.981  0.0510 -0.3161 -0.1011
 7899SOL    HW135333   3.366   1.441   8.888 -0.3408 -0.5208 -0.2075
 7899SOL    HW235334   3.440   1.421   9.018  0.0113 -0.1468 -0.0093
 7900SOL     OW35335   3.435   3.852   7.044  0.0878 -0.1002 -0.1049
 7900SOL    HW135336   3.516   3.889   7.079  0.2664  0.6364 -1.2787
 7900SOL    HW235337   3.393   3.930   7.006 -0.5120 -0.9828 -1.2665
 7901SOL     OW35338   4.574   4.007   8.283  0.6024  0.4213 -0.1702
 7901SOL    HW135339   4.574   3.915   8.257 -0.1202  0.5186 -0.5139
 7901SOL    HW235340   4.562   3.997   8.377 -0.4855 -1.6317 -0.5254
 7902SOL     OW35341   1.198   2.933   1.883  0.3736 -0.2983 -0.7196
 7902SOL    HW135342   1.275   2.896   1.840 -1.3405 -0.4722 -3.6701
 7902SOL    HW235343   1.157   2.847   1.898 -2.3462  1.6537  3.0989
 7903SOL     OW35344   1.727   3.627   2.209 -0.2164  0.1449  0.4814
 7903SOL    HW135345   1.781   3.631   2.289  1.4707 -0.1630 -0.6330
 7903SOL    HW235346   1.728   3.717   2.177 -1.7908  0.0865  0.2752
 7904SOL     OW35347   3.488   2.295   2.437 -0.5726  0.4535  0.2143
 7904SOL    HW135348   3.421   2.358   2.410  1.0925  1.2404 -2.0777
 7904SOL    HW235349   3.445   2.242   2.504 -0.3182  0.0817  0.0799
 7905SOL     OW35350   0.288   4.055   7.074 -0.0929 -0.5493  0.2122
 7905SOL    HW135351   0.309   4.114   7.001  0.1306 -0.2570  0.5072
 7905SOL    HW235352   0.235   4.113   7.128 -2.0906  0.1974 -2.5467
 7906SOL     OW35353   2.425   3.775   0.402 -0.0508  0.2275 -0.2905
 7906SOL    HW135354   2.489   3.802   0.468 -0.6007 -2.5222  1.3723
 7906SOL    HW235355   2.394   3.698   0.450 -0.1281 -0.6299 -1.7389
 7907SOL     OW35356   1.273   2.874   8.501 -0.0019 -0.4041  0.5062
 7907SOL    HW135357   1.281   2.821   8.422 -0.9659 -0.5552  0.5056
 7907SOL    HW235358   1.269   2.806   8.568 -1.2897 -0.9143 -0.0878
 7908SOL     OW35359   0.856   0.646   5.164 -0.4197  0.1378 -0.3989
 7908SOL    HW135360   0.927   0.583   5.151 -2.6998 -2.7211  1.1186
 7908SOL    HW235361   0.820   0.648   5.075  0.4485  3.0066 -0.6884
 7909SOL     OW35362   2.502   0.150   9.528 -0.1385 -0.3822  0.5545
 7909SOL    HW135363   2.465   0.094   9.460 -1.5998  2.1316 -0.7384
 7909SOL    HW235364   2.524   0.225   9.472  1.1036 -0.8306  0.4422
 7910SOL     OW35365   0.019   1.572  11.838  0.4087 -0.0365 -0.0672
 7910SOL    HW135366   4.685   1.570  11.773  2.2651  0.8926 -2.1408
 7910SOL    HW235367   0.040   1.665  11.847  1.2167 -0.1147 -1.0078
 7911SOL     OW35368   2.247   4.064   7.739 -0.0669  0.0150  0.6466
 7911SOL    HW135369   2.254   4.144   7.792 -1.4831 -0.9619  2.3394
 7911SOL    HW235370   2.241   3.990   7.800  1.3887  0.4067  1.2747
 7912SOL     OW35371   1.082   1.177   0.029  0.5215  0.1510 -0.0507
 7912SOL    HW135372   1.010   1.123   0.062  1.2438 -0.8505 -0.0761
 7912SOL    HW235373   1.058   1.263   0.061  0.9105  0.6451 -1.1028
 7913SOL     OW35374   1.783   0.048   4.821 -0.0313  0.0981  0.3171
 7913SOL    HW135375   1.697   0.021   4.853  1.1022 -3.0372  0.6969
 7913SOL    HW235376   1.808   4.723   4.752  0.0869 -0.1116  0.5459
 7914SOL     OW35377   2.212   1.189   8.914  0.0970  0.1785  0.5759
 7914SOL    HW135378   2.164   1.115   8.950  1.8326 -2.1789 -1.9120
 7914SOL    HW235379   2.192   1.262   8.972 -3.0194 -1.5400  1.6371
 7915SOL     OW35380   4.351   2.775   9.113  0.1033 -0.3872 -0.5366
 7915SOL    HW135381   4.372   2.824   9.033 -0.1495 -0.4653 -0.6513
 7915SOL    HW235382   4.265   2.814   9.126  0.8629  1.2053 -0.2692
 7916SOL     OW35383   2.260   2.218   9.736 -0.5943  0.4504  0.4698
 7916SOL    HW135384   2.262   2.233   9.831  2.2053 -0.7642  0.5887
 7916SOL    HW235385   2.330   2.153   9.735  0.4361  1.6019 -2.0546
 7917SOL     OW35386   2.431   4.688   2.569  0.2393  0.2416  0.3610
 7917SOL    HW135387   2.454   0.007   2.494  0.4189 -1.6852 -0.9927
 7917SOL    HW235388   2.459   0.001   2.646  1.4743 -1.1921  0.8222
 7918SOL     OW35389   0.465   3.226   9.394 -0.0795  0.1081 -0.6084
 7918SOL    HW135390   0.388   3.280   9.373 -0.3356  0.1940  0.5652
 7918SOL    HW235391   0.467   3.247   9.487  0.8691  1.9994 -1.0445
 7919SOL     OW35392   0.124   4.495   3.432  0.1604  0.0521 -0.1307
 7919SOL    HW135393   0.039   4.514   3.393  0.3197  0.4667 -0.2782
 7919SOL    HW235394   0.180   4.475   3.357 -0.2695  2.5093 -1.0980
 7920SOL     OW35395   2.786   3.470  11.406 -0.0209 -0.2607 -0.0907
 7920SOL    HW135396   2.873   3.503  11.385 -0.9723  3.0211  1.0607
 7920SOL    HW235397   2.807   3.427  11.489  1.0854  0.0595 -0.2075
 7921SOL     OW35398   2.637   1.053   3.075  0.3731 -0.4807 -0.2215
 7921SOL    HW135399   2.603   0.973   3.035  0.5940 -1.1912  1.0273
 7921SOL    HW235400   2.606   1.040   3.164  2.1605  0.3001  0.5147
 7922SOL     OW35401   4.523   0.833  14.649  0.3149  0.4211  0.6490
 7922SOL    HW135402   4.493   0.849  14.559  0.7281  0.8827  0.5965
 7922SOL    HW235403   4.498   0.741  14.660  1.6348 -0.0500 -0.3937
 7923SOL     OW35404   3.431   1.276   4.282  0.5736 -0.1672  0.0423
 7923SOL    HW135405   3.397   1.324   4.207  0.7550  0.1624  0.1725
 7923SOL    HW235406   3.400   1.329   4.355 -2.5448 -1.0533 -0.6771
 7924SOL     OW35407   3.993   4.456   3.029  0.1752  1.0358 -0.3410
 7924SOL    HW135408   3.976   4.369   3.064 -3.7246  1.1978 -1.8853
 7924SOL    HW235409   4.084   4.460   3.058  0.5018 -1.6249 -1.0540
 7925SOL     OW35410   0.706   4.394   1.611  0.3369 -0.2240 -0.1296
 7925SOL    HW135411   0.651   4.443   1.550 -1.1020 -0.3743  1.0710
 7925SOL    HW235412   0.789   4.389   1.563 -0.5111 -0.9327 -1.5089
 7926SOL     OW35413   4.360   2.301   6.281 -0.5770 -0.4056 -0.1599
 7926SOL    HW135414   4.413   2.341   6.350 -0.6003  1.2953 -1.1488
 7926SOL    HW235415   4.318   2.378   6.242 -1.4760 -0.9683 -0.3171
 7927SOL     OW35416   2.631   2.276  12.325  0.1545 -0.3752 -0.0199
 7927SOL    HW135417   2.664   2.186  12.319 -2.0730 -1.0812 -1.7808
 7927SOL    HW235418   2.706   2.312  12.278 -0.2443 -1.7988 -1.7474
 7928SOL     OW35419   3.873   2.334   6.173 -0.0978  0.4637  0.0174
 7928SOL    HW135420   3.866   2.424   6.206  1.1978  1.0410 -1.2641
 7928SOL    HW235421   3.785   2.298   6.172 -0.1171  0.5366 -0.6429
 7929SOL     OW35422   0.166   2.253   2.557 -0.3645  0.2097  0.3626
 7929SOL    HW135423   0.148   2.237   2.650  0.4280  0.9327  0.6341
 7929SOL    HW235424   0.219   2.328   2.584 -0.2380 -1.3622  4.5917
 7930SOL     OW35425   4.042   2.011   6.972 -0.0206  0.6238 -0.1176
 7930SOL    HW135426   4.119   2.000   7.029  0.9115  0.0400 -1.4960
 7930SOL    HW235427   3.978   2.012   7.043  1.7802 -0.8547  1.5659
 7931SOL     OW35428   0.460   1.325   7.353  0.4722 -0.1920 -0.7000
 7931SOL    HW135429   0.372   1.324   7.315  0.6584  0.7221 -1.1426
 7931SOL    HW235430   0.504   1.408   7.335 -1.9225  0.5594 -3.0763
 7932SOL     OW35431   4.464   1.073   0.758  0.0195  0.1906  0.4933
 7932SOL    HW135432   4.498   0.987   0.736 -1.1123 -0.2309  0.4010
 7932SOL    HW235433   4.545   1.122   0.747 -0.4313  1.2012  1.6045
 7933SOL     OW35434   1.769   1.405   8.139 -0.1871  0.2828 -0.1933
 7933SOL    HW135435   1.711   1.340   8.178  1.5977 -1.9679 -1.2751
 7933SOL    HW235436   1.825   1.429   8.213  0.1872 -1.2159  0.0156
 7934SOL     OW35437   3.428   2.033  17.317  0.1010 -0.4413  0.1778
 7934SOL    HW135438   3.458   2.043  17.226  1.2381 -0.2862  0.5669
 7934SOL    HW235439   3.511   2.017  17.362  1.1568  0.0751 -1.5875
 7935SOL     OW35440   1.406   0.912   6.215 -0.1919 -0.4771 -0.3351
 7935SOL    HW135441   1.423   1.005   6.201  0.1899 -0.4280  0.4313
 7935SOL    HW235442   1.391   0.884   6.125  0.0749 -0.9961 -0.2182
 7936SOL     OW35443   0.129   0.840  17.521 -0.0704  0.3220 -0.0361
 7936SOL    HW135444   0.181   0.760  17.513 -0.2285  0.1079  1.1557
 7936SOL    HW235445   0.081   0.838  17.438  1.5496  2.3533 -1.0402
 7937SOL     OW35446   2.638   0.778   3.158  0.1586  0.0445 -0.0994
 7937SOL    HW135447   2.573   0.781   3.229 -2.1659 -1.8652 -2.1756
 7937SOL    HW235448   2.577   0.762   3.086 -1.1527 -0.2699  1.0621
 7938SOL     OW35449   0.475   4.109   9.138 -0.3646 -0.1948  0.0624
 7938SOL    HW135450   0.484   4.014   9.147  0.1718 -0.2443 -0.9737
 7938SOL    HW235451   0.567   4.131   9.119 -0.7701  2.8147  1.4655
 7939SOL     OW35452   0.102   4.236   7.683 -0.4377 -0.7546  0.2815
 7939SOL    HW135453   0.097   4.257   7.776 -0.7870 -0.5316  0.2162
 7939SOL    HW235454   0.040   4.163   7.684 -0.7843 -0.4603  0.4022
 7940SOL     OW35455   2.000   3.600  12.051  0.4815 -0.5382  0.0823
 7940SOL    HW135456   1.928   3.660  12.071 -0.0963 -2.4266  3.6246
 7940SOL    HW235457   2.039   3.583  12.137  0.5040 -0.6372  0.0519
 7941SOL     OW35458   0.344   1.078  10.962 -0.5981 -0.2693 -0.2323
 7941SOL    HW135459   0.253   1.051  10.975 -0.1170 -0.3827  2.7809
 7941SOL    HW235460   0.383   1.036  11.038 -0.2095 -1.5799 -1.1578
 7942SOL     OW35461   2.065   1.174   2.185 -0.9665 -0.1406  0.0051
 7942SOL    HW135462   2.060   1.083   2.213  0.1569  0.2944  1.6137
 7942SOL    HW235463   2.100   1.221   2.261  0.0981  0.6549 -0.9678
 7943SOL     OW35464   1.869   3.128   3.513 -0.6236  0.0287  0.6647
 7943SOL    HW135465   1.930   3.058   3.538 -3.1045 -1.9275  1.3150
 7943SOL    HW235466   1.819   3.150   3.592 -3.8227  3.0646 -2.2054
 7944SOL     OW35467   4.630   1.822  13.127  0.3825 -0.4194 -0.6453
 7944SOL    HW135468   4.571   1.895  13.150  0.2398 -1.4410  2.2759
 7944SOL    HW235469   4.579   1.746  13.155  1.3919 -0.2626  1.6091
 7945SOL     OW35470   2.448   0.412  13.014  0.7129  0.3481  0.1704
 7945SOL    HW135471   2.488   0.460  12.942 -0.3178  0.9886  0.0146
 7945SOL    HW235472   2.360   0.386  12.984  0.9052 -0.2399  0.1291
 7946SOL     OW35473   3.436   0.243   1.556  0.3074  0.3967  0.5326
 7946SOL    HW135474   3.401   0.164   1.515 -0.3795  1.1279 -0.2906
 7946SOL    HW235475   3.434   0.317   1.495  0.2608 -0.6242 -0.7170
 7947SOL     OW35476   2.911   4.468   5.579  0.3359  0.3549 -0.4393
 7947SOL    HW135477   2.838   4.479   5.519  0.6054 -1.1601 -1.0493
 7947SOL    HW235478   2.983   4.493   5.521  2.3207 -1.1543  1.3425
 7948SOL     OW35479   4.018   3.824   6.473  0.1668 -0.0633 -0.2052
 7948SOL    HW135480   4.060   3.870   6.400 -1.1179  0.1210 -0.8278
 7948SOL    HW235481   3.930   3.862   6.464  0.4991  0.5453 -0.8631
 7949SOL     OW35482   3.039   0.141   3.776 -0.3620  0.2019 -0.2067
 7949SOL    HW135483   2.961   0.147   3.830 -0.0594 -0.0428  0.2665
 7949SOL    HW235484   3.024   0.055   3.736  1.9137 -0.3486  0.0835
 7950SOL     OW35485   2.438   2.343   4.172 -0.2463  0.2532  0.2219
 7950SOL    HW135486   2.363   2.306   4.125 -1.0854  2.4266 -0.1201
 7950SOL    HW235487   2.508   2.341   4.106 -2.1110  0.8782 -1.7524
 7951SOL     OW35488   1.804   0.621   7.275 -0.4012  0.7718  0.5823
 7951SOL    HW135489   1.736   0.654   7.333 -2.4904  1.2657 -2.1403
 7951SOL    HW235490   1.772   0.666   7.197  0.2527  0.7239  0.2845
 7952SOL     OW35491   4.156   4.490   5.377  0.1775 -0.1350  0.3999
 7952SOL    HW135492   4.149   4.396   5.366 -0.0029  0.1753 -2.0855
 7952SOL    HW235493   4.094   4.501   5.450 -1.8053  0.4151 -1.3534
 7953SOL     OW35494   2.898   3.937  17.532 -0.1405 -0.1411 -0.0053
 7953SOL    HW135495   2.904   3.984  17.615 -0.6093 -0.6338  0.3055
 7953SOL    HW235496   2.808   3.954  17.503 -0.9167 -2.2739  1.1167
 7954SOL     OW35497   3.738   2.206  14.614 -0.5626  0.2820 -0.8604
 7954SOL    HW135498   3.683   2.231  14.540 -1.6107  1.8146  0.4449
 7954SOL    HW235499   3.828   2.224  14.586  0.4269 -1.0902  1.4194
 7955SOL     OW35500   1.578   0.920   3.812  0.1482 -0.4212  0.3332
 7955SOL    HW135501   1.535   0.870   3.743  0.4586 -0.3676  0.0998
 7955SOL    HW235502   1.507   0.939   3.874 -0.1365  2.5050 -0.8862
 7956SOL     OW35503   1.032   2.439   3.139  0.4208 -0.0018  0.5476
 7956SOL    HW135504   1.070   2.510   3.190 -0.8051 -0.4042  2.0124
 7956SOL    HW235505   1.103   2.375   3.148 -0.4654 -0.8426  1.4804
 7957SOL     OW35506   3.008   0.400  13.571 -0.4152  0.3176 -0.5996
 7957SOL    HW135507   2.935   0.339  13.570  0.4232 -0.6840 -0.7639
 7957SOL    HW235508   3.089   0.349  13.568  0.0959  1.1704 -1.4161
 7958SOL     OW35509   0.114   0.991   2.764 -0.2547 -0.2511  0.0704
 7958SOL    HW135510   0.192   1.045   2.754  1.1629 -2.1187  1.1607
 7958SOL    HW235511   0.136   0.917   2.707 -0.0208  0.6046 -0.9484
 7959SOL     OW35512   2.573   0.535   7.099 -0.3162 -0.6458  0.4876
 7959SOL    HW135513   2.609   0.525   7.011 -0.5787 -2.0395  0.5540
 7959SOL    HW235514   2.518   0.458   7.111  0.7587 -1.2004  1.8916
 7960SOL     OW35515   0.269   4.183   7.485 -0.1626  0.1566 -0.2534
 7960SOL    HW135516   0.214   4.192   7.406 -2.2192  0.4033  1.1913
 7960SOL    HW235517   0.214   4.217   7.556  2.0033  1.6055  0.7097
 7961SOL     OW35518   0.830   1.743  14.796 -0.6224  0.0740  0.1797
 7961SOL    HW135519   0.841   1.706  14.708  0.4778  1.3885 -0.2413
 7961SOL    HW235520   0.735   1.739  14.804 -0.7389  0.7038 -0.8544
 7962SOL     OW35521   1.101   0.732   0.291 -0.2215 -0.6632  0.4420
 7962SOL    HW135522   1.169   0.749   0.226  2.1884 -2.9911  2.3518
 7962SOL    HW235523   1.026   0.735   0.231  0.7296  0.0007 -0.7201
 7963SOL     OW35524   2.324   4.597   4.645  0.3922  0.2635 -0.1200
 7963SOL    HW135525   2.365   4.649   4.715 -0.2697 -0.3549  0.7257
 7963SOL    HW235526   2.401   4.550   4.613  0.5871  0.1645  0.4999
 7964SOL     OW35527   4.607   1.216  15.630  0.1032  0.1993 -0.1663
 7964SOL    HW135528   4.516   1.230  15.654 -0.4531 -2.6333 -0.6279
 7964SOL    HW235529   4.596   1.206  15.535 -1.1887 -2.4685  0.2580
 7965SOL     OW35530   0.127   3.353   8.262 -0.4884  0.0758  0.3536
 7965SOL    HW135531   0.199   3.342   8.325 -0.2136  1.4026  0.2684
 7965SOL    HW235532   0.103   3.262   8.248 -1.3422  0.0262  2.1069
 7966SOL     OW35533   1.512   1.551   1.285  0.1880 -0.5447  0.1619
 7966SOL    HW135534   1.448   1.487   1.253  0.0580 -1.0978  1.5445
 7966SOL    HW235535   1.466   1.635   1.275  2.0059  0.4771  0.4266
 7967SOL     OW35536   2.184   1.940   9.186 -0.1372 -0.3505 -0.1828
 7967SOL    HW135537   2.256   1.912   9.129  1.2233 -1.2491  1.9828
 7967SOL    HW235538   2.112   1.944   9.124 -0.1394 -0.1444 -0.1662
 7968SOL     OW35539   4.443   1.099   9.323  0.9093  0.1003  0.6938
 7968SOL    HW135540   4.483   1.175   9.365  0.4732  0.4934  0.3999
 7968SOL    HW235541   4.354   1.119   9.295  1.9674  3.1535 -0.5734
 7969SOL     OW35542   1.362   1.859   2.362 -0.5366  0.0891  0.0394
 7969SOL    HW135543   1.280   1.835   2.405  0.9783 -2.7872  1.3499
 7969SOL    HW235544   1.383   1.785   2.305  3.4734  0.9053  0.5097
 7970SOL     OW35545   2.852   1.724   9.161  0.4858 -0.1677 -0.1669
 7970SOL    HW135546   2.808   1.748   9.243  1.0639  0.0375  0.0820
 7970SOL    HW235547   2.904   1.656   9.202 -1.1569 -0.0604  2.1332
 7971SOL     OW35548   0.226   3.733   9.102 -0.1109  0.0621 -0.0858
 7971SOL    HW135549   0.184   3.744   9.187  0.2817  0.0862  0.1067
 7971SOL    HW235550   0.309   3.775   9.125  0.2307 -1.1238  0.8122
 7972SOL     OW35551   3.789   2.942   9.649 -0.6747 -0.6459  0.2615
 7972SOL    HW135552   3.825   2.892   9.576 -0.3660  0.1258 -0.1057
 7972SOL    HW235553   3.696   2.929   9.628 -0.1045 -1.6584 -1.6304
 7973SOL     OW35554   0.453   1.562   9.433  0.3969 -0.1153  0.3674
 7973SOL    HW135555   0.468   1.583   9.525  1.4156  4.5372 -0.8785
 7973SOL    HW235556   0.393   1.632   9.406  0.0955 -1.4168 -2.3230
 7974SOL     OW35557   2.472   2.143   6.709 -0.1736 -0.0207 -0.7497
 7974SOL    HW135558   2.435   2.066   6.752 -1.9136  0.8264 -0.7291
 7974SOL    HW235559   2.459   2.210   6.776 -0.8710  0.4551 -1.3552
 7975SOL     OW35560   0.873   2.252   1.306 -0.1962  0.5608  0.5017
 7975SOL    HW135561   0.945   2.210   1.352 -0.0138 -0.1586 -0.4309
 7975SOL    HW235562   0.813   2.242   1.381  0.4612  1.1428  1.1042
 7976SOL     OW35563   2.336   1.821   1.960  0.2253  0.2723  0.3017
 7976SOL    HW135564   2.379   1.827   2.045 -2.0916 -0.8558  1.5403
 7976SOL    HW235565   2.275   1.894   1.947  1.1129  0.9457 -0.1256
 7977SOL     OW35566   4.636   1.524   3.645 -0.3707  0.5304 -0.1877
 7977SOL    HW135567   4.568   1.457   3.650  1.7953 -1.8166 -2.1536
 7977SOL    HW235568   4.587   1.606   3.644 -5.2109 -2.4272 -2.3160
 7978SOL     OW35569   2.179   2.476   8.801  0.2196  0.0733 -0.3200
 7978SOL    HW135570   2.142   2.564   8.796 -2.3726 -0.9372  0.6616
 7978SOL    HW235571   2.163   2.459   8.894 -1.8823  1.1337 -0.4796
 7979SOL     OW35572   3.534   0.172  10.347  0.1087 -0.2056  0.1785
 7979SOL    HW135573   3.473   0.210  10.410  1.8710  2.3688  0.3393
 7979SOL    HW235574   3.487   0.092  10.323 -0.4671 -0.4066  1.9611
 7980SOL     OW35575   3.813   3.773   8.004 -0.2682  0.1583 -0.4397
 7980SOL    HW135576   3.857   3.858   8.008  0.6023 -0.3617  1.1434
 7980SOL    HW235577   3.829   3.736   7.917 -0.9250 -0.6222 -0.2227
 7981SOL     OW35578   1.611   0.809   0.453 -0.2576  0.3548  0.3724
 7981SOL    HW135579   1.667   0.856   0.391 -1.7036  1.8963  0.2594
 7981SOL    HW235580   1.651   0.824   0.539  0.6239  0.2706 -0.0214
 7982SOL     OW35581   4.370   1.662   3.392 -0.2346 -0.2495  0.3030
 7982SOL    HW135582   4.387   1.568   3.395 -0.4134 -0.3513 -1.6833
 7982SOL    HW235583   4.292   1.664   3.336  2.0381 -1.0093 -2.9300
 7983SOL     OW35584   0.407   0.948   7.814 -0.0571  0.0605 -0.0413
 7983SOL    HW135585   0.383   0.888   7.884  0.2339  2.2755  1.9413
 7983SOL    HW235586   0.442   0.881   7.756  1.2947  1.1254 -0.4545
 7984SOL     OW35587   4.438   4.619   4.960 -0.2657 -0.4911 -0.2018
 7984SOL    HW135588   4.381   4.601   5.034  0.0346  0.1719  0.1876
 7984SOL    HW235589   4.493   4.542   4.974  1.4458  0.6378 -0.6414
 7985SOL     OW35590   4.295   4.413   7.919 -0.2086  0.3736 -0.1088
 7985SOL    HW135591   4.241   4.351   7.871 -2.9555  1.7154  1.2520
 7985SOL    HW235592   4.237   4.487   7.904 -0.6684 -0.1688 -0.9719
 7986SOL     OW35593   4.415   2.767  10.485  0.0622  0.2391 -0.0635
 7986SOL    HW135594   4.423   2.760  10.390  0.7272 -2.8017  0.2040
 7986SOL    HW235595   4.428   2.861  10.501  2.1690 -0.0576 -0.0347
 7987SOL     OW35596   1.812   2.014   6.461 -0.0819  0.0861  0.2766
 7987SOL    HW135597   1.824   2.101   6.498  1.1548 -0.0559  0.2087
 7987SOL    HW235598   1.903   1.985   6.460  0.6776  2.5154 -0.1275
 7988SOL     OW35599   2.395   2.702   1.946  0.1949  0.0793 -0.2104
 7988SOL    HW135600   2.399   2.674   2.038  0.6306  0.1399 -0.2123
 7988SOL    HW235601   2.483   2.680   1.916  0.8668  1.2027  0.9183
 7989SOL     OW35602   1.213   3.049   2.278  0.0339  0.0290  0.0315
 7989SOL    HW135603   1.137   3.019   2.228 -0.9187  4.6571 -1.2955
 7989SOL    HW235604   1.271   3.089   2.213  1.2649  1.2320  1.8755
 7990SOL     OW35605   2.544   1.307   7.792  0.0438 -0.0236  0.2769
 7990SOL    HW135606   2.570   1.293   7.701  0.7297 -1.5782  0.7143
 7990SOL    HW235607   2.587   1.389   7.817 -0.1653  0.0055  0.5474
 7991SOL     OW35608   2.117   0.829   6.962  0.2504  0.1449  0.1340
 7991SOL    HW135609   2.147   0.918   6.943  1.2841 -0.1789  0.2301
 7991SOL    HW235610   2.023   0.841   6.949  0.2844  0.2536 -0.0131
 7992SOL     OW35611   1.331   4.731   9.387  0.3654  0.1973  0.2326
 7992SOL    HW135612   1.303   4.654   9.336  0.1368  0.1704  0.3937
 7992SOL    HW235613   1.292   4.712   9.472  0.7898  0.7557  0.5487
 7993SOL     OW35614   1.213   2.686   7.761  0.0475  0.0761  0.2487
 7993SOL    HW135615   1.276   2.752   7.792  1.1345 -1.3675  1.1165
 7993SOL    HW235616   1.241   2.686   7.669 -1.2744 -1.0366 -0.1487
 7994SOL     OW35617   1.749   4.070   4.788 -0.7771  0.1452 -0.5221
 7994SOL    HW135618   1.670   4.020   4.808 -1.5133  1.4336 -0.1903
 7994SOL    HW235619   1.795   3.997   4.747 -2.7886 -0.6850 -1.3409
 7995SOL     OW35620   0.069   3.327  11.150  0.0440  0.1385 -0.6109
 7995SOL    HW135621   0.025   3.265  11.092 -0.8291 -1.2918  1.5599
 7995SOL    HW235622   0.024   3.309  11.233  0.1308  0.8870 -0.4043
 7996SOL     OW35623   2.719   3.541   4.434  0.0213  0.3767  0.3267
 7996SOL    HW135624   2.636   3.584   4.456 -0.2686  0.6325 -1.2845
 7996SOL    HW235625   2.721   3.482   4.510 -0.5578 -0.2998 -0.1944
 7997SOL     OW35626   2.896   4.701   2.148 -0.0762 -0.3394  0.6311
 7997SOL    HW135627   2.844   4.715   2.069  1.9595  0.0009 -0.6417
 7997SOL    HW235628   2.985   4.732   2.128  0.6795 -1.5009  2.1440
 7998SOL     OW35629   3.737   3.684   3.616  0.2829  1.0485  0.4248
 7998SOL    HW135630   3.828   3.657   3.628  0.1022  0.0805 -0.3522
 7998SOL    HW235631   3.702   3.614   3.561 -0.8428  1.9531 -0.0237
 7999SOL     OW35632   4.370   3.205   5.493  0.2402 -0.7869  0.3399
 7999SOL    HW135633   4.350   3.236   5.405 -1.0213  2.2894  1.7349
 7999SOL    HW235634   4.289   3.156   5.505  0.3726 -1.6446 -2.3252
 8000SOL     OW35635   1.709   3.567   3.466 -0.2035 -0.2911 -0.8619
 8000SOL    HW135636   1.684   3.511   3.539 -2.2768 -1.1220 -2.2106
 8000SOL    HW235637   1.786   3.615   3.496 -1.7059  1.4919  0.0824
 8001SOL     OW35638   3.799   3.016   7.224 -0.2239  0.4614  0.1312
 8001SOL    HW135639   3.758   2.939   7.184 -0.4658  0.0288  1.2012
 8001SOL    HW235640   3.847   2.976   7.296  0.9143  0.3144 -0.7231
 8002SOL     OW35641   1.906   4.430  10.544 -0.5858  0.3157 -0.2681
 8002SOL    HW135642   1.948   4.353  10.506  2.6005  2.1293 -0.4033
 8002SOL    HW235643   1.839   4.391  10.600  1.1826 -0.9203  1.0046
 8003SOL     OW35644   2.876   3.305   3.501 -0.1523  0.5288  0.0379
 8003SOL    HW135645   2.792   3.297   3.456  1.2018 -2.7374 -1.8735
 8003SOL    HW235646   2.929   3.351   3.437 -0.2151  0.4401 -0.0787
 8004SOL     OW35647   1.430   4.004  13.782  0.0624  0.7878  0.6754
 8004SOL    HW135648   1.372   4.024  13.855 -0.2291  0.4619  0.5351
 8004SOL    HW235649   1.362   3.988  13.716 -0.2852 -0.5588  1.3413
 8005SOL     OW35650   2.791   2.563  16.504 -0.4609 -0.0607 -0.1724
 8005SOL    HW135651   2.770   2.656  16.504  2.0551  0.5154  0.4659
 8005SOL    HW235652   2.814   2.546  16.595 -0.2127  2.0598  0.1498
 8006SOL     OW35653   0.040   2.617   9.781 -0.0101  0.1003  0.1663
 8006SOL    HW135654   4.716   2.558   9.735 -0.9952  2.9528 -2.2336
 8006SOL    HW235655   0.059   2.677   9.708 -2.1855 -2.3653 -2.4443
 8007SOL     OW35656   2.081   2.236  16.854  0.4518 -0.0750  0.1677
 8007SOL    HW135657   2.061   2.235  16.761 -1.2041  1.1123  0.5234
 8007SOL    HW235658   2.006   2.196  16.897  1.6039  0.0101  2.2931
 8008SOL     OW35659   3.689   1.793   5.531  0.0478  0.0611  0.5676
 8008SOL    HW135660   3.697   1.884   5.503 -1.1516 -0.7662 -2.3931
 8008SOL    HW235661   3.616   1.775   5.472 -0.5049 -1.1789  1.6197
 8009SOL     OW35662   0.548   4.642   5.932  0.0315 -0.0874 -0.4265
 8009SOL    HW135663   0.602   4.719   5.914  0.2975  0.5148  3.0694
 8009SOL    HW235664   0.592   4.589   5.997  3.2082  2.2652 -0.6462
 8010SOL     OW35665   3.511   4.146  12.218 -0.2132 -0.1093 -0.4881
 8010SOL    HW135666   3.579   4.214  12.219  1.8766 -2.2033  0.4916
 8010SOL    HW235667   3.445   4.166  12.284  1.2414 -0.8771  1.2266
 8011SOL     OW35668   1.484   0.911   2.107  0.8220 -0.3796  0.5374
 8011SOL    HW135669   1.454   0.876   2.024 -0.6452  0.3438  0.7582
 8011SOL    HW235670   1.577   0.914   2.083  0.7421 -0.3066  0.2493
 8012SOL     OW35671   1.207   3.603  16.278  0.4139 -0.1205  0.0267
 8012SOL    HW135672   1.147   3.540  16.239 -1.6970  1.4930  0.6751
 8012SOL    HW235673   1.295   3.566  16.274 -0.1937 -1.5547 -0.0552
 8013SOL     OW35674   2.082   1.574  17.389 -0.6147 -0.3136  0.3598
 8013SOL    HW135675   2.166   1.618  17.375  0.3173 -1.5226  2.1072
 8013SOL    HW235676   2.037   1.642  17.440  0.4284  0.4960  0.1980
 8014SOL     OW35677   3.795   3.765   4.690  0.2773  0.1349 -0.3522
 8014SOL    HW135678   3.815   3.790   4.600 -1.7941 -1.5878 -1.2975
 8014SOL    HW235679   3.880   3.731   4.719 -0.8326 -1.4682  0.9787
 8015SOL     OW35680   4.246   4.262  16.271 -0.1347 -0.1134  0.3183
 8015SOL    HW135681   4.291   4.192  16.318  1.0206 -0.7253 -1.7152
 8015SOL    HW235682   4.317   4.291  16.214  2.2227 -1.6817  2.4988
 8016SOL     OW35683   0.591   0.535   1.794 -0.3470  0.6637  0.4194
 8016SOL    HW135684   0.564   0.572   1.710  2.3050 -1.0734 -1.2045
 8016SOL    HW235685   0.509   0.489   1.814 -0.2309 -0.3517 -1.4649
 8017SOL     OW35686   2.752   0.252  12.639 -0.2783  0.5736  0.2231
 8017SOL    HW135687   2.683   0.200  12.596  1.3930 -1.2205 -0.3123
 8017SOL    HW235688   2.737   0.210  12.724  0.6034  0.3665  0.2680
 8018SOL     OW35689   4.528   1.187   5.883 -0.2616 -1.1223 -0.4019
 8018SOL    HW135690   4.570   1.105   5.860  1.0833 -0.9981  1.5858
 8018SOL    HW235691   4.600   1.236   5.923 -1.7967  1.2546 -0.5247
 8019SOL     OW35692   0.480   4.281   6.692  0.0391 -0.6238  0.5547
 8019SOL    HW135693   0.524   4.329   6.622 -1.3242  2.1551  1.5908
 8019SOL    HW235694   0.399   4.275   6.641  1.1903 -0.7781 -1.2546
 8020SOL     OW35695   4.524   4.166   4.627  0.3830  0.4537  0.0639
 8020SOL    HW135696   4.476   4.138   4.705 -0.2272 -0.1585 -0.5253
 8020SOL    HW235697   4.502   4.091   4.572  1.3931 -1.3192  2.1036
 8021SOL     OW35698   4.126   2.650  13.667  0.0863 -0.7542  0.4955
 8021SOL    HW135699   4.196   2.685  13.722  0.5397  2.0621 -1.8566
 8021SOL    HW235700   4.149   2.718  13.604  1.8594 -1.7028  0.1255
 8022SOL     OW35701   1.401   3.418   5.407  0.1596 -0.7709 -0.2745
 8022SOL    HW135702   1.387   3.324   5.401 -2.6480 -0.3594 -0.2052
 8022SOL    HW235703   1.314   3.439   5.442 -0.4388 -2.8335 -0.5399
 8023SOL     OW35704   2.030   4.698   3.942 -0.8664 -0.4354  0.0001
 8023SOL    HW135705   2.036   4.652   4.025  0.5392 -1.2638 -0.5559
 8023SOL    HW235706   2.119   4.733   3.934 -1.4729  1.1782  0.3393
 8024SOL     OW35707   4.546   4.203  17.708 -0.1867 -0.1354 -0.2579
 8024SOL    HW135708   4.641   4.213  17.710 -0.2263  0.6049 -1.7633
 8024SOL    HW235709   4.522   4.186   0.056  0.4878  1.4507  0.2228
 8025SOL     OW35710   1.270   1.039   3.538 -0.2189 -0.1752  0.2868
 8025SOL    HW135711   1.323   0.975   3.584 -0.7026 -1.4624 -0.9617
 8025SOL    HW235712   1.301   1.030   3.448  0.0048  0.1300  0.3354
 8026SOL     OW35713   3.864   1.832   5.931  0.1269 -0.7972  0.0140
 8026SOL    HW135714   3.780   1.823   5.887  0.0015  1.8974 -0.2616
 8026SOL    HW235715   3.859   1.912   5.984  0.6429 -0.1373 -0.9392
 8027SOL     OW35716   3.374   3.022   8.313 -0.4957 -0.2118 -0.5698
 8027SOL    HW135717   3.355   2.938   8.273 -2.5772 -0.1049  0.2138
 8027SOL    HW235718   3.310   3.074   8.264 -1.0475  2.0674  2.5965
 8028SOL     OW35719   2.989   2.937  15.768 -0.2344 -0.5446  0.3408
 8028SOL    HW135720   2.914   2.920  15.711  0.8885  0.2646 -1.3874
 8028SOL    HW235721   2.985   2.857  15.820 -2.3814  0.0969  1.1636
 8029SOL     OW35722   3.715   4.013   4.269  0.1697 -0.2758 -0.0970
 8029SOL    HW135723   3.745   4.069   4.198 -0.0623  1.2102  0.9643
 8029SOL    HW235724   3.760   4.063   4.338 -0.6813 -1.8944  1.6360
 8030SOL     OW35725   3.501   4.372   3.839 -0.2483 -0.2565  0.2513
 8030SOL    HW135726   3.520   4.330   3.755  0.2632  0.2625  0.1089
 8030SOL    HW235727   3.551   4.453   3.832  0.0460 -0.2975  1.8528
 8031SOL     OW35728   2.824   0.145   3.949 -0.4147  0.6442 -0.1401
 8031SOL    HW135729   2.835   0.200   4.026 -2.7369 -0.0141  0.6888
 8031SOL    HW235730   2.729   0.156   3.942 -0.4455 -0.6914 -1.6473
 8032SOL     OW35731   0.455   3.369   8.036 -0.3809 -0.4833  0.0535
 8032SOL    HW135732   0.521   3.357   7.968 -1.0128 -2.1540 -0.2540
 8032SOL    HW235733   0.453   3.463   8.055 -0.6333 -0.1219 -1.7426
 8033SOL     OW35734   2.666   2.346   1.810 -0.3575  0.0182 -0.5765
 8033SOL    HW135735   2.611   2.276   1.845 -1.1508  0.3061 -1.2401
 8033SOL    HW235736   2.743   2.296   1.781 -0.3844  0.1822 -0.9301
 8034SOL     OW35737   2.395   3.043   8.402 -0.0080  0.4133 -0.0794
 8034SOL    HW135738   2.387   2.973   8.337 -2.0652 -0.2178  0.8749
 8034SOL    HW235739   2.433   3.001   8.479 -0.4150  0.1453 -0.0248
 8035SOL     OW35740   3.076   3.856   8.306 -0.1068 -0.2329  0.0887
 8035SOL    HW135741   3.114   3.770   8.288 -0.8811 -0.5715  0.0720
 8035SOL    HW235742   3.020   3.830   8.379  0.5256 -2.3240 -0.1785
 8036SOL     OW35743   4.689   2.042   6.943  0.5072  0.7207 -0.2311
 8036SOL    HW135744   4.657   2.058   6.854 -2.9205  0.8595  1.0486
 8036SOL    HW235745   4.687   1.947   6.931 -0.2832  0.7637 -0.4177
 8037SOL     OW35746   2.731   2.384   3.019  0.0988 -0.4559 -0.1570
 8037SOL    HW135747   2.781   2.308   3.049 -0.2822 -1.2104 -1.4095
 8037SOL    HW235748   2.662   2.389   3.085  0.6861 -1.3790  0.5428
 8038SOL     OW35749   3.853   3.362   1.308 -0.2668 -0.2558  0.2013
 8038SOL    HW135750   3.913   3.300   1.349  1.5093  2.4038  1.6567
 8038SOL    HW235751   3.845   3.424   1.381  0.6287  0.4188 -0.2732
 8039SOL     OW35752   3.431   0.088   7.218 -0.6135  0.4718 -0.1446
 8039SOL    HW135753   3.422   0.175   7.256 -0.6814 -0.8406  2.8206
 8039SOL    HW235754   3.346   0.080   7.174  1.1034 -2.1386 -3.0204
 8040SOL     OW35755   0.393   1.293   0.779 -0.4635 -0.1325  0.5724
 8040SOL    HW135756   0.340   1.371   0.792 -1.5531 -0.6272 -0.9298
 8040SOL    HW235757   0.328   1.223   0.772  1.4034 -1.8003 -0.3261
 8041SOL     OW35758   0.578   3.125   3.750  0.1585 -0.2420 -0.1416
 8041SOL    HW135759   0.500   3.167   3.786 -1.9673 -3.1766 -1.3986
 8041SOL    HW235760   0.581   3.147   3.657  2.0975 -1.2649 -0.3171
 8042SOL     OW35761   1.005   0.621   3.678  0.2123 -0.4609 -0.1827
 8042SOL    HW135762   0.914   0.649   3.684  0.7760  1.3506 -0.1577
 8042SOL    HW235763   1.001   0.615   3.582 -0.4189 -0.5732 -0.1487
 8043SOL     OW35764   3.082   0.507   5.768  0.3294 -0.7521 -0.1590
 8043SOL    HW135765   3.136   0.521   5.690  0.6053 -1.9763 -0.1921
 8043SOL    HW235766   3.114   0.584   5.814  1.3336 -0.5194 -1.2394
 8044SOL     OW35767   3.769   3.995   9.605 -0.3761  0.4314 -0.2133
 8044SOL    HW135768   3.747   3.979   9.697 -0.3075  2.2564  0.1284
 8044SOL    HW235769   3.809   4.081   9.620 -1.9574  0.8064  1.9605
 8045SOL     OW35770   1.995   4.733   1.316  0.4154  0.5483 -0.3657
 8045SOL    HW135771   1.981   4.687   1.233  1.4799  0.5709 -0.5579
 8045SOL    HW235772   2.063   4.679   1.357  1.6330  1.2603 -1.4519
 8046SOL     OW35773   1.074   3.421   3.076  0.1749 -0.5302  0.1622
 8046SOL    HW135774   1.006   3.433   3.009  0.5183 -0.2325 -0.1344
 8046SOL    HW235775   1.136   3.493   3.060  1.0364 -0.6340  3.1606
 8047SOL     OW35776   0.787   3.399   3.271  0.1296  0.1600 -0.0860
 8047SOL    HW135777   0.879   3.406   3.244 -0.1505 -1.4977 -1.4255
 8047SOL    HW235778   0.760   3.467   3.209 -2.1966 -0.8386 -0.1736
 8048SOL     OW35779   3.875   2.293  13.644  0.0520  0.4664  0.0168
 8048SOL    HW135780   3.937   2.363  13.659  0.5707 -0.1332  0.6654
 8048SOL    HW235781   3.866   2.279  13.738  1.5011 -1.2968 -0.0998
 8049SOL     OW35782   4.076   4.015  12.143 -0.2652 -0.0767  0.6165
 8049SOL    HW135783   4.089   4.043  12.234 -2.3137 -0.7589  1.1052
 8049SOL    HW235784   4.128   4.082  12.099 -0.8815 -0.0951 -0.1197
 8050SOL     OW35785   4.453   2.915   1.044 -0.4328  0.1346  0.0997
 8050SOL    HW135786   4.369   2.872   1.024 -0.1782 -0.7556  0.9567
 8050SOL    HW235787   4.449   2.911   1.140  2.1997  0.0047  0.1915
 8051SOL     OW35788   3.667   0.641   3.109 -0.3485  0.1357 -0.0420
 8051SOL    HW135789   3.696   0.553   3.083 -0.0828  0.7674 -1.9084
 8051SOL    HW235790   3.606   0.621   3.180  0.1007 -0.5455  0.1551
 8052SOL     OW35791   2.643   2.029  11.107 -0.0618 -0.1814  0.1829
 8052SOL    HW135792   2.699   1.966  11.152  0.6350 -0.2898 -0.8168
 8052SOL    HW235793   2.704   2.071  11.046 -0.5296  3.1874  2.0654
 8053SOL     OW35794   3.622   3.282   3.237 -0.2685  0.1231  0.1966
 8053SOL    HW135795   3.535   3.312   3.263  0.7993  2.3325  1.1911
 8053SOL    HW235796   3.617   3.193   3.273  2.1745 -1.0332 -2.3016
 8054SOL     OW35797   1.031   3.670   4.451  0.6177 -0.0009 -0.3463
 8054SOL    HW135798   1.057   3.746   4.502 -2.2236  0.5979  0.2194
 8054SOL    HW235799   1.115   3.633   4.423  1.4251  0.2610  1.7390
 8055SOL     OW35800   4.437   2.542   9.198  0.4184 -0.0695  0.0342
 8055SOL    HW135801   4.392   2.622   9.168  0.4244 -0.2927 -0.5790
 8055SOL    HW235802   4.506   2.587   9.246  0.0420  1.3319 -0.7302
 8056SOL     OW35803   2.248   1.098   2.534 -0.6131 -0.2817 -0.0221
 8056SOL    HW135804   2.316   1.047   2.490 -1.0607 -1.2216  0.3926
 8056SOL    HW235805   2.307   1.137   2.599  1.1891  0.4042 -2.0707
 8057SOL     OW35806   1.412   2.286   2.657 -0.1653  0.1531  0.7436
 8057SOL    HW135807   1.322   2.280   2.625 -0.4234 -2.1058  1.8437
 8057SOL    HW235808   1.439   2.375   2.637  1.1864 -0.0767  1.5949
 8058SOL     OW35809   1.025   4.476   4.511 -0.3510  0.2117  0.3044
 8058SOL    HW135810   1.049   4.523   4.591  0.9794 -0.3024  0.2032
 8058SOL    HW235811   0.933   4.450   4.523 -0.1254 -1.6129 -1.8052
 8059SOL     OW35812   2.063   0.159   5.196  0.0521  0.2036  0.5679
 8059SOL    HW135813   2.005   0.197   5.262 -1.9299  0.5173 -1.3690
 8059SOL    HW235814   2.015   0.205   5.128  0.3431  1.1168  0.9839
 8060SOL     OW35815   1.483   3.704   3.243  0.1706 -0.3741 -0.0077
 8060SOL    HW135816   1.558   3.752   3.209 -0.1986 -0.1442 -0.4869
 8060SOL    HW235817   1.533   3.663   3.314 -0.1435  0.1539  0.5196
 8061SOL     OW35818   3.900   1.804   7.805  0.8460  0.0802  0.0776
 8061SOL    HW135819   3.976   1.861   7.797  0.4994  0.3235 -1.4437
 8061SOL    HW235820   3.934   1.730   7.855 -2.0167 -1.9951 -1.0351
 8062SOL     OW35821   2.346   2.270  14.560  0.3362 -0.0668  0.0830
 8062SOL    HW135822   2.291   2.269  14.482  0.6859 -0.9816 -0.1603
 8062SOL    HW235823   2.383   2.182  14.562 -0.7004 -0.4833  1.3583
 8063SOL     OW35824   1.585   0.440  14.060  0.2944  0.2627  0.3243
 8063SOL    HW135825   1.528   0.402  14.128  0.5798 -0.5874  0.0937
 8063SOL    HW235826   1.648   0.368  14.069  1.4301  1.1019 -1.0931
 8064SOL     OW35827   3.269   1.104   6.325 -0.3666 -0.0215 -0.6724
 8064SOL    HW135828   3.340   1.143   6.274 -0.1182  0.9217  0.3932
 8064SOL    HW235829   3.296   1.014   6.344 -2.7262 -0.5762 -0.0361
 8065SOL     OW35830   0.425   2.741   4.431  0.8332 -0.0470  0.5347
 8065SOL    HW135831   0.441   2.660   4.383  0.2198 -0.0090  0.2661
 8065SOL    HW235832   0.341   2.767   4.394  0.8199 -2.4203 -1.1333
 8066SOL     OW35833   0.311   1.300   2.310  0.7574 -0.0504 -0.0761
 8066SOL    HW135834   0.297   1.319   2.403 -0.2716 -0.9408 -0.0447
 8066SOL    HW235835   0.272   1.214   2.297 -1.0358  1.0361 -1.8893
 8067SOL     OW35836   2.044   1.857   1.804  0.0239  0.1126 -0.1284
 8067SOL    HW135837   2.015   1.766   1.807 -1.0196  0.5435  3.0702
 8067SOL    HW235838   2.106   1.861   1.731  0.8509 -0.4023  0.5509
 8068SOL     OW35839   1.319   0.778   4.363  0.2142 -0.6204  0.1239
 8068SOL    HW135840   1.350   0.712   4.425  1.2074  0.2232  0.5148
 8068SOL    HW235841   1.232   0.790   4.403 -1.0338 -1.1945 -2.3957
 8069SOL     OW35842   4.458   2.478  10.306  0.4664  0.0622  0.3795
 8069SOL    HW135843   4.426   2.488  10.395  1.4877 -3.8589  1.1853
 8069SOL    HW235844   4.423   2.558  10.267 -1.0866  0.1667  1.9883
 8070SOL     OW35845   0.090   4.629   5.830  0.0389 -0.5432  0.0017
 8070SOL    HW135846   0.032   4.649   5.757  2.0936  1.3577 -1.1363
 8070SOL    HW235847   0.018   4.624   5.893 -1.8560  1.5508 -2.0143
 8071SOL     OW35848   1.393   4.282   9.160 -0.4220  0.1816  0.1876
 8071SOL    HW135849   1.395   4.233   9.078 -0.9555  2.9325 -1.4604
 8071SOL    HW235850   1.485   4.307   9.172 -0.0423 -0.8529 -0.5031
 8072SOL     OW35851   2.476   4.548  15.340  0.2023 -0.5589  0.2054
 8072SOL    HW135852   2.569   4.531  15.321  0.4261 -1.5104  2.0674
 8072SOL    HW235853   2.437   4.471  15.297  0.1466  0.4895 -1.5974
 8073SOL     OW35854   3.220   2.457   5.108  0.0618 -0.2441  0.3478
 8073SOL    HW135855   3.242   2.544   5.143 -1.6638  0.5599 -0.5864
 8073SOL    HW235856   3.147   2.469   5.048  0.2732 -0.7083 -0.0029
 8074SOL     OW35857   0.407   1.444   7.035 -0.2317 -0.3080  0.0263
 8074SOL    HW135858   0.324   1.411   7.072  0.1133 -0.1700  0.9393
 8074SOL    HW235859   0.451   1.480   7.112  0.9680 -0.8718 -0.3973
 8075SOL     OW35860   0.312   4.378   5.006 -0.4946  0.5448 -0.6726
 8075SOL    HW135861   0.383   4.431   4.969 -0.0079  1.3923  1.4467
 8075SOL    HW235862   0.282   4.431   5.080 -0.8183  0.4711 -0.7515
 8076SOL     OW35863   3.271   4.458   1.484 -0.3681  0.1430  0.1107
 8076SOL    HW135864   3.296   4.392   1.419 -1.9953 -1.7841  1.4347
 8076SOL    HW235865   3.328   4.442   1.559  1.0303  0.4521 -0.8653
 8077SOL     OW35866   2.820   1.088  14.532  0.1531 -0.0482  0.1734
 8077SOL    HW135867   2.890   1.111  14.471 -1.4981 -0.8258 -1.9767
 8077SOL    HW235868   2.805   1.172  14.576 -0.6981 -0.6368  0.9963
 8078SOL     OW35869   3.165   3.604   3.771 -0.1928 -0.2890  0.1659
 8078SOL    HW135870   3.194   3.693   3.789 -0.3356 -0.6280  2.0351
 8078SOL    HW235871   3.086   3.620   3.719  0.3532  2.8232  0.3326
 8079SOL     OW35872   4.170   1.260  12.276  0.8034 -0.5128  0.3294
 8079SOL    HW135873   4.125   1.180  12.248  0.9444 -0.4499 -0.0666
 8079SOL    HW235874   4.095   1.313  12.306 -0.0248 -0.5244 -1.7663
 8080SOL     OW35875   2.129   3.222   3.971 -0.0247  0.0385 -0.3427
 8080SOL    HW135876   2.070   3.187   4.037 -0.4957  2.2719  0.4069
 8080SOL    HW235877   2.078   3.237   3.891  0.7494  0.3045 -0.7943
 8081SOL     OW35878   4.394   0.762   4.818 -0.1650 -0.3888 -0.0320
 8081SOL    HW135879   4.476   0.805   4.793  0.8636 -1.8049  0.9273
 8081SOL    HW235880   4.426   0.672   4.821 -0.9519 -0.6263  1.0935
 8082SOL     OW35881   3.514   4.575   3.224  0.0628  0.3378  0.1425
 8082SOL    HW135882   3.522   4.662   3.265  1.3718  1.0040 -1.5022
 8082SOL    HW235883   3.453   4.526   3.279  1.7773 -0.3530  1.4278
 8083SOL     OW35884   0.994   4.120   9.155 -0.1055 -0.1990  0.4562
 8083SOL    HW135885   1.013   4.187   9.220  1.9536 -0.8279  0.4960
 8083SOL    HW235886   1.046   4.049   9.193 -0.0362  0.1303  0.9678
 8084SOL     OW35887   2.346   0.508   3.286  0.3051 -0.4483  0.5434
 8084SOL    HW135888   2.427   0.554   3.308 -0.3940  1.6652 -1.3312
 8084SOL    HW235889   2.290   0.582   3.262  1.8335  0.1343 -1.2709
 8085SOL     OW35890   2.270   3.965   4.098 -0.4323  0.0710 -0.5601
 8085SOL    HW135891   2.184   4.007   4.095 -0.5392 -0.0496  0.8423
 8085SOL    HW235892   2.298   3.980   4.188  0.6114 -0.9111 -0.7216
 8086SOL     OW35893   2.393   4.416   6.501 -0.2939 -0.0315  0.0470
 8086SOL    HW135894   2.340   4.395   6.578  0.1607 -1.5146 -0.0373
 8086SOL    HW235895   2.377   4.510   6.493 -1.1617 -0.1515  0.3282
 8087SOL     OW35896   1.987   2.116   4.827 -0.9229 -0.0662 -0.4896
 8087SOL    HW135897   1.947   2.037   4.865  0.3982 -0.7290 -0.5002
 8087SOL    HW235898   1.957   2.108   4.737 -1.1438  1.6360 -0.5680
 8088SOL     OW35899   2.064   4.420   7.907 -0.0100 -0.0676  0.5103
 8088SOL    HW135900   2.145   4.382   7.873 -0.4573  1.2409 -2.1185
 8088SOL    HW235901   2.100   4.460   7.986  1.9984  0.5722 -0.7188
 8089SOL     OW35902   3.654   2.776   7.521  0.7098 -0.1832  0.3681
 8089SOL    HW135903   3.714   2.725   7.467  2.0887  0.8914  0.8935
 8089SOL    HW235904   3.718   2.793   7.590 -0.2203 -0.3556  1.2959
 8090SOL     OW35905   1.557   1.808   8.299  0.5922  0.3221 -0.4019
 8090SOL    HW135906   1.556   1.749   8.224 -2.3165 -1.5373  1.1357
 8090SOL    HW235907   1.619   1.773   8.363 -0.1662 -1.8812 -0.8700
 8091SOL     OW35908   1.820   3.839  14.977  0.6024 -0.0353 -0.4623
 8091SOL    HW135909   1.840   3.863  14.886  1.0424  0.5916 -0.2056
 8091SOL    HW235910   1.882   3.896  15.024  1.8776  0.3553 -2.6067
 8092SOL     OW35911   2.465   4.601   6.170 -0.0577 -0.3983  0.1033
 8092SOL    HW135912   2.552   4.630   6.200 -0.1778  0.5859 -0.5379
 8092SOL    HW235913   2.405   4.671   6.193 -1.0344 -0.9585 -0.7267
 8093SOL     OW35914   0.951   0.678   9.860 -0.0583 -0.3231  0.2082
 8093SOL    HW135915   0.954   0.603   9.919 -1.1594 -0.0363  0.6327
 8093SOL    HW235916   0.859   0.679   9.833 -0.0154 -1.1173  0.0202
 8094SOL     OW35917   2.792   3.471   8.540 -0.2059 -0.3360  0.5255
 8094SOL    HW135918   2.726   3.403   8.525 -0.4690 -0.0340  0.3224
 8094SOL    HW235919   2.871   3.418   8.552  0.5611  0.8441  0.6154
 8095SOL     OW35920   3.384   3.214   6.338 -0.1030 -0.2023  0.9872
 8095SOL    HW135921   3.364   3.131   6.295 -2.7595  0.9136  0.0266
 8095SOL    HW235922   3.467   3.208   6.386  1.5999  2.1626 -1.6665
 8096SOL     OW35923   0.454   4.262   8.480 -0.5677  0.3479  0.2984
 8096SOL    HW135924   0.375   4.217   8.451 -0.8647 -0.9959  3.2427
 8096SOL    HW235925   0.505   4.186   8.509 -2.8871 -0.5080  2.1091
 8097SOL     OW35926   1.490   1.536   3.654  0.2893 -0.2291  0.1296
 8097SOL    HW135927   1.403   1.544   3.614  0.2804  0.7202  0.3281
 8097SOL    HW235928   1.522   1.623   3.630 -0.7737 -0.3191 -1.5872
 8098SOL     OW35929   0.881   3.587   8.878 -0.1439  0.0026  0.4677
 8098SOL    HW135930   0.925   3.658   8.926 -1.4514  1.3962 -0.3937
 8098SOL    HW235931   0.896   3.616   8.788  0.9380 -1.3913  0.2013
 8099SOL     OW35932   1.337   3.484   4.179 -0.2714  0.1411 -0.3392
 8099SOL    HW135933   1.325   3.527   4.264 -0.1266  2.9028 -1.7165
 8099SOL    HW235934   1.265   3.506   4.120 -0.3900 -1.0057 -0.6238
 8100SOL     OW35935   0.467   4.648   1.278 -0.2638 -0.3156  0.2938
 8100SOL    HW135936   0.562   4.658   1.287 -0.2511  0.6210 -0.9237
 8100SOL    HW235937   0.446   4.725   1.226 -0.7868 -0.5837  0.1050
 8101SOL     OW35938   4.036   0.053   8.028 -0.1228  0.4831  0.4267
 8101SOL    HW135939   3.993   0.128   7.986 -1.8585  0.2490  1.7971
 8101SOL    HW235940   4.008   0.074   8.117 -1.0977 -1.3021  0.5382
 8102SOL     OW35941   1.716   1.113   2.751 -0.4269  0.2961 -0.4485
 8102SOL    HW135942   1.773   1.159   2.689 -0.0765 -0.3255 -0.5933
 8102SOL    HW235943   1.655   1.184   2.769 -0.2482  0.2261  0.4254
 8103SOL     OW35944   4.615   0.322   6.832  0.1769  0.1306  0.0315
 8103SOL    HW135945   4.674   0.297   6.761 -0.5926 -1.1768 -0.1620
 8103SOL    HW235946   4.538   0.282   6.790 -0.9888 -0.3784  2.6664
 8104SOL     OW35947   0.963   0.818   5.385  0.2811  0.3623  0.3155
 8104SOL    HW135948   0.996   0.776   5.465 -0.3977 -0.7080  0.0378
 8104SOL    HW235949   0.920   0.741   5.347  1.1194  0.0301  0.0402
 8105SOL     OW35950   1.215   3.896   3.591  0.0797  0.1271  0.1568
 8105SOL    HW135951   1.163   3.903   3.512  1.5664  1.5009 -0.7031
 8105SOL    HW235952   1.138   3.905   3.648 -1.0043  0.8118 -1.4332
 8106SOL     OW35953   3.775   0.253   5.968  0.2848 -0.2005 -0.5439
 8106SOL    HW135954   3.688   0.215   5.981  0.2961 -0.2815 -0.7120
 8106SOL    HW235955   3.784   0.241   5.874  2.2025 -2.3843 -0.0963
 8107SOL     OW35956   1.898   1.405   8.679 -0.5958 -0.0547 -0.3412
 8107SOL    HW135957   1.972   1.464   8.663 -0.3118 -0.1600  0.6334
 8107SOL    HW235958   1.874   1.437   8.765  2.5324 -0.6345  0.7244
 8108SOL     OW35959   0.826   4.315   9.496  0.0633 -0.2510  0.9026
 8108SOL    HW135960   0.738   4.278   9.490 -0.9689  2.1586  1.3642
 8108SOL    HW235961   0.828   4.350   9.585 -2.2572  1.4422  0.2910
 8109SOL     OW35962   4.391   2.626  13.546  0.6217  0.6674 -0.6644
 8109SOL    HW135963   4.382   2.532  13.530 -1.6497  0.6886  0.4922
 8109SOL    HW235964   4.374   2.659  13.458  1.3526 -0.6773 -1.3157
 8110SOL     OW35965   0.688   0.460   4.093  0.5866  0.0049 -0.4437
 8110SOL    HW135966   0.734   0.544   4.096  0.1934  0.1913  0.2852
 8110SOL    HW235967   0.623   0.484   4.027 -0.7125 -1.8127  0.1727
 8111SOL     OW35968   1.303   3.702   6.393 -0.0727 -0.2553  0.0937
 8111SOL    HW135969   1.229   3.653   6.357  0.5147 -0.5687 -0.6832
 8111SOL    HW235970   1.365   3.639   6.358  2.1927  1.0329  1.8177
 8112SOL     OW35971   3.082   1.678  15.463  0.1251 -0.3501 -0.5015
 8112SOL    HW135972   3.126   1.763  15.466  0.2815 -0.4503  0.0109
 8112SOL    HW235973   3.144   1.624  15.416  1.5599 -0.0961  1.0953
 8113SOL     OW35974   3.387   2.251   4.065  0.3316 -0.1744 -0.1668
 8113SOL    HW135975   3.423   2.275   4.150 -0.7942  1.5776 -0.1909
 8113SOL    HW235976   3.310   2.305   4.050  0.4843  0.2770  0.6665
 8114SOL     OW35977   1.906   1.359   0.831  0.1254 -0.3839 -0.3929
 8114SOL    HW135978   1.866   1.313   0.757  0.9352 -0.3374 -0.8584
 8114SOL    HW235979   2.000   1.356   0.812 -0.0599 -1.3062 -1.1828
 8115SOL     OW35980   3.555   2.476  16.131  0.4241  0.2776  0.3151
 8115SOL    HW135981   3.590   2.490  16.043  2.1497  0.9050  1.1005
 8115SOL    HW235982   3.606   2.401  16.161  0.3812  0.6060  1.2003
 8116SOL     OW35983   3.127   0.542   6.092 -0.1350 -0.2738  0.4804
 8116SOL    HW135984   3.152   0.599   6.020 -0.4417  1.1920  1.5427
 8116SOL    HW235985   3.107   0.597   6.167 -0.5299 -0.9474  0.8664
 8117SOL     OW35986   1.878   2.153   2.644 -0.1700  0.2159  0.0382
 8117SOL    HW135987   1.945   2.196   2.590  0.0548 -1.3879 -0.9398
 8117SOL    HW235988   1.813   2.223   2.635 -1.4004 -1.1453 -1.4981
 8118SOL     OW35989   1.592   2.924   4.756 -0.3305  0.0708  0.0230
 8118SOL    HW135990   1.505   2.950   4.725  0.6061 -1.2288 -3.7032
 8118SOL    HW235991   1.630   3.003   4.795  0.5677 -0.6646  0.6516
 8119SOL     OW35992   1.837   2.378   4.647 -0.2369 -0.0231 -0.0555
 8119SOL    HW135993   1.766   2.389   4.711  0.7731  2.0560  0.6808
 8119SOL    HW235994   1.912   2.350   4.700 -1.2418 -0.7909  0.9818
 8120SOL     OW35995   2.274   3.305   7.663  0.6281  0.1399 -0.1884
 8120SOL    HW135996   2.260   3.212   7.645  1.8317 -0.2269  0.7734
 8120SOL    HW235997   2.367   3.315   7.681  1.1308 -1.7430 -1.7073
 8121SOL     OW35998   4.349   2.148  14.991  0.7143  0.4594 -0.1068
 8121SOL    HW135999   4.318   2.084  15.054  0.6810 -0.4922 -1.0894
 8121SOL    HW236000   4.266   2.191  14.971  0.2528 -1.1473 -1.5825
 8122SOL     OW36001   4.489   1.342   2.734  0.1351  0.1194 -0.9152
 8122SOL    HW136002   4.480   1.264   2.790  0.3481  2.0335  1.8115
 8122SOL    HW236003   4.400   1.356   2.701 -0.5612  1.1443  1.4088
 8123SOL     OW36004   0.799   2.369  10.542  0.0756 -0.0344 -0.0756
 8123SOL    HW136005   0.844   2.422  10.476  2.0166  0.0815  1.3244
 8123SOL    HW236006   0.713   2.410  10.554  0.5870  1.4239 -1.3160
 8124SOL     OW36007   3.810   4.234   3.219 -0.3862 -0.6253 -0.0445
 8124SOL    HW136008   3.901   4.218   3.195 -0.4639 -0.8329 -0.2042
 8124SOL    HW236009   3.754   4.178   3.165 -1.2007  0.6588 -0.5291
 8125SOL     OW36010   0.864   1.490  10.497 -0.1023  0.2467  0.4653
 8125SOL    HW136011   0.827   1.402  10.503  0.7631 -0.0151  2.0054
 8125SOL    HW236012   0.924   1.474  10.424 -0.4513  0.2657  0.1779
 8126SOL     OW36013   2.366   2.927   6.546 -0.2747  0.2737  0.2309
 8126SOL    HW136014   2.425   2.992   6.508  0.8351 -0.2034  1.1256
 8126SOL    HW236015   2.361   2.864   6.475  2.1390 -0.4388  0.7040
 8127SOL     OW36016   0.018   0.555   7.904 -0.3696  0.6107  0.6003
 8127SOL    HW136017   0.034   0.605   7.983  0.6875  0.8901  0.2032
 8127SOL    HW236018   0.062   0.471   7.920 -3.3931 -1.0935  0.0719
 8128SOL     OW36019   2.286   0.243   9.171 -0.5121  0.1982 -0.4891
 8128SOL    HW136020   2.250   0.156   9.156 -1.4099  1.0149 -3.0031
 8128SOL    HW236021   2.219   0.308   9.152  0.9942  1.9347  0.1002
 8129SOL     OW36022   2.423   2.182  15.010 -0.0967 -0.1611 -0.6101
 8129SOL    HW136023   2.369   2.255  15.039  1.3473  0.6802 -0.0104
 8129SOL    HW236024   2.460   2.227  14.934  0.9813  0.2416  0.1466
 8130SOL     OW36025   4.441   2.338  10.728 -0.0829  0.8675 -0.6216
 8130SOL    HW136026   4.417   2.414  10.675  1.2498  1.4443 -0.3934
 8130SOL    HW236027   4.521   2.316  10.681 -0.9363  1.7135 -2.4983
 8131SOL     OW36028   0.761   2.945   7.922 -0.6365  0.2678  0.0029
 8131SOL    HW136029   0.779   2.865   7.874  2.3879  1.2888 -0.5652
 8131SOL    HW236030   0.760   3.011   7.852  0.8943  0.2681 -0.0190
 8132SOL     OW36031   4.552   1.072   6.686 -0.1494 -0.1504 -0.3318
 8132SOL    HW136032   4.529   1.101   6.598  2.2089 -1.3492 -1.3355
 8132SOL    HW236033   4.574   0.980   6.668 -2.3168 -1.0849  1.7868
 8133SOL     OW36034   2.589   0.431   7.794 -0.2572 -0.4598 -0.2890
 8133SOL    HW136035   2.662   0.486   7.766 -0.7054  0.5957  0.6335
 8133SOL    HW236036   2.531   0.441   7.719 -1.6209  1.7105  1.0339
 8134SOL     OW36037   4.065   2.797  10.473 -0.2959  0.3462 -0.3519
 8134SOL    HW136038   4.104   2.866  10.526  2.2230  0.5592 -2.4719
 8134SOL    HW236039   3.973   2.810  10.496 -0.3397  0.3352 -0.5243
 8135SOL     OW36040   0.584   2.980   4.478  0.0285 -0.1990  0.2281
 8135SOL    HW136041   0.667   2.936   4.492 -0.1093 -0.4895  0.1234
 8135SOL    HW236042   0.538   2.906   4.439 -2.1151  1.4319 -0.4010
 8136SOL     OW36043   1.230   0.648   7.103 -0.4105 -0.0850  0.2424
 8136SOL    HW136044   1.206   0.556   7.104  2.7954 -0.9258  0.5702
 8136SOL    HW236045   1.154   0.688   7.146 -0.3393  1.0462 -0.6848
 8137SOL     OW36046   3.007   2.980   9.217  0.5214 -0.7427  0.0277
 8137SOL    HW136047   3.075   2.913   9.207  0.5367 -0.6596 -0.4443
 8137SOL    HW236048   3.024   3.028   9.136  0.0029 -0.7851 -0.1091
 8138SOL     OW36049   1.225   3.482   6.772 -0.3138 -0.0402  0.0242
 8138SOL    HW136050   1.310   3.509   6.736  0.3842 -1.8752  0.3087
 8138SOL    HW236051   1.260   3.409   6.823 -1.6288 -0.8932 -0.2927
 8139SOL     OW36052   4.062   4.196   3.032  0.0427 -0.0850  0.2620
 8139SOL    HW136053   4.037   4.122   2.976 -0.3127 -0.5268  1.0041
 8139SOL    HW236054   4.155   4.178   3.050  0.0835  0.6794  0.8291
 8140SOL     OW36055   4.155   2.111   7.400 -0.1152 -0.4532  0.1380
 8140SOL    HW136056   4.138   2.018   7.408  4.2456 -1.3910 -1.6689
 8140SOL    HW236057   4.078   2.145   7.445 -0.8916 -0.3871 -1.2322
 8141SOL     OW36058   3.518   0.299   4.860 -0.6316 -0.0293 -0.1181
 8141SOL    HW136059   3.531   0.337   4.773  2.7343 -0.4679  0.2108
 8141SOL    HW236060   3.551   0.211   4.842  0.3995 -0.0928  2.0842
 8142SOL     OW36061   2.371   4.337  15.201  0.0085 -0.3220 -0.3668
 8142SOL    HW136062   2.315   4.292  15.265  0.0343 -0.8203 -0.6900
 8142SOL    HW236063   2.435   4.266  15.188  0.5860  0.0985  0.2081
 8143SOL     OW36064   2.440   1.172   4.861  0.1582  0.3662 -0.2593
 8143SOL    HW136065   2.457   1.200   4.771 -0.8027 -1.4846 -1.0232
 8143SOL    HW236066   2.431   1.078   4.844 -0.8082  0.1952  1.2304
 8144SOL     OW36067   0.669   1.375   8.678 -0.4607  0.8353 -0.8709
 8144SOL    HW136068   0.711   1.295   8.707 -2.4160  0.3635  0.6764
 8144SOL    HW236069   0.744   1.435   8.679  1.5050 -1.6796  1.8235
 8145SOL     OW36070   0.405   0.239   8.069  0.1391 -0.3499  0.2467
 8145SOL    HW136071   0.407   0.267   8.161 -1.5825  0.9688 -0.1284
 8145SOL    HW236072   0.421   0.145   8.082  0.7517 -0.2593  0.1668
 8146SOL     OW36073   1.855   2.403  10.033 -0.2671  0.2409 -0.0443
 8146SOL    HW136074   1.816   2.491  10.030 -1.7559 -0.3756  1.5157
 8146SOL    HW236075   1.834   2.375   9.944 -4.0762  1.5055  0.4318
 8147SOL     OW36076   2.731   0.145   7.604  0.5308 -0.0822 -0.3356
 8147SOL    HW136077   2.795   0.182   7.664 -0.9933 -1.2529  2.0172
 8147SOL    HW236078   2.771   0.066   7.566  0.1492 -1.0917  1.3527
 8148SOL     OW36079   3.364   2.013  11.632  0.7654  0.2982 -0.4103
 8148SOL    HW136080   3.308   1.948  11.589 -0.1848  2.0445 -1.8124
 8148SOL    HW236081   3.298   2.082  11.638  1.7433  1.5504 -3.7445
 8149SOL     OW36082   2.714   2.933   7.807 -0.1051 -0.6083 -0.2047
 8149SOL    HW136083   2.663   2.975   7.877  1.9638 -2.4112  2.3744
 8149SOL    HW236084   2.760   3.005   7.764 -1.7172  0.4585 -0.1207
 8150SOL     OW36085   3.612   1.611   2.819 -0.6074  0.1617 -0.1364
 8150SOL    HW136086   3.631   1.704   2.814  1.7256 -0.4175 -1.8469
 8150SOL    HW236087   3.662   1.576   2.893 -0.4896 -0.6157 -0.5836
 8151SOL     OW36088   0.926   1.818  16.424  0.3406 -0.6158  0.1176
 8151SOL    HW136089   0.967   1.738  16.391 -1.9878 -1.7054 -0.1254
 8151SOL    HW236090   0.894   1.853  16.341 -1.0329  0.7554  1.2286
 8152SOL     OW36091   0.717   2.327   7.575  0.3552  0.2559 -0.0034
 8152SOL    HW136092   0.729   2.244   7.528  0.9592  1.2194 -1.5370
 8152SOL    HW236093   0.621   2.329   7.569  0.3504  0.0635  0.0051
 8153SOL     OW36094   4.441   1.768   6.860  0.1606  0.2362 -0.7653
 8153SOL    HW136095   4.361   1.815   6.884 -0.4096 -0.4348 -1.3324
 8153SOL    HW236096   4.409   1.678   6.848  0.6148  0.2237 -1.8287
 8154SOL     OW36097   0.612   0.666   2.906 -0.2266 -0.1846 -0.5330
 8154SOL    HW136098   0.707   0.659   2.910 -0.2709 -0.8174 -0.4574
 8154SOL    HW236099   0.598   0.628   2.819 -2.9397 -0.2437 -0.0662
 8155SOL     OW36100   0.985   1.429   2.260 -0.3279  0.6738 -0.4156
 8155SOL    HW136101   0.901   1.389   2.283  0.0754  1.8613  2.9987
 8155SOL    HW236102   1.050   1.375   2.304 -2.0588 -0.8033  0.3063
 8156SOL     OW36103   0.562   2.914   1.469 -0.0495 -0.2295 -0.0332
 8156SOL    HW136104   0.624   2.841   1.467  0.3028  0.1465 -2.2349
 8156SOL    HW236105   0.478   2.869   1.469  0.4716 -1.2274  2.6958
 8157SOL     OW36106   0.581   0.113  17.350  0.1399 -0.1210 -0.7770
 8157SOL    HW136107   0.652   0.138  17.291  0.6480 -3.2790 -1.4822
 8157SOL    HW236108   0.525   0.066  17.288 -0.5122 -0.3944  0.0233
 8158SOL     OW36109   0.477   2.434   4.731 -0.1707 -0.0664 -0.7375
 8158SOL    HW136110   0.507   2.522   4.710 -0.9128  0.0963 -1.1134
 8158SOL    HW236111   0.514   2.389   4.655  1.2813  1.0556 -0.6920
 8159SOL     OW36112   3.104   0.148   7.484 -0.0241 -0.4295 -0.2253
 8159SOL    HW136113   3.117   0.235   7.521 -1.3898  0.3044 -1.4812
 8159SOL    HW236114   3.033   0.106   7.533  1.1950 -0.9484  1.0856
 8160SOL     OW36115   3.338   2.459   8.845  0.0532  0.1574  0.4570
 8160SOL    HW136116   3.366   2.417   8.764  2.1004 -0.4141  1.4777
 8160SOL    HW236117   3.253   2.493   8.816 -0.8125 -0.3170  2.4569
 8161SOL     OW36118   0.539   2.134   6.264  1.1508 -0.4330 -0.0130
 8161SOL    HW136119   0.584   2.054   6.291 -0.2218 -2.0113 -2.4713
 8161SOL    HW236120   0.550   2.181   6.347 -3.3090  0.7820 -0.0867
 8162SOL     OW36121   3.104   2.531  15.464  0.3633 -0.5479  0.0337
 8162SOL    HW136122   3.194   2.538  15.430  0.8282 -2.8824  0.7756
 8162SOL    HW236123   3.125   2.496  15.551 -0.2137  1.7146  1.0794
 8163SOL     OW36124   1.050   2.603   8.345 -0.2617  0.2650 -1.0024
 8163SOL    HW136125   1.120   2.663   8.319  0.5260 -0.7233 -1.1775
 8163SOL    HW236126   0.997   2.661   8.399 -1.2911 -0.4338 -1.2592
 8164SOL     OW36127   1.334   3.491  14.628  0.1568  0.0034 -0.2548
 8164SOL    HW136128   1.304   3.465  14.541  1.6697  1.4810 -1.2279
 8164SOL    HW236129   1.394   3.419  14.647 -0.1428  0.0003  0.6504
 8165SOL     OW36130   2.146   2.755   4.666 -0.3307 -0.0400  0.0962
 8165SOL    HW136131   2.111   2.839   4.696 -0.7665 -0.5151  0.9350
 8165SOL    HW236132   2.112   2.702   4.738  0.8939  0.4382  1.0321
 8166SOL     OW36133   2.016   4.725   6.089 -0.0902 -0.5386  0.4270
 8166SOL    HW136134   1.969   4.642   6.076  0.9404 -1.1143  0.4239
 8166SOL    HW236135   2.103   4.694   6.065 -0.4581 -2.9899  2.3274
 8167SOL     OW36136   3.373   4.067   6.904  0.2188 -0.4941 -0.0191
 8167SOL    HW136137   3.305   4.121   6.943 -1.3990 -1.2882 -1.6871
 8167SOL    HW236138   3.345   4.052   6.813 -0.0245 -1.0361  0.1446
 8168SOL     OW36139   1.813   1.956  16.455 -0.3280  0.2327  0.0175
 8168SOL    HW136140   1.899   1.915  16.463 -0.5196 -0.4038 -1.2246
 8168SOL    HW236141   1.816   2.017  16.528  1.1613  0.0068  0.1549
 8169SOL     OW36142   3.643   2.071   7.400 -0.2492  0.3755  0.2864
 8169SOL    HW136143   3.647   2.164   7.375 -1.3152  0.7856  1.6330
 8169SOL    HW236144   3.550   2.050   7.390 -0.3059  1.8864 -2.3683
 8170SOL     OW36145   0.973   3.019   6.052  0.0060  0.2101 -0.0523
 8170SOL    HW136146   0.954   2.955   6.122  0.0994 -0.3243 -0.5139
 8170SOL    HW236147   0.947   2.972   5.973  0.8680  0.3223 -0.3955
 8171SOL     OW36148   4.000   3.572   4.493 -0.0666 -0.2370  0.2124
 8171SOL    HW136149   4.047   3.526   4.424 -0.3081  0.3698 -0.3567
 8171SOL    HW236150   3.976   3.655   4.452  2.2164  0.5243  0.4185
 8172SOL     OW36151   4.727   4.191   2.175 -0.1758  0.3626 -0.1744
 8172SOL    HW136152   0.043   4.134   2.119 -2.7942  0.3479 -2.5789
 8172SOL    HW236153   0.064   4.206   2.236  1.2668 -0.3124 -1.7367
 8173SOL     OW36154   2.618   0.318   5.787 -0.5834  0.3369  0.8330
 8173SOL    HW136155   2.533   0.362   5.783 -1.2976 -0.8524  3.0316
 8173SOL    HW236156   2.591   0.243   5.840  0.0587  0.0317  0.7260
 8174SOL     OW36157   4.529   3.613   4.970  0.2337 -0.3423 -0.0702
 8174SOL    HW136158   4.531   3.573   5.057 -1.4005 -2.0118 -0.8078
 8174SOL    HW236159   4.616   3.591   4.936  0.6566 -2.9527  2.7225
 8175SOL     OW36160   0.803   2.246   5.178 -0.0922  1.2054  0.0818
 8175SOL    HW136161   0.748   2.280   5.108 -2.3108 -0.8484  0.8367
 8175SOL    HW236162   0.894   2.258   5.149 -0.7478 -1.7426 -3.0624
 8176SOL     OW36163   0.966   4.574   0.357  0.3813  0.0739 -0.1430
 8176SOL    HW136164   1.038   4.554   0.417  0.2493  0.9250  0.3045
 8176SOL    HW236165   0.966   4.670   0.354  1.9374  0.1297  1.7091
 8177SOL     OW36166   2.806   1.709  15.369  0.0695  0.0923 -0.3472
 8177SOL    HW136167   2.898   1.719  15.394  0.0176 -3.8074  1.3367
 8177SOL    HW236168   2.771   1.744  15.451 -0.4923 -0.2877 -0.4273
 8178SOL     OW36169   3.847   3.903   8.738 -0.3023 -0.0400 -0.6413
 8178SOL    HW136170   3.804   3.974   8.784 -1.1161 -0.9070 -0.0712
 8178SOL    HW236171   3.838   3.829   8.798 -0.3322 -0.3831 -1.0591
 8179SOL     OW36172   2.335   4.127   7.026  0.3591  0.0232 -0.5634
 8179SOL    HW136173   2.272   4.108   6.955  0.0614  0.5556 -0.4473
 8179SOL    HW236174   2.414   4.079   7.004 -1.0031 -2.1056 -0.7697
 8180SOL     OW36175   4.250   3.406   3.424 -0.3139  0.4543 -0.0866
 8180SOL    HW136176   4.307   3.330   3.426 -0.5290  0.3102  0.3911
 8180SOL    HW236177   4.315   3.475   3.433 -1.1807  1.1027  1.0745
 8181SOL     OW36178   1.485   1.573   6.181  0.8096  0.1145 -0.5958
 8181SOL    HW136179   1.568   1.555   6.224  1.0210 -0.9879 -1.4469
 8181SOL    HW236180   1.430   1.506   6.222 -0.2001  1.3572  0.0493
 8182SOL     OW36181   1.140   3.701   1.990  0.3404  0.5753 -0.4296
 8182SOL    HW136182   1.188   3.636   1.938 -1.0103 -0.9329  0.2278
 8182SOL    HW236183   1.212   3.731   2.045 -0.4603  1.8485 -0.0884
 8183SOL     OW36184   3.497   0.078  17.404 -0.8093 -0.2230  0.1515
 8183SOL    HW136185   3.494   0.138  17.479  0.1736 -1.6863  1.3466
 8183SOL    HW236186   3.569   0.022  17.432 -0.8119 -0.9190 -1.2557
 8184SOL     OW36187   2.765   3.261  11.110  0.0127 -0.0980 -0.4094
 8184SOL    HW136188   2.815   3.343  11.115  1.5598 -1.0776  0.1050
 8184SOL    HW236189   2.767   3.217  11.195  0.0595  2.3136  0.8567
 8185SOL     OW36190   0.329   2.720  17.091 -0.1455  0.3587  0.3822
 8185SOL    HW136191   0.246   2.673  17.093  0.9155 -1.5972 -1.6471
 8185SOL    HW236192   0.309   2.800  17.140  0.7744  0.8520 -0.0349
 8186SOL     OW36193   1.798   1.299   7.374  0.0175  0.3631  0.1505
 8186SOL    HW136194   1.830   1.212   7.398  1.1106  0.7053 -0.0273
 8186SOL    HW236195   1.811   1.344   7.457  2.8849 -1.7836  0.8807
 8187SOL     OW36196   2.698   4.409   4.928 -0.3717 -0.4402  0.1065
 8187SOL    HW136197   2.628   4.464   4.964  0.1634 -0.1609  0.7217
 8187SOL    HW236198   2.768   4.458   4.971  1.0858 -2.8902  0.5072
 8188SOL     OW36199   0.285   0.874   7.155 -0.0963  0.1171 -0.3116
 8188SOL    HW136200   0.283   0.900   7.247  1.4191  0.6331 -0.4221
 8188SOL    HW236201   0.289   0.778   7.152 -1.6184  0.0874 -1.4090
 8189SOL     OW36202   0.817   0.950   1.467  0.1131 -1.1246 -0.4473
 8189SOL    HW136203   0.889   0.992   1.515 -0.4402 -1.2209  0.4540
 8189SOL    HW236204   0.789   1.010   1.397  1.6746 -1.0579 -1.0357
 8190SOL     OW36205   1.032   0.829   0.518 -0.0484 -0.2188 -0.3789
 8190SOL    HW136206   1.116   0.856   0.553  0.1005 -1.1068 -0.0389
 8190SOL    HW236207   1.061   0.791   0.435  4.0127  1.3641  0.3237
 8191SOL     OW36208   1.986   1.219   4.601 -0.2342 -0.4972 -0.7397
 8191SOL    HW136209   2.060   1.203   4.542 -0.9988  2.4377 -2.4670
 8191SOL    HW236210   1.981   1.126   4.625  0.0613 -0.5151 -0.7479
 8192SOL     OW36211   4.074   2.701   5.238  0.2892 -0.3446  0.4265
 8192SOL    HW136212   4.161   2.661   5.238  0.5967  0.3433 -0.3275
 8192SOL    HW236213   4.083   2.767   5.169 -0.8283  0.5234  1.0987
 8193SOL     OW36214   0.582   4.120   5.511  0.2756  0.0299 -0.3206
 8193SOL    HW136215   0.505   4.177   5.512  0.6634  0.5277  2.3532
 8193SOL    HW236216   0.577   4.077   5.426 -0.9159 -0.8902  0.2138
 8194SOL     OW36217   3.142   2.972   7.939 -0.0536  0.2177  0.3702
 8194SOL    HW136218   3.133   3.027   8.017 -0.4948  0.5813  0.0583
 8194SOL    HW236219   3.066   2.914   7.937  0.5778 -0.5517 -0.8824
 8195SOL     OW36220   4.072   1.974  11.425 -0.2167  0.3774  0.3038
 8195SOL    HW136221   4.161   1.942  11.411 -1.7461 -2.9483 -1.8317
 8195SOL    HW236222   4.081   2.069  11.420  2.1934  0.1769  1.1145
 8196SOL     OW36223   0.429   4.242   5.954 -0.2929  0.2580  0.0085
 8196SOL    HW136224   0.374   4.319   5.938  1.4212  1.5840  0.4883
 8196SOL    HW236225   0.514   4.285   5.945 -0.0323 -0.3106 -0.2498
 8197SOL     OW36226   1.407   3.113   2.061  0.2254  0.7749 -0.5964
 8197SOL    HW136227   1.487   3.135   2.109  0.1438  0.9423 -0.5373
 8197SOL    HW236228   1.438   3.073   1.979  2.8139 -0.4797  0.9877
 8198SOL     OW36229   3.199   1.919  10.407  0.4418 -0.2316 -0.4355
 8198SOL    HW136230   3.142   1.866  10.462 -0.7782  1.3166 -0.1994
 8198SOL    HW236231   3.287   1.911  10.445  0.3965 -2.4788 -0.8463
 8199SOL     OW36232   0.406   4.520   4.533 -0.2264  0.1166 -0.2662
 8199SOL    HW136233   0.374   4.431   4.537  0.3783  0.0195  2.3620
 8199SOL    HW236234   0.397   4.545   4.441 -0.8317  3.7761  0.7818
 8200SOL     OW36235   1.009   2.749   7.993  0.0129  0.3768 -0.5898
 8200SOL    HW136236   0.967   2.833   7.972  1.4819  0.4327 -3.3021
 8200SOL    HW236237   1.072   2.747   7.921  1.2338 -0.7747  0.5039
 8201SOL     OW36238   3.351   0.596  16.932 -0.2076 -0.2858 -0.3137
 8201SOL    HW136239   3.315   0.541  16.863  0.9580 -0.5793 -0.6928
 8201SOL    HW236240   3.315   0.545  17.004 -2.0949 -0.6857 -1.5474
 8202SOL     OW36241   4.217   2.132   4.596 -0.2808  0.3560 -0.2903
 8202SOL    HW136242   4.190   2.200   4.534  0.0499  0.4492 -0.3367
 8202SOL    HW236243   4.139   2.126   4.650  0.1962  2.8901  0.7135
 8203SOL     OW36244   3.017   2.716   4.804  0.3120  0.1717  0.6728
 8203SOL    HW136245   3.001   2.745   4.714  0.0568  1.9447  1.2796
 8203SOL    HW236246   3.108   2.685   4.801 -0.2952 -1.5479  0.1767
 8204SOL     OW36247   0.724   1.602   6.057  0.0710 -0.3696  0.4741
 8204SOL    HW136248   0.684   1.516   6.063  0.5919 -0.6646 -0.2686
 8204SOL    HW236249   0.741   1.619   5.964 -2.5207 -0.4467 -0.0084
 8205SOL     OW36250   0.509   3.818  13.203 -0.1379  0.4424 -0.7602
 8205SOL    HW136251   0.482   3.889  13.146 -1.8428 -0.1379 -0.6770
 8205SOL    HW236252   0.589   3.796  13.157 -0.4652 -1.7733 -0.2766
 8206SOL     OW36253   3.084   2.952  11.644  0.2431 -0.8284  0.1605
 8206SOL    HW136254   3.166   2.923  11.685  0.0206 -0.3595  0.9504
 8206SOL    HW236255   3.027   2.877  11.660  3.3338 -3.0694  0.6268
 8207SOL     OW36256   3.521   3.574   5.614 -0.2632 -0.1650 -0.4079
 8207SOL    HW136257   3.566   3.627   5.549  0.0975 -1.0944 -0.9227
 8207SOL    HW236258   3.452   3.534   5.560  0.4375 -1.6320 -0.2245
 8208SOL     OW36259   3.494   1.282   3.226 -0.2399  0.5573  0.0928
 8208SOL    HW136260   3.428   1.351   3.229  0.5325  1.3590 -1.8206
 8208SOL    HW236261   3.548   1.311   3.300  0.0365 -0.0626  0.1383
 8209SOL     OW36262   3.746   4.623   6.690 -0.2797  1.3751  0.3242
 8209SOL    HW136263   3.705   4.707   6.711 -2.9157 -0.1751  1.4378
 8209SOL    HW236264   3.713   4.568   6.761 -1.1178 -0.6130 -1.6027
 8210SOL     OW36265   2.864   4.347   1.669 -0.5070 -0.0424  0.3375
 8210SOL    HW136266   2.853   4.436   1.636 -1.4135 -0.3225 -0.1042
 8210SOL    HW236267   2.949   4.359   1.712 -1.1394  1.9909  1.0012
 8211SOL     OW36268   1.478   4.335  12.765 -1.1757  0.4078  0.0600
 8211SOL    HW136269   1.439   4.265  12.712  2.2825 -0.2127 -1.6542
 8211SOL    HW236270   1.510   4.400  12.703  5.0055  0.8925  3.7296
 8212SOL     OW36271   4.679   0.625   5.674  0.8498 -0.5254  0.0154
 8212SOL    HW136272   4.640   0.706   5.640  0.1945 -1.0190 -0.4134
 8212SOL    HW236273   4.623   0.607   5.749  1.0492 -1.7238 -0.1249
 8213SOL     OW36274   3.804   4.576   8.295 -0.5011  0.5449 -0.0692
 8213SOL    HW136275   3.823   4.503   8.354 -1.6275  1.0943  0.9785
 8213SOL    HW236276   3.895   4.588   8.268  0.4207 -0.9816  2.2999
 8214SOL     OW36277   3.853   2.501   9.454 -0.1779 -0.0254 -0.2351
 8214SOL    HW136278   3.781   2.546   9.499  0.4235  0.3903  0.3105
 8214SOL    HW236279   3.930   2.535   9.500 -0.0332 -0.2409 -0.3149
 8215SOL     OW36280   3.299   0.376   6.194  0.0167 -0.1358 -0.5336
 8215SOL    HW136281   3.368   0.441   6.201 -0.0222 -0.2976  1.2628
 8215SOL    HW236282   3.219   0.425   6.174  0.3254  0.8187  0.5711
 8216SOL     OW36283   0.404   3.122   3.171 -0.5702 -0.2678 -0.5256
 8216SOL    HW136284   0.497   3.118   3.190 -0.8777 -1.4339  0.7473
 8216SOL    HW236285   0.367   3.124   3.260 -0.9249  0.6212 -0.6983
 8217SOL     OW36286   4.254   1.158   5.272  0.3454  0.1561  0.6969
 8217SOL    HW136287   4.264   1.204   5.356 -1.5466 -0.5529  1.3019
 8217SOL    HW236288   4.230   1.073   5.308  1.6847  1.0198  3.6495
 8218SOL     OW36289   2.857   0.659   2.699 -0.6282  0.5706  0.1422
 8218SOL    HW136290   2.944   0.623   2.712 -1.2872 -1.5929 -1.4984
 8218SOL    HW236291   2.805   0.582   2.723  0.8867 -0.0541  1.4234
 8219SOL     OW36292   1.227   1.215   5.182 -0.0870  0.1182  0.1190
 8219SOL    HW136293   1.225   1.257   5.267  0.2575  0.1362  0.1173
 8219SOL    HW236294   1.142   1.171   5.187  1.9659 -3.7170  1.3077
 8220SOL     OW36295   0.506   1.172   4.467  0.1338 -0.2679  0.0797
 8220SOL    HW136296   0.423   1.209   4.500 -2.0301 -2.9772 -2.3744
 8220SOL    HW236297   0.490   1.086   4.505  0.7004 -0.7852 -0.8731
 8221SOL     OW36298   0.127   3.219   5.455  0.7453  0.5075  0.1346
 8221SOL    HW136299   0.061   3.251   5.394 -1.6963  1.1002  3.0873
 8221SOL    HW236300   0.083   3.142   5.492  0.3954  1.2611  1.2977
 8222SOL     OW36301   3.549   1.731   6.346 -0.1714 -0.3400  0.3467
 8222SOL    HW136302   3.553   1.824   6.366 -0.2680 -0.3847  0.5779
 8222SOL    HW236303   3.554   1.722   6.251 -0.2049  0.0965  0.3048
 8223SOL     OW36304   4.328   0.658   2.515  0.0395  0.0942 -0.3128
 8223SOL    HW136305   4.257   0.708   2.556  0.1802  1.4181 -1.6762
 8223SOL    HW236306   4.322   0.577   2.566  1.5378 -0.0904 -0.4366
 8224SOL     OW36307   0.346   2.587   2.323 -0.5101  0.2648  0.8135
 8224SOL    HW136308   0.325   2.676   2.295 -1.0505 -0.6120 -1.5852
 8224SOL    HW236309   0.288   2.531   2.271  1.0461 -1.1471  0.5871
 8225SOL     OW36310   3.214   0.586   5.066  0.3274  0.2018  0.4461
 8225SOL    HW136311   3.204   0.509   5.011  1.0991 -0.8327  1.7436
 8225SOL    HW236312   3.291   0.631   5.030 -1.1563  3.7978  1.6804
 8226SOL     OW36313   2.802   1.420  12.036 -0.2313  0.1154  0.1091
 8226SOL    HW136314   2.728   1.455  11.986  0.0810  0.8758  0.1740
 8226SOL    HW236315   2.861   1.494  12.054 -0.1133  0.1224 -0.3248
 8227SOL     OW36316   0.140   0.569   1.793  0.5149  0.0525 -0.3743
 8227SOL    HW136317   0.115   0.536   1.706 -2.5976  1.8416 -0.1630
 8227SOL    HW236318   0.054   0.594   1.827  0.4077  0.3596 -0.8712
 8228SOL     OW36319   4.463   1.947   5.762  0.2031 -0.0745  0.3992
 8228SOL    HW136320   4.516   1.868   5.750  1.0683  0.3371  1.4987
 8228SOL    HW236321   4.508   2.013   5.710  0.3979 -1.1072 -0.7432
 8229SOL     OW36322   4.127   4.319   7.483  0.6870 -0.3095 -0.0521
 8229SOL    HW136323   4.136   4.377   7.408  0.2898 -1.2864 -0.8490
 8229SOL    HW236324   4.147   4.232   7.450 -0.6104  0.1727 -2.0896
 8230SOL     OW36325   4.713   3.509  12.941  0.5978  0.2449 -0.2915
 8230SOL    HW136326   4.727   3.541  13.030  1.2000  0.8897 -0.6176
 8230SOL    HW236327   0.059   3.462  12.927 -0.0430 -1.0986  0.4222
 8231SOL     OW36328   3.060   3.586   9.395  0.0901  0.6321  0.0763
 8231SOL    HW136329   3.010   3.504   9.393  0.0535  0.5930  3.5249
 8231SOL    HW236330   3.009   3.645   9.450  0.5124  1.4081 -0.3568
 8232SOL     OW36331   0.032   1.385   9.978  0.0683  0.7396 -0.0036
 8232SOL    HW136332   0.027   1.290   9.987  1.7863  0.6398 -0.1491
 8232SOL    HW236333   0.088   1.403  10.053  1.6354  1.1725 -1.2981
 8233SOL     OW36334   4.128   3.537  14.791  0.8303  0.0820 -0.2567
 8233SOL    HW136335   4.087   3.451  14.799 -1.6562  1.2698 -0.2574
 8233SOL    HW236336   4.151   3.568  14.879  3.7325 -2.3128 -0.1423
 8234SOL     OW36337   1.411   4.579   5.590 -0.1325 -0.2454  0.1196
 8234SOL    HW136338   1.324   4.616   5.573 -0.2227 -0.7744 -0.5750
 8234SOL    HW236339   1.420   4.500   5.536 -2.8742 -0.7766  0.4264
 8235SOL     OW36340   4.269   1.326   8.162 -0.0718 -0.4967  0.6446
 8235SOL    HW136341   4.359   1.346   8.186  0.2469 -0.5872 -0.4741
 8235SOL    HW236342   4.263   1.243   8.210  0.5344  0.5104  2.4385
 8236SOL     OW36343   3.330   3.558   2.807  0.5137  0.6359  0.0537
 8236SOL    HW136344   3.362   3.613   2.735  0.1602  1.1835  0.3064
 8236SOL    HW236345   3.341   3.614   2.884 -0.8731 -0.0261  0.7436
 8237SOL     OW36346   0.704   4.565   5.587  0.2978  0.3851  0.2253
 8237SOL    HW136347   0.737   4.544   5.500  0.2962  0.3255  0.2392
 8237SOL    HW236348   0.624   4.610   5.559 -0.2263 -0.3813  0.4840
 8238SOL     OW36349   2.927   0.960   5.265 -0.2578  0.5242  0.1239
 8238SOL    HW136350   2.970   0.903   5.201  0.7424  0.3722  0.9390
 8238SOL    HW236351   2.855   0.908   5.301  0.8053 -1.6739 -0.9410
 8239SOL     OW36352   0.128   4.343   6.917 -0.2438  0.3335  0.4784
 8239SOL    HW136353   0.080   4.386   6.988  0.7349 -1.1972  2.0476
 8239SOL    HW236354   0.213   4.386   6.923  0.3005 -0.7194  0.2091
 8240SOL     OW36355   3.752   1.571  17.690  0.2974  0.5430  0.1736
 8240SOL    HW136356   3.708   1.501  17.740 -0.0209  0.3971 -0.2993
 8240SOL    HW236357   3.824   1.522  17.650 -0.2917 -1.6910  1.8336
 8241SOL     OW36358   4.659   1.981  10.499 -0.2342  0.0409 -0.7398
 8241SOL    HW136359   4.619   2.067  10.485  2.1088  1.3068  0.4437
 8241SOL    HW236360   0.001   1.978  10.443  1.2382  0.0176  1.3256
 8242SOL     OW36361   0.479   1.478   1.532 -0.1137 -0.5868  0.1382
 8242SOL    HW136362   0.468   1.551   1.594  1.1092  0.2443 -0.6268
 8242SOL    HW236363   0.391   1.466   1.497 -0.5348  0.4342  0.8502
 8243SOL     OW36364   1.182   2.212   8.933 -0.3155 -0.1256 -0.6602
 8243SOL    HW136365   1.134   2.129   8.935  0.3714 -0.4849  0.5656
 8243SOL    HW236366   1.266   2.177   8.964 -0.5628 -1.4899 -1.4984
 8244SOL     OW36367   2.548   0.887   1.993  0.0579  0.3045  0.3538
 8244SOL    HW136368   2.592   0.811   2.032  0.6432  1.1598  1.3598
 8244SOL    HW236369   2.547   0.862   1.901  0.7052  1.3075  0.0700
 8245SOL     OW36370   0.160   0.368   3.163  0.1175 -0.4563 -0.2920
 8245SOL    HW136371   0.145   0.436   3.097 -0.3226  0.1875  0.4607
 8245SOL    HW236372   0.230   0.325   3.114 -1.4938 -1.9657 -1.2188
 8246SOL     OW36373   2.186   1.911   8.190 -0.1067 -0.4941 -1.2175
 8246SOL    HW136374   2.274   1.875   8.178 -0.1021 -0.7562 -0.4335
 8246SOL    HW236375   2.130   1.837   8.213  2.1976 -2.1670 -1.0180
 8247SOL     OW36376   3.984   2.672   4.465  0.1303 -0.0536 -0.0359
 8247SOL    HW136377   3.902   2.625   4.450 -2.2975  3.5947  1.8656
 8247SOL    HW236378   3.975   2.739   4.396 -0.2843 -1.7102 -1.5854
 8248SOL     OW36379   1.719   1.953   1.103  0.7971  1.0104  0.3510
 8248SOL    HW136380   1.686   1.929   1.190  1.3403 -0.4150  0.1511
 8248SOL    HW236381   1.685   2.042   1.091  1.4541  1.0015 -1.4328
 8249SOL     OW36382   3.066   0.766   4.258 -0.2227 -0.0191  0.0271
 8249SOL    HW136383   3.103   0.803   4.178  0.5769  0.3272  0.5659
 8249SOL    HW236384   2.979   0.747   4.223  0.5787  1.3202 -2.7045
 8250SOL     OW36385   2.880   3.060   4.637 -0.3973 -0.4865  0.1563
 8250SOL    HW136386   2.912   2.982   4.682  0.6594  0.6055  1.3072
 8250SOL    HW236387   2.794   3.063   4.678 -0.6306 -2.5114 -0.1880
 8251SOL     OW36388   0.469   4.054   5.754  0.7938  0.2514  0.2062
 8251SOL    HW136389   0.534   4.092   5.696 -0.2267  3.2682  1.0249
 8251SOL    HW236390   0.468   4.112   5.830 -1.3426 -1.3643  1.4326
 8252SOL     OW36391   0.128   2.320   5.352  0.1289  0.1121 -0.5963
 8252SOL    HW136392   0.132   2.225   5.366  1.2036 -0.1454 -2.6202
 8252SOL    HW236393   0.220   2.339   5.333 -0.2789  0.0012 -2.6844
 8253SOL     OW36394   0.501   4.426   8.727 -0.0671 -0.3600 -0.0326
 8253SOL    HW136395   0.551   4.403   8.649  1.8224  1.8865  0.5084
 8253SOL    HW236396   0.438   4.353   8.730 -0.7219  0.1425 -1.7530
 8254SOL     OW36397   3.270   2.535  16.223 -0.4060  0.2566  0.0505
 8254SOL    HW136398   3.260   2.441  16.212  0.6062 -0.1834  2.7330
 8254SOL    HW236399   3.361   2.537  16.251  0.5075 -0.7925 -2.9149
 8255SOL     OW36400   1.720   1.919   6.226 -0.5776  0.3665  0.5079
 8255SOL    HW136401   1.634   1.894   6.260 -0.5223  0.0354  0.4036
 8255SOL    HW236402   1.755   1.967   6.302  1.4547 -0.6364  0.2000
 8256SOL     OW36403   1.801   2.413   7.910 -0.0329 -0.0024  0.6072
 8256SOL    HW136404   1.739   2.341   7.919  0.4320 -0.2452  1.8893
 8256SOL    HW236405   1.846   2.404   7.995 -1.4248  1.0812  1.4531
 8257SOL     OW36406   3.677   3.917   7.151  0.3112  0.3437  0.1511
 8257SOL    HW136407   3.740   3.957   7.211  1.3399 -1.2708  0.1642
 8257SOL    HW236408   3.725   3.837   7.130 -0.0985  0.2001 -0.2500
 8258SOL     OW36409   3.136   3.775  11.664  0.4887  0.0628 -0.3726
 8258SOL    HW136410   3.095   3.858  11.690  2.5676  0.5451  1.4354
 8258SOL    HW236411   3.154   3.742  11.752  1.0163  2.0639  0.2718
 8259SOL     OW36412   1.603   0.544  11.477 -0.1692 -0.0123 -0.1111
 8259SOL    HW136413   1.551   0.503  11.408  0.2238  1.7449 -1.4721
 8259SOL    HW236414   1.577   0.635  11.463 -2.4931 -0.5876  0.4572
 8260SOL     OW36415   2.013   1.766   3.454  0.2086 -0.7928 -0.3630
 8260SOL    HW136416   2.014   1.861   3.446 -0.6742 -0.6473  1.4155
 8260SOL    HW236417   1.986   1.755   3.545  0.1778  2.2208 -0.0391
 8261SOL     OW36418   1.025   0.223  10.728 -0.3509  0.1397  0.2239
 8261SOL    HW136419   0.995   0.242  10.640  0.8150  0.6061 -0.0706
 8261SOL    HW236420   0.950   0.169  10.755  1.3149 -2.6538 -0.7417
 8262SOL     OW36421   4.735   2.954  13.420 -0.0532  0.9228 -0.3523
 8262SOL    HW136422   0.059   2.912  13.482 -0.2874  1.6503  0.3631
 8262SOL    HW236423   4.697   3.023  13.474  1.2146 -0.1717  1.9791
 8263SOL     OW36424   1.337   4.702   0.268  0.0416 -0.2779  0.2390
 8263SOL    HW136425   1.296   0.046   0.234 -0.7961 -0.2496  1.3266
 8263SOL    HW236426   1.312   4.641   0.198  0.7541 -1.4512  1.0202
 8264SOL     OW36427   1.223   1.393   2.535 -0.2194  0.3639 -0.9033
 8264SOL    HW136428   1.178   1.350   2.462 -3.6802  0.7422  1.0107
 8264SOL    HW236429   1.261   1.318   2.581 -1.8073 -0.8954 -1.6627
 8265SOL     OW36430   1.477   2.304   7.554  0.3134 -0.5859 -0.2124
 8265SOL    HW136431   1.558   2.355   7.552 -0.9677  1.4240 -0.9921
 8265SOL    HW236432   1.455   2.317   7.646  1.4503  0.4118 -0.0795
 8266SOL     OW36433   2.042   1.941   8.717 -0.4306  0.1619 -0.1036
 8266SOL    HW136434   2.069   1.908   8.803  0.2761 -1.9539 -1.1515
 8266SOL    HW236435   2.119   1.988   8.685  0.3587  0.0559  1.6141
 8267SOL     OW36436   1.180   1.233   9.576 -0.0960  0.3645 -0.0883
 8267SOL    HW136437   1.274   1.229   9.593 -0.4909 -1.6541  1.6081
 8267SOL    HW236438   1.184   1.292   9.501 -0.1790  0.9736  0.3879
 8268SOL     OW36439   1.997   1.948   8.996 -0.0586  0.0922 -0.5287
 8268SOL    HW136440   1.985   2.041   8.978 -1.8634 -0.1616 -0.5722
 8268SOL    HW236441   1.911   1.922   9.030  1.7172 -2.3238  2.1283
 8269SOL     OW36442   4.089   3.368   2.427 -0.3024  0.0601  0.4945
 8269SOL    HW136443   3.998   3.347   2.447 -0.3996 -0.7238 -0.7305
 8269SOL    HW236444   4.129   3.343   2.511 -0.3350 -2.0994 -0.1307
 8270SOL     OW36445   1.034   4.193  16.957 -0.6032 -0.5908 -0.7174
 8270SOL    HW136446   0.972   4.143  17.010  0.0528  1.6679  2.2449
 8270SOL    HW236447   1.088   4.126  16.915 -1.2697 -1.4082 -0.2783
 8271SOL     OW36448   3.672   3.795   3.989  0.5295  0.2082  0.0119
 8271SOL    HW136449   3.654   3.859   3.921 -1.1043 -1.9047 -1.5419
 8271SOL    HW236450   3.767   3.785   3.980  0.7141  2.9723 -1.0645
 8272SOL     OW36451   3.109   2.512   7.309 -0.4387  0.2538 -0.2530
 8272SOL    HW136452   3.179   2.486   7.369 -1.6402  0.6957  1.3412
 8272SOL    HW236453   3.086   2.598   7.344 -0.9143 -0.0531  0.1813
 8273SOL     OW36454   1.271   0.596   2.500  0.5809 -0.0609 -0.7403
 8273SOL    HW136455   1.297   0.623   2.412 -0.4771 -1.1406 -1.4004
 8273SOL    HW236456   1.210   0.668   2.514  1.0996  0.1396  0.4174
 8274SOL     OW36457   2.194   0.640   3.695 -0.4890  0.3929  0.0303
 8274SOL    HW136458   2.173   0.680   3.610 -0.2992 -0.5660 -0.4621
 8274SOL    HW236459   2.117   0.671   3.743 -1.2478  1.1254 -1.6387
 8275SOL     OW36460   4.532   3.708  10.321  1.1580  0.5138  0.0568
 8275SOL    HW136461   4.556   3.642  10.256 -0.2093 -0.7995  0.8759
 8275SOL    HW236462   4.443   3.737  10.297  1.0737  0.6157  0.4965
 8276SOL     OW36463   3.421   4.074   1.783 -0.2195  0.7735  0.1371
 8276SOL    HW136464   3.505   4.113   1.808 -0.6119  1.9916 -0.4375
 8276SOL    HW236465   3.351   4.132   1.811  0.3808  1.4152  0.3161
 8277SOL     OW36466   1.184   4.125   1.226 -0.1696 -0.5397  0.5887
 8277SOL    HW136467   1.202   4.103   1.135  0.7405 -0.8138  0.8401
 8277SOL    HW236468   1.159   4.217   1.212 -0.7613 -0.8797 -0.6010
 8278SOL     OW36469   1.731   2.385   5.212 -0.1284 -0.0666  0.2473
 8278SOL    HW136470   1.815   2.368   5.256 -0.9071  0.4361  1.8982
 8278SOL    HW236471   1.668   2.369   5.281  1.8936 -1.4279  1.7754
 8279SOL     OW36472   0.596   2.325   4.982 -0.9827 -0.9619  0.3787
 8279SOL    HW136473   0.616   2.372   4.902  2.3951  0.0770  1.8142
 8279SOL    HW236474   0.504   2.301   4.980 -0.6356 -2.2325 -0.9311
 8280SOL     OW36475   2.892   2.655   2.688 -0.0574 -0.2215  0.5409
 8280SOL    HW136476   2.851   2.741   2.691  1.5017  0.5981 -0.9103
 8280SOL    HW236477   2.817   2.597   2.699  0.0030 -0.1144  1.4384
 8281SOL     OW36478   1.279   1.111   9.153 -0.6820  0.0164 -0.1256
 8281SOL    HW136479   1.274   1.206   9.140  1.8205  0.3966  1.8421
 8281SOL    HW236480   1.373   1.098   9.141 -0.4204  1.0808  0.7393
 8282SOL     OW36481   2.652   2.441   1.256 -0.2373 -0.4513 -0.6984
 8282SOL    HW136482   2.719   2.427   1.189  0.5131 -1.0495  0.1782
 8282SOL    HW236483   2.650   2.355   1.299  1.4224  1.0777  2.4456
 8283SOL     OW36484   0.570   2.279   1.718  0.1887  0.2591  0.0598
 8283SOL    HW136485   0.524   2.220   1.778  1.9987 -1.0390  0.1650
 8283SOL    HW236486   0.629   2.322   1.780 -1.5301  0.0246  1.8548
 8284SOL     OW36487   4.663   2.579   4.563 -0.1257  0.5370 -0.1398
 8284SOL    HW136488   4.684   2.580   4.470  1.1730 -4.7365  0.1139
 8284SOL    HW236489   0.008   2.546   4.603 -1.4029 -1.8741  0.4570
 8285SOL     OW36490   3.862   0.479  15.829  0.2204  0.0300  0.0621
 8285SOL    HW136491   3.836   0.443  15.914  1.6588 -2.6375 -0.6398
 8285SOL    HW236492   3.783   0.522  15.796  0.5926 -1.1956 -2.4182
 8286SOL     OW36493   3.607   3.195  15.906  0.0645  0.4952  0.0305
 8286SOL    HW136494   3.541   3.170  15.971  1.4973  1.1529  1.7450
 8286SOL    HW236495   3.663   3.235  15.973  1.2008  0.6462 -1.0133
 8287SOL     OW36496   1.232   2.676   3.743  0.0425 -0.0800 -0.1701
 8287SOL    HW136497   1.236   2.765   3.777 -1.8362 -0.5956  1.3852
 8287SOL    HW236498   1.160   2.642   3.796 -0.1639 -0.2491 -0.5587
 8288SOL     OW36499   4.598   4.644   5.644  0.6148  0.4020  0.1494
 8288SOL    HW136500   4.567   4.629   5.733 -1.3887 -2.8373 -1.0737
 8288SOL    HW236501   4.604   4.553   5.616 -0.1686 -0.2880  2.2256
 8289SOL     OW36502   4.715   3.179   9.055  0.4556  0.0525  0.5045
 8289SOL    HW136503   4.689   3.187   9.146 -0.5674 -0.6371  0.2763
 8289SOL    HW236504   0.046   3.247   9.055 -0.8209  1.3233  1.5407
 8290SOL     OW36505   2.925   3.623   6.405  0.3723 -0.1169 -0.2400
 8290SOL    HW136506   2.867   3.547   6.409 -1.5935  1.4461  0.9860
 8290SOL    HW236507   2.983   3.610   6.479  0.2616  0.8478  0.0136
 8291SOL     OW36508   1.199   1.132   4.136  0.2144 -0.3399 -0.2375
 8291SOL    HW136509   1.283   1.156   4.098 -0.4455 -0.0422 -1.4925
 8291SOL    HW236510   1.154   1.100   4.058 -1.4222  0.2340  0.4706
 8292SOL     OW36511   4.250   4.500  17.407 -0.4685  0.1607  0.0217
 8292SOL    HW136512   4.189   4.431  17.383 -0.5480 -0.5610  2.2747
 8292SOL    HW236513   4.318   4.454  17.456  0.7391  1.6445 -0.2577
 8293SOL     OW36514   4.270   3.445   7.059 -0.2671 -0.0049  0.1676
 8293SOL    HW136515   4.317   3.514   7.012  0.4268 -0.9603 -0.5472
 8293SOL    HW236516   4.308   3.428   7.145 -1.1006 -0.3537  0.4658
 8294SOL     OW36517   2.025   1.410  10.119  0.2063  0.4735 -0.1754
 8294SOL    HW136518   2.093   1.346  10.103  1.6919  2.1681 -0.6020
 8294SOL    HW236519   1.986   1.380  10.201  0.9995 -0.5186 -0.1602
 8295SOL     OW36520   3.887   0.604   4.288  0.0815 -0.1218 -0.1390
 8295SOL    HW136521   3.933   0.521   4.279  0.7530  0.1707  0.6443
 8295SOL    HW236522   3.801   0.581   4.253 -1.3175  2.8158  1.3787
 8296SOL     OW36523   1.318   3.882  16.319 -0.6471  0.4180  0.0993
 8296SOL    HW136524   1.281   3.794  16.310  0.4537  0.2146 -2.5607
 8296SOL    HW236525   1.365   3.888  16.236  1.4288 -0.0685  1.2592
 8297SOL     OW36526   1.475   2.640   6.431 -0.3356 -0.3868  0.0501
 8297SOL    HW136527   1.480   2.613   6.339 -0.4529 -0.7089  0.1404
 8297SOL    HW236528   1.383   2.627   6.454 -0.4030 -0.0246 -0.0100
 8298SOL     OW36529   2.090   4.581  15.308  0.2541 -0.7557  0.0666
 8298SOL    HW136530   2.148   4.592  15.232 -1.0142  1.2373 -0.6068
 8298SOL    HW236531   2.152   4.594  15.379 -1.4078 -1.5361  1.6412
 8299SOL     OW36532   2.326   4.108  14.856  0.5880 -0.2936  0.4783
 8299SOL    HW136533   2.311   4.143  14.944 -1.0494  1.5398 -0.5279
 8299SOL    HW236534   2.403   4.152  14.821 -0.4229  1.9111  0.9967
 8300SOL     OW36535   4.528   3.959  10.449 -0.2491 -0.3650 -0.1546
 8300SOL    HW136536   4.545   3.908  10.370 -0.3711 -0.0281 -0.3967
 8300SOL    HW236537   4.500   3.889  10.508  2.3725  0.5848  2.1912
 8301SOL     OW36538   4.553   2.770  12.336  0.1789  0.0336  0.2817
 8301SOL    HW136539   4.608   2.793  12.261 -0.2235  0.2051  0.0398
 8301SOL    HW236540   4.499   2.842  12.369 -0.4831 -0.8054  1.0216
 8302SOL     OW36541   0.502   4.150  13.287  0.0075 -0.1866  0.1978
 8302SOL    HW136542   0.459   4.231  13.314  1.2829  0.6908 -0.4336
 8302SOL    HW236543   0.524   4.113  13.373  0.9507 -0.1714 -0.0468
 8303SOL     OW36544   3.727   3.733   3.280 -0.2342 -0.1885 -0.0291
 8303SOL    HW136545   3.706   3.651   3.324 -0.7561  0.2119  0.4865
 8303SOL    HW236546   3.688   3.710   3.196 -0.9286  1.1167 -0.0694
 8304SOL     OW36547   4.573   1.720   5.458  0.4130 -0.1384 -0.7482
 8304SOL    HW136548   4.586   1.733   5.552 -0.2224  0.0670 -0.6845
 8304SOL    HW236549   4.562   1.806   5.416 -1.7993 -0.4856 -0.9289
 8305SOL     OW36550   4.444   2.596   2.109 -0.2164  0.0471  0.1472
 8305SOL    HW136551   4.448   2.520   2.167 -1.3972  0.7221  1.1000
 8305SOL    HW236552   4.374   2.567   2.050  1.6194  0.7859 -2.4024
 8306SOL     OW36553   0.308   0.100   7.632  0.7788  0.1433 -0.1555
 8306SOL    HW136554   0.230   0.101   7.577 -0.0394  1.0689  1.0283
 8306SOL    HW236555   0.299   0.189   7.667 -0.4204  0.0941 -0.3388
 8307SOL     OW36556   1.282   4.282   4.208  0.0099 -0.6787 -0.3631
 8307SOL    HW136557   1.248   4.371   4.218  2.3069  0.2362 -0.8096
 8307SOL    HW236558   1.204   4.242   4.169 -1.8739  0.5144  2.1366
 8308SOL     OW36559   1.960   1.280   3.707  0.2145 -0.4756  0.4573
 8308SOL    HW136560   1.894   1.329   3.756  0.9096  0.7044  0.2126
 8308SOL    HW236561   1.921   1.194   3.691 -0.7915  0.3250 -1.3796
 8309SOL     OW36562   4.425   3.212   3.481 -0.2263 -0.1638 -0.1148
 8309SOL    HW136563   4.458   3.203   3.392 -0.0375 -0.3288 -0.0285
 8309SOL    HW236564   4.507   3.220   3.530  0.4587 -0.9330 -1.1231
 8310SOL     OW36565   1.019   0.689   5.635 -0.0869  0.2218  0.2049
 8310SOL    HW136566   1.088   0.639   5.679 -1.3777  0.0976  2.0912
 8310SOL    HW236567   0.989   0.744   5.708 -0.7916 -0.7145  0.6207
 8311SOL     OW36568   2.097   0.470  13.450 -0.3462 -0.3187 -0.1253
 8311SOL    HW136569   2.004   0.460  13.471 -0.0127 -0.3805  1.3110
 8311SOL    HW236570   2.088   0.491  13.357  2.3451  2.0977  0.1387
 8312SOL     OW36571   2.262   4.147   1.918  0.2669  0.3421 -0.0665
 8312SOL    HW136572   2.323   4.115   1.984 -1.7699 -4.8878 -0.6378
 8312SOL    HW236573   2.228   4.224   1.963 -0.8432 -0.4304  0.4438
 8313SOL     OW36574   0.812   2.744   1.437 -0.3301  0.1914  0.0901
 8313SOL    HW136575   0.823   2.706   1.349 -0.8922  1.2287 -0.4256
 8313SOL    HW236576   0.862   2.823   1.422  0.6859 -0.9982 -2.8729
 8314SOL     OW36577   1.448   1.131  10.037  0.2975  0.2209  0.1279
 8314SOL    HW136578   1.533   1.092  10.016  0.6432 -0.4992  2.8467
 8314SOL    HW236579   1.423   1.168   9.953 -1.6551 -1.8846 -0.2099
 8315SOL     OW36580   4.481   2.275   5.234  0.5728  0.1806 -0.8422
 8315SOL    HW136581   4.528   2.275   5.317  0.3330  1.0821 -0.7137
 8315SOL    HW236582   4.399   2.324   5.238 -0.7883 -1.9969 -1.9591
 8316SOL     OW36583   2.600   1.584  15.994  0.4483 -0.4354 -0.2694
 8316SOL    HW136584   2.629   1.495  15.972  0.0368 -0.5798 -0.2252
 8316SOL    HW236585   2.686   1.626  16.000 -0.0961  0.7477 -0.8431
 8317SOL     OW36586   0.403   3.998  16.325  0.2492  0.3949 -0.2542
 8317SOL    HW136587   0.415   3.971  16.416 -1.5012  0.0009 -0.1510
 8317SOL    HW236588   0.366   3.922  16.280  1.6933 -0.9821  0.8496
 8318SOL     OW36589   1.041   0.251   0.393  0.0515  0.0041 -0.1998
 8318SOL    HW136590   0.985   0.189   0.441 -1.8344  1.2744 -0.7719
 8318SOL    HW236591   1.014   0.228   0.304 -1.2873 -3.0583  0.9658
 8319SOL     OW36592   2.977   4.564   4.779  0.1334  0.3801  0.0410
 8319SOL    HW136593   2.976   4.526   4.866 -1.2075 -0.9631 -0.5616
 8319SOL    HW236594   3.007   4.652   4.803 -0.2152  0.0368  1.7067
 8320SOL     OW36595   0.285   0.998   4.948 -0.3554 -0.2215 -0.1182
 8320SOL    HW136596   0.335   0.930   4.994  0.2461  0.2244 -0.1098
 8320SOL    HW236597   0.234   0.953   4.881  0.9294 -1.1892 -0.4472
 8321SOL     OW36598   3.037   0.074   3.188  0.1018 -0.1747  0.0199
 8321SOL    HW136599   3.129   0.096   3.172  0.3496  0.9496  3.0249
 8321SOL    HW236600   3.026   0.144   3.252  3.0531  1.7902 -1.6549
 8322SOL     OW36601   2.988   1.135   7.057  0.3370  0.4128  0.4953
 8322SOL    HW136602   3.014   1.221   7.024  0.3123  0.4431  0.5541
 8322SOL    HW236603   2.911   1.117   7.002  1.3670 -0.3177 -0.6934
 8323SOL     OW36604   4.509   0.947   8.122  0.5276  0.2868 -0.5161
 8323SOL    HW136605   4.597   0.955   8.084  1.7750  1.5375  2.6117
 8323SOL    HW236606   4.519   0.862   8.165  1.1126  0.5038 -0.2143
 8324SOL     OW36607   1.482   3.579  16.265 -0.1993 -0.0916  0.8875
 8324SOL    HW136608   1.532   3.629  16.329  2.1536  1.1832 -1.9462
 8324SOL    HW236609   1.529   3.496  16.274 -0.6057 -0.3868  0.3205
 8325SOL     OW36610   0.892   0.471   7.193 -0.4502 -0.9155  0.1300
 8325SOL    HW136611   0.923   0.552   7.233  0.4020 -0.6657 -1.0467
 8325SOL    HW236612   0.894   0.504   7.103 -1.7922  1.0676  0.8355
 8326SOL     OW36613   3.307   4.670  11.544 -0.5002 -0.2837 -0.4835
 8326SOL    HW136614   3.353   0.017  11.548  2.3848 -1.8813 -0.3109
 8326SOL    HW236615   3.383   4.613  11.540  0.4454  0.9332  0.5722
 8327SOL     OW36616   1.319   1.539  16.000  0.3200 -1.0867  0.4565
 8327SOL    HW136617   1.375   1.476  16.046  0.7439 -1.0186  0.0335
 8327SOL    HW236618   1.235   1.507  16.032 -0.5781  0.1691 -0.6463
 8328SOL     OW36619   3.303   1.343  12.167  0.5378  0.0720  0.3054
 8328SOL    HW136620   3.287   1.264  12.219  2.0584 -0.3104  0.2142
 8328SOL    HW236621   3.229   1.343  12.106 -0.7501 -0.9750  1.8809
 8329SOL     OW36622   0.723   3.649   8.267  0.0627 -0.1594 -0.0730
 8329SOL    HW136623   0.637   3.632   8.305  0.8528 -3.4713  0.2068
 8329SOL    HW236624   0.757   3.561   8.256  0.5415 -0.1326  1.2368
 8330SOL     OW36625   0.563   2.683   4.659 -0.0745 -0.1242  0.2219
 8330SOL    HW136626   0.624   2.756   4.654  0.7526 -0.8125  0.3250
 8330SOL    HW236627   0.509   2.708   4.584  0.6491 -1.3379 -0.6922
 8331SOL     OW36628   2.433   1.825   4.082  0.0717  0.1310 -0.3889
 8331SOL    HW136629   2.377   1.882   4.134  0.9999 -0.6427  1.4732
 8331SOL    HW236630   2.422   1.867   3.997 -1.8141  1.0885  0.3367
 8332SOL     OW36631   2.919   2.170  12.895 -0.1067  0.0664 -0.2055
 8332SOL    HW136632   2.989   2.185  12.958  1.4452 -3.4396 -1.0561
 8332SOL    HW236633   2.978   2.150  12.822  1.1494 -1.3587  1.2108
 8333SOL     OW36634   1.559   1.251   8.241 -0.3424  0.0738 -0.3565
 8333SOL    HW136635   1.519   1.242   8.155  0.5385  0.9124 -0.8551
 8333SOL    HW236636   1.490   1.206   8.289  0.1630  1.2449  1.4853
 8334SOL     OW36637   3.814   3.272   3.679 -0.8473  0.0056 -0.0357
 8334SOL    HW136638   3.875   3.311   3.741  1.5714  1.0209 -3.0861
 8334SOL    HW236639   3.856   3.297   3.597 -1.2118 -0.8266 -0.4837
 8335SOL     OW36640   0.180   1.889   1.775 -0.4384 -0.1568  0.0438
 8335SOL    HW136641   0.182   1.797   1.800  0.0087 -0.9611 -2.9574
 8335SOL    HW236642   0.094   1.917   1.803 -0.0154  0.4716  0.7152
 8336SOL     OW36643   3.812   1.590   1.164 -0.1870 -0.6007 -0.1573
 8336SOL    HW136644   3.863   1.542   1.229 -1.0207  0.5214  1.3079
 8336SOL    HW236645   3.836   1.681   1.178  0.5350 -0.6474 -1.0890
 8337SOL     OW36646   1.344   3.126  12.741  0.5766  0.3264  0.5930
 8337SOL    HW136647   1.249   3.115  12.746  0.4464  1.0689 -0.2947
 8337SOL    HW236648   1.373   3.069  12.669 -0.1209  1.3642 -0.4994
 8338SOL     OW36649   4.155   3.934   4.462  0.0592 -0.4654  0.0118
 8338SOL    HW136650   4.159   3.917   4.556 -0.2305  2.6774  0.6179
 8338SOL    HW236651   4.072   3.981   4.451  1.3915  1.8878 -0.2124
 8339SOL     OW36652   0.217   3.493  16.830 -0.0633 -0.6905 -0.1229
 8339SOL    HW136653   0.287   3.433  16.803  0.3059 -0.6769  0.7969
 8339SOL    HW236654   0.247   3.530  16.913  0.0153 -1.5515  0.2394
 8340SOL     OW36655   0.328   3.283   5.252  0.3093 -0.0707 -0.2196
 8340SOL    HW136656   0.283   3.227   5.314 -0.2110  0.4540 -0.1237
 8340SOL    HW236657   0.269   3.273   5.177 -0.5781 -0.6612  0.5648
 8341SOL     OW36658   0.630   1.977  15.609  0.5905 -0.3461 -0.7013
 8341SOL    HW136659   0.587   2.000  15.526  1.1742 -0.9021 -1.1613
 8341SOL    HW236660   0.608   1.884  15.608  0.3644 -0.3128  1.2871
 8342SOL     OW36661   2.181   2.689   2.751 -0.0451 -0.5511 -0.2554
 8342SOL    HW136662   2.176   2.730   2.837  0.1676  0.2019 -0.6061
 8342SOL    HW236663   2.090   2.681   2.724  0.3247  0.9584 -1.9275
 8343SOL     OW36664   3.064   0.074   4.924 -0.5986  0.6394 -0.4583
 8343SOL    HW136665   3.147   0.091   4.880 -0.7902  1.4852 -0.4816
 8343SOL    HW236666   3.091   0.070   5.016 -1.2702  2.0022 -0.2071
 8344SOL     OW36667   0.801   0.200   4.056  0.2243  0.3224  0.2863
 8344SOL    HW136668   0.766   0.119   4.093 -1.3587  2.2415  2.9803
 8344SOL    HW236669   0.724   0.256   4.061  0.7967  1.1048  0.4591
 8345SOL     OW36670   3.794   4.350  12.827  0.0649 -0.0424  0.0361
 8345SOL    HW136671   3.823   4.439  12.847 -0.2585 -0.3211  1.7764
 8345SOL    HW236672   3.877   4.303  12.834  1.4311  1.9361 -3.0055
 8346SOL     OW36673   4.389   4.122   4.251 -0.4066 -0.2423  0.6348
 8346SOL    HW136674   4.455   4.185   4.280 -0.3493 -0.4049  0.8613
 8346SOL    HW236675   4.386   4.055   4.320  0.0169  2.2606  3.0834
 8347SOL     OW36676   4.069   3.410   3.001 -0.3613 -0.0549 -0.1849
 8347SOL    HW136677   3.989   3.358   3.005 -0.3539 -0.2973 -2.7715
 8347SOL    HW236678   4.059   3.477   3.068  0.1122  2.1847 -2.3346
 8348SOL     OW36679   1.693   3.237   2.587 -0.1223 -0.7691  0.1048
 8348SOL    HW136680   1.721   3.146   2.574  2.1837  0.0555 -0.5589
 8348SOL    HW236681   1.681   3.233   2.682 -2.1602 -0.0834 -0.1162
 8349SOL     OW36682   3.631   4.072  11.759 -0.5110  0.5690  0.2063
 8349SOL    HW136683   3.610   4.018  11.835  2.2860  1.0010  1.2853
 8349SOL    HW236684   3.550   4.121  11.745  0.3631  1.7724 -0.6747
 8350SOL     OW36685   2.816   0.803   2.931  0.1725 -0.3752 -0.0623
 8350SOL    HW136686   2.768   0.779   2.852  0.5920  2.7129 -1.2539
 8350SOL    HW236687   2.780   0.747   3.001  0.4167 -2.3455 -1.4929
 8351SOL     OW36688   0.859   2.439   4.027  0.4141  0.2665  0.6158
 8351SOL    HW136689   0.793   2.387   4.074  0.3201  2.3595  2.7983
 8351SOL    HW236690   0.920   2.369   4.003 -1.8961 -0.8410 -2.0494
 8352SOL     OW36691   1.534   3.903   4.835  0.2896  0.3112  0.5051
 8352SOL    HW136692   1.459   3.922   4.891  0.6140 -1.9894  1.7511
 8352SOL    HW236693   1.536   3.808   4.852  0.1425  0.5463  1.8460
 8353SOL     OW36694   0.757   0.064   4.893  0.3539  0.6557 -0.3150
 8353SOL    HW136695   0.849   0.073   4.870  0.5731 -2.2753 -0.6324
 8353SOL    HW236696   0.765   4.716   4.939 -0.2964  0.3365 -0.7945
 8354SOL     OW36697   3.491   1.913   7.720  0.2253 -0.0809  0.3154
 8354SOL    HW136698   3.539   1.993   7.741  0.0751 -0.0348  0.4759
 8354SOL    HW236699   3.436   1.951   7.651 -0.7223 -1.0604  0.5290
 8355SOL     OW36700   0.128   0.597   2.371 -0.0800 -0.5698 -0.4117
 8355SOL    HW136701   0.205   0.543   2.385  0.8796  0.9927  0.4012
 8355SOL    HW236702   0.131   0.607   2.276 -1.3029 -0.1673 -0.4028
 8356SOL     OW36703   0.225   1.720   3.667 -0.6326 -0.5083  0.2360
 8356SOL    HW136704   0.202   1.742   3.577 -1.7135  0.7707  0.8326
 8356SOL    HW236705   0.150   1.676   3.707 -1.5129  0.4357 -0.3856
 8357SOL     OW36706   4.482   2.364  13.589 -0.3694  0.5860  0.5092
 8357SOL    HW136707   4.525   2.358  13.674  2.3228 -1.1243 -0.9457
 8357SOL    HW236708   4.559   2.351  13.534 -0.9637 -1.4152  0.1356
 8358SOL     OW36709   0.215   4.690  10.102 -0.3321  0.2704  0.0138
 8358SOL    HW136710   0.229   4.652  10.015 -2.4640 -0.9217  0.2060
 8358SOL    HW236711   0.132   4.656  10.135 -2.5183  1.9915 -3.6719
 8359SOL     OW36712   1.741   0.630   6.604 -0.6420 -0.4982  0.4261
 8359SOL    HW136713   1.805   0.633   6.675 -0.5114  0.7416  0.2633
 8359SOL    HW236714   1.726   0.724   6.590 -1.0539 -0.9262 -1.9641
 8360SOL     OW36715   2.821   3.891   2.174 -0.3318 -0.5892 -0.0544
 8360SOL    HW136716   2.772   3.966   2.141  1.0476  1.5929  2.8996
 8360SOL    HW236717   2.885   3.940   2.225  1.2780 -1.4193 -1.2718
 8361SOL     OW36718   3.030   4.621   6.599  0.0598 -0.2824  0.2879
 8361SOL    HW136719   3.025   4.706   6.556 -0.7226 -0.3487  0.2455
 8361SOL    HW236720   3.016   4.563   6.525 -0.9866  0.9066 -0.4446
 8362SOL     OW36721   2.225   4.137   9.060  0.8310  0.0165  0.5754
 8362SOL    HW136722   2.133   4.155   9.082  0.6407  2.4899 -2.1178
 8362SOL    HW236723   2.213   4.043   9.051 -1.2195  0.3379 -0.2043
 8363SOL     OW36724   3.266   1.519   9.780 -0.3035  0.5190 -0.1733
 8363SOL    HW136725   3.301   1.470   9.705 -0.4369  2.1331 -1.2855
 8363SOL    HW236726   3.336   1.520   9.846 -1.8657 -4.0992  1.6172
 8364SOL     OW36727   1.139   4.632   5.798  0.3340  0.1530  0.4034
 8364SOL    HW136728   1.143   4.696   5.870 -2.3239 -0.1182  0.8143
 8364SOL    HW236729   1.053   4.652   5.761 -0.1306 -1.3611  0.6990
 8365SOL     OW36730   0.126   3.149   2.645  0.6103 -0.0344 -0.3206
 8365SOL    HW136731   0.098   3.191   2.563 -1.2767  0.9143  0.8171
 8365SOL    HW236732   0.042   3.107   2.661 -0.1463  1.7341  0.4114
 8366SOL     OW36733   1.273   2.318   6.529 -0.3342 -0.6251  0.1212
 8366SOL    HW136734   1.351   2.300   6.477  0.2039  0.6854  0.4799
 8366SOL    HW236735   1.241   2.229   6.548 -2.0918 -0.3752 -1.6796
 8367SOL     OW36736   2.762   2.935   2.444 -0.2422  0.1821 -0.2299
 8367SOL    HW136737   2.856   2.933   2.463 -0.4616 -1.7337  0.6076
 8367SOL    HW236738   2.746   2.945   2.538 -1.8019 -1.2286 -0.3374
 8368SOL     OW36739   1.715   4.062   5.594  0.9124  0.8688  0.0964
 8368SOL    HW136740   1.653   4.105   5.536  0.7468 -1.0783 -1.1845
 8368SOL    HW236741   1.753   3.997   5.534 -1.0776 -0.4866  0.3054
 8369SOL     OW36742   0.225   1.073   3.713  0.5488  0.1633 -0.1544
 8369SOL    HW136743   0.188   1.019   3.643  3.0674 -1.9939  0.1894
 8369SOL    HW236744   0.222   1.154   3.662  1.5649  0.3564  0.0901
 8370SOL     OW36745   2.431   2.473   7.416  0.7610 -0.3797 -0.3701
 8370SOL    HW136746   2.443   2.546   7.356  0.8419 -1.7868 -2.0611
 8370SOL    HW236747   2.350   2.502   7.459 -0.7297  0.2344 -3.5708
 8371SOL     OW36748   1.055   3.399  14.438  0.0578 -0.2464  1.2721
 8371SOL    HW136749   1.051   3.432  14.528  0.4687  2.4457  0.3126
 8371SOL    HW236750   1.146   3.368  14.431 -0.4105 -1.4246  0.5415
 8372SOL     OW36751   3.984   1.956   8.581 -0.3609  0.2693 -0.5600
 8372SOL    HW136752   3.968   2.050   8.585  1.4397  0.5897 -1.1167
 8372SOL    HW236753   3.991   1.943   8.487 -0.5460 -1.2274 -0.3683
 8373SOL     OW36754   2.097   0.870  15.070  0.7022 -0.3824  0.0780
 8373SOL    HW136755   2.163   0.908  15.128  1.4846 -2.2391  0.4087
 8373SOL    HW236756   2.021   0.857  15.126  0.3631  1.1731 -0.0158
 8374SOL     OW36757   2.406   2.447   1.366 -0.4597 -0.4329 -0.4960
 8374SOL    HW136758   2.421   2.510   1.436 -2.2641  1.8438 -2.1181
 8374SOL    HW236759   2.489   2.453   1.319 -0.9341  2.8882 -0.9302
 8375SOL     OW36760   1.522   2.723   8.124  0.1997  0.1228 -0.5237
 8375SOL    HW136761   1.497   2.717   8.216  2.3624 -0.1040  0.0646
 8375SOL    HW236762   1.579   2.799   8.140 -2.3669  2.0121 -0.3890
 8376SOL     OW36763   4.153   3.993   5.194  0.6628  0.0196  0.3370
 8376SOL    HW136764   4.200   4.052   5.134 -0.2219 -1.4048 -1.7613
 8376SOL    HW236765   4.219   3.927   5.216  0.3055  0.0765  1.5827
 8377SOL     OW36766   3.092   2.308   2.919  0.0422 -0.2041  0.0450
 8377SOL    HW136767   3.094   2.216   2.944 -0.4632 -0.3688 -0.5053
 8377SOL    HW236768   3.016   2.317   2.862  0.0385 -0.5884 -0.0088
 8378SOL     OW36769   1.080   2.933   0.106  0.0170 -0.0673  0.1485
 8378SOL    HW136770   1.084   2.925   0.010 -1.2632 -0.5285  0.1408
 8378SOL    HW236771   1.023   2.859   0.126  1.3174 -1.0539  0.2325
 8379SOL     OW36772   3.920   4.259   5.129 -0.1447  0.0470 -0.0921
 8379SOL    HW136773   3.912   4.232   5.038 -1.7141 -1.3354  0.4338
 8379SOL    HW236774   3.909   4.176   5.176  0.5529  0.0114  0.0077
 8380SOL     OW36775   0.659   2.600   1.592 -0.7211  0.2498 -0.6948
 8380SOL    HW136776   0.705   2.653   1.527 -0.3583 -0.3716 -0.9439
 8380SOL    HW236777   0.736   2.561   1.633 -0.1256  0.5206 -1.5591
 8381SOL     OW36778   1.331   2.044   6.526  0.0841 -0.5398  0.1198
 8381SOL    HW136779   1.404   2.089   6.567 -1.8962 -0.0120  3.0669
 8381SOL    HW236780   1.378   1.975   6.479 -0.7261  0.0610 -1.5478
 8382SOL     OW36781   2.408   3.489  14.750  0.4028 -0.6828 -0.0112
 8382SOL    HW136782   2.371   3.420  14.804  1.8631  1.2351  3.4024
 8382SOL    HW236783   2.386   3.451  14.664  1.0845 -1.7424  0.2943
 8383SOL     OW36784   1.464   1.328   9.390  0.3227  0.3629 -0.4882
 8383SOL    HW136785   1.550   1.337   9.347  0.6070  1.3332  0.2851
 8383SOL    HW236786   1.413   1.323   9.310  2.2113 -3.0170 -1.5034
 8384SOL     OW36787   2.410   0.452  10.175  1.1546  0.0929 -0.4783
 8384SOL    HW136788   2.466   0.529  10.166  0.9198  0.3336  0.1294
 8384SOL    HW236789   2.363   0.481  10.097  2.5747 -1.4039 -1.8700
 8385SOL     OW36790   2.509   0.184  11.090  0.3427  0.5522 -0.0548
 8385SOL    HW136791   2.504   0.114  11.155 -1.5834  3.6348  3.1478
 8385SOL    HW236792   2.571   0.140  11.032 -0.3723 -1.8846  1.0060
 8386SOL     OW36793   2.804   3.526   5.623  0.1967 -0.7775 -0.7371
 8386SOL    HW136794   2.750   3.488   5.693 -0.2602  2.1763  0.5409
 8386SOL    HW236795   2.891   3.492   5.641  0.6825 -0.1364 -1.9211
 8387SOL     OW36796   3.286   0.410  17.129 -0.0295  0.1188 -0.7531
 8387SOL    HW136797   3.349   0.450  17.188  0.0239  0.8882 -1.3359
 8387SOL    HW236798   3.251   0.334  17.176  0.5579  1.5663  1.9975
 8388SOL     OW36799   2.209   3.418  16.460 -0.0216  0.3946 -0.2620
 8388SOL    HW136800   2.260   3.491  16.496 -2.3068  1.5740  0.5808
 8388SOL    HW236801   2.228   3.420  16.367 -0.6883 -3.0731 -0.4562
 8389SOL     OW36802   0.587   4.266   9.381 -0.0977 -0.2459 -0.5257
 8389SOL    HW136803   0.584   4.225   9.294  0.6089 -0.3484 -0.5022
 8389SOL    HW236804   0.526   4.339   9.375 -1.6591 -1.5888 -1.0719
 8390SOL     OW36805   3.768   0.317   9.683 -0.1713  0.0791  0.1450
 8390SOL    HW136806   3.856   0.280   9.690 -0.9219 -1.3048  1.9257
 8390SOL    HW236807   3.762   0.341   9.590 -1.5958 -1.8412 -0.2529
 8391SOL     OW36808   2.274   4.080   8.333  0.2034  0.2127  0.5917
 8391SOL    HW136809   2.198   4.125   8.296 -0.7814 -0.9305  1.2121
 8391SOL    HW236810   2.308   4.150   8.390 -0.9585  1.6662 -0.4921
 8392SOL     OW36811   3.216   0.771  17.709  0.4481 -0.1313 -0.0610
 8392SOL    HW136812   3.238   0.708   0.036  1.7009  0.1818 -0.1656
 8392SOL    HW236813   3.213   0.711  17.635 -1.9536  0.0518 -0.1027
 8393SOL     OW36814   0.754   2.813   9.568  0.8229 -0.4903 -0.2060
 8393SOL    HW136815   0.795   2.881   9.622  1.6929 -0.8709 -0.3929
 8393SOL    HW236816   0.667   2.851   9.552  2.6768  4.2317  0.7236
 8394SOL     OW36817   0.520   4.457   9.021  0.4145  0.6523 -0.2300
 8394SOL    HW136818   0.447   4.399   8.999  1.6491 -0.7772 -0.5374
 8394SOL    HW236819   0.551   4.500   8.942 -2.8486 -0.5353 -2.1480
 8395SOL     OW36820   3.871   2.621   6.213  0.1404  0.4392 -1.1798
 8395SOL    HW136821   3.874   2.684   6.140 -3.8492  1.8203 -0.1245
 8395SOL    HW236822   3.931   2.663   6.274 -1.4500  0.9523  0.0196
 8396SOL     OW36823   3.847   3.846   8.430  0.0862 -0.1073 -0.4231
 8396SOL    HW136824   3.932   3.890   8.436  0.3187 -0.4114 -1.4459
 8396SOL    HW236825   3.819   3.834   8.521 -0.2481  0.6143 -0.4303
 8397SOL     OW36826   3.763   2.285   4.862 -0.0545  0.4948  0.3612
 8397SOL    HW136827   3.713   2.260   4.940 -1.3820 -0.2903 -0.7600
 8397SOL    HW236828   3.781   2.197   4.829  4.9366  1.1787  1.1302
 8398SOL     OW36829   3.113   3.938   7.725 -0.0123  0.2466 -0.3345
 8398SOL    HW136830   3.146   3.861   7.771  0.2650  0.8072  0.4193
 8398SOL    HW236831   3.048   3.982   7.780  0.0703 -0.4056  0.2766
 8399SOL     OW36832   4.287   1.055  11.401 -0.1278  0.3595 -0.2561
 8399SOL    HW136833   4.235   1.034  11.478 -0.2440 -1.1384 -0.7354
 8399SOL    HW236834   4.310   0.967  11.370 -1.7718  0.1254 -0.8292
 8400SOL     OW36835   1.808   2.717  15.642  0.2974 -0.2468 -0.3986
 8400SOL    HW136836   1.900   2.742  15.651  0.4531 -0.2082 -2.0225
 8400SOL    HW236837   1.794   2.693  15.733  1.5282  2.1897  0.4203
 8401SOL     OW36838   2.712   0.751   9.095  0.1186  0.2172  0.0666
 8401SOL    HW136839   2.712   0.832   9.045  1.0452  0.6552  0.7630
 8401SOL    HW236840   2.800   0.750   9.134 -0.8032 -0.4611  2.1066
 8402SOL     OW36841   2.513   1.514  17.740 -0.1912 -0.0362  0.3353
 8402SOL    HW136842   2.514   1.554  17.653 -0.6048 -0.2868  0.2137
 8402SOL    HW236843   2.588   1.548   0.046  1.7830 -1.8789 -1.3787
 8403SOL     OW36844   0.558   1.046  16.391 -0.6316 -0.2695 -0.0836
 8403SOL    HW136845   0.588   1.012  16.307 -1.5558  1.2195 -1.0102
 8403SOL    HW236846   0.471   1.005  16.393  0.5030 -2.7097 -0.2689
 8404SOL     OW36847   0.834   1.159   7.371  0.3479 -0.2132 -0.3495
 8404SOL    HW136848   0.852   1.205   7.289 -0.3197  0.5602 -0.0683
 8404SOL    HW236849   0.739   1.155   7.355  0.0759 -1.1589  1.5389
 8405SOL     OW36850   1.552   0.314  15.615 -0.1472 -0.6280  0.5040
 8405SOL    HW136851   1.461   0.314  15.646 -0.0494 -1.1272  0.7966
 8405SOL    HW236852   1.547   0.223  15.584  1.4610 -0.9794  1.2488
 8406SOL     OW36853   3.549   3.843   8.052  0.1258 -0.2123 -0.0559
 8406SOL    HW136854   3.638   3.814   8.031  0.0052 -0.9957  0.5719
 8406SOL    HW236855   3.566   3.883   8.137 -0.7855  0.0419  0.0087
 8407SOL     OW36856   0.076   1.282  14.904 -0.1029 -0.0593 -0.5864
 8407SOL    HW136857   0.060   1.206  14.959  0.9468  0.2127  0.0961
 8407SOL    HW236858   4.723   1.305  14.878 -0.8203 -0.0631  1.8690
 8408SOL     OW36859   1.994   2.279   9.756 -0.1238 -0.3732  0.0188
 8408SOL    HW136860   2.035   2.345   9.812  2.9501 -0.1592 -2.4732
 8408SOL    HW236861   2.074   2.232   9.732  1.2191  0.0955  3.5418
 8409SOL     OW36862   1.739   1.283   4.643 -0.0028 -0.0105  0.8710
 8409SOL    HW136863   1.818   1.271   4.592 -0.9137  0.6042 -0.6780
 8409SOL    HW236864   1.766   1.262   4.733 -2.3372 -0.7516  1.3956
 8410SOL     OW36865   4.128   0.404   7.320 -0.1730  0.6930 -0.3645
 8410SOL    HW136866   4.078   0.326   7.342  0.0150  0.8454  0.6098
 8410SOL    HW236867   4.120   0.406   7.224 -3.3260 -0.3138 -0.1105
 8411SOL     OW36868   2.450   1.314   7.144 -0.4200  0.6514 -0.1321
 8411SOL    HW136869   2.430   1.349   7.231  1.1814  0.3663  0.3466
 8411SOL    HW236870   2.540   1.286   7.156 -0.5026 -0.1285 -1.3486
 8412SOL     OW36871   1.436   2.706  11.662  0.1765  0.3594  0.6977
 8412SOL    HW136872   1.423   2.692  11.756 -0.8902  0.8307  0.6167
 8412SOL    HW236873   1.498   2.777  11.642  1.0502 -0.7568 -0.5232
 8413SOL     OW36874   2.531   0.666   3.618  0.2744  0.2541  0.1375
 8413SOL    HW136875   2.463   0.664   3.685 -1.5875  2.5657 -1.6695
 8413SOL    HW236876   2.610   0.674   3.671 -1.0734  3.3328  1.7265
 8414SOL     OW36877   1.211   0.539   5.756  0.0033 -0.4301  0.0706
 8414SOL    HW136878   1.270   0.465   5.768  0.9167  0.4665  1.1279
 8414SOL    HW236879   1.265   0.606   5.798 -2.0930  2.6099 -2.0627
 8415SOL     OW36880   4.531   1.040   6.401  0.5631 -0.5131 -0.1401
 8415SOL    HW136881   4.532   1.010   6.310 -1.7858 -0.9215 -0.0302
 8415SOL    HW236882   4.523   1.135   6.389  0.4632 -0.6187 -0.9241
 8416SOL     OW36883   3.091   0.521  14.588 -0.3095  0.1744 -0.2963
 8416SOL    HW136884   3.088   0.441  14.642  1.0364  0.8474  0.7713
 8416SOL    HW236885   3.019   0.504  14.527 -1.5250 -0.3211  1.2764
 8417SOL     OW36886   3.371   3.682   3.093  0.2120 -0.0300  0.4854
 8417SOL    HW136887   3.365   3.664   3.186 -1.5608 -0.0946  0.3574
 8417SOL    HW236888   3.446   3.742   3.099  0.6751 -0.4975 -0.4784
 8418SOL     OW36889   1.884   2.078   1.800  0.0464  0.5853  0.3963
 8418SOL    HW136890   1.945   2.005   1.793 -1.1371 -0.0665 -2.9948
 8418SOL    HW236891   1.930   2.152   1.760 -0.6395  1.5906  1.4468
 8419SOL     OW36892   0.620   4.300  16.536  0.0783  0.5079 -0.4772
 8419SOL    HW136893   0.691   4.277  16.597  0.4007  0.6891 -0.7821
 8419SOL    HW236894   0.633   4.219  16.488 -1.9775  0.8332 -1.5771
 8420SOL     OW36895   3.529   4.601  16.399  0.2609 -0.3387 -0.0466
 8420SOL    HW136896   3.558   4.574  16.486  1.0634 -0.7202 -0.4294
 8420SOL    HW236897   3.447   4.637  16.431 -0.7995 -1.5424 -1.4292
 8421SOL     OW36898   3.132   0.602  17.525 -0.4365  0.0642  0.7502
 8421SOL    HW136899   3.041   0.608  17.494 -0.0678 -0.3216 -0.4405
 8421SOL    HW236900   3.175   0.597  17.439  0.3255 -0.1267  1.1517
 8422SOL     OW36901   0.903   1.005   9.172 -0.2749  0.5350  0.4055
 8422SOL    HW136902   0.854   0.984   9.092  0.8204 -1.6432  0.3094
 8422SOL    HW236903   0.926   1.097   9.164 -2.0009  0.7855 -2.0371
 8423SOL     OW36904   0.226   4.343  17.564  0.8139  0.1122 -0.4871
 8423SOL    HW136905   0.133   4.337  17.584  0.1510  0.7359 -3.3275
 8423SOL    HW236906   0.266   4.335  17.650  0.4784 -1.2517 -0.4547
 8424SOL     OW36907   2.997   4.401   8.708  0.4681 -0.0688  0.3459
 8424SOL    HW136908   2.909   4.363   8.705 -0.0698  1.4276 -2.9752
 8424SOL    HW236909   2.996   4.456   8.787  1.6826 -1.5820  1.4214
 8425SOL     OW36910   2.221   3.308   9.552 -0.3278  0.2338  0.2618
 8425SOL    HW136911   2.269   3.257   9.617 -2.0184 -0.8619  0.6720
 8425SOL    HW236912   2.140   3.256   9.551 -0.7420  0.9187 -1.5068
 8426SOL     OW36913   3.017   0.934  10.022  0.0284 -0.6683 -0.0260
 8426SOL    HW136914   3.025   0.932   9.927  1.6723  0.1060  0.0847
 8426SOL    HW236915   2.972   0.854  10.048 -1.2480 -0.3010 -1.1683
 8427SOL     OW36916   1.566   3.547   2.904 -0.0395  0.2533 -0.1583
 8427SOL    HW136917   1.559   3.587   2.818 -3.3159  0.7246  0.3174
 8427SOL    HW236918   1.639   3.593   2.944  0.1492 -0.8337  0.7630
 8428SOL     OW36919   4.332   4.245   5.618 -0.0810 -0.3836  1.1210
 8428SOL    HW136920   4.271   4.282   5.553  0.7888 -0.6570  0.1393
 8428SOL    HW236921   4.291   4.283   5.695 -1.5542  5.2519 -2.4241
 8429SOL     OW36922   2.618   2.204   3.983  0.0394 -0.2178 -0.1988
 8429SOL    HW136923   2.671   2.281   4.004 -0.9688  0.1632  0.9236
 8429SOL    HW236924   2.565   2.244   3.915  2.0811  3.2986  0.2556
 8430SOL     OW36925   1.384   4.495  14.888 -0.1908  0.1633  0.2347
 8430SOL    HW136926   1.400   4.414  14.839 -2.5996 -0.4481  0.4668
 8430SOL    HW236927   1.439   4.557  14.841  1.0826  0.2489  1.8512
 8431SOL     OW36928   1.841   0.197   2.468 -0.3795 -0.1153  0.4854
 8431SOL    HW136929   1.805   0.177   2.554  2.7035 -1.0488  1.5637
 8431SOL    HW236930   1.768   0.246   2.430  1.0733  0.6758 -1.2893
 8432SOL     OW36931   1.552   4.639   6.603 -0.6000 -0.4929  0.0831
 8432SOL    HW136932   1.556   4.711   6.539  1.4766  0.8967  1.7803
 8432SOL    HW236933   1.640   4.603   6.594 -0.6783 -1.2362  2.3974
 8433SOL     OW36934   0.281   1.853  10.633  0.0254 -0.1863  0.3459
 8433SOL    HW136935   0.288   1.834  10.539  1.0581  1.7340  0.0391
 8433SOL    HW236936   0.369   1.830  10.663 -0.5053 -0.6244  1.5445
 8434SOL     OW36937   4.574   0.162   4.306  0.6714 -0.0828  0.0197
 8434SOL    HW136938   4.668   0.149   4.318  0.3310 -0.9352  1.7203
 8434SOL    HW236939   4.532   0.117   4.379 -0.4785  0.2582 -0.4279
 8435SOL     OW36940   4.636   2.658   2.385 -0.3623  0.3954  0.0896
 8435SOL    HW136941   4.636   2.586   2.321  2.3063 -0.6242  1.2318
 8435SOL    HW236942   4.546   2.672   2.415 -1.0656 -1.6261 -1.1029
 8436SOL     OW36943   2.870   2.968   3.182  0.8098 -0.1366 -0.0491
 8436SOL    HW136944   2.890   2.880   3.151 -1.8962  0.0571 -2.3944
 8436SOL    HW236945   2.873   3.015   3.098 -0.2412  0.2791  0.1390
 8437SOL     OW36946   0.438   4.416   1.103 -0.2095 -0.1726 -0.0389
 8437SOL    HW136947   0.444   4.452   1.191  3.9684  1.9249 -1.1723
 8437SOL    HW236948   0.470   4.326   1.109 -1.4305 -0.7499 -2.1025
 8438SOL     OW36949   2.922   2.027   0.422  0.1529  0.1882  0.2994
 8438SOL    HW136950   2.973   2.106   0.443  0.4880 -0.5275  2.2060
 8438SOL    HW236951   2.833   2.036   0.455  0.5901 -1.7539  2.0252
 8439SOL     OW36952   3.510   2.387   3.250  0.0037 -0.3392  0.9109
 8439SOL    HW136953   3.446   2.398   3.179  2.5862  0.5630 -1.2603
 8439SOL    HW236954   3.541   2.298   3.233  1.7749  0.2336  1.2104
 8440SOL     OW36955   4.679   3.230   5.920  0.3767 -0.0860  0.1074
 8440SOL    HW136956   4.696   3.136   5.925  2.4439  0.2242 -1.1978
 8440SOL    HW236957   4.612   3.222   5.852  2.2710  1.4601 -1.9204
 8441SOL     OW36958   3.547   2.819   4.602  0.2105 -0.0317  0.1678
 8441SOL    HW136959   3.557   2.803   4.508  1.1431  1.1423  0.0618
 8441SOL    HW236960   3.563   2.732   4.636 -1.5012  0.3714  1.9866
 8442SOL     OW36961   0.567   3.090   7.034  0.0795 -0.3926 -0.3291
 8442SOL    HW136962   0.624   3.160   7.064 -1.6649  0.8162  0.1532
 8442SOL    HW236963   0.480   3.104   7.071  0.1536  0.8242 -0.6055
 8443SOL     OW36964   1.296   0.301   0.883 -0.2488 -0.1649 -0.6550
 8443SOL    HW136965   1.358   0.360   0.839 -0.5147 -0.5670 -1.5772
 8443SOL    HW236966   1.227   0.366   0.896 -0.2847 -0.5440  1.0708
 8444SOL     OW36967   2.093   0.697   6.556  0.2287 -0.4664 -0.0980
 8444SOL    HW136968   2.042   0.627   6.596 -0.6221  0.3284  0.2035
 8444SOL    HW236969   2.181   0.667   6.578  0.0849 -0.2060  0.8228
 8445SOL     OW36970   3.601   3.237   6.076 -0.2501 -0.2420 -0.0906
 8445SOL    HW136971   3.602   3.325   6.113  1.2103 -0.2847 -0.0029
 8445SOL    HW236972   3.509   3.228   6.051 -0.0056 -2.3098 -0.2783
 8446SOL     OW36973   3.373   4.552   6.200 -0.5933  0.2944 -0.7876
 8446SOL    HW136974   3.416   4.490   6.258 -0.9487  0.3236 -0.4890
 8446SOL    HW236975   3.312   4.485   6.168  0.0036  0.5553 -2.5125
 8447SOL     OW36976   0.929   3.839   3.654 -0.1387  0.4730  0.2157
 8447SOL    HW136977   0.879   3.902   3.707 -0.7641  0.1227  0.0425
 8447SOL    HW236978   0.864   3.817   3.587 -2.3317  1.3079  2.0754
 8448SOL     OW36979   3.163   1.857   4.950  0.2540  0.0593 -0.6431
 8448SOL    HW136980   3.076   1.864   4.911 -0.4373  1.2511  1.0699
 8448SOL    HW236981   3.191   1.767   4.935  0.6722  0.0544  0.1541
 8449SOL     OW36982   0.896   2.460  11.869  0.1750 -0.2749 -0.0444
 8449SOL    HW136983   0.862   2.378  11.831  1.5146 -0.3521 -1.0634
 8449SOL    HW236984   0.949   2.487  11.795 -0.4395  0.3097 -0.2670
 8450SOL     OW36985   1.897   0.457  11.574 -0.1575  0.4432 -0.1881
 8450SOL    HW136986   1.889   0.393  11.503 -1.7892  2.4358 -1.8010
 8450SOL    HW236987   1.818   0.508  11.554 -0.0072  1.0037  0.6792
 8451SOL     OW36988   2.375   0.626   9.035  0.0828 -0.0571  0.3277
 8451SOL    HW136989   2.403   0.662   9.120 -1.2937  0.0715  0.7215
 8451SOL    HW236990   2.404   0.705   8.988 -0.1980  1.1192  2.1198
 8452SOL     OW36991   3.966   1.699   8.387  0.4471 -0.1023  0.2593
 8452SOL    HW136992   4.053   1.738   8.373 -0.3659  1.1239 -1.3946
 8452SOL    HW236993   3.993   1.609   8.370  0.0643 -0.7267  2.9957
 8453SOL     OW36994   3.621   1.024   6.952  0.1653  0.9285  0.1066
 8453SOL    HW136995   3.636   0.943   6.903 -0.4337  0.4514  0.7056
 8453SOL    HW236996   3.704   1.065   6.928 -0.0302  1.3531  0.1643
 8454SOL     OW36997   1.240   2.734  13.074 -0.1835  0.4568  0.0628
 8454SOL    HW136998   1.167   2.675  13.094 -0.1582 -0.2943 -2.0127
 8454SOL    HW236999   1.284   2.772  13.150  0.3305  0.1180 -0.0671
 8455SOL     OW37000   4.009   3.169  15.131 -0.0741 -0.4759  0.1063
 8455SOL    HW137001   3.974   3.201  15.214  0.8403  1.9387 -0.4631
 8455SOL    HW237002   3.953   3.093  15.111  0.0992 -0.5705 -0.0166
 8456SOL     OW37003   3.967   4.517   7.100  0.1700  0.8398  0.3150
 8456SOL    HW137004   3.878   4.534   7.132  0.0587 -1.0172  0.9589
 8456SOL    HW237005   3.964   4.545   7.009  2.7327  3.0633  0.9083
 8457SOL     OW37006   2.939   1.997  16.748  0.1721 -0.1579  0.3746
 8457SOL    HW137007   2.909   1.907  16.734 -0.3898 -0.0241  0.7084
 8457SOL    HW237008   3.016   1.980  16.802  1.3517  1.4024 -0.8266
 8458SOL     OW37009   2.789   4.375  10.292 -0.5326  0.5326 -0.1506
 8458SOL    HW137010   2.857   4.338  10.347  1.8659  2.4224 -1.8447
 8458SOL    HW237011   2.713   4.384  10.350 -1.1445 -0.0553 -0.8530
 8459SOL     OW37012   1.624   3.507  17.376 -0.2993  0.2664  0.4707
 8459SOL    HW137013   1.597   3.533  17.288 -0.8175  2.7961  1.3815
 8459SOL    HW237014   1.543   3.494  17.425 -1.1696  2.7283 -0.3173
 8460SOL     OW37015   3.683   1.395   6.562 -0.0876  0.6615 -0.2085
 8460SOL    HW137016   3.755   1.455   6.582  0.0323  0.5329 -0.2550
 8460SOL    HW237017   3.727   1.310   6.563  1.2096  1.3383 -0.2194
 8461SOL     OW37018   4.537   1.874   7.689 -0.3619  0.0530  0.4482
 8461SOL    HW137019   4.630   1.885   7.706  0.0473 -0.5739 -1.4569
 8461SOL    HW237020   4.524   1.920   7.607  0.2076 -0.5324  0.0324
 8462SOL     OW37021   3.215   2.366   1.673 -0.3931 -0.0864  0.0532
 8462SOL    HW137022   3.128   2.391   1.705  0.5016  1.8007  1.0636
 8462SOL    HW237023   3.193   2.290   1.620 -2.0707 -0.3651  1.1376
 8463SOL     OW37024   0.143   0.703  12.556  0.0211  0.6189 -0.6007
 8463SOL    HW137025   0.177   0.792  12.550 -0.3699  0.8348  0.3619
 8463SOL    HW237026   0.197   0.649  12.498 -1.0639  0.0123 -1.0644
 8464SOL     OW37027   2.777   1.393   8.316  0.3906 -0.1663 -0.3667
 8464SOL    HW137028   2.833   1.411   8.392  0.3783  2.1057 -0.9088
 8464SOL    HW237029   2.728   1.317   8.347 -0.6278  1.2850  1.5586
 8465SOL     OW37030   0.270   4.589   1.841  0.5099 -0.3421  0.1785
 8465SOL    HW137031   0.352   4.589   1.792  0.0182  0.1619 -0.6451
 8465SOL    HW237032   0.285   4.523   1.909 -1.9878 -1.1987 -0.0834
 8466SOL     OW37033   0.463   3.540  15.335 -0.0001  0.0704 -0.2048
 8466SOL    HW137034   0.486   3.532  15.428  0.2821 -0.0743 -0.2875
 8466SOL    HW237035   0.422   3.626  15.324 -1.7779 -0.8211 -0.4876
 8467SOL     OW37036   1.967   1.524  16.518 -0.3326  0.3967  0.0472
 8467SOL    HW137037   2.062   1.520  16.508 -0.3288  4.1187 -1.3929
 8467SOL    HW237038   1.936   1.455  16.459  0.7238  0.6547 -0.8006
 8468SOL     OW37039   4.733   3.294   0.550  0.7284  0.0185  0.3599
 8468SOL    HW137040   0.042   3.375   0.571  0.5924 -0.0176  0.8011
 8468SOL    HW237041   0.013   3.300   0.456  1.6845  0.0200  0.5245
 8469SOL     OW37042   2.770   2.196  17.604  0.3700 -0.1156 -0.3306
 8469SOL    HW137043   2.790   2.138  17.677  1.4012 -1.2004 -1.4813
 8469SOL    HW237044   2.843   2.185  17.544 -0.1076  1.1761 -1.1602
 8470SOL     OW37045   1.187   2.318   1.950 -0.1202  0.4773  0.5225
 8470SOL    HW137046   1.145   2.266   2.018  2.4654  0.1106  1.8573
 8470SOL    HW237047   1.155   2.272   1.872  2.0431  0.6729 -0.5007
 8471SOL     OW37048   0.393   1.490   4.205  0.1522 -0.2843  0.0345
 8471SOL    HW137049   0.449   1.494   4.283  0.2893  1.0709 -0.1417
 8471SOL    HW237050   0.452   1.455   4.138 -0.0009 -0.1341 -0.1807
 8472SOL     OW37051   0.681   4.087  13.107  0.2226 -0.0742  0.0228
 8472SOL    HW137052   0.611   4.113  13.167 -0.7370  2.6150 -2.2512
 8472SOL    HW237053   0.761   4.113  13.152 -0.3299  1.7505 -0.0331
 8473SOL     OW37054   4.626   0.265  10.348  0.2489  0.5481 -0.2574
 8473SOL    HW137055   4.714   0.228  10.338 -0.2152 -0.9559  1.3667
 8473SOL    HW237056   4.584   0.231  10.269 -0.2310  1.3601 -0.3512
 8474SOL     OW37057   3.032   2.610   6.748 -0.3951 -0.8411 -0.1637
 8474SOL    HW137058   2.987   2.543   6.696 -1.2931 -2.5571  2.8197
 8474SOL    HW237059   2.966   2.631   6.814 -0.3723 -1.7025  0.1276
 8475SOL     OW37060   2.546   3.342   4.911  0.4178  0.1496  0.6342
 8475SOL    HW137061   2.478   3.389   4.862  0.2307 -0.3916  0.3751
 8475SOL    HW237062   2.576   3.406   4.975  0.7473 -0.2646  0.8899
 8476SOL     OW37063   0.540   4.571  14.526 -0.1626  0.5966 -0.4278
 8476SOL    HW137064   0.452   4.533  14.532  0.1959 -0.0182  0.9564
 8476SOL    HW237065   0.538   4.623  14.446 -0.8137  0.2156 -0.6584
 8477SOL     OW37066   1.854   3.381   5.773  0.5836 -0.0542 -0.8686
 8477SOL    HW137067   1.766   3.408   5.800  1.0542 -0.8621  1.4796
 8477SOL    HW237068   1.887   3.470   5.766 -0.2892  0.4229  0.9522
 8478SOL     OW37069   0.247   0.132   5.710 -0.5725 -0.2480 -0.4589
 8478SOL    HW137070   0.214   0.084   5.634 -1.3648 -0.0825 -0.2183
 8478SOL    HW237071   0.234   0.222   5.680  0.4407 -0.5824 -1.9361
 8479SOL     OW37072   1.832   2.248   2.011  0.2343 -0.2500 -0.4881
 8479SOL    HW137073   1.836   2.177   1.947  1.0938  2.6185 -3.6157
 8479SOL    HW237074   1.752   2.217   2.054 -0.2739  0.1492 -1.1476
 8480SOL     OW37075   3.918   3.236   6.324  0.3350  0.4697  0.3587
 8480SOL    HW137076   3.911   3.315   6.269 -0.5483 -0.2913 -0.6010
 8480SOL    HW237077   3.879   3.266   6.406  0.6845 -1.9466  1.3978
 8481SOL     OW37078   2.536   4.265   8.620 -0.6287  0.0674 -0.1974
 8481SOL    HW137079   2.456   4.276   8.567 -0.4750 -0.0419 -0.4487
 8481SOL    HW237080   2.502   4.276   8.709  1.7349  0.6898  0.6206
 8482SOL     OW37081   4.245   1.076   8.242  0.1455  0.4188 -0.0616
 8482SOL    HW137082   4.166   1.022   8.236 -0.8229  2.0422 -1.9836
 8482SOL    HW237083   4.308   1.007   8.222 -1.7031 -0.8814 -1.3680
 8483SOL     OW37084   3.186   3.027   4.838 -0.3204 -0.0266 -0.1395
 8483SOL    HW137085   3.171   3.075   4.757  2.1764  1.3525  0.2284
 8483SOL    HW237086   3.138   3.091   4.891  0.6171  1.9533 -1.6708
 8484SOL     OW37087   1.838   4.676  16.229 -0.1394  0.1165  0.1435
 8484SOL    HW137088   1.853   0.001  16.301 -0.8182  1.7076 -1.0767
 8484SOL    HW237089   1.890   4.720  16.161  1.1599  0.4596  1.3423
 8485SOL     OW37090   1.286   0.044   6.247 -0.7957 -0.3518  0.1211
 8485SOL    HW137091   1.295   4.716   6.317 -1.2951 -0.4265  0.1146
 8485SOL    HW237092   1.379   0.047   6.226 -0.8560  0.8986  0.0553
 8486SOL     OW37093   1.203   2.114   9.736  0.1699 -0.0224  0.2867
 8486SOL    HW137094   1.163   2.103   9.822  0.0985  0.2178  0.2850
 8486SOL    HW237095   1.284   2.066   9.756  0.3819  0.0239 -0.4538
 8487SOL     OW37096   1.411   2.300   7.813  0.2137 -0.1740  0.0004
 8487SOL    HW137097   1.487   2.276   7.867 -1.8686 -3.5490  1.3894
 8487SOL    HW237098   1.340   2.316   7.875 -0.6196 -0.2298 -0.9547
 8488SOL     OW37099   2.006   3.618   6.055  0.3668  0.0294 -0.2390
 8488SOL    HW137100   1.956   3.616   5.974 -1.3031 -1.9169  0.8281
 8488SOL    HW237101   2.081   3.675   6.036  1.6777 -1.2115  1.1527
 8489SOL     OW37102   1.380   2.708   2.227 -0.2706 -0.4520  0.2079
 8489SOL    HW137103   1.456   2.733   2.174  0.1558 -0.0854  0.9790
 8489SOL    HW237104   1.398   2.759   2.306  0.0011 -0.9179  0.4485
 8490SOL     OW37105   2.548   4.182   6.698  0.3641  0.2737 -0.5419
 8490SOL    HW137106   2.505   4.203   6.615 -2.3392  0.9971  1.0290
 8490SOL    HW237107   2.540   4.087   6.706 -0.2939  0.3639 -0.1597
 8491SOL     OW37108   0.207   2.256   4.269 -0.9036  0.4723 -0.4274
 8491SOL    HW137109   0.113   2.262   4.287 -1.3006  1.4061 -2.7594
 8491SOL    HW237110   0.215   2.171   4.225  0.3067  0.5264 -0.3251
 8492SOL     OW37111   4.118   4.557   4.071  0.1558  0.0494  0.1332
 8492SOL    HW137112   4.172   4.632   4.095 -0.7743  0.7267  0.1187
 8492SOL    HW237113   4.171   4.489   4.111  1.4962  1.5825  0.9679
 8493SOL     OW37114   1.140   3.013  15.323 -0.3416  0.2706  0.3800
 8493SOL    HW137115   1.201   2.945  15.353 -0.1323 -0.3680 -1.5376
 8493SOL    HW237116   1.124   3.057  15.407 -0.6416  0.6880  0.1012
 8494SOL     OW37117   0.353   1.175   5.548 -0.5581 -0.3721 -0.4194
 8494SOL    HW137118   0.361   1.117   5.473 -0.1806 -1.9364  0.8329
 8494SOL    HW237119   0.343   1.260   5.505 -0.9819 -0.8316 -1.2342
 8495SOL     OW37120   1.628   2.639  13.944 -0.1319  0.6475  0.4399
 8495SOL    HW137121   1.587   2.663  14.027 -0.1591 -0.2783  0.6874
 8495SOL    HW237122   1.716   2.616  13.974 -0.8689  0.2563  2.3232
 8496SOL     OW37123   4.284   4.562  12.508  0.0386 -0.6295  0.8907
 8496SOL    HW137124   4.263   4.576  12.416 -2.2047  0.7816  1.6210
 8496SOL    HW237125   4.247   4.640  12.551 -0.6320 -0.3370 -0.2206
 8497SOL     OW37126   0.592   3.002   5.770  1.1452 -0.0424 -0.2876
 8497SOL    HW137127   0.666   3.036   5.721  0.5245  1.6489 -0.0665
 8497SOL    HW237128   0.549   3.081   5.803 -0.7201 -1.0237 -0.3312
 8498SOL     OW37129   2.056   1.842  14.133  0.1868  0.1025  0.2183
 8498SOL    HW137130   1.968   1.872  14.108  0.9836  1.6194 -0.7457
 8498SOL    HW237131   2.118   1.914  14.129  1.5581 -0.9581  2.7760
 8499SOL     OW37132   1.692   0.005   5.265  0.3115  0.5088 -0.1423
 8499SOL    HW137133   1.681   0.077   5.203  0.2763  0.9875  0.4162
 8499SOL    HW237134   1.604   4.711   5.284  0.3799 -0.3838 -1.2595
 8500SOL     OW37135   0.059   3.139   6.413  0.1841  0.6228  0.3846
 8500SOL    HW137136   0.016   3.184   6.341  0.7149  0.0902 -0.2609
 8500SOL    HW237137   4.728   3.147   6.481 -0.1016 -0.9123  0.2929
 8501SOL     OW37138   1.923   4.424  16.281  0.2417 -0.0225  0.4892
 8501SOL    HW137139   1.888   4.504  16.242 -0.3843 -0.4530  0.1793
 8501SOL    HW237140   2.016   4.448  16.279  0.5550 -1.2059  0.5761
 8502SOL     OW37141   1.150   2.089   6.925  0.3350  0.1774 -0.4648
 8502SOL    HW137142   1.187   2.170   6.961 -1.2128  0.4022  0.6294
 8502SOL    HW237143   1.063   2.086   6.966  0.0677  1.2822 -0.9402
 8503SOL     OW37144   0.921   3.622  10.566  0.2710 -0.0837 -0.0033
 8503SOL    HW137145   0.977   3.546  10.578  0.1355  0.0132  1.2406
 8503SOL    HW237146   0.981   3.684  10.608 -0.4014  0.4289  0.2131
 8504SOL     OW37147   0.388   0.072   6.117 -0.1386 -0.0554 -0.1334
 8504SOL    HW137148   0.474   0.049   6.153 -0.4544  0.7937  1.1499
 8504SOL    HW237149   0.357   4.719   6.098 -1.4222  0.1210  1.1438
 8505SOL     OW37150   1.766   0.675  15.456  0.1690 -0.7071  0.2061
 8505SOL    HW137151   1.674   0.702  15.464  1.1672  1.8237  3.4382
 8505SOL    HW237152   1.755   0.581  15.445 -1.3204 -0.7876  2.2418
 8506SOL     OW37153   3.253   4.601   5.559 -0.0900 -0.4495  0.4178
 8506SOL    HW137154   3.260   4.617   5.653  2.8540 -1.1242  0.3151
 8506SOL    HW237155   3.319   4.660   5.522  0.4676 -0.7740  0.8760
 8507SOL     OW37156   4.573   0.945  10.141 -0.0882  0.1095  0.5416
 8507SOL    HW137157   4.498   1.005  10.135  0.1133 -0.0503 -3.2708
 8507SOL    HW237158   4.573   0.940  10.237 -0.9010  0.1765  0.5498
 8508SOL     OW37159   1.241   1.912  14.628 -0.0822 -0.3084  0.0477
 8508SOL    HW137160   1.235   1.929  14.722  0.2218  0.0662 -0.0026
 8508SOL    HW237161   1.269   2.000  14.602  0.5502 -0.8211 -1.0274
 8509SOL     OW37162   1.102   3.287   0.365  0.3632 -0.1030 -0.2984
 8509SOL    HW137163   1.147   3.334   0.295 -0.3742  4.1568  2.0933
 8509SOL    HW237164   1.066   3.210   0.320  3.8525 -1.5536 -0.6018
 8510SOL     OW37165   1.384   2.042   1.834  0.0519 -0.7497  0.0831
 8510SOL    HW137166   1.417   1.967   1.882  0.5348 -0.2416  0.5502
 8510SOL    HW237167   1.289   2.036   1.848  0.0173  1.5263  0.8373
 8511SOL     OW37168   0.019   1.635   8.972 -0.4680  0.3329 -0.0842
 8511SOL    HW137169   4.685   1.650   8.909 -0.0456  1.2980 -0.3286
 8511SOL    HW237170   0.012   1.718   9.019  0.2438  0.3594 -0.0186
 8512SOL     OW37171   0.767   3.779  17.455 -0.2673 -0.3071  0.2740
 8512SOL    HW137172   0.758   3.873  17.468 -0.4914 -0.5793  2.2202
 8512SOL    HW237173   0.852   3.771  17.412 -1.9065 -2.4307 -2.5916
 8513SOL     OW37174   2.602   2.278  17.408  0.3191 -0.6596 -0.0907
 8513SOL    HW137175   2.635   2.226  17.334  0.1463 -2.6737  1.2477
 8513SOL    HW237176   2.671   2.266  17.473 -0.3723 -0.5478  0.6534
 8514SOL     OW37177   0.431   0.942  15.444 -0.1210 -0.3255  0.0293
 8514SOL    HW137178   0.518   0.921  15.409  0.6978 -1.8576  2.9881
 8514SOL    HW237179   0.383   0.942  15.362 -0.4378  1.2793  0.2258
 8515SOL     OW37180   3.645   4.077   6.911  0.0108 -0.0482  0.5047
 8515SOL    HW137181   3.551   4.067   6.924  0.5465 -2.4173  2.6227
 8515SOL    HW237182   3.681   4.062   6.998  1.1046  1.5633  0.3307
 8516SOL     OW37183   0.843   0.292   3.763  0.1671 -0.2382 -0.1973
 8516SOL    HW137184   0.862   0.241   3.842  1.7385  0.3783 -0.1878
 8516SOL    HW237185   0.819   0.380   3.793 -0.8611 -0.7119  0.3901
 8517SOL     OW37186   4.466   3.975  10.078  0.0035 -0.1210 -0.4623
 8517SOL    HW137187   4.416   3.895  10.092 -0.2204 -0.1359 -1.3386
 8517SOL    HW237188   4.550   3.943  10.046 -0.5834 -2.1487  0.0254
 8518SOL     OW37189   3.677   2.635  16.546  0.3457  0.1669 -0.0291
 8518SOL    HW137190   3.729   2.555  16.547 -1.0764 -0.7510  0.2622
 8518SOL    HW237191   3.616   2.609  16.615  0.1857 -2.5947 -1.2084
 8519SOL     OW37192   3.315   1.073   5.947  0.4871  0.6105  0.4709
 8519SOL    HW137193   3.345   1.148   5.998 -2.2485  0.6033  2.0696
 8519SOL    HW237194   3.237   1.037   5.990  0.3004  2.0060  1.2929
 8520SOL     OW37195   2.080   3.349  12.987 -1.1091 -0.2946  0.4589
 8520SOL    HW137196   2.053   3.346  12.895  0.7270 -2.2515  0.0088
 8520SOL    HW237197   2.175   3.341  12.982 -1.0251  0.3083  0.9818
 8521SOL     OW37198   0.666   2.232   4.090 -0.0551  0.3197 -0.0880
 8521SOL    HW137199   0.717   2.216   4.169 -2.0213 -1.4306  0.8264
 8521SOL    HW237200   0.599   2.295   4.116 -1.0170  0.1820 -2.2576
 8522SOL     OW37201   4.451   0.962   1.230 -0.1348  0.0508 -0.5407
 8522SOL    HW137202   4.431   1.020   1.156  0.5296 -0.2675 -0.9745
 8522SOL    HW237203   4.364   0.949   1.268  1.0000 -2.0044  1.3700
 8523SOL     OW37204   2.169   4.374   3.372 -0.4284  0.2282 -0.4102
 8523SOL    HW137205   2.133   4.448   3.421  1.8832  1.8404 -1.1600
 8523SOL    HW237206   2.166   4.396   3.279 -1.0194  0.4199 -0.3506
 8524SOL     OW37207   3.998   4.249   6.645 -0.1450  0.2375 -0.1925
 8524SOL    HW137208   4.001   4.227   6.551  0.8168 -0.8257  0.0897
 8524SOL    HW237209   3.910   4.283   6.659 -0.0123  2.0368 -3.5881
 8525SOL     OW37210   0.055   0.215  14.922  0.1919  0.0652 -0.4032
 8525SOL    HW137211   0.011   0.262  14.992 -0.8520 -0.5149 -0.6825
 8525SOL    HW237212   0.102   0.146  14.969  0.5202 -0.1187 -0.9966
 8526SOL     OW37213   0.566   1.408   2.398 -0.3733  0.4673  0.2280
 8526SOL    HW137214   0.495   1.380   2.340 -0.9642 -2.5626  2.4182
 8526SOL    HW237215   0.524   1.454   2.470  0.7448  0.8039  0.6643
 8527SOL     OW37216   2.581   3.302   1.240  0.1796 -0.0099 -0.4755
 8527SOL    HW137217   2.530   3.309   1.320  1.8269 -1.7209  0.7280
 8527SOL    HW237218   2.669   3.301   1.279 -0.5346 -3.2426  1.0546
 8528SOL     OW37219   0.576   3.805   5.805 -0.0087 -0.1353 -0.1821
 8528SOL    HW137220   0.525   3.871   5.757  0.4138 -1.2854 -2.2193
 8528SOL    HW237221   0.540   3.733   5.753  0.5295  0.3854 -1.2811
 8529SOL     OW37222   2.737   0.904   4.339 -0.4027  0.7712  0.0044
 8529SOL    HW137223   2.781   0.986   4.317  2.1508 -0.3862  0.8026
 8529SOL    HW237224   2.758   0.843   4.268  1.2644  1.9619 -0.5144
 8530SOL     OW37225   3.601   0.417   5.814 -0.1399 -0.1457 -0.2909
 8530SOL    HW137226   3.583   0.346   5.876  2.0890 -0.8787 -0.4848
 8530SOL    HW237227   3.557   0.490   5.859  0.3183 -0.1084  0.0996
 8531SOL     OW37228   0.194   3.963   6.725  0.1757  0.3626  0.4463
 8531SOL    HW137229   0.152   4.016   6.793  1.0837  0.1985  1.1331
 8531SOL    HW237230   0.193   4.029   6.655  0.9497 -0.6992 -0.5679
 8532SOL     OW37231   0.579   1.264  10.605  0.2829 -0.0936  0.0424
 8532SOL    HW137232   0.535   1.332  10.656 -0.8364 -0.5432 -0.3410
 8532SOL    HW237233   0.502   1.213  10.583  0.0699 -0.4261  1.5782
 8533SOL     OW37234   1.858   3.829  14.693 -0.2831 -0.1164  0.0770
 8533SOL    HW137235   1.952   3.847  14.697 -0.0282 -2.0464  2.4292
 8533SOL    HW237236   1.839   3.822  14.599 -0.9392 -2.4211  0.3908
 8534SOL     OW37237   3.362   2.930   6.044  0.7490  0.1525 -0.3008
 8534SOL    HW137238   3.393   2.979   5.968 -1.2230  2.3319  0.3069
 8534SOL    HW237239   3.334   2.854   5.992  0.4936  0.9514 -1.3368
 8535SOL     OW37240   3.245   4.322   6.119 -0.4977  0.3008 -0.2394
 8535SOL    HW137241   3.193   4.259   6.168 -0.7163  0.7272  0.0725
 8535SOL    HW237242   3.272   4.275   6.039  0.8023 -1.0767  1.0141
 8536SOL     OW37243   3.978   3.704   4.888 -0.3133  0.2053 -0.0791
 8536SOL    HW137244   3.939   3.778   4.934  0.9066  0.6275  0.2629
 8536SOL    HW237245   3.932   3.628   4.925  0.5279 -0.5298 -0.5528
 8537SOL     OW37246   3.295   1.386  17.117  0.1637  0.2462  0.2431
 8537SOL    HW137247   3.308   1.456  17.053  0.2294  0.2794  0.2924
 8537SOL    HW237248   3.202   1.397  17.137 -0.2596  0.1589 -1.7093
 8538SOL     OW37249   4.477   3.277   0.636  0.0859 -0.3938  0.0487
 8538SOL    HW137250   4.566   3.280   0.600  0.7533  0.2137  1.7675
 8538SOL    HW237251   4.460   3.183   0.643  0.8479 -0.5072  0.3738
 8539SOL     OW37252   2.720   2.950   9.616 -0.4825  0.3556 -0.6155
 8539SOL    HW137253   2.625   2.962   9.606 -0.2304  1.0260 -2.1667
 8539SOL    HW237254   2.744   2.967   9.525 -0.5961  2.4738 -0.2438
 8540SOL     OW37255   4.687   1.749   5.120 -0.2695  0.2996 -0.3237
 8540SOL    HW137256   0.046   1.743   5.126 -0.2092  0.9407 -0.6924
 8540SOL    HW237257   4.668   1.816   5.055  0.0672  1.5241  0.8489
 8541SOL     OW37258   1.326   2.995   2.703 -0.1991 -0.1457 -0.0347
 8541SOL    HW137259   1.234   3.022   2.708  0.5527  2.4606 -0.0188
 8541SOL    HW237260   1.357   3.017   2.790  1.2822 -0.3552 -0.5216
 8542SOL     OW37261   2.604   3.059   1.589  0.2148 -0.5168  0.0847
 8542SOL    HW137262   2.643   3.142   1.613 -0.2417  0.6263 -3.1830
 8542SOL    HW237263   2.657   2.994   1.637 -0.0016 -0.5348  0.3032
 8543SOL     OW37264   1.214   2.264   2.344 -0.1678 -0.3592  0.2333
 8543SOL    HW137265   1.128   2.222   2.351 -0.4730  0.0158 -1.4444
 8543SOL    HW237266   1.207   2.338   2.405 -1.3412 -0.6593  0.4636
 8544SOL     OW37267   1.619   3.440   2.028 -0.0971  0.8099  0.3518
 8544SOL    HW137268   1.554   3.490   1.979  0.4133  0.9807 -0.1607
 8544SOL    HW237269   1.661   3.512   2.075  3.1379 -1.0013  0.2327
 8545SOL     OW37270   1.901   0.860  15.257  0.0639  0.0294 -0.0783
 8545SOL    HW137271   1.835   0.802  15.294  1.3335 -0.0158  2.1046
 8545SOL    HW237272   1.919   0.925  15.325 -1.1033  0.6106 -0.3273
 8546SOL     OW37273   3.272   2.518   6.832 -0.2161 -0.6298 -0.6423
 8546SOL    HW137274   3.185   2.544   6.801 -0.6017  1.1302  1.9474
 8546SOL    HW237275   3.280   2.569   6.912  2.1064 -3.6140  1.0233
 8547SOL     OW37276   0.971   0.892   5.864 -0.2384 -0.0987 -0.1286
 8547SOL    HW137277   1.039   0.958   5.875 -1.2963  1.0534 -0.5170
 8547SOL    HW237278   0.893   0.940   5.836 -1.1889 -0.3127  2.1585
 8548SOL     OW37279   3.306   2.288   2.026  0.0212 -0.2419 -0.1745
 8548SOL    HW137280   3.287   2.221   1.960  1.0031 -0.3532 -0.3498
 8548SOL    HW237281   3.286   2.239   2.106  0.8475  1.7162  1.2133
 8549SOL     OW37282   3.762   1.593   3.060 -0.3203 -0.8967  0.3781
 8549SOL    HW137283   3.778   1.618   3.151 -0.9474  2.2006 -0.3544
 8549SOL    HW237284   3.834   1.643   3.020  0.4896 -1.8454  0.6498
 8550SOL     OW37285   1.911   1.662   3.933  0.3587 -0.3130  0.6165
 8550SOL    HW137286   1.930   1.666   4.027 -0.7742  0.0045  0.8331
 8550SOL    HW237287   1.817   1.678   3.940  0.5814  1.1413  0.3792
 8551SOL     OW37288   2.731   2.168  17.197  0.1931 -0.0001 -0.4392
 8551SOL    HW137289   2.668   2.128  17.137 -0.9416 -1.7286  1.8838
 8551SOL    HW237290   2.821   2.171  17.163 -0.2082 -1.1919 -1.6261
 8552SOL     OW37291   3.161   1.886   7.673  0.4276 -0.2564 -0.0581
 8552SOL    HW137292   3.194   1.922   7.756 -1.7798  0.7995  0.3582
 8552SOL    HW237293   3.218   1.929   7.609 -0.1092  0.2862 -0.1790
 8553SOL     OW37294   2.427   0.847   6.742 -0.1208  0.0518  0.3035
 8553SOL    HW137295   2.421   0.939   6.718 -4.6649 -0.3754 -0.3128
 8553SOL    HW237296   2.503   0.849   6.800 -0.3661 -1.4179  0.6857
 8554SOL     OW37297   1.812   1.497  14.970  0.1144  0.0456  0.1017
 8554SOL    HW137298   1.802   1.563  15.039 -0.1515  0.2715 -0.1508
 8554SOL    HW237299   1.902   1.469  14.987 -0.0909 -1.0226 -0.5586
 8555SOL     OW37300   2.407   0.645   4.915 -0.0204  0.0791 -0.1007
 8555SOL    HW137301   2.452   0.611   4.993  0.0948 -0.9820 -0.6355
 8555SOL    HW237302   2.404   0.569   4.858  1.2727  0.7800 -1.1154
 8556SOL     OW37303   3.396   2.346   6.666 -0.7320 -0.0374 -0.0071
 8556SOL    HW137304   3.346   2.393   6.732  0.7578  1.9555 -0.2853
 8556SOL    HW237305   3.485   2.372   6.689 -0.6989  0.1780 -0.3671
 8557SOL     OW37306   3.519   1.296   7.754  0.1340 -0.0406  0.0192
 8557SOL    HW137307   3.522   1.353   7.676  1.6142 -2.0528 -1.4018
 8557SOL    HW237308   3.472   1.218   7.726 -0.3612 -0.2217  1.3540
 8558SOL     OW37309   1.790   4.197   8.677  0.0104 -0.3080 -0.2666
 8558SOL    HW137310   1.867   4.251   8.660  0.2081 -0.3548  0.5194
 8558SOL    HW237311   1.731   4.229   8.608 -1.0993  1.2552  1.3994
 8559SOL     OW37312   2.318   0.067  14.017 -0.0925  0.4086  0.3466
 8559SOL    HW137313   2.347   4.714  14.032  1.7678  0.7300 -1.2356
 8559SOL    HW237314   2.286   0.097  14.102  1.3725 -1.7425  1.6669
 8560SOL     OW37315   4.474   2.850   5.088 -0.5928  0.7315  0.0703
 8560SOL    HW137316   4.378   2.854   5.086 -0.6022  0.4758  0.0439
 8560SOL    HW237317   4.488   2.843   4.993  0.4354  2.0648  0.1247
 8561SOL     OW37318   1.150   3.455   5.456 -0.2062  0.4151  0.1473
 8561SOL    HW137319   1.077   3.514   5.437 -0.9648 -0.7898 -0.7272
 8561SOL    HW237320   1.113   3.379   5.410  2.2417 -0.0024 -1.0858
 8562SOL     OW37321   3.087   0.966   6.038  0.2281 -0.4280  0.0229
 8562SOL    HW137322   3.041   1.014   6.107 -0.4631  1.0640 -1.4784
 8562SOL    HW237323   3.026   0.975   5.965 -0.2409  1.4732  0.6307
 8563SOL     OW37324   4.000   0.826   5.693  0.1800  0.4049  0.3632
 8563SOL    HW137325   3.963   0.748   5.652  0.2851 -0.2062  1.4549
 8563SOL    HW237326   4.090   0.819   5.662 -0.7910 -3.4324 -1.6172
 8564SOL     OW37327   1.452   3.551  10.155  0.2587  0.5425  0.9561
 8564SOL    HW137328   1.484   3.510  10.235 -1.4025  0.5620  1.6335
 8564SOL    HW237329   1.529   3.573  10.103  1.6291  3.3997  4.1847
 8565SOL     OW37330   3.053   0.427   5.277  0.0570 -0.2090 -0.3191
 8565SOL    HW137331   3.109   0.483   5.223 -0.6142 -0.1586 -0.9672
 8565SOL    HW237332   3.094   0.436   5.363  0.6176  1.5871 -0.7792
 8566SOL     OW37333   4.083   1.322   4.077  0.0958  0.6333  0.2200
 8566SOL    HW137334   4.011   1.345   4.018  1.4818  0.9699 -1.3501
 8566SOL    HW237335   4.031   1.265   4.132 -2.2052  1.4588 -1.1109
 8567SOL     OW37336   1.674   3.956   2.866  0.3562  0.0229 -0.2620
 8567SOL    HW137337   1.605   3.967   2.802 -1.6038 -2.2738  1.4629
 8567SOL    HW237338   1.749   3.942   2.808 -0.4415 -2.3703 -0.7113
 8568SOL     OW37339   0.180   2.817  11.549 -0.2346 -0.1376  0.1109
 8568SOL    HW137340   0.126   2.888  11.585 -0.2631  0.0762 -0.3568
 8568SOL    HW237341   0.130   2.744  11.585  0.1179 -0.3825  0.0996
 8569SOL     OW37342   3.320   0.860   7.833 -0.5670  0.5580  0.4783
 8569SOL    HW137343   3.314   0.926   7.902 -1.1365  1.3652 -0.3447
 8569SOL    HW237344   3.343   0.782   7.884  0.2312  0.5765  0.1460
 8570SOL     OW37345   1.219   3.385   8.346 -0.2346 -0.6636 -0.4209
 8570SOL    HW137346   1.185   3.427   8.425 -0.2307 -1.6018  0.0774
 8570SOL    HW237347   1.239   3.296   8.374 -0.9412 -0.2505  1.3894
 8571SOL     OW37348   0.664   2.258   3.042  0.1072 -0.4677  0.0464
 8571SOL    HW137349   0.734   2.231   3.102 -1.5981 -1.6259  1.5087
 8571SOL    HW237350   0.603   2.293   3.106  0.9685  1.8605 -0.4021
 8572SOL     OW37351   1.774   1.124   3.346  0.2644  0.1172  0.4918
 8572SOL    HW137352   1.783   1.153   3.255 -1.7417 -0.9563 -0.0707
 8572SOL    HW237353   1.784   1.210   3.387 -2.2579  0.8466 -0.3941
 8573SOL     OW37354   2.819   0.650   4.846  0.0358  0.2330  0.5875
 8573SOL    HW137355   2.898   0.676   4.799  1.2002  0.5527  2.7000
 8573SOL    HW237356   2.782   0.580   4.792 -0.2560  0.7274  0.1541
 8574SOL     OW37357   1.043   3.594   3.768 -0.7312  0.2651  0.1210
 8574SOL    HW137358   1.040   3.529   3.698 -0.4049  0.3546  0.0266
 8574SOL    HW237359   1.034   3.676   3.719  0.5062 -0.2915 -1.0648
 8575SOL     OW37360   3.010   4.081   3.312  0.3160  0.0231 -0.3568
 8575SOL    HW137361   3.018   4.051   3.402  0.2516 -2.6788 -1.2653
 8575SOL    HW237362   3.051   4.012   3.260 -1.0957 -1.4087  0.4394
 8576SOL     OW37363   3.655   1.163   4.022  0.4225 -0.0091  0.4326
 8576SOL    HW137364   3.729   1.174   4.082 -0.0292 -3.2075  1.5537
 8576SOL    HW237365   3.639   1.255   4.000  1.9260  0.5795  1.7954
 8577SOL     OW37366   0.225   3.468   2.172 -0.3901  0.3212 -0.0355
 8577SOL    HW137367   0.310   3.459   2.130 -0.9285 -2.4509 -0.5583
 8577SOL    HW237368   0.213   3.386   2.220  0.0443  0.4226  0.2486
 8578SOL     OW37369   2.638   3.924   4.316 -0.4773 -0.2433 -0.0097
 8578SOL    HW137370   2.557   3.972   4.332 -1.7118 -1.9947 -0.9620
 8578SOL    HW237371   2.666   3.979   4.243  2.6707 -2.4398 -0.4703
 8579SOL     OW37372   0.479   1.328   4.931  0.1391  0.5138 -0.1664
 8579SOL    HW137373   0.499   1.326   4.838  0.6593  0.2891 -0.0477
 8579SOL    HW237374   0.537   1.391   4.974  0.0229  0.8743 -0.5327
 8580SOL     OW37375   2.889   1.995   3.341 -0.5364 -0.4871 -0.4639
 8580SOL    HW137376   2.893   1.901   3.357  1.5381 -0.2468  0.4161
 8580SOL    HW237377   2.936   2.009   3.423  1.1546  0.4535 -1.5838
 8581SOL     OW37378   3.753   0.099   0.315 -0.3772 -0.0970 -0.0121
 8581SOL    HW137379   3.667   0.071   0.347 -0.0904  0.6910  1.4072
 8581SOL    HW237380   3.812   0.062   0.380 -0.3179  0.8008  0.4302
 8582SOL     OW37381   2.220   2.208   3.261  0.0196  0.8251  0.2209
 8582SOL    HW137382   2.151   2.272   3.241 -1.1138 -0.5169 -0.1592
 8582SOL    HW237383   2.245   2.190   3.170 -0.5381 -0.2157  0.2748
 8583SOL     OW37384   2.489   3.747   6.204  0.0327 -0.3753  0.1807
 8583SOL    HW137385   2.526   3.795   6.277 -0.2441  0.2823 -0.1095
 8583SOL    HW237386   2.482   3.659   6.242 -0.8559  0.4786  1.9748
 8584SOL     OW37387   2.444   4.521   3.635 -0.3337  0.3903  0.1067
 8584SOL    HW137388   2.412   4.545   3.722  4.5830  1.3356  1.6341
 8584SOL    HW237389   2.425   4.600   3.585  3.2548  1.5826  0.6336
 8585SOL     OW37390   0.555   0.974   2.609  0.1947  0.1083 -1.0573
 8585SOL    HW137391   0.642   1.009   2.593  0.0098  0.9024 -0.3591
 8585SOL    HW237392   0.517   0.949   2.525 -0.1076  0.0399 -0.9000
 8586SOL     OW37393   4.209   2.268   3.987 -0.0180 -0.3277 -0.0950
 8586SOL    HW137394   4.258   2.222   4.055  0.1094  1.4617  1.0151
 8586SOL    HW237395   4.123   2.236   4.014  0.0049 -1.3488 -1.2255
 8587SOL     OW37396   3.254   4.526   8.202  0.2446 -0.2869  0.1384
 8587SOL    HW137397   3.207   4.512   8.285 -1.9339  0.1873 -1.0182
 8587SOL    HW237398   3.319   4.457   8.197  1.0207  0.6333 -2.1310
 8588SOL     OW37399   2.173   2.510   6.148  0.0748 -0.3994  0.2173
 8588SOL    HW137400   2.246   2.559   6.110  0.9476 -2.0522 -0.2166
 8588SOL    HW237401   2.103   2.562   6.108  3.1304  2.3979 -1.5445
 8589SOL     OW37402   2.229   1.099   6.947  0.1399  0.1283  0.4851
 8589SOL    HW137403   2.259   1.113   7.037 -0.9241  2.8573  0.4162
 8589SOL    HW237404   2.292   1.151   6.897 -0.1597  0.4582  0.4574
 8590SOL     OW37405   0.634   3.743   6.551  0.4201 -0.0047  0.3392
 8590SOL    HW137406   0.616   3.743   6.457 -1.1104 -0.7484  0.6199
 8590SOL    HW237407   0.711   3.799   6.562  1.9499 -2.1872  0.6696
 8591SOL     OW37408   2.634   2.372  10.725 -0.4458 -0.1768  0.0705
 8591SOL    HW137409   2.658   2.376  10.633  1.1316 -0.4720  0.4545
 8591SOL    HW237410   2.693   2.443  10.754 -2.4881  1.7223 -0.4319
 8592SOL     OW37411   4.447   4.675   2.881 -0.2642 -0.5049  0.1510
 8592SOL    HW137412   4.437   4.661   2.975  1.6493 -0.4195  0.3693
 8592SOL    HW237413   4.529   4.632   2.856  0.3063 -0.0405  1.2535
 8593SOL     OW37414   3.395   0.028  13.274 -0.1901 -0.7272  0.3243
 8593SOL    HW137415   3.358   0.027  13.186  0.5318  0.3254  0.0062
 8593SOL    HW237416   3.353   4.685  13.307  2.8689 -2.2085  0.6034
 8594SOL     OW37417   4.049   3.135   9.482 -0.1291  0.2005 -0.0401
 8594SOL    HW137418   4.077   3.157   9.571  1.8908 -0.3432 -0.5519
 8594SOL    HW237419   3.987   3.064   9.499 -0.9783  0.6334 -1.2717
 8595SOL     OW37420   0.169   3.506   7.629 -0.1550 -0.1516  0.2737
 8595SOL    HW137421   0.148   3.467   7.544 -0.0512  1.7850 -0.6303
 8595SOL    HW237422   0.084   3.547   7.647  0.2689  0.9516 -0.2385
 8596SOL     OW37423   2.152   2.773   2.145  0.2580 -0.1121  0.5202
 8596SOL    HW137424   2.114   2.817   2.221 -0.0389 -0.0201  0.3185
 8596SOL    HW237425   2.245   2.771   2.165  0.5304 -1.1579 -0.8582
 8597SOL     OW37426   2.646   2.914   4.231  0.2220 -0.3516  0.2164
 8597SOL    HW137427   2.726   2.911   4.179 -0.9030 -0.0166 -1.5052
 8597SOL    HW237428   2.668   2.857   4.305 -2.2201  1.5295  2.3841
 8598SOL     OW37429   0.766   1.161  10.266 -0.0460 -0.0449  0.1624
 8598SOL    HW137430   0.781   1.142  10.174 -0.7552 -0.7429  0.1906
 8598SOL    HW237431   0.672   1.140  10.268 -0.2462  0.9245  1.7529
 8599SOL     OW37432   3.797   3.530   5.482  0.1751  0.3751 -0.1105
 8599SOL    HW137433   3.746   3.609   5.464  2.0746  1.6793  0.2036
 8599SOL    HW237434   3.751   3.473   5.420 -1.6442  0.1974  1.3919
 8600SOL     OW37435   2.549   4.351   3.946  0.1804  0.0790  0.4057
 8600SOL    HW137436   2.627   4.342   3.891 -0.4728  1.0001 -0.6626
 8600SOL    HW237437   2.506   4.433   3.924 -0.9106 -0.9640 -1.3520
 8601SOL     OW37438   4.322   2.207  11.602 -0.0044  0.2655 -0.1339
 8601SOL    HW137439   4.327   2.112  11.615  1.6591  0.4546  0.5336
 8601SOL    HW237440   4.234   2.213  11.641 -1.1600 -1.5677 -2.4111
 8602SOL     OW37441   2.190   0.613  15.047 -0.1382 -0.3805  0.3669
 8602SOL    HW137442   2.136   0.692  15.057 -0.1909 -0.2904 -0.6053
 8602SOL    HW237443   2.232   0.628  14.962 -3.0188 -0.9163 -1.1390
 8603SOL     OW37444   4.540   4.542   2.291 -0.1849  0.3211 -0.2729
 8603SOL    HW137445   4.605   4.548   2.220  1.8504 -2.1689  1.3646
 8603SOL    HW237446   4.526   4.632   2.319  0.4423  0.0625  0.8486
 8604SOL     OW37447   4.250   4.677   5.917  0.3325 -0.1698 -0.1290
 8604SOL    HW137448   4.283   4.713   5.835  3.2487  2.3663  2.1821
 8604SOL    HW237449   4.166   4.722   5.917  0.9415  0.9519  0.7901
 8605SOL     OW37450   3.512   3.742   1.380 -0.2299  0.1720 -0.3394
 8605SOL    HW137451   3.594   3.788   1.395  0.0772  0.0441 -1.6391
 8605SOL    HW237452   3.453   3.800   1.427  0.4402  1.3744 -0.9972
 8606SOL     OW37453   0.999   2.131   2.046 -0.3534  0.1822 -0.1416
 8606SOL    HW137454   1.015   2.053   2.100 -0.3856 -1.2539 -2.2212
 8606SOL    HW237455   0.910   2.159   2.067 -0.8676  1.0608 -3.4397
 8607SOL     OW37456   0.789   4.086  17.065  0.8807 -0.3373 -0.6073
 8607SOL    HW137457   0.732   4.159  17.041  2.0712  0.5909 -0.5641
 8607SOL    HW237458   0.791   4.037  16.982 -0.5887  0.2759 -0.9997
 8608SOL     OW37459   0.289   4.196   6.536  0.0340  0.4166  0.2389
 8608SOL    HW137460   0.307   4.106   6.509 -0.0840  0.6239 -0.5154
 8608SOL    HW237461   0.272   4.241   6.453  1.4067 -0.9633 -0.7984
 8609SOL     OW37462   0.718   1.808   9.312 -0.0154  0.1499  0.4710
 8609SOL    HW137463   0.638   1.853   9.337 -1.1028  0.1301 -2.9992
 8609SOL    HW237464   0.737   1.756   9.390  0.1279 -0.0832  0.2794
 8610SOL     OW37465   4.247   2.532   4.974 -0.2495 -0.6915  0.5249
 8610SOL    HW137466   4.342   2.540   4.984 -0.1178  1.0610 -2.1419
 8610SOL    HW237467   4.225   2.572   4.890  2.7481 -0.1396  0.0029
 8611SOL     OW37468   4.390   4.674   7.368 -0.1776  0.1790 -0.0741
 8611SOL    HW137469   4.378   4.612   7.440 -0.3044 -1.0040 -1.1026
 8611SOL    HW237470   4.343   4.630   7.297  0.6517 -1.5877  0.4626
 8612SOL     OW37471   3.369   1.163   9.399  0.0965  0.0124  0.6945
 8612SOL    HW137472   3.418   1.161   9.316 -0.4657  0.6620  0.3496
 8612SOL    HW237473   3.283   1.189   9.365  0.8462  0.2459 -1.0358
 8613SOL     OW37474   0.658   1.319   9.596  0.0784 -0.8115 -0.0450
 8613SOL    HW137475   0.568   1.333   9.625  0.8557 -0.1954  2.0929
 8613SOL    HW237476   0.696   1.264   9.664  0.2077  0.8535  1.2357
 8614SOL     OW37477   4.391   3.340  17.595  0.2677  0.2311  0.7722
 8614SOL    HW137478   4.484   3.332  17.577  0.5354  1.7141  1.5791
 8614SOL    HW237479   4.343   3.304  17.520  2.0648  0.0634 -0.2919
 8615SOL     OW37480   0.954   0.226   9.241 -0.4707 -0.7698 -0.0458
 8615SOL    HW137481   0.878   0.175   9.271  1.0788 -1.0961  3.3044
 8615SOL    HW237482   0.987   0.160   9.180 -1.2683 -1.7012  0.5286
 8616SOL     OW37483   3.372   0.128  14.543  0.2622 -0.0277 -0.1343
 8616SOL    HW137484   3.357   0.126  14.637 -0.1770 -3.8739 -0.2822
 8616SOL    HW237485   3.382   0.222  14.527 -0.5209 -0.0019 -0.5226
 8617SOL     OW37486   4.255   1.553   5.324 -0.3714  0.5519  0.4002
 8617SOL    HW137487   4.270   1.612   5.398 -0.0953  0.7845  0.1625
 8617SOL    HW237488   4.326   1.586   5.270 -0.8713 -2.9233 -2.3773
 8618SOL     OW37489   2.831   1.452   6.525  0.0670  0.0707 -0.2783
 8618SOL    HW137490   2.899   1.515   6.503  1.5591 -1.5247 -0.1875
 8618SOL    HW237491   2.799   1.495   6.605  0.7776 -0.5484  0.3390
 8619SOL     OW37492   4.216   0.954  16.370 -0.0255  0.4582  0.2336
 8619SOL    HW137493   4.215   1.050  16.374  1.2371  0.4529  0.7974
 8619SOL    HW237494   4.149   0.932  16.305 -0.3147 -0.4286  0.8413
 8620SOL     OW37495   1.280   0.018   0.935 -0.1356  0.7119  0.2239
 8620SOL    HW137496   1.204   0.075   0.925 -0.7665 -0.5368 -1.9778
 8620SOL    HW237497   1.351   0.057   0.883 -0.0308  0.7700  0.4076
 8621SOL     OW37498   0.825   2.975   9.936  0.2719 -0.1630 -0.3495
 8621SOL    HW137499   0.735   2.996   9.960  0.4790 -0.5048  0.7053
 8621SOL    HW237500   0.872   3.005  10.014 -0.9954  1.6932 -0.2936
 8622SOL     OW37501   1.283   4.362   8.804  0.5497 -0.1251  0.7144
 8622SOL    HW137502   1.231   4.341   8.881 -1.7088 -1.2211 -1.1163
 8622SOL    HW237503   1.271   4.273   8.771  1.9829 -0.8125  2.0369
 8623SOL     OW37504   3.043   1.962   2.737  0.0295 -0.6682 -0.5093
 8623SOL    HW137505   3.109   1.928   2.677 -1.7214 -1.0116 -2.2266
 8623SOL    HW237506   2.981   1.994   2.671 -0.8381 -0.7646  0.2561
 8624SOL     OW37507   0.458   0.827   1.976  0.4489  0.0114  0.1935
 8624SOL    HW137508   0.447   0.922   1.982  0.4375  0.1038 -1.3769
 8624SOL    HW237509   0.554   0.827   1.973  0.4644  0.8020  0.5627
 8625SOL     OW37510   0.314   2.842   1.948  0.3251 -0.2457  0.1344
 8625SOL    HW137511   0.330   2.927   1.907 -2.2907 -0.2441 -0.8975
 8625SOL    HW237512   0.357   2.781   1.888 -0.8147 -1.6411  0.7400
 8626SOL     OW37513   0.071   0.338   4.571  0.3757 -0.6662 -0.5769
 8626SOL    HW137514   0.132   0.379   4.509 -0.8053 -0.4533 -1.5932
 8626SOL    HW237515   0.113   0.255   4.593 -0.0405 -0.7695 -0.1809
 8627SOL     OW37516   3.676   4.272   4.055 -0.1732 -0.3592  0.1888
 8627SOL    HW137517   3.638   4.295   3.971 -1.9944 -1.0702  0.8272
 8627SOL    HW237518   3.610   4.301   4.118  0.4490  0.4076  0.4922
 8628SOL     OW37519   1.168   3.029   6.915  0.3823  0.7495 -0.2623
 8628SOL    HW137520   1.152   3.020   7.009  2.4592  2.0708  0.2353
 8628SOL    HW237521   1.242   3.090   6.919  1.7024 -0.9200  0.7821
 8629SOL     OW37522   0.144   4.253   7.229 -0.3299 -0.1260  0.2015
 8629SOL    HW137523   0.051   4.237   7.243 -0.7203  0.4422 -1.6365
 8629SOL    HW237524   0.138   4.348   7.213 -0.6311 -0.0322  0.8763
 8630SOL     OW37525   1.396   4.599   2.685  0.2107 -0.2057 -0.8231
 8630SOL    HW137526   1.484   4.562   2.701 -0.2768 -1.1917 -0.4002
 8630SOL    HW237527   1.348   4.533   2.635 -0.1508 -1.5810  1.3007
 8631SOL     OW37528   2.443   4.191   5.614 -0.5034  0.1138  0.1427
 8631SOL    HW137529   2.454   4.183   5.709 -0.6011 -1.0520  0.0547
 8631SOL    HW237530   2.493   4.114   5.586 -1.5495 -1.1401  1.7636
 8632SOL     OW37531   0.311   4.119   3.969  0.0959  0.1579  0.8726
 8632SOL    HW137532   0.265   4.099   3.888 -1.4429  2.3073  1.2216
 8632SOL    HW237533   0.330   4.212   3.960 -0.8534  0.3564  0.8862
 8633SOL     OW37534   0.439   0.713  11.759  0.1940 -0.6956  0.0515
 8633SOL    HW137535   0.478   0.792  11.722  1.2099 -0.3150  1.8937
 8633SOL    HW237536   0.388   0.679  11.686  0.1170 -0.1844 -0.1258
 8634SOL     OW37537   2.834   0.748   8.124 -0.1851 -0.1921  0.2516
 8634SOL    HW137538   2.928   0.748   8.143 -0.2386  1.5418  0.5577
 8634SOL    HW237539   2.823   0.814   8.055  3.2609  2.8639  2.6142
 8635SOL     OW37540   3.394   4.176  11.759  0.6321  0.1058 -0.6595
 8635SOL    HW137541   3.354   4.105  11.810 -0.7614  0.2136 -1.5747
 8635SOL    HW237542   3.344   4.251  11.792  0.0106  0.0876 -1.5417
 8636SOL     OW37543   3.966   0.697   3.559 -0.2703 -0.3846  0.1392
 8636SOL    HW137544   4.042   0.647   3.591  0.2729  0.4086  0.0969
 8636SOL    HW237545   3.975   0.779   3.608  1.1914 -0.1148 -0.5806
 8637SOL     OW37546   3.948   4.424   1.599 -0.1665  0.9291  0.0713
 8637SOL    HW137547   4.030   4.463   1.571 -0.4341  1.2465 -0.2754
 8637SOL    HW237548   3.945   4.338   1.557 -0.7041  1.2267 -0.5149
 8638SOL     OW37549   3.315   2.001   4.171  0.1820  0.0558 -0.3597
 8638SOL    HW137550   3.318   2.064   4.098 -3.4325  2.8779  1.9868
 8638SOL    HW237551   3.402   1.996   4.212  0.1586 -1.4949 -0.4848
 8639SOL     OW37552   2.734   2.955   6.063  0.2647 -0.8569 -0.0560
 8639SOL    HW137553   2.813   3.008   6.071 -0.9356  0.8592  0.3540
 8639SOL    HW237554   2.761   2.866   6.085  1.1729 -1.4781 -3.7035
 8640SOL     OW37555   3.029   4.281  11.381 -0.0514 -0.2949 -0.3898
 8640SOL    HW137556   3.060   4.362  11.422  1.1048 -0.4076 -1.0470
 8640SOL    HW237557   3.109   4.243  11.345 -0.5355 -1.7311  0.0295
 8641SOL     OW37558   2.160   0.217   6.517  0.5345 -0.8751  0.4283
 8641SOL    HW137559   2.218   0.165   6.572 -2.2922 -3.1954  1.2739
 8641SOL    HW237560   2.094   0.245   6.581  1.4270  2.5534 -0.1275
 8642SOL     OW37561   3.983   2.955  14.831  0.0472 -0.1404  0.3515
 8642SOL    HW137562   4.001   2.992  14.744  3.7902 -0.7179  0.8508
 8642SOL    HW237563   3.914   2.893  14.807  0.2185 -0.3036  0.2723
 8643SOL     OW37564   1.169   3.919   4.057  0.2685 -0.3376 -0.5653
 8643SOL    HW137565   1.228   3.961   3.994 -3.5255  3.9480 -1.2898
 8643SOL    HW237566   1.221   3.917   4.137  1.3456  1.5879 -1.2222
 8644SOL     OW37567   1.169   0.050   6.896 -0.2067  0.1521 -0.3102
 8644SOL    HW137568   1.114   0.033   6.819 -0.9575 -0.3795  0.3469
 8644SOL    HW237569   1.192   0.143   6.898  0.9122 -0.1186 -0.4928
 8645SOL     OW37570   1.434   2.265   2.935 -0.5361 -0.0219 -0.5909
 8645SOL    HW137571   1.427   2.287   2.842  1.0766 -2.0425 -1.1764
 8645SOL    HW237572   1.495   2.192   2.940 -0.8614 -0.2299  0.4369
 8646SOL     OW37573   2.895   2.416   8.591 -0.3478  0.0297 -0.6712
 8646SOL    HW137574   2.805   2.383   8.581 -1.1753  1.5111  1.7668
 8646SOL    HW237575   2.937   2.377   8.515  1.1997 -0.2153  0.3050
 8647SOL     OW37576   0.978   4.468  17.639 -0.1369  0.2645 -0.4984
 8647SOL    HW137577   0.903   4.476  17.579  0.1628  0.7283 -0.8165
 8647SOL    HW237578   0.974   4.373  17.651  0.4789  0.2427 -0.4944
 8648SOL     OW37579   3.817   4.425   5.314  0.7823 -0.1567  0.0421
 8648SOL    HW137580   3.752   4.355   5.319  1.2643 -0.7548 -1.8445
 8648SOL    HW237581   3.873   4.386   5.247 -2.0547  1.1854 -3.0874
 8649SOL     OW37582   0.113   4.478  11.927 -0.3871  0.1726  0.2831
 8649SOL    HW137583   0.170   4.524  11.989 -0.8344  0.9345  0.1363
 8649SOL    HW237584   0.033   4.528  11.910 -0.6830 -0.8686 -1.3416
 8650SOL     OW37585   0.214   1.778   9.491 -0.5621 -0.1253 -0.0274
 8650SOL    HW137586   0.205   1.782   9.586  1.9020  1.2712  0.1503
 8650SOL    HW237587   0.131   1.732   9.483 -0.4434 -0.3246 -0.1287
 8651SOL     OW37588   1.362   1.562  13.817  0.1872  0.3561  0.2022
 8651SOL    HW137589   1.278   1.562  13.862  1.2498 -2.0204  2.1333
 8651SOL    HW237590   1.366   1.471  13.788 -0.2613  0.5221 -0.3837
 8652SOL     OW37591   2.518   4.034   3.056 -0.0596 -0.2345  0.0853
 8652SOL    HW137592   2.431   4.043   3.018 -0.4204  0.2990  1.0293
 8652SOL    HW237593   2.519   4.116   3.107  2.3482 -1.0296  1.3257
 8653SOL     OW37594   3.437   1.378   6.705  0.0543 -0.2217  0.4799
 8653SOL    HW137595   3.420   1.470   6.684  0.3921 -0.4489 -0.7782
 8653SOL    HW237596   3.526   1.360   6.675  0.0623  1.3209 -0.4029
 8654SOL     OW37597   4.505   0.396  16.168 -0.0107 -0.4721  0.0542
 8654SOL    HW137598   4.462   0.480  16.156  2.8131  1.3582  2.6692
 8654SOL    HW237599   4.543   0.378  16.082 -0.1697  0.8815 -0.3081
 8655SOL     OW37600   0.139   2.005   8.946  0.0485 -0.1319 -0.8647
 8655SOL    HW137601   0.156   2.003   8.852 -0.9024 -1.0855 -1.0202
 8655SOL    HW237602   0.064   2.064   8.938 -0.2372 -0.1206  1.8939
 8656SOL     OW37603   4.039   3.615   7.155 -0.1929 -0.1068  0.3454
 8656SOL    HW137604   4.125   3.574   7.158 -0.7474 -1.2095  1.0968
 8656SOL    HW237605   4.062   3.704   7.129  2.0539 -1.3749 -2.0001
 8657SOL     OW37606   0.338   3.015   0.096 -0.0501  0.1982 -0.0665
 8657SOL    HW137607   0.248   3.003   0.066 -0.4802  1.6568  0.6582
 8657SOL    HW237608   0.372   3.064   0.022 -1.1790  2.9439  1.2458
 8658SOL     OW37609   2.922   2.828   9.751 -0.7828  0.6175 -0.4283
 8658SOL    HW137610   2.862   2.885   9.701 -0.0397  1.3172 -0.5176
 8658SOL    HW237611   2.861   2.784   9.810  0.7269  2.9971  2.8634
 8659SOL     OW37612   2.943   2.433  16.179 -0.0899  0.3899 -0.0443
 8659SOL    HW137613   2.968   2.409  16.268  1.3118 -0.5908 -0.7130
 8659SOL    HW237614   2.912   2.522  16.198 -0.4051 -0.2001  2.1698
 8660SOL     OW37615   3.616   0.047   2.077  0.0291  0.4105  0.3543
 8660SOL    HW137616   3.657   0.126   2.110 -1.8065  1.5630 -0.1130
 8660SOL    HW237617   3.544   0.032   2.139 -0.0665 -0.6362 -0.0151
 8661SOL     OW37618   4.289   1.361   7.904 -0.1816  0.1234 -0.4965
 8661SOL    HW137619   4.278   1.353   7.998  1.4588 -1.4356 -0.4249
 8661SOL    HW237620   4.374   1.317   7.898  0.7071  1.6554  0.7350
 8662SOL     OW37621   0.053   2.296   8.763  0.1468  0.2012  0.0529
 8662SOL    HW137622   4.712   2.239   8.768  1.3017 -1.1591  2.3948
 8662SOL    HW237623   0.123   2.236   8.736  1.7962  1.7271  1.0022
 8663SOL     OW37624   1.803   1.847  13.984 -0.4630  0.1536  0.0115
 8663SOL    HW137625   1.715   1.879  13.968 -0.9442 -1.6626 -0.9568
 8663SOL    HW237626   1.784   1.753  13.987  0.2332 -0.0605 -2.5362
 8664SOL     OW37627   1.343   4.013   4.278 -0.0399 -0.1728  0.0031
 8664SOL    HW137628   1.384   4.013   4.364 -2.1870  0.8123  1.0325
 8664SOL    HW237629   1.298   4.097   4.282  1.1679  0.5171 -0.9965
 8665SOL     OW37630   0.098   1.219   4.406 -0.6144  0.0164  0.2791
 8665SOL    HW137631   0.005   1.240   4.415 -0.7154 -1.3166  2.2588
 8665SOL    HW237632   0.108   1.261   4.321  1.5968 -0.5754  0.2740
 8666SOL     OW37633   0.096   4.042  11.294  0.2803  0.7279 -0.1640
 8666SOL    HW137634   0.182   4.039  11.335 -0.7558 -0.0836  1.9339
 8666SOL    HW237635   0.039   4.013  11.365  0.6602 -1.1254 -0.6349
 8667SOL     OW37636   4.654   1.183   5.579 -0.2623  0.7726 -0.7307
 8667SOL    HW137637   4.617   1.144   5.499  0.8995  1.2317 -1.5001
 8667SOL    HW237638   4.582   1.228   5.622  1.1619  0.4787  1.9281
 8668SOL     OW37639   0.501   3.653  16.581  0.3760 -0.2774  0.0436
 8668SOL    HW137640   0.579   3.688  16.538 -0.2391  0.4353 -0.4970
 8668SOL    HW237641   0.453   3.735  16.593 -0.6480 -0.8200 -0.3654
 8669SOL     OW37642   4.135   0.986   4.710  0.0347 -0.3558  0.0464
 8669SOL    HW137643   4.192   1.006   4.784 -0.5304  1.2518  0.0516
 8669SOL    HW237644   4.063   0.935   4.748 -0.4867 -1.3891 -2.2832
 8670SOL     OW37645   0.849   0.461   1.068 -0.9254 -0.0876  0.2961
 8670SOL    HW137646   0.798   0.420   0.998 -0.3880 -1.0899  0.4950
 8670SOL    HW237647   0.785   0.509   1.119  1.7402  0.6826  2.9042
 8671SOL     OW37648   3.256   0.301   4.960 -0.0385 -0.0328  0.4389
 8671SOL    HW137649   3.350   0.302   4.943 -0.1729 -1.5015 -0.4005
 8671SOL    HW237650   3.256   0.241   5.035  2.4184 -0.6099 -0.0338
 8672SOL     OW37651   1.226   1.954   0.025 -0.2406  0.4181  0.1947
 8672SOL    HW137652   1.229   2.049   0.032 -0.6701  0.5054 -0.8737
 8672SOL    HW237653   1.319   1.939   0.044 -0.9399 -0.3682  3.0221
 8673SOL     OW37654   2.981   3.315   7.880  1.2766  0.2183  0.0819
 8673SOL    HW137655   2.916   3.378   7.850  0.1616 -0.9643  0.0395
 8673SOL    HW237656   2.995   3.331   7.974  2.2010 -1.4999  0.2347
 8674SOL     OW37657   2.018   1.303   5.812  0.7002  0.1573 -0.0243
 8674SOL    HW137658   1.946   1.242   5.829  0.5019  0.2856 -0.4133
 8674SOL    HW237659   2.093   1.250   5.841  0.8350  0.7952  0.7874
 8675SOL     OW37660   2.406   3.240   7.366 -0.0945  0.5988 -0.0199
 8675SOL    HW137661   2.336   3.239   7.301 -1.3502  1.5981  1.3124
 8675SOL    HW237662   2.377   3.306   7.429  0.1600  1.1879 -0.5189
 8676SOL     OW37663   3.179   3.677  13.864  0.4651  0.1783  0.3178
 8676SOL    HW137664   3.240   3.749  13.881  0.4251  0.4584 -0.7234
 8676SOL    HW237665   3.135   3.673  13.949  1.0132 -1.5149  0.5133
 8677SOL     OW37666   0.053   1.632   3.846 -0.2633  0.0072  0.4419
 8677SOL    HW137667   0.015   1.580   3.917  2.0767 -0.2729  1.5005
 8677SOL    HW237668   4.731   1.606   3.775 -2.7161  3.4456  1.1880
 8678SOL     OW37669   4.641   0.442   3.242 -0.2747  0.1370  0.0167
 8678SOL    HW137670   4.638   0.360   3.193 -1.6699  0.5591 -0.6193
 8678SOL    HW237671   4.735   0.448   3.258  0.1103 -0.4837 -2.0679
 8679SOL     OW37672   3.833   2.260  11.276 -0.1509  0.1730 -0.1549
 8679SOL    HW137673   3.920   2.227  11.254  0.5779  1.9020  0.1491
 8679SOL    HW237674   3.827   2.217  11.361  2.1829 -0.5058 -0.3364
 8680SOL     OW37675   1.805   0.046  15.030  0.4323 -0.1838 -0.3709
 8680SOL    HW137676   1.762   0.031  15.115  1.2298  0.4570  0.1485
 8680SOL    HW237677   1.875   0.108  15.053  0.2846  0.2909 -1.2425
 8681SOL     OW37678   1.441   4.383   5.404 -0.5571  0.1248 -0.4452
 8681SOL    HW137679   1.515   4.329   5.379  0.5396  0.9148  1.1199
 8681SOL    HW237680   1.401   4.330   5.473 -0.9459  0.1505 -0.6468
 8682SOL     OW37681   2.295   2.891   1.814  0.1471 -0.3375 -0.9114
 8682SOL    HW137682   2.313   2.810   1.862  1.8803  0.8279  0.4066
 8682SOL    HW237683   2.222   2.857   1.763 -1.5193  1.2285  0.4285
 8683SOL     OW37684   3.972   4.655   8.987 -0.0532  0.2491 -0.0050
 8683SOL    HW137685   3.879   4.673   8.978 -0.1180  0.2611  0.6654
 8683SOL    HW237686   4.002   4.675   8.898  1.6165 -1.6718  0.1218
 8684SOL     OW37687   3.905   3.908  13.093 -0.5421  1.2646 -0.4158
 8684SOL    HW137688   3.962   3.832  13.090 -1.2861  0.6713  0.5296
 8684SOL    HW237689   3.887   3.934  13.002 -2.6291  0.4493 -0.2368
 8685SOL     OW37690   2.642   2.770  16.916 -0.4419 -0.6214 -0.8685
 8685SOL    HW137691   2.614   2.747  17.004  3.3409 -0.4962  0.3672
 8685SOL    HW237692   2.672   2.861  16.919 -2.4394 -0.0160  0.1640
 8686SOL     OW37693   2.460   0.518  14.949 -0.1218 -0.4226 -0.2098
 8686SOL    HW137694   2.470   0.482  15.037  3.6765  0.2635 -0.3439
 8686SOL    HW237695   2.517   0.595  14.957 -0.3658 -0.4696  2.0136
 8687SOL     OW37696   2.304   3.742  13.194  0.3030 -0.0929  0.2355
 8687SOL    HW137697   2.388   3.717  13.233  0.0317 -0.0384  0.8409
 8687SOL    HW237698   2.322   3.828  13.156  0.7298 -1.6992 -3.1852
 8688SOL     OW37699   1.579   1.728   0.623 -0.2050 -0.4033 -0.4720
 8688SOL    HW137700   1.534   1.784   0.687 -0.2809  2.3529 -2.9515
 8688SOL    HW237701   1.622   1.684   0.696 -1.6905 -2.0320 -0.5766
 8689SOL     OW37702   2.090   2.452  13.041  0.2544 -0.4542 -0.1920
 8689SOL    HW137703   2.035   2.527  13.060 -1.7554 -1.1236 -3.4500
 8689SOL    HW237704   2.061   2.387  13.105 -0.6649  0.5562  0.4113
 8690SOL     OW37705   4.397   0.969   7.298  0.1391  0.3590 -0.5250
 8690SOL    HW137706   4.431   0.899   7.354  0.0092  1.2725  0.7092
 8690SOL    HW237707   4.472   1.028   7.307  2.1095 -2.0388 -1.2021
 8691SOL     OW37708   2.853   4.707   5.708  0.7778  0.2699 -0.9881
 8691SOL    HW137709   2.842   4.662   5.792  0.1524 -0.6984 -1.5871
 8691SOL    HW237710   2.890   4.635   5.656  0.3914  0.8846 -2.1029
 8692SOL     OW37711   0.997   2.844   4.105 -0.3867 -0.0196  0.0320
 8692SOL    HW137712   1.023   2.809   4.190 -2.0621  0.0098  0.5687
 8692SOL    HW237713   0.965   2.930   4.131 -2.4035 -0.5269 -0.7843
 8693SOL     OW37714   1.601   3.185  13.146  0.3872 -0.2230  0.2544
 8693SOL    HW137715   1.594   3.240  13.068  2.7163 -2.0653 -1.2562
 8693SOL    HW237716   1.695   3.177  13.163  0.6441 -0.8659 -1.5168
 8694SOL     OW37717   3.216   4.538   0.544 -0.0731  0.0693  0.0635
 8694SOL    HW137718   3.205   4.517   0.637  3.8900  0.8359  0.7129
 8694SOL    HW237719   3.127   4.561   0.517  0.1039 -0.2582 -0.7822
 8695SOL     OW37720   4.054   4.153   6.024 -0.3376  0.0964 -0.1716
 8695SOL    HW137721   4.097   4.238   6.029 -0.5671  0.1861  0.2479
 8695SOL    HW237722   4.138   4.118   5.992  0.6005  3.1591 -1.0203
 8696SOL     OW37723   0.690   0.070   2.473  0.3015 -0.4637 -0.1746
 8696SOL    HW137724   0.650   0.082   2.559 -1.2620 -3.0790 -0.5566
 8696SOL    HW237725   0.634   0.006   2.430  0.8789 -0.6359 -0.6709
 8697SOL     OW37726   0.314   2.139   1.815  0.1222 -0.0827  0.5893
 8697SOL    HW137727   0.255   2.074   1.777 -0.3784  0.1846  0.9101
 8697SOL    HW237728   0.392   2.085   1.831  0.6515  0.4678 -0.1451
 8698SOL     OW37729   2.029   0.471   5.198  0.9217  0.3758 -0.1949
 8698SOL    HW137730   1.988   0.436   5.277  1.6142  1.5597  0.6912
 8698SOL    HW237731   1.971   0.469   5.122  0.6640  1.1065 -0.0211
 8699SOL     OW37732   4.202   1.585   2.336  0.9460 -0.6101 -0.0612
 8699SOL    HW137733   4.141   1.653   2.307  0.5916 -1.3252 -0.9814
 8699SOL    HW237734   4.186   1.518   2.270 -0.0932 -2.0072  1.6045
 8700SOL     OW37735   0.902   1.844   8.518 -0.4412 -0.0610 -0.5717
 8700SOL    HW137736   0.880   1.883   8.433 -2.4116 -0.8301 -0.4168
 8700SOL    HW237737   0.969   1.904   8.551  1.0853 -0.8729 -2.1988
 8701SOL     OW37738   1.134   3.223   4.416 -0.0932 -0.1668  0.1202
 8701SOL    HW137739   1.220   3.189   4.439 -0.0125  0.1803  0.3374
 8701SOL    HW237740   1.098   3.246   4.502  0.0569  0.9221 -0.1021
 8702SOL     OW37741   2.855   3.416   5.926 -0.2358  0.4559 -0.5037
 8702SOL    HW137742   2.782   3.475   5.947 -0.5889 -0.6023  1.2819
 8702SOL    HW237743   2.870   3.372   6.010  0.0724  2.9879  0.7673
 8703SOL     OW37744   0.534   2.465  10.600  0.2084  0.3272  0.7574
 8703SOL    HW137745   0.446   2.452  10.565  0.1310 -0.4176  1.2346
 8703SOL    HW237746   0.564   2.534  10.540 -1.7228  0.6705  0.1967
 8704SOL     OW37747   4.540   1.152   1.995  0.1312  0.2207  0.2965
 8704SOL    HW137748   4.504   1.073   2.036  0.8038  0.4970  1.4171
 8704SOL    HW237749   4.625   1.125   1.962  0.3603 -0.9054  1.7921
 8705SOL     OW37750   1.137   3.726   8.863 -0.2929  0.1896 -0.1930
 8705SOL    HW137751   1.173   3.798   8.913  0.5838 -1.1973  1.1599
 8705SOL    HW237752   1.166   3.645   8.905 -2.8345 -0.8479 -0.4127
 8706SOL     OW37753   4.017   0.936   8.242  0.3656  0.0452 -0.0713
 8706SOL    HW137754   3.955   0.984   8.188  1.0834  1.4536  0.3784
 8706SOL    HW237755   3.952   0.931   8.312  0.9866  2.0096  0.6417
 8707SOL     OW37756   3.947   0.416   6.345  0.2768 -0.2083  0.2845
 8707SOL    HW137757   3.908   0.412   6.257 -2.2856  1.3651  1.3485
 8707SOL    HW237758   3.871   0.438   6.399 -0.8418 -1.5110 -0.7742
 8708SOL     OW37759   0.062   0.751   3.667 -0.2093 -0.0725 -0.4572
 8708SOL    HW137760   0.012   0.762   3.586 -0.6446  0.4236 -0.1194
 8708SOL    HW237761   0.022   0.817   3.723  0.3110 -1.3964  1.4854
 8709SOL     OW37762   0.418   0.643   4.431  0.0580  0.3990 -0.3989
 8709SOL    HW137763   0.390   0.666   4.342  0.8714 -2.1944 -1.3051
 8709SOL    HW237764   0.491   0.583   4.418  0.6119  1.2592 -1.2422
 8710SOL     OW37765   2.521   4.069   3.573  0.4861 -0.5493 -0.3399
 8710SOL    HW137766   2.503   4.047   3.665  0.8870  0.6256  0.0132
 8710SOL    HW237767   2.463   4.144   3.562 -0.0362 -1.5051 -4.0344
 8711SOL     OW37768   3.949   0.268   1.456 -0.6458 -0.1173  0.0543
 8711SOL    HW137769   4.030   0.269   1.508 -1.5864  3.6634  1.3728
 8711SOL    HW237770   3.944   0.173   1.443  1.5136 -0.1448 -0.5872
 8712SOL     OW37771   1.263   0.079   1.327 -0.1012  0.4067 -0.2346
 8712SOL    HW137772   1.350   0.085   1.367 -1.0121 -1.1617  1.9592
 8712SOL    HW237773   1.282   0.136   1.252 -0.7566 -0.6381 -1.1766
 8713SOL     OW37774   1.142   4.394   0.670 -0.2650  0.5586  0.3126
 8713SOL    HW137775   1.161   4.457   0.739  1.9531 -0.4018  0.5791
 8713SOL    HW237776   1.179   4.442   0.596 -1.1557  1.3618  0.3948
 8714SOL     OW37777   3.959   3.484  10.186 -0.0316  0.4031 -0.3395
 8714SOL    HW137778   3.997   3.515  10.268 -1.4465 -1.9839  1.2021
 8714SOL    HW237779   3.875   3.454  10.219  0.5609  0.5307  1.2619
 8715SOL     OW37780   3.588   1.226   0.882 -0.1548  0.1387  0.2253
 8715SOL    HW137781   3.611   1.286   0.953  1.6747  2.0059 -1.9400
 8715SOL    HW237782   3.590   1.142   0.928  2.7714 -0.0925 -0.3166
 8716SOL     OW37783   1.165   1.251   1.931  0.0862 -0.2941 -0.3165
 8716SOL    HW137784   1.229   1.318   1.909 -0.0375 -0.3244 -0.7648
 8716SOL    HW237785   1.200   1.206   2.007  1.0376 -0.4963 -0.8772
 8717SOL     OW37786   3.717   1.742   9.479  0.0453 -0.2605  0.3270
 8717SOL    HW137787   3.688   1.832   9.490  0.9688 -0.4484  4.4663
 8717SOL    HW237788   3.676   1.696   9.553  3.1126  0.3111  2.4002
 8718SOL     OW37789   2.364   1.522   1.941  0.2835  0.2754  0.0393
 8718SOL    HW137790   2.286   1.533   1.886  2.0393  3.9103 -1.7223
 8718SOL    HW237791   2.345   1.593   2.002 -0.9065  0.7028 -0.8198
 8719SOL     OW37792   4.281   1.106  14.599  0.7548  0.1538  0.1579
 8719SOL    HW137793   4.321   1.020  14.603  1.2881  0.4343  0.8055
 8719SOL    HW237794   4.310   1.140  14.514  1.0448  0.5712  0.4222
 8720SOL     OW37795   2.385   0.857   9.826  0.1873 -0.0645  0.3186
 8720SOL    HW137796   2.454   0.832   9.888 -0.1404  0.0262  0.7265
 8720SOL    HW237797   2.372   0.949   9.852  0.0606  0.1426 -0.4917
 8721SOL     OW37798   1.389   0.450   1.346  0.6646 -0.3909 -0.4853
 8721SOL    HW137799   1.293   0.446   1.345  0.5733  1.9794 -2.3323
 8721SOL    HW237800   1.409   0.462   1.253 -0.7022 -3.3311 -1.1760
 8722SOL     OW37801   0.830   1.664   5.775 -0.1662 -0.8867 -0.5975
 8722SOL    HW137802   0.810   1.590   5.717  0.7864 -2.4265  1.0151
 8722SOL    HW237803   0.924   1.648   5.764 -0.1104  0.9515 -2.6918
 8723SOL     OW37804   1.856   4.179   6.468  0.1429  0.6852  0.5930
 8723SOL    HW137805   1.792   4.120   6.429 -0.1664 -0.3971  2.7269
 8723SOL    HW237806   1.857   4.245   6.399  2.0932  0.3874  0.3307
 8724SOL     OW37807   3.345   0.235   1.813 -0.1673  0.1281  0.0650
 8724SOL    HW137808   3.415   0.279   1.861 -0.0652  0.5582 -0.4839
 8724SOL    HW237809   3.362   0.252   1.721  0.3916 -1.1333 -0.0601
 8725SOL     OW37810   2.589   3.194   3.780 -0.7805  0.4987 -0.0717
 8725SOL    HW137811   2.566   3.163   3.868 -1.1595  2.0953  0.3954
 8725SOL    HW237812   2.679   3.220   3.801 -1.0392  1.9713 -0.8260
 8726SOL     OW37813   2.428   1.387   7.439  0.8234 -0.3246 -0.0185
 8726SOL    HW137814   2.356   1.325   7.444  0.8668 -0.3845 -0.1492
 8726SOL    HW237815   2.496   1.341   7.488  1.5050  0.7348  0.0380
 8727SOL     OW37816   2.937   2.138  16.141  0.3564  0.1885  0.1249
 8727SOL    HW137817   2.939   2.234  16.144 -1.0769  0.2201 -0.1655
 8727SOL    HW237818   2.905   2.123  16.230 -0.3091 -0.1442 -0.1702
 8728SOL     OW37819   4.147   1.363   5.492 -0.2872 -0.4822  0.2509
 8728SOL    HW137820   4.153   1.386   5.400  1.6695 -2.8074 -0.1920
 8728SOL    HW237821   4.157   1.442   5.545 -1.5774 -1.5515  2.0999
 8729SOL     OW37822   2.662   3.341   3.332 -0.2205 -0.0530 -0.0201
 8729SOL    HW137823   2.640   3.315   3.243 -1.9773 -0.4407  0.5334
 8729SOL    HW237824   2.583   3.304   3.370 -0.4920 -0.4373 -0.9667
 8730SOL     OW37825   1.335   3.037   9.269 -0.1398  0.2673 -0.2282
 8730SOL    HW137826   1.246   3.002   9.265  0.5985 -1.7582  0.4771
 8730SOL    HW237827   1.319   3.126   9.298  0.5931 -0.3885  2.1989
 8731SOL     OW37828   1.742   2.351   6.264 -0.4466 -0.1684 -0.5291
 8731SOL    HW137829   1.746   2.310   6.177  0.5898  0.6396 -0.8519
 8731SOL    HW237830   1.787   2.434   6.247 -1.8413  0.7277  0.2069
 8732SOL     OW37831   3.200   0.107   1.256  0.2482  0.3355  0.1911
 8732SOL    HW137832   3.141   0.062   1.196 -1.5745  2.4580  0.4040
 8732SOL    HW237833   3.252   0.163   1.198 -1.3965  0.6881 -0.9389
 8733SOL     OW37834   1.884   2.196   1.168 -0.2855  0.0638 -0.3758
 8733SOL    HW137835   1.793   2.171   1.180 -0.0702 -1.3561 -1.6949
 8733SOL    HW237836   1.877   2.291   1.164  1.0642  0.0934 -2.1077
 8734SOL     OW37837   4.356   4.452  16.585 -0.0431 -0.2868  0.2351
 8734SOL    HW137838   4.290   4.522  16.585  0.7455  0.4595  0.1684
 8734SOL    HW237839   4.418   4.491  16.646 -0.0690  1.3062 -0.7444
 8735SOL     OW37840   1.247   2.033   8.002 -0.6098  0.7122 -0.3327
 8735SOL    HW137841   1.184   2.103   8.023 -0.4310  0.7702  0.0178
 8735SOL    HW237842   1.207   2.003   7.921 -2.3313  0.0675  0.7681
 8736SOL     OW37843   2.576   3.742   6.876  0.0573 -0.5314 -0.2268
 8736SOL    HW137844   2.517   3.734   6.950 -2.4758 -2.2818 -2.4130
 8736SOL    HW237845   2.513   3.771   6.810  0.5114 -1.8779 -1.2528
 8737SOL     OW37846   4.449   3.503   8.351 -0.5479 -0.3320  0.0338
 8737SOL    HW137847   4.511   3.513   8.423 -0.7077  1.0016 -0.0030
 8737SOL    HW237848   4.516   3.500   8.282  0.8024  2.0237  1.2089
 8738SOL     OW37849   0.051   1.396   2.651 -0.0407 -0.1846  0.6474
 8738SOL    HW137850   0.015   1.450   2.580  0.5411 -0.0397  0.4670
 8738SOL    HW237851   4.707   1.357   2.688  0.0177 -1.0235 -0.0844
 8739SOL     OW37852   1.586   1.058  15.468 -0.0161 -0.1305  0.3198
 8739SOL    HW137853   1.565   1.123  15.534  3.0036 -0.6822  1.7909
 8739SOL    HW237854   1.670   1.089  15.433 -0.1303  1.2971  1.3227
 8740SOL     OW37855   0.953   4.259   7.182 -0.3127  0.4882  1.0202
 8740SOL    HW137856   0.894   4.252   7.107  2.2902  1.6558 -1.1332
 8740SOL    HW237857   0.891   4.230   7.249 -1.0731 -1.6147 -0.5813
 8741SOL     OW37858   1.178   0.977   9.436 -0.0467 -0.4886 -0.0620
 8741SOL    HW137859   1.196   1.043   9.502 -2.7942  0.4166 -0.2161
 8741SOL    HW237860   1.233   1.010   9.364  0.4437  1.5692  1.2661
 8742SOL     OW37861   2.983   4.584   8.909  0.4866  0.2575  0.8183
 8742SOL    HW137862   2.972   4.650   8.841  1.2013  2.1599  2.5374
 8742SOL    HW237863   2.963   4.633   8.989 -0.4974 -2.0436  1.9925
 8743SOL     OW37864   2.026   1.439   6.762 -0.1307 -0.0280 -0.1344
 8743SOL    HW137865   1.940   1.480   6.753 -0.2282 -0.4785 -1.2642
 8743SOL    HW237866   2.068   1.474   6.841  0.8568 -1.5420  0.0245
 8744SOL     OW37867   3.173   4.630   2.076 -1.0478 -0.1491 -0.3267
 8744SOL    HW137868   3.178   4.653   1.983  1.9705 -2.2345 -0.6622
 8744SOL    HW237869   3.148   4.539   2.092 -0.4822 -0.5325 -1.5905
 8745SOL     OW37870   4.240   3.480   7.376  0.2580  0.6674 -0.0150
 8745SOL    HW137871   4.148   3.458   7.390  0.8599 -2.0308 -0.3264
 8745SOL    HW237872   4.239   3.572   7.404 -2.3380  0.5734  0.1441
 8746SOL     OW37873   2.504   2.710   7.781 -0.2779  0.1410 -0.0177
 8746SOL    HW137874   2.538   2.627   7.748  0.7899 -0.4089  2.4746
 8746SOL    HW237875   2.570   2.769   7.745 -0.0171  0.0422  0.2986
 8747SOL     OW37876   2.404   0.491   2.020  0.5843 -0.1716 -0.0557
 8747SOL    HW137877   2.425   0.504   1.928  1.1309  0.8264  0.2000
 8747SOL    HW237878   2.346   0.565   2.039 -0.1338 -0.6317 -0.4973
 8748SOL     OW37879   4.704   3.210  15.431 -0.0775 -0.2739 -0.5203
 8748SOL    HW137880   4.670   3.122  15.447  0.7095 -0.7283 -1.3650
 8748SOL    HW237881   0.028   3.187  15.361  1.1484  1.9713 -0.2159
 8749SOL     OW37882   3.729   3.443   6.784 -0.2682 -0.6025  0.0972
 8749SOL    HW137883   3.655   3.456   6.844 -0.4968  0.5501 -0.4401
 8749SOL    HW237884   3.782   3.518   6.813 -0.7793 -0.0166 -0.4870
 8750SOL     OW37885   0.851   0.066   0.502  0.3687 -0.0921  0.4099
 8750SOL    HW137886   0.810   0.080   0.588 -0.1377  0.2877  0.1059
 8750SOL    HW237887   0.779   0.083   0.441 -0.1502  2.4433  1.7056
 8751SOL     OW37888   4.722   3.734   4.095  0.8802 -0.2352  0.6237
 8751SOL    HW137889   4.680   3.728   4.181 -1.0196  0.4546 -0.2493
 8751SOL    HW237890   0.023   3.822   4.098 -1.4975  0.6414  4.1132
 8752SOL     OW37891   0.238   4.130   0.914  0.3989 -0.0351  0.0648
 8752SOL    HW137892   0.291   4.203   0.885  0.0239 -0.2293 -1.1075
 8752SOL    HW237893   0.306   4.078   0.957 -0.7983 -0.0107  1.9780
 8753SOL     OW37894   3.275   3.385  14.353  0.9536 -0.1267 -0.3161
 8753SOL    HW137895   3.237   3.361  14.438  0.9153  0.0159 -0.2923
 8753SOL    HW237896   3.189   3.394  14.312  0.6718 -1.3369  0.0110
 8754SOL     OW37897   0.543   1.076   7.347 -0.3505  0.2956  0.3862
 8754SOL    HW137898   0.496   1.014   7.402  0.0329  0.3630  0.7823
 8754SOL    HW237899   0.495   1.158   7.362 -2.4437 -0.5443 -1.6106
 8755SOL     OW37900   1.420   4.107   8.009 -0.1413  0.2255  0.9528
 8755SOL    HW137901   1.370   4.167   8.066 -0.8165  0.8923 -0.3415
 8755SOL    HW237902   1.457   4.166   7.943 -0.7444  0.2859  0.6631
 8756SOL     OW37903   0.953   0.763   6.353  0.0237 -0.0887 -0.3169
 8756SOL    HW137904   0.862   0.793   6.349  0.0122 -0.0137  0.4456
 8756SOL    HW237905   0.968   0.750   6.260 -2.0104 -2.9876 -0.2559
 8757SOL     OW37906   2.361   2.611   8.989 -0.1010  0.1149 -0.3565
 8757SOL    HW137907   2.298   2.644   9.053 -0.1322  0.6393 -0.6564
 8757SOL    HW237908   2.437   2.616   9.047 -0.3849 -1.1955  0.1176
 8758SOL     OW37909   3.045   0.083   0.612 -0.1324  0.3647 -0.5729
 8758SOL    HW137910   3.129   0.106   0.651 -0.3914  0.7214 -0.2274
 8758SOL    HW237911   3.031   0.157   0.554  2.3969 -1.0255 -2.9403
 8759SOL     OW37912   3.473   2.148  16.104 -0.0392 -0.0415  0.0595
 8759SOL    HW137913   3.410   2.197  16.157  2.0071  1.9695  0.6015
 8759SOL    HW237914   3.549   2.204  16.117  0.5087 -0.3591 -1.8025
 8760SOL     OW37915   2.130   0.518   2.203 -0.0732  0.0228 -0.1917
 8760SOL    HW137916   2.082   0.549   2.126 -0.3355 -1.2339 -0.5344
 8760SOL    HW237917   2.089   0.567   2.274 -0.5438 -0.2202 -0.3002
 8761SOL     OW37918   0.778   2.581  10.119  0.1397 -0.0518  0.3482
 8761SOL    HW137919   0.836   2.509  10.142 -2.1018 -1.4108  1.8222
 8761SOL    HW237920   0.777   2.567  10.025  1.0957 -2.0219  0.6277
 8762SOL     OW37921   0.968   0.256  10.462  0.0832 -0.2665 -0.1044
 8762SOL    HW137922   0.970   0.189  10.394 -0.3865 -0.4203  0.0326
 8762SOL    HW237923   0.907   0.321  10.426 -0.6367 -0.0600  1.4949
 8763SOL     OW37924   2.134   3.412   2.337  0.2848 -0.0896 -0.0853
 8763SOL    HW137925   2.040   3.397   2.336  0.3300 -0.4057  0.7453
 8763SOL    HW237926   2.138   3.438   2.429 -0.3649  2.2408 -0.7064
 8764SOL     OW37927   4.192   4.069  11.178  0.3002 -0.1345 -0.1819
 8764SOL    HW137928   4.273   4.118  11.167  0.1014  0.0211 -0.9489
 8764SOL    HW237929   4.181   4.023  11.094 -0.2122  3.4361 -2.0647
 8765SOL     OW37930   1.669   3.328   7.742  0.1555  0.2720  0.6736
 8765SOL    HW137931   1.680   3.259   7.808  0.8881 -0.5599 -0.3235
 8765SOL    HW237932   1.645   3.401   7.799  0.3616  0.4559  0.5236
 8766SOL     OW37933   0.837   3.816   7.131  0.0036  0.4643 -0.1327
 8766SOL    HW137934   0.754   3.858   7.154  1.2334  1.7941  1.7845
 8766SOL    HW237935   0.881   3.883   7.079  0.9340  1.5907  2.1439
 8767SOL     OW37936   0.200   4.006   3.757  0.1980  0.2805 -0.0413
 8767SOL    HW137937   0.105   3.999   3.754  0.1977 -0.2734  1.3589
 8767SOL    HW237938   0.225   3.950   3.683  0.7996  0.6639 -0.1278
 8768SOL     OW37939   1.761   4.051   9.114 -0.2480  1.2532 -0.2165
 8768SOL    HW137940   1.824   4.119   9.134  0.2613  0.8998 -0.6107
 8768SOL    HW237941   1.735   4.019   9.200 -1.6247  1.8414 -0.4092
 8769SOL     OW37942   2.453   2.071  15.284 -0.3820 -0.5710 -0.7075
 8769SOL    HW137943   2.434   2.072  15.190 -1.2157  1.9398 -0.5173
 8769SOL    HW237944   2.368   2.061  15.326  0.0208 -0.9987  0.0127
 8770SOL     OW37945   2.222   4.620   8.420  0.1411  0.3226  0.1742
 8770SOL    HW137946   2.254   4.709   8.430  1.1914 -0.1163  0.7107
 8770SOL    HW237947   2.152   4.620   8.485 -1.1127  0.7874 -1.1618
 8771SOL     OW37948   0.304   1.791  11.163  0.3459  0.1985 -0.1069
 8771SOL    HW137949   0.241   1.732  11.122 -0.0539  0.0454  0.7439
 8771SOL    HW237950   0.254   1.865  11.196 -0.2240 -0.1994 -0.0820
 8772SOL     OW37951   1.366   3.601   8.102 -0.2158 -0.1079  0.1380
 8772SOL    HW137952   1.329   3.683   8.133  0.4911  0.3423 -0.2013
 8772SOL    HW237953   1.421   3.578   8.177  0.4633 -1.8419 -0.8779
 8773SOL     OW37954   3.769   0.202   6.562 -0.0011  0.6529  0.0562
 8773SOL    HW137955   3.741   0.287   6.527  2.0351  0.9887 -0.7815
 8773SOL    HW237956   3.689   0.163   6.595 -0.3359  1.3578  0.0827
 8774SOL     OW37957   2.285   3.424   5.659  0.0019  0.7139  0.2073
 8774SOL    HW137958   2.197   3.397   5.631 -0.1548  1.6466 -0.2257
 8774SOL    HW237959   2.329   3.345   5.687  0.2986  0.2649 -1.4882
 8775SOL     OW37960   1.785   0.788   3.978  0.2753 -0.1839 -0.5619
 8775SOL    HW137961   1.709   0.731   3.965  0.1667 -0.3157  0.6937
 8775SOL    HW237962   1.744   0.873   3.962  0.6971 -0.1459 -1.4226
 8776SOL     OW37963   1.375   4.140   3.709 -0.7547  0.2139  0.6381
 8776SOL    HW137964   1.323   4.217   3.732  0.8862  1.0375  1.6109
 8776SOL    HW237965   1.325   4.112   3.633  1.3949  0.7335 -0.9721
 8777SOL     OW37966   4.454   3.132   7.470 -0.2978 -0.4330 -0.4759
 8777SOL    HW137967   4.371   3.100   7.505  0.7054  1.1211  3.3190
 8777SOL    HW237968   4.501   3.050   7.486 -0.9660 -0.9424 -1.1321
 8778SOL     OW37969   3.439   2.114   0.788 -0.4007  0.4118  0.2614
 8778SOL    HW137970   3.386   2.192   0.800  0.3519  1.0573 -0.6174
 8778SOL    HW237971   3.438   2.097   0.693  4.2411  1.9558 -0.0622
 8779SOL     OW37972   1.835   0.784   8.525  0.4159 -0.2211 -0.5683
 8779SOL    HW137973   1.925   0.793   8.556 -0.2671  0.0341  1.3871
 8779SOL    HW237974   1.782   0.820   8.596 -0.0634  0.8892 -1.5051
 8780SOL     OW37975   3.866   4.550   4.610  0.0476  0.6983 -0.3588
 8780SOL    HW137976   3.773   4.561   4.627  0.1268 -0.4676  0.8357
 8780SOL    HW237977   3.877   4.597   4.527 -0.7273  1.0630 -0.2486
 8781SOL     OW37978   3.807   3.510  16.958 -0.2654  0.2901 -0.0246
 8781SOL    HW137979   3.737   3.543  16.903 -0.0154  0.1418 -0.4339
 8781SOL    HW237980   3.875   3.574  16.935 -0.4651 -0.0834 -1.6275
 8782SOL     OW37981   0.181   1.585  13.811  0.0656  0.6750 -0.1440
 8782SOL    HW137982   0.168   1.678  13.793 -0.4443  0.7008  0.3771
 8782SOL    HW237983   0.093   1.552  13.794  0.2222 -0.3020  0.9721
 8783SOL     OW37984   3.358   0.899   2.398 -0.2909 -0.9605  0.1044
 8783SOL    HW137985   3.447   0.893   2.363 -0.0755  0.1264  0.4619
 8783SOL    HW237986   3.388   0.891   2.489  0.2610 -2.5114 -0.2059
 8784SOL     OW37987   2.240   4.658   0.778 -0.2904 -0.3250 -0.3522
 8784SOL    HW137988   2.148   4.644   0.758 -1.1133  0.3749  2.8704
 8784SOL    HW237989   2.241   0.007   0.822  1.2421 -0.5290 -0.0133
 8785SOL     OW37990   4.514   3.815   3.672  0.3801  0.1651  0.1019
 8785SOL    HW137991   4.531   3.732   3.717  1.8570  1.1771  1.4006
 8785SOL    HW237992   4.418   3.819   3.680  0.2184 -2.1519 -0.7642
 8786SOL     OW37993   2.510   4.348   6.132 -0.0130  0.4055  0.7306
 8786SOL    HW137994   2.498   4.297   6.212  1.8494 -1.7101 -0.3206
 8786SOL    HW237995   2.502   4.440   6.158  1.5446  1.1808 -1.5353
 8787SOL     OW37996   0.693   4.487   5.320 -0.0483  0.3234 -0.5352
 8787SOL    HW137997   0.713   4.518   5.232 -0.2286  2.1212  0.0554
 8787SOL    HW237998   0.616   4.541   5.336  0.4859  0.6644  0.9442
 8788SOL     OW37999   4.613   1.975  13.476  0.3368  0.0795  0.0630
 8788SOL    HW138000   4.570   2.011  13.398 -1.0648 -1.7583 -0.0131
 8788SOL    HW238001   4.691   1.929  13.445  0.2364  0.7215 -1.1450
 8789SOL     OW38002   2.779   0.453   2.865 -0.1576  0.6781 -0.3067
 8789SOL    HW138003   2.702   0.426   2.815 -0.8379 -1.7449  2.0225
 8789SOL    HW238004   2.749   0.469   2.955 -0.4230  1.8831 -0.6158
 8790SOL     OW38005   1.120   0.067   2.493  0.5536  0.2139 -0.0355
 8790SOL    HW138006   1.128   4.707   2.487 -0.2036 -0.0169  2.6724
 8790SOL    HW238007   1.032   0.065   2.453  0.1686 -0.7906  0.8403
 8791SOL     OW38008   3.246   0.319   5.908  0.4928 -0.1787  0.1137
 8791SOL    HW138009   3.185   0.379   5.866  0.7255  1.5682  2.2679
 8791SOL    HW238010   3.245   0.350   5.999  0.5142  0.1920 -0.0127
 8792SOL     OW38011   0.119   1.607   2.368  0.9024 -0.0211  0.4101
 8792SOL    HW138012   0.074   1.652   2.296  1.0201 -0.7489 -0.1253
 8792SOL    HW238013   0.050   1.606   2.433  1.0857  0.0516  0.6063
 8793SOL     OW38014   2.127   3.985   3.431 -0.0589  0.2178 -0.2573
 8793SOL    HW138015   2.178   4.041   3.490 -1.7109  0.7321  0.6922
 8793SOL    HW238016   2.198   3.929   3.402 -0.5282  0.7998 -2.5046
 8794SOL     OW38017   4.368   3.857   9.182  0.4064 -0.6517 -0.5536
 8794SOL    HW138018   4.425   3.933   9.197  2.7211 -2.5808  0.3373
 8794SOL    HW238019   4.305   3.896   9.122  1.7163 -0.3746 -1.7426
 8795SOL     OW38020   2.859   4.594   8.434 -0.6896  0.1908  0.1805
 8795SOL    HW138021   2.859   4.689   8.422  0.1252 -0.0516 -1.7245
 8795SOL    HW238022   2.774   4.579   8.474 -0.9594  0.9079 -0.1269
 8796SOL     OW38023   3.666   0.176   1.192  0.4672 -0.2065  0.1738
 8796SOL    HW138024   3.619   0.110   1.243  1.7367  0.1230  1.7986
 8796SOL    HW238025   3.743   0.124   1.169  0.0570 -0.0038 -1.6478
 8797SOL     OW38026   4.146   4.455   4.607 -0.0856  0.3546 -0.1365
 8797SOL    HW138027   4.051   4.464   4.598 -0.1226  0.8344  0.6804
 8797SOL    HW238028   4.156   4.523   4.674 -0.4964 -0.0942  0.3795
 8798SOL     OW38029   3.855   2.962   4.446 -0.2082 -0.2732  0.0296
 8798SOL    HW138030   3.833   2.967   4.353  3.3655  0.2057 -0.7888
 8798SOL    HW238031   3.920   3.032   4.456 -0.3821 -0.0161 -0.6918
 8799SOL     OW38032   3.109   3.306  11.262  0.4616 -0.1773  0.2951
 8799SOL    HW138033   3.117   3.279  11.353  1.3836  0.2528  0.3401
 8799SOL    HW238034   3.050   3.239  11.228 -0.2559  0.0865  1.0091
 8800SOL     OW38035   0.176   3.205   7.648 -0.4203 -0.2668  0.7776
 8800SOL    HW138036   0.127   3.282   7.680  0.1089  0.4613 -0.1654
 8800SOL    HW238037   0.113   3.137   7.670 -1.7393  0.3344 -1.1440
 8801SOL     OW38038   2.361   2.811   8.790 -0.4222 -0.0672 -0.0879
 8801SOL    HW138039   2.267   2.824   8.778 -0.8091 -2.6927  0.1341
 8801SOL    HW238040   2.360   2.737   8.850  1.3825  1.8542  2.3466
 8802SOL     OW38041   3.263   1.155  11.896 -0.3737  0.6552  0.3253
 8802SOL    HW138042   3.277   1.143  11.802  2.5988 -2.5361  1.1734
 8802SOL    HW238043   3.242   1.065  11.920  1.0956  0.1974 -0.1026
 8803SOL     OW38044   3.831   1.715  16.599  0.1137 -0.3839  0.0066
 8803SOL    HW138045   3.762   1.663  16.641 -0.7255 -0.2140 -1.1687
 8803SOL    HW238046   3.835   1.678  16.511 -0.2466  0.8654 -0.5344
 8804SOL     OW38047   4.425   1.688   2.085  0.1833 -1.0069 -0.2972
 8804SOL    HW138048   4.453   1.598   2.097  0.1658 -0.7424  1.6670
 8804SOL    HW238049   4.348   1.685   2.142  2.9098 -0.5217  3.3845
 8805SOL     OW38050   0.534   0.778   5.627  0.3610 -0.4879 -0.3729
 8805SOL    HW138051   0.445   0.753   5.652  0.1598  0.6750  0.0916
 8805SOL    HW238052   0.514   0.846   5.563  1.1789 -0.2055 -0.3319
 8806SOL     OW38053   1.470   3.906   6.260 -0.1833 -0.2959 -0.5426
 8806SOL    HW138054   1.519   3.958   6.324 -1.0370 -2.8146  2.1398
 8806SOL    HW238055   1.383   3.900   6.300  0.5354  1.0689  1.2277
 8807SOL     OW38056   0.004   2.050  17.179 -0.5310 -0.1383 -0.2585
 8807SOL    HW138057   0.079   2.088  17.132 -0.2172 -0.7840 -0.2746
 8807SOL    HW238058   4.730   1.963  17.141 -1.7370 -0.5356  0.9618
 8808SOL     OW38059   2.137   0.445   1.419  0.5285 -0.2396  0.4031
 8808SOL    HW138060   2.216   0.421   1.371  0.2780 -1.8833  0.7797
 8808SOL    HW238061   2.069   0.446   1.351 -1.8300  1.1043  2.7668
 8809SOL     OW38062   3.034   0.886   8.850 -0.2846 -0.2593 -0.2459
 8809SOL    HW138063   2.999   0.923   8.768 -0.3129  0.5434  0.1264
 8809SOL    HW238064   3.111   0.850   8.806 -1.4999  0.6100 -3.1094
 8810SOL     OW38065   3.900   1.263   8.663  0.3688 -0.0777  0.4672
 8810SOL    HW138066   3.971   1.326   8.650 -1.5720  1.9271 -0.2719
 8810SOL    HW238067   3.862   1.275   8.577 -1.8688  0.8190  1.5753
 8811SOL     OW38068   0.490   4.320   3.502 -0.3068 -0.2309 -0.0575
 8811SOL    HW138069   0.477   4.355   3.414  2.3259 -0.9309 -0.7008
 8811SOL    HW238070   0.433   4.243   3.513 -1.5006  0.9454  2.0956
 8812SOL     OW38071   0.804   2.944   8.701 -0.0266  0.2166  0.4256
 8812SOL    HW138072   0.756   3.024   8.722  0.0274 -0.1211  1.8606
 8812SOL    HW238073   0.896   2.970   8.691  0.1620 -0.6333 -0.0668
 8813SOL     OW38074   0.455   3.473   7.658  0.0215 -0.1239 -0.0932
 8813SOL    HW138075   0.359   3.477   7.661 -0.0963 -2.0726 -0.8567
 8813SOL    HW238076   0.478   3.534   7.588 -1.1352 -0.2034 -0.5438
 8814SOL     OW38077   4.178   2.342   9.481  0.1824 -0.2055  0.0456
 8814SOL    HW138078   4.161   2.436   9.485  2.0291  0.1658 -1.1260
 8814SOL    HW238079   4.274   2.347   9.477  0.1605  2.1553  1.9249
 8815SOL     OW38080   1.976   1.776   4.186 -0.0147  0.0690  0.2110
 8815SOL    HW138081   1.910   1.845   4.182  1.2798  1.3499  0.6256
 8815SOL    HW238082   2.053   1.821   4.222  0.0097  0.2842 -0.1182
 8816SOL     OW38083   4.647   0.801   3.179  0.0427  0.5095  0.0769
 8816SOL    HW138084   4.640   0.753   3.097  0.5456  0.6841 -0.0646
 8816SOL    HW238085   4.733   0.841   3.168  0.5870 -0.8586 -0.6143
 8817SOL     OW38086   1.979   0.758  15.592  0.5750 -0.4730 -0.4712
 8817SOL    HW138087   1.951   0.739  15.682  0.2925  0.4647 -0.3693
 8817SOL    HW238088   1.898   0.732  15.549 -0.5665 -0.2016  1.4969
 8818SOL     OW38089   3.176   4.156  10.905  0.1342 -0.2659  0.3842
 8818SOL    HW138090   3.156   4.243  10.941 -2.9053 -1.3530  1.2867
 8818SOL    HW238091   3.247   4.171  10.843  0.3855  1.1597  1.0064
 8819SOL     OW38092   4.025   3.622  13.161  0.6882 -0.2595  0.6284
 8819SOL    HW138093   4.093   3.674  13.205 -1.5336  0.1436  3.5583
 8819SOL    HW238094   3.949   3.646  13.214  1.4815 -1.1489  2.1738
 8820SOL     OW38095   3.300   4.498   4.717  0.8668  0.0892  0.1629
 8820SOL    HW138096   3.256   4.420   4.750 -0.1474  0.7146  0.2710
 8820SOL    HW238097   3.256   4.518   4.635  0.8968 -0.9905 -0.1280
 8821SOL     OW38098   4.560   1.971   4.122 -0.0862  0.1682 -0.5077
 8821SOL    HW138099   4.644   1.955   4.079 -0.5571 -0.1121 -1.3092
 8821SOL    HW238100   4.512   1.889   4.112 -2.0712  1.4401 -1.3065
 8822SOL     OW38101   3.327   0.133   7.698  0.3913  0.4735 -0.4961
 8822SOL    HW138102   3.331   0.040   7.674  2.4201  0.2032  0.8784
 8822SOL    HW238103   3.251   0.169   7.652 -0.2910 -0.1733  0.1404
 8823SOL     OW38104   0.537   0.283   4.920 -0.1429  0.4938 -0.1376
 8823SOL    HW138105   0.548   0.196   4.881  1.6458 -0.5432  2.6988
 8823SOL    HW238106   0.584   0.343   4.862 -1.3335  1.0103 -0.5691
 8824SOL     OW38107   0.493   1.545   8.055  0.1156 -0.0578 -0.3323
 8824SOL    HW138108   0.461   1.530   8.144 -0.5488 -0.0631 -0.5789
 8824SOL    HW238109   0.470   1.638   8.052 -0.7296 -0.2294  1.0182
 8825SOL     OW38110   3.736   3.026   4.925 -0.0097  0.0006  0.4403
 8825SOL    HW138111   3.666   2.963   4.943  0.2691  0.0892  1.8319
 8825SOL    HW238112   3.734   3.032   4.829  0.3692  1.6562  0.5440
 8826SOL     OW38113   4.067   2.851   2.724  0.4537  0.6655 -0.0506
 8826SOL    HW138114   4.112   2.812   2.799  2.0850 -0.8033 -1.8161
 8826SOL    HW238115   4.037   2.771   2.682  1.7998 -0.5113  1.2531
 8827SOL     OW38116   2.448   4.415  14.905  0.1605  0.1954 -0.0346
 8827SOL    HW138117   2.353   4.411  14.898  0.1429  0.5262  0.0104
 8827SOL    HW238118   2.467   4.505  14.933 -1.5248  1.0185 -1.5452
 8828SOL     OW38119   4.343   4.078   4.807 -0.1859 -0.4340  0.7762
 8828SOL    HW138120   4.323   4.121   4.890 -0.7951 -0.0596  0.4338
 8828SOL    HW238121   4.367   3.989   4.834  2.9045  0.7940  2.1242
 8829SOL     OW38122   2.085   3.997   0.314  0.0629  0.0634  0.3045
 8829SOL    HW138123   2.055   4.042   0.393  0.1788  0.9720 -0.1618
 8829SOL    HW238124   2.175   3.976   0.339  0.6492  2.0928 -0.0925
 8830SOL     OW38125   1.584   2.680   7.870  0.2458 -0.0008 -0.7666
 8830SOL    HW138126   1.552   2.697   7.958  0.0576  0.5184 -0.9351
 8830SOL    HW238127   1.676   2.667   7.892 -0.3858 -0.3691  1.6370
 8831SOL     OW38128   2.725   4.718   6.184 -0.0873  0.5324 -0.3336
 8831SOL    HW138129   2.813   0.018   6.173  0.6493 -0.8308  1.0172
 8831SOL    HW238130   2.730   4.703   6.279  0.8404  1.8496 -0.1796
 8832SOL     OW38131   0.757   0.966  12.944 -0.1882 -0.2882 -0.5354
 8832SOL    HW138132   0.724   0.920  12.866 -2.3705 -1.2125  0.9471
 8832SOL    HW238133   0.827   1.024  12.913 -0.5988 -0.6239 -2.1409
 8833SOL     OW38134   3.135   2.040   2.034 -0.2351 -0.0557 -0.3100
 8833SOL    HW138135   3.059   2.090   2.005  1.1205  0.8143 -2.3705
 8833SOL    HW238136   3.100   2.012   2.118  0.2176 -0.0806 -0.1282
 8834SOL     OW38137   3.095   1.409  16.895  0.2323 -0.4919  1.0492
 8834SOL    HW138138   3.039   1.484  16.876  0.8840 -0.6986 -1.7214
 8834SOL    HW238139   3.033   1.337  16.895  0.4061 -0.6584 -0.8655
 8835SOL     OW38140   2.503   2.543  11.353  0.2602 -0.1634 -0.5194
 8835SOL    HW138141   2.444   2.604  11.396  0.9254  0.1730 -0.0897
 8835SOL    HW238142   2.531   2.490  11.428  0.7086  1.9486  0.7979
 8836SOL     OW38143   3.324   4.477   3.416  0.3240 -0.4070  0.3882
 8836SOL    HW138144   3.307   4.414   3.485  1.9447 -1.2254  0.0373
 8836SOL    HW238145   3.239   4.517   3.403  0.1947 -1.1970 -1.1853
 8837SOL     OW38146   2.496   2.788   3.615  0.0725 -0.5139  0.0318
 8837SOL    HW138147   2.535   2.875   3.606 -2.1982  0.4997 -0.0503
 8837SOL    HW238148   2.516   2.764   3.705  1.0901 -1.3659 -0.4263
 8838SOL     OW38149   1.601   2.015   9.269 -0.3214  0.3725 -0.0027
 8838SOL    HW138150   1.525   1.962   9.295  0.8330 -0.6429  1.3314
 8838SOL    HW238151   1.577   2.097   9.311 -0.3788 -0.3503  1.3862
 8839SOL     OW38152   3.045   0.387   2.927  0.0414 -0.0020 -0.4533
 8839SOL    HW138153   3.059   0.390   3.022 -2.2295 -1.2487 -0.0666
 8839SOL    HW238154   2.950   0.399   2.922  0.1719  1.4701  0.5950
 8840SOL     OW38155   0.554   2.880   2.863  0.1784 -0.1685 -0.8545
 8840SOL    HW138156   0.597   2.831   2.793  2.0876  2.4960 -1.5329
 8840SOL    HW238157   0.485   2.822   2.895 -1.1033  1.9087  0.1512
 8841SOL     OW38158   2.234   0.659   6.143 -0.1510  0.5984 -0.1190
 8841SOL    HW138159   2.250   0.603   6.067 -1.2369 -2.6939  2.0617
 8841SOL    HW238160   2.176   0.601   6.192  1.4048  0.5181  1.6344
 8842SOL     OW38161   1.846   2.036   8.056 -0.1584 -0.4079 -0.2561
 8842SOL    HW138162   1.937   2.037   8.029 -0.2047  0.4515 -0.3691
 8842SOL    HW238163   1.840   1.940   8.052 -0.8746 -0.3752 -0.0136
 8843SOL     OW38164   4.514   1.452   9.917 -0.2773  0.3682 -0.3644
 8843SOL    HW138165   4.492   1.517   9.984  0.8202  0.7442 -0.3668
 8843SOL    HW238166   4.604   1.436   9.944 -0.4055 -0.6534 -0.5220
 8844SOL     OW38167   0.055   1.972   5.331 -0.0765 -0.7722  0.2435
 8844SOL    HW138168   4.702   2.001   5.310  0.5617  1.8936  1.3553
 8844SOL    HW238169   0.047   1.878   5.314 -1.4174 -0.8390  1.3266
 8845SOL     OW38170   0.807   3.270   2.710  0.2510 -0.0498 -0.7943
 8845SOL    HW138171   0.782   3.351   2.754  1.6416  0.7225 -1.4207
 8845SOL    HW238172   0.799   3.210   2.784  1.2606  1.3170  0.4258
 8846SOL     OW38173   0.528   0.920   8.535  0.5634 -0.5549 -1.1379
 8846SOL    HW138174   0.453   0.913   8.594 -0.4660  0.4921 -2.3157
 8846SOL    HW238175   0.544   1.014   8.540 -2.4279 -0.1524  0.8338
 8847SOL     OW38176   0.971   2.646  11.664  0.0619  0.5859  0.5072
 8847SOL    HW138177   0.935   2.587  11.597 -0.6173 -1.9488  3.1143
 8847SOL    HW238178   1.063   2.629  11.647  0.8888  3.8869  1.6546
 8848SOL     OW38179   2.198   0.171  11.168 -0.2402 -0.6011  0.1256
 8848SOL    HW138180   2.274   0.113  11.172  0.1996 -0.0594 -0.4052
 8848SOL    HW238181   2.133   0.120  11.119 -0.7748  2.1893 -2.0591
 8849SOL     OW38182   3.085   3.923  12.493  0.0251  0.4303 -0.0320
 8849SOL    HW138183   3.072   3.963  12.579  0.5677  0.1343  0.1870
 8849SOL    HW238184   3.090   3.829  12.511 -0.2648  0.8682  2.2895
 8850SOL     OW38185   1.521   0.287   5.556 -0.3739  0.0457  0.2565
 8850SOL    HW138186   1.440   0.278   5.607  0.8398 -2.8683  1.7108
 8850SOL    HW238187   1.580   0.243   5.618  1.0563 -0.2837 -1.3429
 8851SOL     OW38188   1.402   3.516   0.729 -0.1578 -1.3975  0.2342
 8851SOL    HW138189   1.309   3.508   0.705 -0.2318  1.2694 -0.3397
 8851SOL    HW238190   1.436   3.468   0.654  1.1839  0.4753 -0.3536
 8852SOL     OW38191   0.967   4.709  17.328 -0.4314 -0.3018 -0.0899
 8852SOL    HW138192   0.952   4.615  17.327  0.8942 -0.5296  2.1034
 8852SOL    HW238193   0.921   4.732  17.247  2.9528  2.5688 -1.1476
 8853SOL     OW38194   4.253   2.975   9.704  0.7563 -0.0880 -0.9839
 8853SOL    HW138195   4.191   3.047   9.718  0.5685 -0.0158 -2.1568
 8853SOL    HW238196   4.267   2.940   9.792 -1.7416  0.3314 -0.4157
 8854SOL     OW38197   1.730   1.930   9.039  0.9865  0.2294 -0.4550
 8854SOL    HW138198   1.705   1.942   9.131 -2.9629 -0.8241 -1.4168
 8854SOL    HW238199   1.678   1.994   8.991 -1.4338 -2.0760 -0.8723
 8855SOL     OW38200   1.187   1.194  17.251 -0.0613 -0.3390 -0.2506
 8855SOL    HW138201   1.138   1.185  17.333  0.1143  1.3910  0.0615
 8855SOL    HW238202   1.144   1.266  17.203  2.0976  0.7456 -0.5526
 8856SOL     OW38203   1.999   1.121   6.800 -0.0522  0.3981 -0.4377
 8856SOL    HW138204   2.083   1.106   6.844 -0.5652 -0.1380  0.3464
 8856SOL    HW238205   2.021   1.212   6.777  0.5030  0.2357 -0.5625
 8857SOL     OW38206   3.893   2.132   2.162 -0.6638  0.5681 -0.2525
 8857SOL    HW138207   3.800   2.112   2.167 -0.3534 -0.9180 -0.5485
 8857SOL    HW238208   3.922   2.067   2.098  3.5066  0.8733  1.2910
 8858SOL     OW38209   0.553   2.475  15.178  0.7709 -0.7093 -0.0586
 8858SOL    HW138210   0.577   2.403  15.236  0.7198 -0.1596  0.6522
 8858SOL    HW238211   0.634   2.484  15.128  1.1830  2.9122  1.2008
 8859SOL     OW38212   2.422   4.614   4.268 -0.1786 -0.1744 -0.1644
 8859SOL    HW138213   2.473   4.534   4.279  0.3023 -0.2314 -2.6832
 8859SOL    HW238214   2.466   4.664   4.336  1.1009 -1.5282  0.0061
 8860SOL     OW38215   2.453   4.295   4.829  0.4662 -0.5915  0.1291
 8860SOL    HW138216   2.373   4.316   4.877 -0.1887  0.3319 -1.3748
 8860SOL    HW238217   2.518   4.351   4.870 -0.7212 -0.9345  2.4643
 8861SOL     OW38218   2.917   1.085   1.121 -0.1344 -0.3057  0.0660
 8861SOL    HW138219   2.829   1.047   1.126  0.3426 -1.4957 -0.6700
 8861SOL    HW238220   2.941   1.097   1.213  2.0775  0.6178 -0.6435
 8862SOL     OW38221   1.940   2.439   0.713 -0.1084  0.0543  0.5683
 8862SOL    HW138222   1.914   2.359   0.758 -0.7267 -0.6937 -1.1099
 8862SOL    HW238223   1.976   2.491   0.785  1.7488  0.4321 -0.6317
 8863SOL     OW38224   3.293   2.886   6.690 -0.1688  0.2675 -0.0112
 8863SOL    HW138225   3.307   2.903   6.597 -0.6804 -1.7456 -0.4413
 8863SOL    HW238226   3.198   2.894   6.697 -0.1311  0.6070  0.1236
 8864SOL     OW38227   0.863   1.917   8.804  0.2131 -0.3664  0.3666
 8864SOL    HW138228   0.868   1.823   8.782  0.4922  0.2580 -2.2908
 8864SOL    HW238229   0.772   1.936   8.784  0.2434 -0.1946  0.3974
 8865SOL     OW38230   0.411   4.430   7.576 -0.1935  0.5208  0.4097
 8865SOL    HW138231   0.322   4.464   7.565 -0.6638 -0.5308  0.9480
 8865SOL    HW238232   0.403   4.343   7.535  3.0193  0.0227  0.8734
 8866SOL     OW38233   1.199   0.657  17.202  0.1859 -0.0788  0.3718
 8866SOL    HW138234   1.142   0.681  17.275  2.3632 -0.6820  2.3154
 8866SOL    HW238235   1.266   0.725  17.214  0.1157 -0.3315  2.2108
 8867SOL     OW38236   1.747   2.862   4.515  0.1893  0.1315 -0.1418
 8867SOL    HW138237   1.774   2.791   4.573  1.4876 -0.0004 -0.9030
 8867SOL    HW238238   1.679   2.904   4.568  0.4666  0.7238 -0.2605
 8868SOL     OW38239   0.046   0.631   9.575  0.4765  0.5887  0.2985
 8868SOL    HW138240   0.117   0.583   9.618 -2.0939 -1.6860  1.9977
 8868SOL    HW238241   4.719   0.650   9.644 -0.0338 -1.6489  0.4421
 8869SOL     OW38242   2.879   0.982   7.948  0.2025 -0.0895 -0.3103
 8869SOL    HW138243   2.911   1.042   7.880 -1.0060  1.0769  0.1324
 8869SOL    HW238244   2.888   1.036   8.026 -0.5274 -0.9283  0.3516
 8870SOL     OW38245   1.348   0.910   5.508  0.0621  0.2047  0.4329
 8870SOL    HW138246   1.427   0.856   5.513  0.6254  1.1636  1.8387
 8870SOL    HW238247   1.392   0.995   5.517  0.7765 -0.1476  0.2795
 8871SOL     OW38248   0.091   0.026   4.464 -0.2416 -0.5601  0.3258
 8871SOL    HW138249   0.173   0.013   4.417  0.5045 -0.9189  1.7360
 8871SOL    HW238250   0.119   0.042   4.555 -2.3152 -3.8603  1.5289
 8872SOL     OW38251   3.094   4.386   2.106 -0.4361  0.4734  0.3776
 8872SOL    HW138252   3.149   4.307   2.110  1.4999  1.7316 -1.5012
 8872SOL    HW238253   3.077   4.402   2.199 -1.5996  3.1554 -0.2966
 8873SOL     OW38254   0.472   2.716   9.636 -0.5687 -0.5832 -0.4891
 8873SOL    HW138255   0.502   2.683   9.721  1.7220 -0.5504 -1.2806
 8873SOL    HW238256   0.476   2.646   9.571  1.8220 -0.0875 -0.8843
 8874SOL     OW38257   2.107   1.320   2.414  0.1592 -0.4509 -0.0438
 8874SOL    HW138258   2.175   1.281   2.469  0.2251  0.0779  0.2488
 8874SOL    HW238259   2.086   1.405   2.454  0.0849  0.0812 -1.2047
 8875SOL     OW38260   3.914   1.671   3.288 -0.8985  0.0413 -0.1713
 8875SOL    HW138261   4.007   1.691   3.276  0.0729 -3.3061  2.0909
 8875SOL    HW238262   3.887   1.759   3.316  0.2683 -0.1602  1.5373
 8876SOL     OW38263   1.913   2.565   4.254  0.2133  0.1474  0.1653
 8876SOL    HW138264   1.960   2.551   4.336 -0.1754 -2.1792 -0.0084
 8876SOL    HW238265   1.823   2.574   4.283 -0.5044  0.1930 -2.0988
 8877SOL     OW38266   2.097   3.509   8.844 -0.7806 -0.6996 -0.0309
 8877SOL    HW138267   2.129   3.518   8.754  1.0259 -1.3793  0.5458
 8877SOL    HW238268   2.166   3.467   8.896  0.5637 -0.4708 -1.6293
 8878SOL     OW38269   3.123   3.643   9.062 -0.9044 -0.4939  0.2946
 8878SOL    HW138270   3.051   3.703   9.041  0.1152  1.4592  2.4121
 8878SOL    HW238271   3.176   3.647   8.982  0.3445  0.8140  1.1811
 8879SOL     OW38272   4.177   0.444   9.481 -0.3355  0.1301 -0.2302
 8879SOL    HW138273   4.174   0.416   9.572  0.5933  1.3849  0.1966
 8879SOL    HW238274   4.184   0.359   9.439  2.4571  0.4910 -0.5046
 8880SOL     OW38275   1.663   0.068  15.852  0.1768 -0.0205  0.5702
 8880SOL    HW138276   1.656   0.100  15.763 -1.2274 -1.3072  0.2264
 8880SOL    HW238277   1.602   0.118  15.906  1.7005 -0.2460  2.5128
 8881SOL     OW38278   0.116   0.359   8.341  0.4888 -0.2603 -0.1896
 8881SOL    HW138279   0.092   0.276   8.382  0.1048  0.0704  0.2620
 8881SOL    HW238280   0.086   0.422   8.407  0.4252  0.3268 -0.7812
 8882SOL     OW38281   4.647   2.846   6.785  0.4523  0.3217 -0.4875
 8882SOL    HW138282   4.695   2.897   6.720 -1.4326 -0.0324 -2.1758
 8882SOL    HW238283   4.674   2.890   6.865  1.3292 -0.5367 -0.3109
 8883SOL     OW38284   4.016   2.376   5.486 -0.0235  0.1947 -0.4039
 8883SOL    HW138285   4.048   2.311   5.425  2.7497  1.9264 -0.8025
 8883SOL    HW238286   4.065   2.343   5.561 -2.0033 -0.5093  0.5951
 8884SOL     OW38287   2.771   1.760   2.468  0.1972  0.0517  0.2563
 8884SOL    HW138288   2.743   1.716   2.548 -1.4484  0.8886  0.1271
 8884SOL    HW238289   2.802   1.687   2.413  0.9088 -0.5632  1.4696
 8885SOL     OW38290   2.219   2.336   7.874  0.0157 -0.2196 -0.2594
 8885SOL    HW138291   2.187   2.266   7.931  0.1541 -0.5718 -0.6179
 8885SOL    HW238292   2.151   2.344   7.807  0.6580 -0.9253 -0.9917
 8886SOL     OW38293   0.516   2.455  14.888 -0.6958 -0.6664  0.2165
 8886SOL    HW138294   0.594   2.491  14.844 -1.1754  2.5072  1.9210
 8886SOL    HW238295   0.469   2.536  14.910 -1.1790 -0.6921 -0.7181
 8887SOL     OW38296   4.595   0.083   5.049  0.1692 -0.3327  0.2306
 8887SOL    HW138297   4.655   0.031   4.996 -0.1049 -1.1463  0.7070
 8887SOL    HW238298   4.520   0.023   5.049  0.3780 -0.5932  1.0237
 8888SOL     OW38299   0.170   0.117   4.708  0.4295  0.4607  0.0466
 8888SOL    HW138300   0.194   0.038   4.755 -1.2534  0.8682  1.5839
 8888SOL    HW238301   0.228   0.179   4.753  0.8156 -0.2976  0.5795
 8889SOL     OW38302   3.040   2.939   6.774 -0.1592 -0.2523 -0.0869
 8889SOL    HW138303   3.094   2.901   6.842  0.4780  2.1860  0.7752
 8889SOL    HW238304   3.022   3.026   6.811  1.0535 -0.3810  0.7864
 8890SOL     OW38305   3.632   3.137  10.820 -0.1144  0.3605 -0.6074
 8890SOL    HW138306   3.636   3.059  10.875  1.3600  0.0540 -1.1575
 8890SOL    HW238307   3.694   3.196  10.862  1.7388 -1.6840 -0.4742
 8891SOL     OW38308   2.757   1.323   4.864  0.2211 -0.4482 -0.2443
 8891SOL    HW138309   2.727   1.326   4.773  1.4142 -1.6517 -0.6807
 8891SOL    HW238310   2.852   1.336   4.857  0.3559 -1.2340  0.1359
 8892SOL     OW38311   1.845   0.478   3.337 -0.4181 -0.1770  0.0257
 8892SOL    HW138312   1.890   0.463   3.420 -0.4094 -2.4450 -0.3753
 8892SOL    HW238313   1.798   0.397   3.316  2.0458 -1.4068 -0.7048
 8893SOL     OW38314   2.625   3.571   2.669  0.3600 -0.7198  0.0246
 8893SOL    HW138315   2.714   3.591   2.639  0.2077  1.2459  0.9053
 8893SOL    HW238316   2.648   3.564   2.761  0.9299 -0.4152 -0.0943
 8894SOL     OW38317   2.450   3.852   1.683 -0.2057  0.0322 -0.1398
 8894SOL    HW138318   2.521   3.809   1.730 -1.2123  0.0685  1.3977
 8894SOL    HW238319   2.472   3.822   1.595 -1.1887 -3.3034  0.7572
 8895SOL     OW38320   2.719   4.086   7.403  0.2390 -0.3799  0.0437
 8895SOL    HW138321   2.779   4.126   7.341  2.3971 -3.5078  0.1017
 8895SOL    HW238322   2.782   4.023   7.440  0.2572 -0.2681  0.2005
 8896SOL     OW38323   2.179   4.010  13.930 -0.5332  0.3866  0.0779
 8896SOL    HW138324   2.169   4.060  14.010 -1.3975  2.2405 -1.1841
 8896SOL    HW238325   2.122   3.936  13.955 -0.4868  0.1370 -0.5414
 8897SOL     OW38326   2.110   2.930   5.233  0.1178  0.0312  0.2293
 8897SOL    HW138327   2.204   2.944   5.222 -0.2283 -0.0543 -2.9895
 8897SOL    HW238328   2.074   2.994   5.171  0.7709 -0.1634 -0.3512
 8898SOL     OW38329   2.497   3.851   1.075  0.0304  0.6919  0.1881
 8898SOL    HW138330   2.472   3.891   1.159 -1.3563 -0.1931  0.2032
 8898SOL    HW238331   2.532   3.765   1.099 -0.1692  0.8436  1.0183
 8899SOL     OW38332   0.478   3.370   2.112  0.5656 -0.7168  0.3527
 8899SOL    HW138333   0.503   3.298   2.055 -1.9715  0.5755 -2.3708
 8899SOL    HW238334   0.550   3.429   2.090  0.1337  0.0920  1.1022
 8900SOL     OW38335   3.627   2.065   2.213 -0.5423 -0.2156  0.1005
 8900SOL    HW138336   3.564   2.135   2.231 -1.5726 -1.9986  3.3776
 8900SOL    HW238337   3.626   2.015   2.294 -4.5244  0.2449  0.3675
 8901SOL     OW38338   2.953   3.973   4.682  0.0206  0.1916 -0.0709
 8901SOL    HW138339   2.859   3.967   4.700 -0.4463  1.8015 -1.9984
 8901SOL    HW238340   2.972   3.925   4.602  0.2711 -2.3457  1.5205
 8902SOL     OW38341   4.450   3.209   9.644  0.2460 -0.4224  0.0592
 8902SOL    HW138342   4.510   3.152   9.693  1.7845  3.8165  3.0512
 8902SOL    HW238343   4.367   3.163   9.641  0.0760 -0.1777  0.9449
 8903SOL     OW38344   2.182   3.488   4.274  0.4040  0.3046  0.0306
 8903SOL    HW138345   2.198   3.551   4.204  3.1459  0.4521  0.7864
 8903SOL    HW238346   2.239   3.504   4.350 -0.4391  0.2281  0.6782
 8904SOL     OW38347   4.115   3.738  12.659 -0.2711  0.2062 -0.2941
 8904SOL    HW138348   4.093   3.780  12.576  2.8541  0.4160 -1.0435
 8904SOL    HW238349   4.176   3.799  12.701 -0.7914 -0.2235  1.0840
 8905SOL     OW38350   1.451   2.880   6.581  0.7072 -0.1316 -0.0962
 8905SOL    HW138351   1.427   2.789   6.564 -0.7806  0.4649 -1.2816
 8905SOL    HW238352   1.449   2.909   6.490  1.8171  0.8188  0.1868
 8906SOL     OW38353   0.657   0.799   5.261 -0.0900 -1.1820 -0.0803
 8906SOL    HW138354   0.725   0.736   5.235  2.0859  1.8491 -1.7855
 8906SOL    HW238355   0.696   0.871   5.212  0.2361 -0.9695  0.4950
 8907SOL     OW38356   3.941   0.201   0.742  0.3428 -0.2453  0.1042
 8907SOL    HW138357   4.031   0.212   0.772  0.9896 -4.6924 -0.1870
 8907SOL    HW238358   3.950   0.181   0.649  2.2543  0.7612  0.0683
 8908SOL     OW38359   0.997   1.729  16.840 -0.2531  0.0679 -0.3407
 8908SOL    HW138360   1.003   1.661  16.773  0.2167 -0.9237  0.7077
 8908SOL    HW238361   0.906   1.715  16.866 -0.1851 -1.7359 -1.0561
 8909SOL     OW38362   1.231   1.607   9.611 -0.1654 -0.4585 -0.4935
 8909SOL    HW138363   1.148   1.581   9.570 -1.0010  2.1074 -0.3850
 8909SOL    HW238364   1.200   1.626   9.699 -1.8039 -3.1615 -0.4971
 8910SOL     OW38365   1.554   0.663   6.188  0.3998  0.3287 -0.6621
 8910SOL    HW138366   1.487   0.615   6.236 -0.3086  1.5872 -0.3905
 8910SOL    HW238367   1.500   0.741   6.172 -0.7724 -0.4619 -0.5976
 8911SOL     OW38368   4.276   2.654   9.749 -0.1909  0.7329 -0.3430
 8911SOL    HW138369   4.344   2.706   9.792  0.9483  0.0567 -1.3253
 8911SOL    HW238370   4.227   2.615   9.822 -3.1821  1.8383 -1.7698
 8912SOL     OW38371   4.592   4.009  14.094  0.8875  0.4758  0.5626
 8912SOL    HW138372   4.516   3.967  14.134  1.0204  1.2973  1.6742
 8912SOL    HW238373   4.663   3.996  14.157  0.2829  2.3183  1.6313
 8913SOL     OW38374   2.537   3.885   5.960  0.0434 -0.1129 -0.2510
 8913SOL    HW138375   2.459   3.930   5.927 -0.5117 -0.8828 -0.0014
 8913SOL    HW238376   2.529   3.877   6.055 -2.7703  0.6683 -0.4413
 8914SOL     OW38377   4.340   3.817   2.617 -0.0747  0.7208  0.0119
 8914SOL    HW138378   4.397   3.885   2.582  1.0875  0.5392  1.5511
 8914SOL    HW238379   4.402   3.794   2.685  1.3331 -0.9018 -1.8191
 8915SOL     OW38380   1.030   3.216   9.289 -0.2803 -0.1914  0.7443
 8915SOL    HW138381   1.104   3.276   9.300 -0.9858  0.7280  0.4427
 8915SOL    HW238382   0.998   3.195   9.377  0.1968 -1.3292  0.6568
 8916SOL     OW38383   2.122   2.225   2.485  0.2880 -0.2844 -0.3566
 8916SOL    HW138384   2.108   2.320   2.479 -0.4716 -0.4783 -1.8804
 8916SOL    HW238385   2.090   2.202   2.397 -1.3012  0.5564  0.0139
 8917SOL     OW38386   0.769   1.847   6.722  0.1223  0.0328 -0.0216
 8917SOL    HW138387   0.856   1.808   6.719 -1.0653 -2.2630 -3.9151
 8917SOL    HW238388   0.802   1.934   6.700 -0.2117  0.3726  0.8172
 8918SOL     OW38389   0.638   0.684   4.945 -0.2730  0.2196  0.3637
 8918SOL    HW138390   0.551   0.666   4.980 -0.3731  1.2171  0.6273
 8918SOL    HW238391   0.631   0.779   4.939 -1.9672 -0.0554 -1.8225
 8919SOL     OW38392   1.836   4.261  15.921 -0.0542 -0.1243 -0.0690
 8919SOL    HW138393   1.915   4.266  15.868  0.1301  1.0766  0.3141
 8919SOL    HW238394   1.806   4.348  15.895 -0.4167 -1.4531 -3.9981
 8920SOL     OW38395   1.123   3.717  16.045  0.1004  0.5909 -0.2553
 8920SOL    HW138396   1.147   3.708  16.137  0.2144  0.2222 -0.3212
 8920SOL    HW238397   1.111   3.625  16.021  0.0392  1.1492 -2.3823
 8921SOL     OW38398   3.384   4.051   3.333 -0.4942  0.3104 -0.0254
 8921SOL    HW138399   3.458   4.014   3.380 -0.6543 -0.4169 -0.3534
 8921SOL    HW238400   3.325   3.986   3.371  0.8207 -0.6377  0.3685
 8922SOL     OW38401   4.052   2.217   1.818 -0.3037 -0.1248  0.1575
 8922SOL    HW138402   4.059   2.289   1.755  1.9300  1.0162  1.7307
 8922SOL    HW238403   3.958   2.201   1.817 -0.0956 -1.2656 -0.6461
 8923SOL     OW38404   0.029   2.765   6.133  0.2750 -0.1176  0.0252
 8923SOL    HW138405   4.699   2.816   6.086  0.9067  0.7414  0.0686
 8923SOL    HW238406   0.112   2.806   6.109  0.9647 -0.4719  1.8469
 8924SOL     OW38407   4.665   3.949   7.949 -0.3496 -0.0272 -0.3915
 8924SOL    HW138408   4.657   4.019   8.013  2.6178  0.2452 -0.3548
 8924SOL    HW238409   4.655   3.986   7.861  1.3338 -2.1086 -1.4654
 8925SOL     OW38410   0.644   4.709  12.444 -0.1621 -0.1887 -0.1800
 8925SOL    HW138411   0.688   0.033  12.504  0.0993 -0.2293 -0.3325
 8925SOL    HW238412   0.713   4.673  12.388 -2.3622 -1.3928 -2.1286
 8926SOL     OW38413   3.585   2.665   9.378  0.1145  0.1938  0.1071
 8926SOL    HW138414   3.653   2.696   9.318 -1.5791  1.3292 -1.2122
 8926SOL    HW238415   3.561   2.742   9.430 -0.4134  0.8430 -1.1107
 8927SOL     OW38416   3.762   1.955  13.229 -0.2334 -0.0667  0.0556
 8927SOL    HW138417   3.775   1.993  13.317  0.6495  0.1503 -0.1605
 8927SOL    HW238418   3.742   1.862  13.239 -0.6735 -0.2034 -2.1214
 8928SOL     OW38419   3.881   3.225   5.261 -0.0768  0.0178 -0.4071
 8928SOL    HW138420   3.961   3.277   5.261  0.0033 -0.1016  0.8742
 8928SOL    HW238421   3.866   3.229   5.166 -1.8510 -1.8218 -0.2109
 8929SOL     OW38422   2.569   4.358   4.342  0.0484 -0.8829 -0.5446
 8929SOL    HW138423   2.656   4.331   4.313 -0.3319 -2.3725 -0.2961
 8929SOL    HW238424   2.502   4.316   4.287  1.1735 -2.4913 -0.6690
 8930SOL     OW38425   2.231   0.064   1.561  0.3079 -0.0269  0.4529
 8930SOL    HW138426   2.186   4.721   1.593 -1.4310  0.4931 -0.7099
 8930SOL    HW238427   2.311   0.021   1.530  0.2429  1.2127 -1.4104
 8931SOL     OW38428   1.082   0.582   4.036 -0.8164 -0.3582 -0.8507
 8931SOL    HW138429   0.990   0.605   4.050 -0.8079 -0.6753 -0.2804
 8931SOL    HW238430   1.090   0.498   4.081  2.0368 -1.2109 -3.0015
 8932SOL     OW38431   0.058   1.550   6.750  0.0242 -0.0009 -0.2125
 8932SOL    HW138432   0.148   1.537   6.780 -0.0432  0.8888  0.3900
 8932SOL    HW238433   0.035   1.460   6.726  1.7388 -0.5192  0.0895
 8933SOL     OW38434   4.384   3.319  14.277 -0.3996 -0.2107 -0.3266
 8933SOL    HW138435   4.477   3.328  14.255 -0.5342  1.5849 -0.1597
 8933SOL    HW238436   4.384   3.230  14.314 -1.4566 -0.1423 -0.1617
 8934SOL     OW38437   4.246   1.899   9.185 -0.6391 -0.5445 -0.0638
 8934SOL    HW138438   4.172   1.860   9.231  0.9828 -1.1133  2.0501
 8934SOL    HW238439   4.205   1.983   9.164  0.5463 -0.1539 -0.8523
 8935SOL     OW38440   2.654   2.228   4.881 -0.7256 -0.5215 -0.4801
 8935SOL    HW138441   2.746   2.203   4.882 -0.5441  0.1932 -0.1887
 8935SOL    HW238442   2.609   2.147   4.905  1.5903 -2.0806 -1.4022
 8936SOL     OW38443   1.302   0.552   0.688 -0.9628 -0.8434 -0.1199
 8936SOL    HW138444   1.277   0.613   0.758 -3.5945  0.2637 -2.0592
 8936SOL    HW238445   1.219   0.535   0.643 -0.3929 -0.2091 -1.4118
 8937SOL     OW38446   3.919   1.663  13.226  0.0180 -0.0504 -0.5111
 8937SOL    HW138447   3.994   1.722  13.234  0.1007  0.1104 -2.6520
 8937SOL    HW238448   3.936   1.616  13.145  3.1131  1.6930 -0.8879
 8938SOL     OW38449   0.469   1.347   5.806  0.5382 -0.5374 -0.5437
 8938SOL    HW138450   0.460   1.439   5.783 -0.0591 -0.0430  1.6390
 8938SOL    HW238451   0.551   1.346   5.856  1.1554  0.8939 -1.5411
 8939SOL     OW38452   0.219   2.130   8.123  0.9227  0.1870 -0.8410
 8939SOL    HW138453   0.151   2.153   8.059 -1.4831 -0.5401  1.4200
 8939SOL    HW238454   0.289   2.081   8.080  1.1901  0.3345 -0.5705
 8940SOL     OW38455   4.146   1.138  16.830  0.5804  0.1548 -0.7448
 8940SOL    HW138456   4.092   1.163  16.755 -1.7336 -0.5616  0.6729
 8940SOL    HW238457   4.199   1.214  16.853  2.1037 -0.2205 -2.9625
 8941SOL     OW38458   0.620   0.025  17.624  0.2644 -0.1116  0.4952
 8941SOL    HW138459   0.577   4.675  17.632  0.7660 -0.6088 -2.1138
 8941SOL    HW238460   0.584   0.050  17.538 -0.1803 -1.8938  0.1535
 8942SOL     OW38461   4.711   3.577   7.152 -0.0004 -0.8203 -0.0161
 8942SOL    HW138462   4.632   3.542   7.194 -0.9316 -0.8177 -1.7640
 8942SOL    HW238463   4.692   3.670   7.151  3.2652 -0.1629  0.6789
 8943SOL     OW38464   0.960   0.641   2.731  0.3677  0.5270  0.1181
 8943SOL    HW138465   0.872   0.654   2.695  0.1651 -0.5857  0.2098
 8943SOL    HW238466   0.971   0.546   2.739  1.8183  0.7124  0.2289
 8944SOL     OW38467   3.955   2.178   9.555  0.8046  0.3720  0.3822
 8944SOL    HW138468   4.051   2.178   9.545  0.8393  1.5504  0.7831
 8944SOL    HW238469   3.933   2.269   9.535 -2.4793 -0.7154 -0.9086
 8945SOL     OW38470   2.180   3.508   8.596 -0.0260  0.0824 -0.0922
 8945SOL    HW138471   2.197   3.585   8.542  0.0695 -0.5657 -0.9766
 8945SOL    HW238472   2.166   3.440   8.531 -1.9016 -0.2650  0.6675
 8946SOL     OW38473   3.702   2.344   6.734 -0.1671 -0.2948 -0.3910
 8946SOL    HW138474   3.658   2.406   6.676 -0.6384  2.0913  2.5357
 8946SOL    HW238475   3.792   2.376   6.725 -0.0967  0.0461  1.7213
 8947SOL     OW38476   0.726   3.162  10.946 -0.4905  1.2394 -1.1510
 8947SOL    HW138477   0.784   3.168  11.022  0.0074 -2.3767 -1.2237
 8947SOL    HW238478   0.694   3.252  10.949 -0.2528  1.3192 -1.0205
 8948SOL     OW38479   2.201   2.012   3.675 -0.0774 -0.1938 -0.1146
 8948SOL    HW138480   2.143   2.082   3.702 -1.7039 -2.6643  2.7384
 8948SOL    HW238481   2.200   2.029   3.581  1.6956  0.1622 -0.0749
 8949SOL     OW38482   0.851   3.665   0.609 -0.0823  0.3539 -0.2847
 8949SOL    HW138483   0.834   3.691   0.518 -2.5927 -0.4558 -0.0318
 8949SOL    HW238484   0.942   3.634   0.604 -0.0444  0.5462 -0.8309
 8950SOL     OW38485   4.044   0.540  10.521  0.5882 -0.2079  0.6680
 8950SOL    HW138486   4.105   0.469  10.542  0.1824 -0.3430  1.3870
 8950SOL    HW238487   4.093   0.615  10.555  0.8880  1.4429 -3.4515
 8951SOL     OW38488   3.233   4.690   2.861 -0.9155 -0.2834  0.1052
 8951SOL    HW138489   3.164   4.668   2.924 -0.8985  1.1366  0.6174
 8951SOL    HW238490   3.292   4.618   2.883 -1.3235 -1.0436 -1.2795
 8952SOL     OW38491   2.528   2.666   8.060 -0.5041 -0.5082  0.3622
 8952SOL    HW138492   2.443   2.626   8.079 -0.4980 -0.5288  0.3468
 8952SOL    HW238493   2.508   2.671   7.966  0.5084 -1.3185  0.1051
 8953SOL     OW38494   1.706   3.757   6.186  0.0476  0.1807  0.0373
 8953SOL    HW138495   1.715   3.670   6.148  1.3994  0.1480  0.4096
 8953SOL    HW238496   1.612   3.761   6.201 -0.4724 -0.3125 -3.1848
 8954SOL     OW38497   2.833   3.871  15.409 -0.2023 -0.8053  0.3136
 8954SOL    HW138498   2.800   3.893  15.496 -1.6004 -1.4964 -0.0323
 8954SOL    HW238499   2.806   3.949  15.360  2.1393  0.0386  0.3754
 8955SOL     OW38500   4.519   4.110   6.704  0.4464  0.7877  0.9476
 8955SOL    HW138501   4.581   4.172   6.666  2.2768 -1.5491  0.1305
 8955SOL    HW238502   4.546   4.125   6.794 -0.2927  2.3393  0.9079
 8956SOL     OW38503   4.219   1.115   2.032 -0.6356  0.7148 -0.0346
 8956SOL    HW138504   4.302   1.068   2.041  0.3234  2.5000  0.4336
 8956SOL    HW238505   4.208   1.146   2.122  0.2994  2.6261 -0.5737
 8957SOL     OW38506   1.324   3.247   2.866 -0.2261 -0.1660  0.3010
 8957SOL    HW138507   1.311   3.333   2.907 -0.5734 -1.1247  2.1644
 8957SOL    HW238508   1.247   3.200   2.897 -0.1580 -1.2808 -1.2035
 8958SOL     OW38509   0.148   2.989   4.656  0.1103 -0.0824 -0.0404
 8958SOL    HW138510   0.232   3.031   4.670 -0.0070 -0.7164  2.4980
 8958SOL    HW238511   0.155   2.965   4.564 -1.6925  1.1909 -0.5325
 8959SOL     OW38512   1.494   2.934  14.449  0.3674 -0.0931  0.2660
 8959SOL    HW138513   1.463   2.992  14.380  0.2634  0.8181  1.0816
 8959SOL    HW238514   1.425   2.934  14.516 -0.0506  1.2036 -0.1759
 8960SOL     OW38515   3.139   2.455  13.336  0.0101  0.0698  0.1260
 8960SOL    HW138516   3.113   2.416  13.420 -3.7157  1.2200 -0.5271
 8960SOL    HW238517   3.155   2.545  13.365 -0.9368  0.4128 -0.4291
 8961SOL     OW38518   4.567   1.285   7.911 -0.1266  1.0660  0.5513
 8961SOL    HW138519   4.586   1.295   7.818 -1.4290  0.6559  0.2308
 8961SOL    HW238520   4.637   1.334   7.954  0.6359  1.2038 -0.8404
 8962SOL     OW38521   2.091   0.685  12.025 -0.1003 -0.1472 -0.2565
 8962SOL    HW138522   2.063   0.752  11.963 -0.3843 -0.4839 -0.4907
 8962SOL    HW238523   2.078   0.743  12.100  0.5480 -0.0752 -0.2011
 8963SOL     OW38524   1.647   2.188   7.927 -0.7074  0.7746 -0.0505
 8963SOL    HW138525   1.732   2.151   7.952  0.2480  2.5039 -0.7647
 8963SOL    HW238526   1.599   2.109   7.900  1.6077 -1.0165  1.0576
 8964SOL     OW38527   2.220   0.333   1.653 -0.4813 -0.6132  0.1436
 8964SOL    HW138528   2.206   0.394   1.581 -0.2689 -0.4644  0.2275
 8964SOL    HW238529   2.243   0.251   1.608 -0.1585 -1.0523  1.1059
 8965SOL     OW38530   0.480   4.708   8.744  0.2404 -0.5867  0.1215
 8965SOL    HW138531   0.457   4.615   8.741 -1.7105 -0.1532  1.4742
 8965SOL    HW238532   0.573   4.703   8.767  0.9866  1.2068 -2.4616
 8966SOL     OW38533   3.748   2.574   4.384 -0.1092 -0.1320  0.4833
 8966SOL    HW138534   3.683   2.555   4.451  0.4025 -2.1787  0.3986
 8966SOL    HW238535   3.707   2.649   4.341  1.0546  0.8694  1.1240
 8967SOL     OW38536   3.982   4.578   7.413  0.1488  0.2324 -0.2347
 8967SOL    HW138537   3.943   4.553   7.497 -0.1881 -0.9955 -0.7652
 8967SOL    HW238538   3.904   4.562   7.359 -0.8392  0.6819  1.0518
 8968SOL     OW38539   0.324   3.079   1.821  0.0380 -0.1604  0.1670
 8968SOL    HW138540   0.287   3.046   1.739  2.1270  1.7943 -1.5354
 8968SOL    HW238541   0.399   3.130   1.791  0.7032 -1.6737 -0.7095
 8969SOL     OW38542   1.772   2.908   7.595 -0.0093 -0.5775 -0.4150
 8969SOL    HW138543   1.839   2.976   7.593 -0.7795  0.1573 -1.3147
 8969SOL    HW238544   1.726   2.945   7.519  0.6877 -0.7500 -0.9217
 8970SOL     OW38545   1.858   1.754   2.053  0.1130  0.1958 -0.2102
 8970SOL    HW138546   1.896   1.672   2.083 -0.0669 -0.1328 -0.8946
 8970SOL    HW238547   1.776   1.729   2.010 -0.8544  0.8603  1.2139
 8971SOL     OW38548   3.186   1.831   6.003 -0.5898  0.1453  0.3269
 8971SOL    HW138549   3.221   1.772   5.937  1.5730 -0.2179  1.7652
 8971SOL    HW238550   3.266   1.876   6.030 -1.2091  0.6496  1.3573
 8972SOL     OW38551   4.692   0.189   3.664  0.1105 -0.2113 -0.2624
 8972SOL    HW138552   4.691   0.284   3.655  2.8764 -0.0329  1.1551
 8972SOL    HW238553   4.598   0.172   3.658  0.1647 -0.3086 -0.8341
 8973SOL     OW38554   3.908   0.461   1.185  0.0346 -0.0981  0.5751
 8973SOL    HW138555   3.850   0.487   1.114  1.2996  1.8820  0.2826
 8973SOL    HW238556   3.843   0.427   1.247 -0.6064 -0.9928 -0.5811
 8974SOL     OW38557   3.651   3.277   4.480 -0.8563  0.0477  0.4950
 8974SOL    HW138558   3.680   3.200   4.529  0.0241  0.2011  0.2219
 8974SOL    HW238559   3.702   3.350   4.515  2.4029 -1.1070 -1.8301
 8975SOL     OW38560   0.756   2.762   8.334  0.3100  0.0412  0.1517
 8975SOL    HW138561   0.675   2.788   8.377 -0.2719  1.4580 -1.7608
 8975SOL    HW238562   0.732   2.679   8.292  0.8063  0.2900 -0.6319
 8976SOL     OW38563   3.298   2.713  16.014  0.6464  0.4113 -0.3135
 8976SOL    HW138564   3.215   2.720  15.967 -0.0352  3.0395  1.3188
 8976SOL    HW238565   3.291   2.644  16.080 -1.5041  1.3036  0.3883
 8977SOL     OW38566   0.752   3.155   4.667  0.0799 -0.4100 -0.7333
 8977SOL    HW138567   0.727   3.134   4.577  1.1786 -0.3629 -1.0578
 8977SOL    HW238568   0.777   3.070   4.702  0.0335  0.0527  0.4170
 8978SOL     OW38569   2.207   1.194   6.504  0.2635  0.3305 -0.0929
 8978SOL    HW138570   2.141   1.124   6.499  1.8116 -1.4036  3.3653
 8978SOL    HW238571   2.267   1.148   6.563  0.0828 -1.4750 -1.3125
 8979SOL     OW38572   0.274   3.037   6.081 -0.2130 -0.1498  0.0229
 8979SOL    HW138573   0.346   3.090   6.114 -0.2606  0.4398 -0.7929
 8979SOL    HW238574   0.302   2.950   6.110 -2.0452  0.0371  2.3510
 8980SOL     OW38575   2.116   0.844   9.956 -0.2659 -0.4783 -0.0612
 8980SOL    HW138576   2.206   0.854   9.923 -0.0820 -0.7460  0.3623
 8980SOL    HW238577   2.132   0.769  10.014  0.3686  1.0626  1.7726
 8981SOL     OW38578   2.691   0.433  15.608 -0.0664  0.0273 -0.1860
 8981SOL    HW138579   2.615   0.487  15.588  0.3216  0.1372 -1.3918
 8981SOL    HW238580   2.764   0.488  15.580 -0.3245 -0.3096 -1.4982
 8982SOL     OW38581   0.048   3.337   4.373  0.0057  0.0539  0.0097
 8982SOL    HW138582   0.122   3.314   4.316 -1.6617 -2.7151 -1.0466
 8982SOL    HW238583   0.085   3.422   4.394 -0.6203  0.6477 -1.2710
 8983SOL     OW38584   2.764   2.112   6.528 -0.3556 -0.4573  0.3245
 8983SOL    HW138585   2.810   2.053   6.468 -0.6796  0.8692 -1.2332
 8983SOL    HW238586   2.671   2.089   6.518 -1.0450  2.4780 -0.0266
 8984SOL     OW38587   2.618   2.794   2.890 -0.4748  0.3999 -0.2576
 8984SOL    HW138588   2.531   2.783   2.929 -0.3837  0.7875  0.0455
 8984SOL    HW238589   2.664   2.737   2.951 -0.6016  0.4970 -0.0725
 8985SOL     OW38590   0.330   2.338   1.624 -0.1818  0.3820 -0.4271
 8985SOL    HW138591   0.425   2.337   1.626 -0.1629  2.1927 -0.8204
 8985SOL    HW238592   0.310   2.294   1.706 -0.6999  1.9685  0.2940
 8986SOL     OW38593   1.684   2.574  17.562 -0.4545  0.2220 -0.4688
 8986SOL    HW138594   1.635   2.532  17.632  2.1657 -1.8301  0.1272
 8986SOL    HW238595   1.708   2.496  17.512  2.6941 -1.2232  3.3149
 8987SOL     OW38596   2.931   3.738   8.506 -0.3930 -0.0478  0.3060
 8987SOL    HW138597   2.878   3.807   8.546 -1.9117 -0.3782 -1.1279
 8987SOL    HW238598   2.898   3.652   8.529 -0.0546 -0.1800  0.3024
 8988SOL     OW38599   1.327   1.136   2.137 -0.2001 -0.3863  0.7490
 8988SOL    HW138600   1.380   1.062   2.106  2.6485  1.9997 -0.0392
 8988SOL    HW238601   1.384   1.163   2.208  0.8798 -1.4337  0.2772
 8989SOL     OW38602   1.303   1.637   2.626  0.0706 -0.4596 -0.0500
 8989SOL    HW138603   1.379   1.607   2.675 -0.3205 -0.6985  0.4193
 8989SOL    HW238604   1.272   1.554   2.588 -1.3962 -0.3935  1.0180
 8990SOL     OW38605   2.105   4.107   6.131 -0.6294  0.3644 -0.1767
 8990SOL    HW138606   2.065   4.185   6.091 -1.2501  0.1092 -0.0495
 8990SOL    HW238607   2.026   4.053   6.141  1.5177 -1.8814  4.2823
 8991SOL     OW38608   1.453   1.980  11.374  0.4061 -0.1892 -0.0294
 8991SOL    HW138609   1.455   2.035  11.452  0.6853 -0.0391 -0.1448
 8991SOL    HW238610   1.429   2.040  11.304 -2.6728 -0.3017  0.9134
 8992SOL     OW38611   3.627   1.828   7.176 -0.0421  0.6408 -0.7599
 8992SOL    HW138612   3.560   1.771   7.137 -1.5901  1.0812  1.2408
 8992SOL    HW238613   3.660   1.779   7.251 -0.1981  0.9542 -0.4845
 8993SOL     OW38614   3.973   1.136   1.920 -0.9830  0.5870 -0.0117
 8993SOL    HW138615   4.063   1.136   1.953 -1.0376 -1.3100  0.1746
 8993SOL    HW238616   3.923   1.082   1.981  1.0037  1.1269  2.0748
 8994SOL     OW38617   2.248   4.574   6.978  0.3120 -0.2075  0.2845
 8994SOL    HW138618   2.224   4.664   7.001 -1.9697 -0.2440 -1.9335
 8994SOL    HW238619   2.343   4.576   6.963  0.3022  1.0776  0.3461
 8995SOL     OW38620   4.704   2.111  12.902  0.1317 -0.4100 -0.3683
 8995SOL    HW138621   4.730   2.028  12.862  1.6832  1.1979 -2.6863
 8995SOL    HW238622   0.044   2.144  12.951 -0.0893  0.8179 -0.8720
 8996SOL     OW38623   4.308   2.834   6.294  0.1375  0.1176 -0.3475
 8996SOL    HW138624   4.329   2.910   6.240  0.2111  1.1384  1.1038
 8996SOL    HW238625   4.324   2.762   6.233  1.1370 -0.6878  0.8665
 8997SOL     OW38626   1.192   0.332   8.765  0.0436 -0.0612  0.3727
 8997SOL    HW138627   1.278   0.317   8.724  0.5087 -0.3364  1.4600
 8997SOL    HW238628   1.155   0.246   8.744 -0.9040  0.4467 -0.0508
 8998SOL     OW38629   2.022   4.713   5.742  0.1053  0.2374 -0.2961
 8998SOL    HW138630   1.978   4.629   5.728  2.0026 -0.7236 -0.4622
 8998SOL    HW238631   1.999   0.032   5.667 -1.7561 -1.5189 -1.0127
 8999SOL     OW38632   3.256   3.275  15.017  0.4148  1.1233  0.4300
 8999SOL    HW138633   3.168   3.276  15.055 -0.7622 -0.4454 -2.2721
 8999SOL    HW238634   3.256   3.203  14.954  0.6462  0.4085  1.2468
 9000SOL     OW38635   0.415   2.354   5.382  0.5013  0.4317  0.3250
 9000SOL    HW138636   0.467   2.275   5.369 -2.5297 -1.0744 -2.6640
 9000SOL    HW238637   0.477   2.410   5.429 -1.4012  1.8613  1.1140
 9001SOL     OW38638   3.599   2.546   3.667 -0.1490  0.3786 -0.7191
 9001SOL    HW138639   3.520   2.512   3.624 -0.8530  1.4123 -0.2453
 9001SOL    HW238640   3.653   2.545   3.588  0.7542  1.9954 -0.1229
 9002SOL     OW38641   0.753   2.789  17.030 -0.4598 -0.3343  0.3994
 9002SOL    HW138642   0.691   2.810  17.099  0.0368  1.0959  0.3950
 9002SOL    HW238643   0.835   2.768  17.074  0.8060  0.1067 -1.7424
 9003SOL     OW38644   3.770   1.460   2.609  0.2586  0.5606 -0.1638
 9003SOL    HW138645   3.747   1.436   2.698  1.5679  1.6525  0.4590
 9003SOL    HW238646   3.689   1.442   2.560  0.9423  0.2911 -1.1974
 9004SOL     OW38647   4.021   4.306   2.005  0.6166 -0.1147  0.4145
 9004SOL    HW138648   4.059   4.222   1.979 -1.0714 -0.5701 -0.6248
 9004SOL    HW238649   3.941   4.288   2.054 -0.2012 -1.0718 -1.2623
 9005SOL     OW38650   1.970   3.089   7.554  0.5255  0.2220  0.1041
 9005SOL    HW138651   2.060   3.061   7.567  0.2375  0.6935  3.2198
 9005SOL    HW238652   1.972   3.178   7.587  0.4722 -0.5257  2.1316
 9006SOL     OW38653   0.697   3.386   4.374 -0.0621 -0.2794  0.1319
 9006SOL    HW138654   0.726   3.474   4.348  0.1600  0.1295  1.7313
 9006SOL    HW238655   0.610   3.406   4.409  0.3339  0.0252  0.9476
 9007SOL     OW38656   0.400   1.080   7.012  0.5245  0.0141  0.9587
 9007SOL    HW138657   0.368   1.164   7.044 -1.1455  0.1521 -1.0235
 9007SOL    HW238658   0.367   1.012   7.071  1.0281 -0.3210  0.8472
 9008SOL     OW38659   0.145   2.974   8.978  0.1295 -0.1635  0.3450
 9008SOL    HW138660   0.086   3.044   9.005  0.9917  0.4629  0.5818
 9008SOL    HW238661   0.187   3.016   8.903  1.1598  1.0478  1.6323
 9009SOL     OW38662   1.765   3.815   1.398 -0.4912  0.7446  0.2773
 9009SOL    HW138663   1.797   3.846   1.482  2.4829 -2.7883  0.4860
 9009SOL    HW238664   1.673   3.794   1.411 -0.0444 -1.0848  0.6086
 9010SOL     OW38665   0.097   3.108  15.211 -0.2434 -0.0693  0.0971
 9010SOL    HW138666   0.146   3.026  15.202  2.2992  1.6918 -1.7817
 9010SOL    HW238667   0.045   3.108  15.130  1.5827  1.3455 -1.0604
 9011SOL     OW38668   2.069   0.973   6.481 -0.1324  0.3114  0.1542
 9011SOL    HW138669   2.141   0.945   6.425 -1.0436  0.0271 -0.8684
 9011SOL    HW238670   2.061   0.893   6.533  0.0478  1.6129  2.2165
 9012SOL     OW38671   3.791   2.108   1.794 -0.7539  0.1362 -0.2279
 9012SOL    HW138672   3.792   2.056   1.713  1.7251 -1.2020  0.6568
 9012SOL    HW238673   3.763   2.039   1.853 -0.5307 -0.5236 -0.8931
 9013SOL     OW38674   2.441   1.960  10.941  0.7060  0.2179 -0.4995
 9013SOL    HW138675   2.515   1.966  11.001 -0.0457  0.8917  0.3615
 9013SOL    HW238676   2.439   2.046  10.899 -2.4553 -0.0895 -0.9648
 9014SOL     OW38677   2.981   4.510   4.477  0.0509  0.5822 -0.4590
 9014SOL    HW138678   3.000   4.538   4.566  0.1414  0.1143 -0.3331
 9014SOL    HW238679   2.968   4.418   4.498  0.9229  0.1717 -1.7147
 9015SOL     OW38680   4.365   3.043   6.152 -0.6489 -0.2615  0.8717
 9015SOL    HW138681   4.336   3.107   6.217  1.7805  1.6706  0.0842
 9015SOL    HW238682   4.336   3.075   6.066 -1.0367 -1.3530  0.5957
 9016SOL     OW38683   2.298   3.236  16.651  0.0522 -0.6747 -0.1804
 9016SOL    HW138684   2.337   3.296  16.715  0.4397 -1.2260  0.0992
 9016SOL    HW238685   2.271   3.295  16.580 -2.9702 -0.6152  1.0355
 9017SOL     OW38686   4.411   2.979   8.907 -0.0366 -0.1696  0.7763
 9017SOL    HW138687   4.330   2.997   8.859 -0.1232 -2.1692  0.1428
 9017SOL    HW238688   4.462   3.055   8.880  1.4270 -0.8696  1.5582
 9018SOL     OW38689   1.120   2.285   2.656  0.3466  0.2158  0.1526
 9018SOL    HW138690   1.080   2.200   2.636 -2.4135  1.1852  1.4914
 9018SOL    HW238691   1.052   2.347   2.630 -0.1175 -1.4735 -2.6950
 9019SOL     OW38692   3.997   1.375  13.476  0.4310  0.2603  0.0147
 9019SOL    HW138693   3.967   1.301  13.424 -1.5207  0.7186  0.5118
 9019SOL    HW238694   3.920   1.432  13.470 -0.4542 -0.9499 -0.0603
 9020SOL     OW38695   4.284   3.382   2.763 -0.2490  0.1809 -0.6037
 9020SOL    HW138696   4.286   3.358   2.671 -0.9336 -2.2418  0.0197
 9020SOL    HW238697   4.191   3.402   2.770 -0.2712 -0.0744 -0.1539
 9021SOL     OW38698   0.275   1.139  17.095  0.0110 -0.2267 -0.0983
 9021SOL    HW138699   0.262   1.045  17.110 -1.1878 -0.2716 -1.3742
 9021SOL    HW238700   0.183   1.166  17.098  0.3598  1.1061 -1.6745
 9022SOL     OW38701   4.462   1.277  12.353  0.0524  0.2266  0.2162
 9022SOL    HW138702   4.388   1.279  12.291 -0.6179  0.4299  1.0192
 9022SOL    HW238703   4.413   1.241  12.427  1.5444 -0.5822  0.7884
 9023SOL     OW38704   0.214   0.400  16.873  0.3230 -0.2523  0.0268
 9023SOL    HW138705   0.296   0.449  16.877  0.2373 -0.0586 -0.5346
 9023SOL    HW238706   0.171   0.448  16.943 -0.8956 -1.6975  0.2650
 9024SOL     OW38707   0.811   1.492  14.930  0.1489 -0.2098  0.6719
 9024SOL    HW138708   0.861   1.566  14.896 -1.5563  0.1814 -0.9727
 9024SOL    HW238709   0.748   1.462  14.864  2.2588 -2.1728 -0.4743
 9025SOL     OW38710   1.589   1.048   7.566 -0.0298  0.2808  0.5069
 9025SOL    HW138711   1.510   1.034   7.514  0.4191 -1.3474  0.2457
 9025SOL    HW238712   1.658   1.066   7.502  0.1194  0.0337  0.5963
 9026SOL     OW38713   2.970   4.372  12.249 -0.7831 -0.6290  0.3410
 9026SOL    HW138714   3.014   4.289  12.265  2.5266  0.8770 -0.9557
 9026SOL    HW238715   2.957   4.402  12.340  1.0965 -0.2861  0.4986
 9027SOL     OW38716   3.401   2.377   4.913 -0.2374  0.0712  0.0354
 9027SOL    HW138717   3.376   2.285   4.922  0.4133  0.0986  1.9631
 9027SOL    HW238718   3.362   2.423   4.987  2.6205 -0.6415  1.9677
 9028SOL     OW38719   1.579   0.860   6.527  0.0897 -0.3525 -0.2387
 9028SOL    HW138720   1.617   0.896   6.446 -0.8327  1.9531  0.3483
 9028SOL    HW238721   1.621   0.922   6.587  2.2878 -0.2497 -1.8583
 9029SOL     OW38722   1.442   2.545  13.017  0.5831  0.2229  0.1931
 9029SOL    HW138723   1.404   2.632  13.004  0.4503 -0.0762 -1.3793
 9029SOL    HW238724   1.375   2.513  13.077  1.6476 -1.2814  0.5941
 9030SOL     OW38725   0.396   0.264  13.010  0.3914  0.1120 -1.0732
 9030SOL    HW138726   0.461   0.203  13.045  1.1491 -0.1583 -2.9408
 9030SOL    HW238727   0.325   0.204  12.990  0.7146 -1.0447  1.2378
 9031SOL     OW38728   4.095   2.878  13.461 -0.1834 -0.0619  0.1213
 9031SOL    HW138729   4.091   2.971  13.483  0.5058 -0.3315  1.3633
 9031SOL    HW238730   4.007   2.872  13.423  0.1040 -0.0889 -0.5490
 9032SOL     OW38731   1.578   1.851   7.328  0.2047  0.2330 -0.2993
 9032SOL    HW138732   1.513   1.781   7.321  3.1620 -2.6058  0.5012
 9032SOL    HW238733   1.547   1.907   7.399 -1.2212 -2.8125  1.4831
 9033SOL     OW38734   3.298   0.378   4.515  0.2395  0.0306  0.0958
 9033SOL    HW138735   3.264   0.351   4.429 -0.7359  1.0120  0.1788
 9033SOL    HW238736   3.369   0.313   4.521 -0.0995 -0.1246  2.4313
 9034SOL     OW38737   1.815   0.850   3.040 -0.1704 -0.2769  0.5580
 9034SOL    HW138738   1.796   0.797   3.117 -2.3209 -0.7351 -0.2891
 9034SOL    HW238739   1.803   0.939   3.074  3.0939  0.5382 -0.4444
 9035SOL     OW38740   1.230   1.545   8.587  0.4376  0.5940  0.4919
 9035SOL    HW138741   1.314   1.520   8.548  1.5130  3.1145  1.1924
 9035SOL    HW238742   1.182   1.594   8.520  0.2430 -1.7678 -1.1187
 9036SOL     OW38743   0.359   2.628   3.676  0.0392  0.1160 -0.2935
 9036SOL    HW138744   0.349   2.559   3.740  1.8110  0.3545  0.2602
 9036SOL    HW238745   0.454   2.642   3.672  0.2441 -1.2939 -0.2549
 9037SOL     OW38746   0.336   2.117  13.622  0.7143  0.1664 -0.2474
 9037SOL    HW138747   0.384   2.099  13.703  0.3567 -2.5860 -0.6433
 9037SOL    HW238748   0.246   2.091  13.644  1.1305  0.3628  1.6353
 9038SOL     OW38749   3.566   3.671   2.084  0.1143 -0.3327  0.5381
 9038SOL    HW138750   3.495   3.607   2.077  0.0801 -0.3749  1.3765
 9038SOL    HW238751   3.524   3.754   2.109  2.8387  1.4766 -0.8218
 9039SOL     OW38752   4.592   2.899   4.330 -0.0831  0.6244 -0.0694
 9039SOL    HW138753   4.559   2.811   4.347 -0.9839  0.0686 -4.6368
 9039SOL    HW238754   4.606   2.912   4.236 -1.2544  2.8576  0.0617
 9040SOL     OW38755   4.012   1.251   5.809  0.0895  0.0599 -0.3646
 9040SOL    HW138756   3.988   1.343   5.797  0.0323  0.1781  0.6069
 9040SOL    HW238757   4.089   1.255   5.866  1.0141 -0.3904 -1.6051
 9041SOL     OW38758   3.744   0.539   3.571  0.3299  0.7136 -0.2968
 9041SOL    HW138759   3.828   0.584   3.575  0.3026  0.7159  0.2379
 9041SOL    HW238760   3.706   0.588   3.497  0.8468 -0.1886 -1.1616
 9042SOL     OW38761   0.019   0.649  10.138  0.2527 -0.0549 -0.0804
 9042SOL    HW138762   4.661   0.666  10.145  0.0732 -0.7008 -0.9397
 9042SOL    HW238763   0.012   0.562  10.100 -0.9657 -0.9166  2.1123
 9043SOL     OW38764   2.038   0.321  11.344  0.0265  0.2355  0.0072
 9043SOL    HW138765   2.113   0.261  11.336 -0.4512  0.0962 -3.5885
 9043SOL    HW238766   1.965   0.265  11.370 -0.8934  1.0428 -0.8889
 9044SOL     OW38767   3.004   3.724  12.240 -0.0334  0.4732 -0.3580
 9044SOL    HW138768   2.992   3.805  12.191  0.5330  1.3250  0.8960
 9044SOL    HW238769   2.918   3.700  12.276  1.6038  0.0375  3.2737
 9045SOL     OW38770   0.747   3.491  11.910  0.5534 -0.1589  0.1264
 9045SOL    HW138771   0.729   3.397  11.914  0.9930 -0.3420 -1.9519
 9045SOL    HW238772   0.729   3.517  12.000 -3.1395  1.2458 -1.0298
 9046SOL     OW38773   3.470   2.693   7.277 -0.0662 -0.2108  0.5530
 9046SOL    HW138774   3.506   2.743   7.350  0.7523  0.3714 -0.2574
 9046SOL    HW238775   3.534   2.710   7.209  1.2586 -0.4685  1.7428
 9047SOL     OW38776   3.741   1.157   5.863  0.4011 -0.1759  0.9198
 9047SOL    HW138777   3.751   1.127   5.953  0.3627 -1.9971  0.3066
 9047SOL    HW238778   3.831   1.186   5.847  0.8116 -1.5294  0.7978
 9048SOL     OW38779   1.361   0.291   7.564 -0.3616 -0.1941 -0.6498
 9048SOL    HW138780   1.287   0.231   7.575 -0.2436 -0.1157  0.6162
 9048SOL    HW238781   1.375   0.280   7.470  0.2285  0.4712 -0.6444
 9049SOL     OW38782   2.796   2.253   3.476 -0.3101  0.3978 -0.0327
 9049SOL    HW138783   2.838   2.189   3.534  0.2088  0.9757  0.2146
 9049SOL    HW238784   2.844   2.249   3.393 -1.0330  0.0742 -0.4387
 9050SOL     OW38785   1.602   2.356  12.924  0.6275 -0.3879 -0.4817
 9050SOL    HW138786   1.557   2.424  12.974 -0.1145  1.0010 -3.0225
 9050SOL    HW238787   1.620   2.404  12.843  1.2440 -1.7509 -1.1558
 9051SOL     OW38788   2.135   4.540   9.315  0.3229 -0.4880 -0.0494
 9051SOL    HW138789   2.183   4.464   9.282  2.0780 -0.2530  1.9393
 9051SOL    HW238790   2.046   4.505   9.303  1.0069 -2.5272  0.8248
 9052SOL     OW38791   2.949   1.938  10.155 -0.0545 -0.4875 -0.5285
 9052SOL    HW138792   2.990   2.023  10.170  2.0449 -1.3733 -1.2111
 9052SOL    HW238793   2.946   1.898  10.242 -0.8175 -0.8063 -0.7009
 9053SOL     OW38794   2.742   3.440   6.413  0.2767  0.4626  0.1141
 9053SOL    HW138795   2.745   3.409   6.504  2.5203  1.1637  0.2872
 9053SOL    HW238796   2.648   3.436   6.396 -0.0619  2.2345  1.5251
 9054SOL     OW38797   2.993   1.485   7.834 -0.5523  0.2700  0.6217
 9054SOL    HW138798   3.049   1.528   7.898 -0.3533 -1.5681  1.6852
 9054SOL    HW238799   3.007   1.536   7.754 -0.0975  0.6343  0.9361
 9055SOL     OW38800   4.004   3.714   5.295  0.6788  0.4230  0.2797
 9055SOL    HW138801   4.014   3.768   5.373  2.7417  1.0292 -0.3855
 9055SOL    HW238802   4.027   3.776   5.226  0.0940  1.3094  0.8849
 9056SOL     OW38803   1.632   1.673   5.872  0.0604 -0.2934  0.1102
 9056SOL    HW138804   1.664   1.603   5.928  1.9780  0.7905  0.3678
 9056SOL    HW238805   1.682   1.745   5.911  0.9929 -0.2729 -1.1367
 9057SOL     OW38806   0.467   0.561   9.223  0.2113  0.0824  0.0032
 9057SOL    HW138807   0.486   0.655   9.222  0.9398 -0.0587  0.6803
 9057SOL    HW238808   0.553   0.532   9.194 -0.8156 -1.2938 -1.6756
 9058SOL     OW38809   4.074   4.503   6.339  0.8447 -0.3982 -0.6372
 9058SOL    HW138810   3.988   4.543   6.326  0.3409 -2.6593 -4.1467
 9058SOL    HW238811   4.138   4.574   6.327 -0.7628  0.8856 -1.5199
 9059SOL     OW38812   3.103   3.230   3.161 -0.2383  0.1201 -0.1582
 9059SOL    HW138813   3.120   3.136   3.156 -1.1547 -0.2325  3.3497
 9059SOL    HW238814   3.105   3.255   3.068  1.1372  0.9023  0.0754
 9060SOL     OW38815   2.186   0.998   7.669  0.1483  0.1066 -0.0444
 9060SOL    HW138816   2.129   0.961   7.737 -0.3075  1.9870  0.5737
 9060SOL    HW238817   2.196   0.920   7.613 -2.6098  0.5513 -1.1579
 9061SOL     OW38818   0.772   2.290   2.656  0.4954 -0.0159 -0.4236
 9061SOL    HW138819   0.827   2.219   2.621  1.1903  1.8302 -3.1059
 9061SOL    HW238820   0.690   2.247   2.681  1.0647 -0.5464  0.5299
 9062SOL     OW38821   0.678   4.647  10.111 -0.3889  0.1711  0.2719
 9062SOL    HW138822   0.633   4.723  10.148  0.0682 -0.0738  1.3244
 9062SOL    HW238823   0.635   4.565  10.137 -0.9572 -0.5194 -2.8376
 9063SOL     OW38824   4.341   2.273  14.329  0.0617  0.0946 -0.3876
 9063SOL    HW138825   4.278   2.341  14.304 -0.8555 -1.6254 -2.8145
 9063SOL    HW238826   4.316   2.256  14.419 -2.1664 -2.1239 -1.4104
 9064SOL     OW38827   4.063   4.605   8.729  0.0519 -0.5259 -0.1662
 9064SOL    HW138828   4.000   4.576   8.662  0.9876  0.3383 -1.4274
 9064SOL    HW238829   4.138   4.569   8.682 -0.1164  0.5821 -1.3096
 9065SOL     OW38830   2.114   4.410   4.599 -0.6232 -0.0602 -0.2188
 9065SOL    HW138831   2.119   4.402   4.504 -0.6578 -0.8664 -0.1562
 9065SOL    HW238832   2.187   4.470   4.614  1.6281 -2.5184 -1.1775
 9066SOL     OW38833   0.420   3.170   3.446  0.0543 -0.1119 -0.0317
 9066SOL    HW138834   0.473   3.090   3.439  0.2917  0.1302 -1.0700
 9066SOL    HW238835   0.480   3.244   3.460  0.9412 -1.0266  0.9547
 9067SOL     OW38836   3.257   3.414   8.392 -0.1858  0.3026 -0.1596
 9067SOL    HW138837   3.302   3.383   8.313 -2.0443  1.1701 -1.5717
 9067SOL    HW238838   3.254   3.330   8.438 -2.1165  0.7757  0.5917
 9068SOL     OW38839   0.666   1.007   3.300 -0.4933  0.0311 -0.1651
 9068SOL    HW138840   0.730   1.023   3.369 -1.5974 -3.2483  1.6147
 9068SOL    HW238841   0.702   1.063   3.231  0.3994 -0.2005  0.1088
 9069SOL     OW38842   0.435   3.898   6.081  0.0170 -0.1774  0.5423
 9069SOL    HW138843   0.503   3.857   6.135 -0.9149 -0.8140  1.2293
 9069SOL    HW238844   0.477   3.914   5.997 -2.4061 -0.6171 -0.7632
 9070SOL     OW38845   4.307   3.018   8.302  0.2910 -0.8026 -0.2474
 9070SOL    HW138846   4.317   3.113   8.305 -3.1256 -0.4748  0.5076
 9070SOL    HW238847   4.398   2.997   8.283  0.8601  1.5286 -0.0692
 9071SOL     OW38848   1.317   3.784  12.314 -0.1307  0.1709 -0.2614
 9071SOL    HW138849   1.393   3.817  12.362 -1.2137  1.6323  0.4440
 9071SOL    HW238850   1.317   3.706  12.369  0.0567  1.5044  1.6297
 9072SOL     OW38851   1.878   0.925   9.064 -0.2339 -0.3664  0.1236
 9072SOL    HW138852   1.817   0.998   9.072  0.9369  0.5423  0.7776
 9072SOL    HW238853   1.804   0.867   9.047 -0.8935  1.3134 -2.8488
 9073SOL     OW38854   0.953   2.964   1.356 -0.2847  0.0925  0.2023
 9073SOL    HW138855   1.039   2.934   1.385  0.0226  1.8510  1.1127
 9073SOL    HW238856   0.966   3.012   1.274  0.0602 -0.5855 -0.1298
 9074SOL     OW38857   4.506   1.444   3.171 -0.4140 -0.3819  0.0027
 9074SOL    HW138858   4.416   1.428   3.141 -0.0218 -0.6152 -1.0164
 9074SOL    HW238859   4.547   1.491   3.099 -1.0386  1.6750  0.9832
 9075SOL     OW38860   3.348   0.357   2.955 -0.1474 -0.0172  0.0757
 9075SOL    HW138861   3.260   0.342   2.921 -0.9528 -0.0537  2.1723
 9075SOL    HW238862   3.364   0.448   2.928  0.1719 -0.7542 -2.2467
 9076SOL     OW38863   0.037   2.901   4.898  0.3915  0.1155  0.1951
 9076SOL    HW138864   4.691   2.863   4.866  1.1432 -1.3858  0.0630
 9076SOL    HW238865   0.076   2.940   4.819  0.7844  0.2547  0.4567
 9077SOL     OW38866   0.884   3.210   6.484 -0.2409  0.1749 -0.5453
 9077SOL    HW138867   0.818   3.155   6.441  0.7084 -0.3759 -1.2985
 9077SOL    HW238868   0.832   3.284   6.515 -0.4368 -0.8210  1.4840
 9078SOL     OW38869   1.921   3.756   8.609  0.1121 -0.3979 -0.0957
 9078SOL    HW138870   1.976   3.807   8.669 -0.8351  0.4930  0.0150
 9078SOL    HW238871   1.836   3.781   8.644  0.8162  2.5032 -0.4283
 9079SOL     OW38872   4.670   2.839  13.877  0.0799 -0.4224 -0.1693
 9079SOL    HW138873   0.011   2.830  13.933  0.3838  0.9243 -0.3611
 9079SOL    HW238874   4.603   2.877  13.934  0.3446  1.2740 -0.9806
 9080SOL     OW38875   1.709   1.995   3.573  0.3023 -0.0180  0.5393
 9080SOL    HW138876   1.765   2.001   3.650  0.6848  1.2895  0.1583
 9080SOL    HW238877   1.752   2.071   3.533  0.5762  0.8447  2.4469
 9081SOL     OW38878   4.468   2.301   0.069  0.5453  0.2068  0.1873
 9081SOL    HW138879   4.487   2.263  17.726  0.8989 -0.4516  0.5594
 9081SOL    HW238880   4.385   2.259   0.090  0.1814  0.0378 -1.5246
 9082SOL     OW38881   0.933   0.712   0.764 -0.3048 -0.3315  0.0300
 9082SOL    HW138882   0.845   0.735   0.795 -0.0957  1.6255 -0.8362
 9082SOL    HW238883   0.938   0.750   0.677 -0.6816  0.3982  0.3280
 9083SOL     OW38884   1.406   2.007   7.504  0.1455  0.1270  0.2261
 9083SOL    HW138885   1.453   1.943   7.556  1.4506  0.5434 -0.4382
 9083SOL    HW238886   1.426   2.092   7.542 -0.6113 -0.3919  1.7774
 9084SOL     OW38887   1.085   0.487   9.291 -0.0686 -0.6719 -0.3405
 9084SOL    HW138888   1.050   0.563   9.338 -0.5665  0.0445 -1.8639
 9084SOL    HW238889   1.013   0.424   9.284 -0.2153 -0.5071 -0.3055
 9085SOL     OW38890   0.254   4.003   5.607 -0.0177 -0.2591  0.3919
 9085SOL    HW138891   0.226   3.921   5.648  0.6289 -0.0062  1.3403
 9085SOL    HW238892   0.330   4.026   5.660 -0.4251  0.1427  0.8058
 9086SOL     OW38893   2.738   4.026   3.850 -0.0797 -0.1699 -0.1539
 9086SOL    HW138894   2.752   3.931   3.841  3.0056  0.4936 -2.1224
 9086SOL    HW238895   2.707   4.027   3.941 -1.2207  0.5323 -0.5626
 9087SOL     OW38896   1.954   2.882  15.922  0.1692  0.6765  0.1658
 9087SOL    HW138897   1.867   2.873  15.960  1.7414  0.9386  3.8349
 9087SOL    HW238898   2.000   2.819  15.977  0.5403  0.8946  0.1051
 9088SOL     OW38899   3.064   4.269   5.260 -0.3629 -0.5587 -0.1486
 9088SOL    HW138900   3.095   4.305   5.177 -0.6848  1.6154  0.6553
 9088SOL    HW238901   3.057   4.347   5.315 -2.5703 -0.4061 -0.6289
 9089SOL     OW38902   3.451   2.540   5.718  0.4530 -0.1090 -0.6019
 9089SOL    HW138903   3.517   2.492   5.768  0.5093  1.5392  0.8875
 9089SOL    HW238904   3.505   2.587   5.654  1.7099 -0.1302  0.4390
 9090SOL     OW38905   3.273   4.260   4.019 -0.5643  0.0501  0.2851
 9090SOL    HW138906   3.275   4.309   3.937 -0.5011  1.7311  1.2841
 9090SOL    HW238907   3.232   4.176   3.997 -0.1149  0.4649 -2.1560
 9091SOL     OW38908   4.525   0.857   9.131  0.0054  0.1202 -0.1440
 9091SOL    HW138909   4.576   0.906   9.066  0.6075  1.0587  1.0482
 9091SOL    HW238910   4.485   0.929   9.179 -0.6442 -1.2576  1.3605
 9092SOL     OW38911   1.005   4.535   8.609  0.1530  0.2405  0.1491
 9092SOL    HW138912   1.027   4.462   8.667 -0.3050 -0.4060 -0.4869
 9092SOL    HW238913   1.085   4.538   8.557 -0.1155  3.0355 -0.0937
 9093SOL     OW38914   0.463   3.151   9.913  0.2903 -0.2634 -0.6320
 9093SOL    HW138915   0.522   3.215   9.953 -1.2777  0.4681  0.4820
 9093SOL    HW238916   0.501   3.069   9.945  3.0366  1.0833 -0.4144
 9094SOL     OW38917   1.073   0.489   2.141  0.1979  0.0571 -0.2769
 9094SOL    HW138918   1.168   0.488   2.148  0.0331 -1.4470  1.6151
 9094SOL    HW238919   1.066   0.560   2.076 -0.0164 -0.4310 -0.7876
 9095SOL     OW38920   0.547   3.735   2.422  0.3948 -0.1040 -0.3267
 9095SOL    HW138921   0.541   3.641   2.408  1.6325  0.0591 -2.0706
 9095SOL    HW238922   0.492   3.746   2.499 -1.5549  1.9011 -1.9803
 9096SOL     OW38923   1.764   3.158   5.942 -0.4433 -0.0583 -0.6262
 9096SOL    HW138924   1.756   3.093   5.873  0.4826 -0.5843 -0.2401
 9096SOL    HW238925   1.821   3.227   5.909  0.4580 -0.6442 -0.2955
 9097SOL     OW38926   0.947   3.042   5.110 -0.6083 -0.2881  0.5775
 9097SOL    HW138927   0.887   2.972   5.084 -0.0736  0.3224 -2.3206
 9097SOL    HW238928   0.882   3.112   5.113 -0.3223 -0.0466  1.2292
 9098SOL     OW38929   0.090   4.684  13.258  0.2200  0.3818 -0.5338
 9098SOL    HW138930   0.110   4.700  13.166  1.8433 -0.4066 -0.3214
 9098SOL    HW238931   0.089   4.589  13.257  1.0713  0.3600  1.2262
 9099SOL     OW38932   0.964   4.048   8.114 -0.4148  0.0163 -0.1013
 9099SOL    HW138933   1.053   4.024   8.142 -0.6697  0.7854  1.3523
 9099SOL    HW238934   0.907   3.989   8.164  0.6671 -1.1139 -0.1820
 9100SOL     OW38935   3.444   2.721   2.379 -0.1624  0.1217  0.4008
 9100SOL    HW138936   3.489   2.662   2.319  1.2321 -0.0516  1.6137
 9100SOL    HW238937   3.374   2.751   2.321  0.8053  0.7778 -0.4289
 9101SOL     OW38938   2.352   2.959   9.318  0.4121  0.3697  0.2570
 9101SOL    HW138939   2.337   2.994   9.230 -1.5301 -0.1556  0.3827
 9101SOL    HW238940   2.263   2.931   9.341  0.8143 -0.7436  0.4743
 9102SOL     OW38941   3.713   4.267   6.681 -0.2745 -0.0072  0.2289
 9102SOL    HW138942   3.659   4.333   6.724 -0.9617 -0.6042  0.2782
 9102SOL    HW238943   3.679   4.183   6.712 -1.0049 -0.2821 -1.3219
 9103SOL     OW38944   1.656   1.736   2.737  0.4923 -0.4721 -0.7974
 9103SOL    HW138945   1.707   1.799   2.686 -1.4873  0.5843 -1.4760
 9103SOL    HW238946   1.617   1.675   2.674 -0.4382 -1.1744  0.4669
 9104SOL     OW38947   4.697   3.184   4.597 -0.0516 -0.2423  0.3167
 9104SOL    HW138948   4.724   3.212   4.509 -2.3532  1.5434  0.1829
 9104SOL    HW238949   0.035   3.124   4.606 -1.3722 -2.2907 -2.2308
 9105SOL     OW38950   0.154   0.446   0.013 -0.0215  0.4169 -0.1325
 9105SOL    HW138951   0.244   0.412   0.015 -0.7300 -1.4025 -0.2598
 9105SOL    HW238952   0.146   0.463  17.661 -0.3827  0.4424 -0.0966
 9106SOL     OW38953   4.558   1.415   2.109  0.0439 -0.4079  0.0186
 9106SOL    HW138954   4.561   1.395   2.202  0.9941  0.0667  0.0971
 9106SOL    HW238955   4.535   1.329   2.073  4.1346 -1.9905  1.1785
 9107SOL     OW38956   4.687   1.900   3.041 -0.7491  0.1394 -0.2935
 9107SOL    HW138957   0.012   1.949   3.096 -1.7234  1.2329 -0.1819
 9107SOL    HW238958   4.605   1.899   3.091 -0.6865  0.8972 -0.1737
 9108SOL     OW38959   0.948   3.705   8.628  0.6204 -0.0095 -0.5206
 9108SOL    HW138960   0.953   3.617   8.589  0.0214 -0.2888  0.0364
 9108SOL    HW238961   1.042   3.725   8.632  0.0986  2.3766 -0.6425
 9109SOL     OW38962   3.416   3.369   2.148  0.7374 -0.5919  0.0073
 9109SOL    HW138963   3.417   3.377   2.053  0.0677  0.6764  0.0988
 9109SOL    HW238964   3.431   3.276   2.163 -0.7041 -1.0662 -1.4898
 9110SOL     OW38965   0.189   1.533   1.490 -0.8102  0.1021 -0.3596
 9110SOL    HW138966   0.175   1.454   1.542  0.5767  0.3944  0.4565
 9110SOL    HW238967   0.176   1.499   1.401 -1.2288 -1.3880  0.2690
 9111SOL     OW38968   0.257   0.541   9.764 -0.4167  0.6008  1.0299
 9111SOL    HW138969   0.300   0.535   9.850  0.9062 -2.2822  0.1603
 9111SOL    HW238970   0.330   0.517   9.708 -0.2240 -0.3985  1.7213
 9112SOL     OW38971   1.670   2.314   9.060  0.0903 -0.0291  0.5282
 9112SOL    HW138972   1.580   2.321   9.091 -0.6471  0.3141 -1.6569
 9112SOL    HW238973   1.656   2.351   8.973  0.6766 -1.1909 -0.0553
 9113SOL     OW38974   2.763   0.369  11.141 -0.8289  0.2016 -0.6407
 9113SOL    HW138975   2.798   0.361  11.053  1.2610  0.0817  0.2168
 9113SOL    HW238976   2.832   0.396  11.201 -0.4701  1.3648 -1.5771
 9114SOL     OW38977   0.293   3.048  15.802  0.2624 -0.3437 -0.5648
 9114SOL    HW138978   0.263   2.957  15.796 -0.4324 -0.2888  2.0368
 9114SOL    HW238979   0.248   3.073  15.883  1.1508 -1.1172  0.1788
 9115SOL     OW38980   2.264   1.424   3.006 -0.6001  0.2442  0.5797
 9115SOL    HW138981   2.263   1.328   3.006 -0.1264  0.2403  2.1648
 9115SOL    HW238982   2.174   1.436   3.034 -1.3482  0.0447 -1.8147
 9116SOL     OW38983   0.510   2.822   7.068  0.4983  0.1391  0.4328
 9116SOL    HW138984   0.524   2.910   7.032 -2.6215 -0.1862 -1.6243
 9116SOL    HW238985   0.435   2.842   7.124 -0.4316 -1.1690 -0.3743
 9117SOL     OW38986   0.394   1.138   3.264  0.0363 -0.3367  0.3472
 9117SOL    HW138987   0.426   1.071   3.324 -1.7151 -0.8297  0.7258
 9117SOL    HW238988   0.459   1.206   3.283  1.8167 -2.1154  0.6871
 9118SOL     OW38989   0.024   1.390  16.896 -0.3896 -0.0857 -0.0548
 9118SOL    HW138990   0.037   1.358  16.807 -0.0898 -0.7407  0.2264
 9118SOL    HW238991   4.667   1.368  16.904 -0.5888  0.0755 -2.0047
 9119SOL     OW38992   2.652   1.982   1.614  0.0479  0.9042  0.0158
 9119SOL    HW138993   2.578   2.042   1.628  0.7228  2.1533 -1.7708
 9119SOL    HW238994   2.635   1.921   1.685 -3.2219 -0.7331 -2.2011
 9120SOL     OW38995   4.496   0.588   8.525  0.1022  0.1871 -0.4931
 9120SOL    HW138996   4.451   0.631   8.598  1.2230  0.0149  0.2996
 9120SOL    HW238997   4.503   0.495   8.547  0.1172  0.3702  0.2673
 9121SOL     OW38998   3.538   2.723  15.708 -0.1136 -0.2604 -0.2249
 9121SOL    HW138999   3.588   2.796  15.671  1.5559 -1.0328  0.4983
 9121SOL    HW239000   3.527   2.667  15.632  1.8808 -1.2480  0.2113
 9122SOL     OW39001   2.773   2.135   6.010  0.0221 -0.3284  0.1085
 9122SOL    HW139002   2.710   2.117   6.080  1.6284  0.4450  1.7539
 9122SOL    HW239003   2.820   2.051   6.006 -0.7066 -0.7044 -0.6106
 9123SOL     OW39004   1.436   4.002   4.545  0.1286  0.3341  0.1504
 9123SOL    HW139005   1.469   4.087   4.572 -4.5840  2.1088  0.3079
 9123SOL    HW239006   1.498   3.951   4.597 -0.9824 -1.1108  0.0799
 9124SOL     OW39007   2.596   1.668   7.483 -0.1778 -0.0814 -0.5587
 9124SOL    HW139008   2.547   1.586   7.482  1.9887 -1.4092  1.7746
 9124SOL    HW239009   2.525   1.728   7.460 -1.1081 -0.7916  0.4856
 9125SOL     OW39010   4.618   3.650   5.817  0.5071  0.6130  0.1099
 9125SOL    HW139011   4.699   3.607   5.843  1.7213  1.4037 -2.3422
 9125SOL    HW239012   4.552   3.597   5.863  2.0931 -0.2060  1.4224
 9126SOL     OW39013   4.481   2.150   7.201 -0.1069 -0.3022  0.0762
 9126SOL    HW139014   4.541   2.154   7.126 -1.1045 -2.2569 -0.8166
 9126SOL    HW239015   4.401   2.120   7.156  1.4462 -0.2026 -2.7471
 9127SOL     OW39016   2.807   1.491   5.885 -0.1231 -0.6290  0.0119
 9127SOL    HW139017   2.722   1.449   5.894 -1.4548  1.9982 -0.4560
 9127SOL    HW239018   2.857   1.415   5.917  1.0591  0.1087 -0.0681
 9128SOL     OW39019   3.277   4.528  13.335  0.1880  0.7399 -0.1368
 9128SOL    HW139020   3.283   4.440  13.371 -0.7298  1.3003  1.4231
 9128SOL    HW239021   3.204   4.518  13.274  1.8545  1.5706 -2.2495
 9129SOL     OW39022   2.963   2.945   1.518  0.9180  0.3220  0.3730
 9129SOL    HW139023   2.909   3.023   1.532  1.5285  0.7472  0.3350
 9129SOL    HW239024   2.928   2.880   1.579 -0.8975  0.6435 -0.3135
 9130SOL     OW39025   4.235   0.922  16.693  0.0694  0.2758 -0.5316
 9130SOL    HW139026   4.207   1.000  16.741 -0.7983 -1.4996  1.8605
 9130SOL    HW239027   4.326   0.917  16.723 -0.3740 -2.1555  0.4288
 9131SOL     OW39028   2.165   0.314   3.784  0.1918 -0.0894  0.4431
 9131SOL    HW139029   2.155   0.408   3.799  0.6705 -0.2412  1.6813
 9131SOL    HW239030   2.193   0.311   3.693  0.1841 -0.3008  0.4475
 9132SOL     OW39031   3.965   2.940   5.336  0.1660  0.1555 -0.2996
 9132SOL    HW139032   3.928   2.993   5.266  0.3258  1.3534  0.5201
 9132SOL    HW239033   3.970   2.852   5.300  0.0599 -1.2138  3.0178
 9133SOL     OW39034   3.526   1.566   9.560  0.4219  0.0671  0.3078
 9133SOL    HW139035   3.469   1.489   9.559 -0.2575  0.5362  3.2915
 9133SOL    HW239036   3.605   1.529   9.599  2.5441  2.1286 -1.9967
 9134SOL     OW39037   4.142   1.424   7.254  0.5067  0.4248 -0.1776
 9134SOL    HW139038   4.148   1.449   7.347  2.5822  0.0555 -0.2075
 9134SOL    HW239039   4.062   1.371   7.257  0.6135  0.3150  0.8425
 9135SOL     OW39040   1.830   4.497   4.335 -0.2551 -0.0655  0.7500
 9135SOL    HW139041   1.741   4.532   4.328  0.2160  1.1335  0.7243
 9135SOL    HW239042   1.829   4.430   4.267  1.2480 -0.6217  1.2648
 9136SOL     OW39043   1.016   3.090   4.194  0.3417 -0.1254 -0.8282
 9136SOL    HW139044   0.925   3.101   4.222  0.1764  1.1825 -1.8966
 9136SOL    HW239045   1.055   3.120   4.277  1.8739 -4.8849  0.1798
 9137SOL     OW39046   3.200   4.382  12.668  0.4069 -0.1503 -0.4769
 9137SOL    HW139047   3.270   4.443  12.691 -0.7298  0.4231  1.4495
 9137SOL    HW239048   3.167   4.345  12.750 -2.1226  0.1116 -1.3683
 9138SOL     OW39049   1.055   3.108   3.782 -0.6172  0.6950  0.3115
 9138SOL    HW139050   1.051   3.199   3.753 -1.1481  0.6287  0.1877
 9138SOL    HW239051   1.104   3.131   3.861  0.1523 -1.8317  0.5717
 9139SOL     OW39052   0.665   3.726   7.874 -0.2925 -0.2622  0.6893
 9139SOL    HW139053   0.624   3.642   7.854 -0.6734  0.0896  0.0035
 9139SOL    HW239054   0.734   3.723   7.808 -2.5046 -1.1603 -1.5480
 9140SOL     OW39055   3.568   2.540   4.614  0.2321 -0.6426  0.4425
 9140SOL    HW139056   3.574   2.538   4.709 -0.0287  0.6918  0.4846
 9140SOL    HW239057   3.537   2.450   4.605  0.5566 -0.8312  1.1914
 9141SOL     OW39058   4.467   3.541   7.643  0.0480  0.2795 -0.2096
 9141SOL    HW139059   4.413   3.549   7.721 -0.0989  2.2412 -0.5024
 9141SOL    HW239060   4.526   3.469   7.665 -3.6230 -2.4087  0.6585
 9142SOL     OW39061   3.855   3.107   2.501  0.2493  0.4541  0.0437
 9142SOL    HW139062   3.877   3.131   2.591  1.3023 -0.8416  0.1263
 9142SOL    HW239063   3.913   3.034   2.479  1.3708  1.7008 -1.0784
 9143SOL     OW39064   4.024   3.841   5.532 -0.1135  0.6875  0.1066
 9143SOL    HW139065   4.056   3.912   5.588 -0.4064 -0.5608  1.8556
 9143SOL    HW239066   3.932   3.866   5.526 -0.4087 -0.4901 -0.2501
 9144SOL     OW39067   4.173   2.192  12.182 -0.1748  0.4349 -0.3658
 9144SOL    HW139068   4.236   2.127  12.152 -0.1948 -0.6775  1.9840
 9144SOL    HW239069   4.101   2.137  12.212  0.3013 -0.1859 -0.3720
 9145SOL     OW39070   1.939   1.644   6.492  0.2404 -0.1477  0.0707
 9145SOL    HW139071   2.022   1.597   6.501 -0.4141 -1.5522 -1.2424
 9145SOL    HW239072   1.902   1.626   6.578 -0.2589 -1.4216 -0.4133
 9146SOL     OW39073   4.474   2.423   4.116 -0.0088  0.5962 -0.2725
 9146SOL    HW139074   4.529   2.414   4.038 -2.5825 -2.5897 -1.7053
 9146SOL    HW239075   4.407   2.482   4.081  0.2892  0.5695 -0.8950
 9147SOL     OW39076   1.267   4.564   1.636 -0.3292  0.3146 -0.0955
 9147SOL    HW139077   1.212   4.636   1.607  2.5466  1.7072 -1.9986
 9147SOL    HW239078   1.220   4.484   1.610 -0.4580 -0.6411  3.0208
 9148SOL     OW39079   0.662   0.004   4.180  0.3729 -0.2188 -0.0420
 9148SOL    HW139080   0.631   4.688   4.106  0.8050 -3.1463  1.8726
 9148SOL    HW239081   0.586   0.043   4.223 -1.0458 -2.1952 -0.7570
 9149SOL     OW39082   2.964   4.122  16.737  0.3685  0.3966 -0.2134
 9149SOL    HW139083   3.021   4.056  16.778  0.9387  0.6810 -0.5582
 9149SOL    HW239084   2.896   4.073  16.692 -0.8792  3.3493 -1.4907
 9150SOL     OW39085   2.861   3.224   1.611 -0.1327  0.0333  0.6797
 9150SOL    HW139086   2.863   3.192   1.701 -2.4507 -0.3334  0.6049
 9150SOL    HW239087   2.891   3.314   1.624  2.7482 -0.9288  0.8249
 9151SOL     OW39088   3.748   3.356   9.787  0.2038  0.2116  0.1630
 9151SOL    HW139089   3.809   3.285   9.769  0.8318  0.7570  0.1527
 9151SOL    HW239090   3.687   3.310   9.845 -0.1140  0.4051 -0.0118
 9152SOL     OW39091   1.836   1.737  12.320  0.1981  0.5534  0.4784
 9152SOL    HW139092   1.928   1.716  12.306  0.5319  2.5274 -0.2689
 9152SOL    HW239093   1.798   1.650  12.309  0.8331  0.3724 -0.2511
 9153SOL     OW39094   2.503   0.847   9.213  0.8961 -0.0596 -0.2906
 9153SOL    HW139095   2.594   0.833   9.187  0.9353 -2.9520  1.3442
 9153SOL    HW239096   2.489   0.787   9.287  0.2354 -0.0748 -0.4272
 9154SOL     OW39097   3.759   4.146   3.572  0.0005 -0.9335 -0.4026
 9154SOL    HW139098   3.669   4.177   3.564  0.2397 -0.1350 -0.0618
 9154SOL    HW239099   3.786   4.171   3.660  0.0986 -0.1528 -0.6501
 9155SOL     OW39100   3.417   0.799   2.033  0.1076 -0.0772  0.1556
 9155SOL    HW139101   3.404   0.707   2.014 -3.0596  0.1769  1.0923
 9155SOL    HW239102   3.338   0.820   2.083 -0.4860 -2.1739  0.0844
 9156SOL     OW39103   3.799   4.169  14.174 -0.2560 -0.3907  0.3247
 9156SOL    HW139104   3.725   4.108  14.175 -0.7873  0.2399  0.0386
 9156SOL    HW239105   3.867   4.111  14.140  1.3842  1.4508  0.4680
 9157SOL     OW39106   2.234   1.187   7.424  0.4689  0.1129  0.3765
 9157SOL    HW139107   2.238   1.123   7.353 -1.6920  1.3493 -0.8511
 9157SOL    HW239108   2.200   1.133   7.496  2.0941  0.2815  1.2560
 9158SOL     OW39109   0.201   0.416   4.332  0.0620 -0.1959  0.1919
 9158SOL    HW139110   0.214   0.355   4.260  0.0823 -0.5150  0.4627
 9158SOL    HW239111   0.210   0.495   4.279  1.6140 -0.7865 -0.4233
 9159SOL     OW39112   3.343   1.884   2.297 -0.2062 -0.7578  0.1697
 9159SOL    HW139113   3.435   1.861   2.290 -0.3378 -1.2675  0.0756
 9159SOL    HW239114   3.314   1.888   2.205 -1.7006 -0.2815  0.6576
 9160SOL     OW39115   2.080   1.184   1.906  0.0244 -0.0627 -0.0361
 9160SOL    HW139116   2.067   1.194   2.000  0.7825  0.3607  0.0264
 9160SOL    HW239117   2.176   1.187   1.909  0.0537  0.1798 -1.4914
 9161SOL     OW39118   0.873   0.108   5.970 -0.6823 -0.4264  0.2600
 9161SOL    HW139119   0.874   0.065   5.884  0.4123  2.1887 -1.0323
 9161SOL    HW239120   0.937   0.051   6.013  1.3088  0.4832 -1.5343
 9162SOL     OW39121   4.495   2.662  14.044 -0.2583  0.0533  0.1855
 9162SOL    HW139122   4.550   2.589  14.018 -0.7183  0.8542 -3.0825
 9162SOL    HW239123   4.533   2.701  14.123 -2.4544  2.7535 -0.0650
 9163SOL     OW39124   0.027   2.074   6.574  0.7342  0.2413  0.3667
 9163SOL    HW139125   4.732   2.020   6.501 -0.0475  2.4243 -0.9221
 9163SOL    HW239126   4.680   2.095   6.616 -0.1601 -1.5119 -0.5289
 9164SOL     OW39127   3.945   1.397  17.584 -0.3824 -0.4995 -0.5000
 9164SOL    HW139128   3.899   1.339  17.524  1.5117 -0.1665 -2.2640
 9164SOL    HW239129   4.037   1.382  17.564 -0.1260 -0.9403  1.0086
 9165SOL     OW39130   2.816   3.686  12.661  0.4553  0.1604  0.1076
 9165SOL    HW139131   2.898   3.665  12.615  0.4072  0.3488 -0.0630
 9165SOL    HW239132   2.792   3.763  12.611  3.5008 -0.1050 -1.7771
 9166SOL     OW39133   4.732   3.946   9.251 -0.2816  0.2602 -0.2142
 9166SOL    HW139134   0.040   4.004   9.189  0.9516 -0.9024 -0.4125
 9166SOL    HW239135   4.664   4.004   9.285  0.7534  2.3436 -1.6375
 9167SOL     OW39136   4.173   3.314   1.059 -0.5374 -0.2003  0.2374
 9167SOL    HW139137   4.121   3.240   1.090 -0.5237  1.3421  4.0164
 9167SOL    HW239138   4.263   3.283   1.052  0.3982  2.2731  1.3357
 9168SOL     OW39139   4.329   4.152   8.302 -0.0693  0.0544  0.1474
 9168SOL    HW139140   4.315   4.126   8.211 -2.8648 -2.5901  1.3338
 9168SOL    HW239141   4.415   4.113   8.316  0.8626  1.7159 -0.9930
 9169SOL     OW39142   1.065   1.617   5.206  0.3135  0.1946 -0.1385
 9169SOL    HW139143   1.080   1.671   5.128  0.0689 -3.4456 -2.7028
 9169SOL    HW239144   1.029   1.541   5.160 -0.6926 -0.4857  1.7654
 9170SOL     OW39145   2.309   4.406   1.531  0.2112  0.0229 -0.6853
 9170SOL    HW139146   2.356   4.334   1.573 -1.5109 -1.4852 -1.3611
 9170SOL    HW239147   2.288   4.456   1.610  0.4657  1.3761 -1.4653
 9171SOL     OW39148   0.814   0.414   6.722 -0.6675  0.7974 -0.2725
 9171SOL    HW139149   0.727   0.376   6.709 -0.6888  0.8944 -0.4125
 9171SOL    HW239150   0.855   0.396   6.637  0.1392  1.7778 -0.1028
 9172SOL     OW39151   3.389   0.389  14.464 -0.8423 -0.4400 -0.3245
 9172SOL    HW139152   3.367   0.472  14.422 -1.7136 -0.7399 -0.4654
 9172SOL    HW239153   3.438   0.354  14.389 -1.5678 -1.1623 -0.4670
 9173SOL     OW39154   3.829   2.593  10.621  0.1341  0.1532  0.3828
 9173SOL    HW139155   3.823   2.683  10.653 -0.2255 -0.1701  1.2352
 9173SOL    HW239156   3.742   2.560  10.641 -0.0108  1.1186  1.3511
 9174SOL     OW39157   2.641   2.225   9.228 -0.2645 -0.2759  0.2397
 9174SOL    HW139158   2.608   2.146   9.272  1.8265 -1.6744 -0.6984
 9174SOL    HW239159   2.588   2.292   9.271  2.2435  1.1449  1.1283
 9175SOL     OW39160   1.571   1.501  12.205  0.1297 -0.0123 -0.3395
 9175SOL    HW139161   1.533   1.414  12.210  1.7582 -0.8509 -2.6473
 9175SOL    HW239162   1.654   1.492  12.252  0.2690  1.9147 -0.1990
 9176SOL     OW39163   2.235   0.638   5.318  0.3509  0.5070 -0.2635
 9176SOL    HW139164   2.289   0.562   5.343 -0.2622  1.2072  3.1956
 9176SOL    HW239165   2.157   0.593   5.286 -0.6922  1.2833  1.2102
 9177SOL     OW39166   1.785   0.196   1.716 -0.1146 -0.1506 -0.2671
 9177SOL    HW139167   1.808   0.117   1.764 -0.9950  0.6033  1.3966
 9177SOL    HW239168   1.847   0.195   1.643 -0.8384 -0.7784 -0.8754
 9178SOL     OW39169   0.171   0.593   2.095 -0.4198 -0.5482 -0.1775
 9178SOL    HW139170   0.199   0.591   2.003  0.5041 -3.4165  0.1713
 9178SOL    HW239171   0.117   0.514   2.097 -1.1959 -0.0085  0.3063
 9179SOL     OW39172   2.280   3.094   6.753  0.3072  0.1025  0.3658
 9179SOL    HW139173   2.206   3.132   6.706 -0.3228 -1.8954 -0.2360
 9179SOL    HW239174   2.326   3.039   6.690  0.0939  1.3899 -0.9034
 9180SOL     OW39175   0.580   0.289   2.976  0.2644 -0.1446  0.1632
 9180SOL    HW139176   0.595   0.330   3.061 -1.2163 -0.5869  0.6311
 9180SOL    HW239177   0.665   0.246   2.964 -0.0457 -0.2276 -1.7107
 9181SOL     OW39178   1.023   4.696   0.044  0.4718 -0.4253 -0.0335
 9181SOL    HW139179   1.027   4.610   0.002  1.1922 -0.8284  0.8554
 9181SOL    HW239180   0.929   4.694   0.058  0.4847 -0.9722 -0.0225
 9182SOL     OW39181   4.204   4.671   4.754  0.3683 -0.4768 -0.2657
 9182SOL    HW139182   4.233   0.022   4.728 -1.7123  0.4279  0.4158
 9182SOL    HW239183   4.292   4.639   4.772  0.2742 -0.2780  0.5524
 9183SOL     OW39184   3.405   2.824   7.899  0.1069 -0.6988  0.1038
 9183SOL    HW139185   3.433   2.742   7.940  0.5672  0.8617  2.8597
 9183SOL    HW239186   3.316   2.831   7.934 -0.7927  1.6882 -2.6785
 9184SOL     OW39187   2.506   2.319  13.770 -0.0493  0.1255  0.1277
 9184SOL    HW139188   2.505   2.409  13.737 -0.2239 -0.3026 -1.0230
 9184SOL    HW239189   2.430   2.290  13.721 -2.1209  0.8261  2.9557
 9185SOL     OW39190   4.719   4.318   2.832  0.7765 -0.2248  0.3341
 9185SOL    HW139191   4.721   4.305   2.927 -1.0584  3.4374  0.8565
 9185SOL    HW239192   0.070   4.308   2.793  1.2496  0.9709  1.1009
 9186SOL     OW39193   0.214   2.716  15.393  0.2120  0.2773  1.1476
 9186SOL    HW139194   0.140   2.733  15.451 -1.0576  0.4915 -0.5477
 9186SOL    HW239195   0.212   2.620  15.397  2.6528  0.0635 -2.1283
 9187SOL     OW39196   3.448   3.348   1.858 -0.0774 -0.7228  0.4280
 9187SOL    HW139197   3.359   3.338   1.824  0.8022  0.3006 -2.1715
 9187SOL    HW239198   3.507   3.313   1.792  0.4878 -0.2956  0.7026
 9188SOL     OW39199   3.347   1.973  15.952 -0.1035  0.1124  0.6235
 9188SOL    HW139200   3.408   2.017  16.012  1.8881 -0.7514 -0.7715
 9188SOL    HW239201   3.405   1.907  15.915  2.0024  1.3137  1.7744
 9189SOL     OW39202   4.221   3.593   8.495 -0.2651  0.4945 -0.0561
 9189SOL    HW139203   4.285   3.541   8.447 -0.7640  0.6695 -0.9054
 9189SOL    HW239204   4.272   3.673   8.512 -0.3524  1.2913 -3.5385
 9190SOL     OW39205   1.991   1.101   8.602  0.2785 -0.7474  0.3118
 9190SOL    HW139206   2.002   1.169   8.669 -1.7231 -1.3325  1.2500
 9190SOL    HW239207   1.896   1.114   8.600  0.0028 -2.5870  1.3555
 9191SOL     OW39208   2.485   0.815   6.482  0.3898  0.2537 -0.8806
 9191SOL    HW139209   2.465   0.837   6.573 -0.3301  2.0667 -1.4950
 9191SOL    HW239210   2.537   0.737   6.501  2.7700  1.7356 -1.4228
 9192SOL     OW39211   4.468   0.390   6.460  0.3366  0.3316  0.1373
 9192SOL    HW139212   4.436   0.332   6.529 -0.4000  0.4902 -0.0670
 9192SOL    HW239213   4.544   0.432   6.500 -0.4457  0.6627  1.2786
 9193SOL     OW39214   1.302   0.552   8.257  0.1349  0.0628  0.6593
 9193SOL    HW139215   1.250   0.607   8.315 -0.9982 -1.4592  1.0883
 9193SOL    HW239216   1.337   0.623   8.202  2.2710 -1.5588 -0.0915
 9194SOL     OW39217   1.189   3.206   4.023  0.2872  0.0928  0.1469
 9194SOL    HW139218   1.127   3.163   4.081 -0.0993  0.1338 -0.2366
 9194SOL    HW239219   1.185   3.299   4.046 -0.0585 -0.2414  1.4003
 9195SOL     OW39220   1.788   2.423   8.514 -0.2296 -0.3747  0.1108
 9195SOL    HW139221   1.871   2.391   8.549 -0.7181 -2.2373 -0.4020
 9195SOL    HW239222   1.731   2.347   8.503 -2.4428  1.2437  0.5551
 9196SOL     OW39223   1.528   3.103   1.795 -0.0749  0.0703  0.8955
 9196SOL    HW139224   1.470   3.165   1.750  0.7765 -1.3556 -2.1928
 9196SOL    HW239225   1.490   3.018   1.772  1.8142 -1.1796  2.4053
 9197SOL     OW39226   0.516   0.334   8.860  0.0364 -0.2625 -0.1712
 9197SOL    HW139227   0.556   0.418   8.883 -0.7405 -0.2865  1.2616
 9197SOL    HW239228   0.425   0.361   8.850  0.1433  0.2132  0.1709
 9198SOL     OW39229   0.592   1.581   7.203 -0.5016 -0.1560  0.1664
 9198SOL    HW139230   0.686   1.577   7.220 -0.4166  2.5891  0.2939
 9198SOL    HW239231   0.586   1.660   7.149 -2.6567  0.5444  1.4362
 9199SOL     OW39232   0.265   2.935   3.769 -0.9723  0.0978 -0.5752
 9199SOL    HW139233   0.303   2.959   3.853 -0.5626  0.7916 -0.9553
 9199SOL    HW239234   0.300   2.850   3.744 -0.6138  0.1428 -0.2195
 9200SOL     OW39235   1.873   1.146  12.468  0.1470 -0.0452  0.2924
 9200SOL    HW139236   1.822   1.221  12.499  0.6105  0.1633  0.5567
 9200SOL    HW239237   1.873   1.159  12.374  0.8735  0.8924  0.4263
 9201SOL     OW39238   1.417   0.621   4.623  0.1103  0.1387 -0.5986
 9201SOL    HW139239   1.484   0.687   4.604 -0.4216  0.7589 -0.3427
 9201SOL    HW239240   1.420   0.633   4.718  1.8353  0.2084 -0.6625
 9202SOL     OW39241   3.595   1.334   8.690 -0.4889 -0.1650  0.0549
 9202SOL    HW139242   3.654   1.371   8.755  0.2224  1.8928 -1.7676
 9202SOL    HW239243   3.603   1.241   8.707  0.4726  0.0538  0.7753
 9203SOL     OW39244   4.624   2.961   5.927 -0.8560  0.0656 -0.2926
 9203SOL    HW139245   4.528   2.951   5.924 -0.7528 -0.9923 -0.0119
 9203SOL    HW239246   4.644   2.881   5.879 -0.0989 -0.7193  1.3456
 9204SOL     OW39247   0.425   3.437   6.104  0.6083 -0.1918 -0.4831
 9204SOL    HW139248   0.475   3.365   6.142 -0.0093 -1.3885 -1.9468
 9204SOL    HW239249   0.500   3.488   6.071  0.8537 -0.8530 -0.9509
 9205SOL     OW39250   0.174   2.228  13.020  0.3264  0.2698  0.2383
 9205SOL    HW139251   0.194   2.321  13.003  2.9911 -0.3449 -0.0396
 9205SOL    HW239252   0.258   2.182  13.013  1.1835  1.8284  0.0223
 9206SOL     OW39253   3.375   0.526   4.177  0.2619  0.1567  0.3712
 9206SOL    HW139254   3.335   0.439   4.181  3.1543 -1.1786 -0.1339
 9206SOL    HW239255   3.312   0.578   4.128  1.4643  2.0642  0.8223
 9207SOL     OW39256   4.458   0.266   0.303 -0.1634  0.3336  0.0726
 9207SOL    HW139257   4.469   0.320   0.382 -0.5914  2.3909 -1.2794
 9207SOL    HW239258   4.433   0.177   0.329  1.3525 -0.1060  0.0373
 9208SOL     OW39259   3.413   0.623   6.896  0.5321 -0.1487  0.2342
 9208SOL    HW139260   3.442   0.533   6.913 -0.6399 -0.2677  1.6017
 9208SOL    HW239261   3.494   0.674   6.890 -1.2693  2.7550  0.5654
 9209SOL     OW39262   3.199   2.975   7.001 -0.0084 -0.4375  0.4516
 9209SOL    HW139263   3.201   3.009   7.091  0.7179  2.5862 -0.7150
 9209SOL    HW239264   3.267   3.022   6.953 -0.4826 -2.1338 -1.8551
 9210SOL     OW39265   3.067   2.764   4.200 -0.6384  0.5313  0.2656
 9210SOL    HW139266   2.994   2.708   4.228 -2.3838  2.6750 -0.0140
 9210SOL    HW239267   3.142   2.710   4.224 -0.4692  0.5599 -0.2061
 9211SOL     OW39268   3.653   1.086  15.948 -0.1597  0.3689  0.9161
 9211SOL    HW139269   3.649   1.180  15.931  3.2943  0.1697 -1.1879
 9211SOL    HW239270   3.708   1.084  16.027  2.8725 -2.2086 -1.2425
 9212SOL     OW39271   1.593   0.625   4.297 -0.2011  0.1221  0.5931
 9212SOL    HW139272   1.589   0.660   4.208 -0.6908 -0.6920  0.2894
 9212SOL    HW239273   1.643   0.544   4.290 -1.0851 -0.2472 -1.5832
 9213SOL     OW39274   4.142   1.266   7.697  0.1754 -0.0094  0.2551
 9213SOL    HW139275   4.190   1.264   7.615 -0.5098 -0.4420 -0.1385
 9213SOL    HW239276   4.206   1.311   7.753  0.4367  1.6279 -1.3499
 9214SOL     OW39277   1.910   0.887   6.145 -0.1180 -0.4239 -0.9097
 9214SOL    HW139278   1.865   0.804   6.162  1.1460 -1.1176 -0.8916
 9214SOL    HW239279   1.876   0.929   6.224  2.7882  0.0538  0.0737
 9215SOL     OW39280   3.741   3.425   2.098  0.6806 -0.3141 -0.3741
 9215SOL    HW139281   3.679   3.378   2.042 -0.7013  1.2533 -0.1676
 9215SOL    HW239282   3.694   3.508   2.102  1.0874 -0.1002 -0.0691
 9216SOL     OW39283   3.648   3.136  10.537 -0.5027 -0.0005  0.0290
 9216SOL    HW139284   3.629   3.230  10.532 -1.3551 -0.3447 -3.1937
 9216SOL    HW239285   3.648   3.129  10.632 -0.4595 -0.5262 -0.0084
 9217SOL     OW39286   1.024   0.987   4.807  0.6732 -0.0718 -0.0290
 9217SOL    HW139287   1.064   0.901   4.815 -0.8659 -0.5760  2.3676
 9217SOL    HW239288   1.094   1.041   4.770 -1.2671  2.0525 -0.5477
 9218SOL     OW39289   1.589   4.007   7.148  0.1099 -0.2964 -0.1953
 9218SOL    HW139290   1.647   4.082   7.159 -0.3365  0.2066 -1.1938
 9218SOL    HW239291   1.616   3.954   7.222  2.6341  0.4566 -0.5788
 9219SOL     OW39292   0.089   1.948   5.685 -0.4625 -0.2457  0.4081
 9219SOL    HW139293   0.072   2.042   5.693  2.4058  0.1735  1.7005
 9219SOL    HW239294   0.117   1.918   5.771 -1.9853 -2.7089  0.0410
 9220SOL     OW39295   4.521   4.603   5.895 -0.1789 -0.1152 -0.1962
 9220SOL    HW139296   4.566   4.552   5.962  0.4321  1.3668  0.5182
 9220SOL    HW239297   4.428   4.596   5.917 -0.9494  2.4249 -2.6429
 9221SOL     OW39298   4.397   0.089   4.524 -0.1996  0.3836 -0.1341
 9221SOL    HW139299   4.340   0.152   4.568 -1.7828 -0.4110 -1.0471
 9221SOL    HW239300   4.463   0.073   4.591 -0.2850  2.6612  0.4829
 9222SOL     OW39301   0.624   1.573   1.192  0.1767  0.1394  0.5094
 9222SOL    HW139302   0.578   1.632   1.251  1.4252  0.7944  0.8282
 9222SOL    HW239303   0.576   1.579   1.109 -0.4816 -3.4036  0.6213
 9223SOL     OW39304   2.082   2.145   8.259  0.7445 -0.0598 -0.3717
 9223SOL    HW139305   2.126   2.078   8.207  0.5440 -1.4656  1.2519
 9223SOL    HW239306   2.040   2.094   8.328  1.1985  1.1019  0.7631
 9224SOL     OW39307   3.338   3.997  16.692  0.4203  0.3172 -0.1406
 9224SOL    HW139308   3.425   4.007  16.731  0.7499 -1.7430 -0.3615
 9224SOL    HW239309   3.331   4.086  16.656 -0.4866  1.2768  2.4502
 9225SOL     OW39310   2.259   4.191  12.158 -0.2409  0.1259 -0.2512
 9225SOL    HW139311   2.257   4.106  12.114  1.9657  1.2065 -2.4087
 9225SOL    HW239312   2.312   4.171  12.235 -0.9242 -0.1897  0.1354
 9226SOL     OW39313   1.273   2.591   8.545  0.1172  0.0523 -0.3420
 9226SOL    HW139314   1.250   2.517   8.489 -1.8772 -0.8705  1.6923
 9226SOL    HW239315   1.193   2.591   8.597 -0.4201 -0.7396 -1.1668
 9227SOL     OW39316   1.716   3.617   6.711  0.4983  0.1983 -0.6926
 9227SOL    HW139317   1.778   3.546   6.726  0.3588 -0.5919 -3.7404
 9227SOL    HW239318   1.773   3.692   6.727 -0.0572  0.7638 -1.3421
 9228SOL     OW39319   4.324   3.547   2.995  0.3450  0.2206  0.3958
 9228SOL    HW139320   4.246   3.564   3.049 -0.0936  2.5974 -0.9829
 9228SOL    HW239321   4.283   3.490   2.929  0.7953 -1.0800  1.2313
 9229SOL     OW39322   1.669   4.728   3.873  0.1722 -0.3045 -0.0929
 9229SOL    HW139323   1.678   4.711   3.779 -1.6446  0.7380 -0.4561
 9229SOL    HW239324   1.643   4.643   3.910  1.3999 -1.4099 -1.7558
 9230SOL     OW39325   3.874   0.908   7.820 -0.0503  0.2819  0.1773
 9230SOL    HW139326   3.965   0.930   7.799 -0.3945 -0.3828 -2.0323
 9230SOL    HW239327   3.847   0.971   7.886  0.6643  3.9470 -3.0068
 9231SOL     OW39328   3.414   3.876   8.504  0.3782  0.1100  0.0621
 9231SOL    HW139329   3.389   3.784   8.510 -3.2083  1.1143  0.9463
 9231SOL    HW239330   3.445   3.890   8.594  0.4273 -1.8825  0.3467
 9232SOL     OW39331   0.642   3.640   0.768  0.1485 -0.1748 -0.1421
 9232SOL    HW139332   0.689   3.622   0.850 -0.9017 -1.8273  0.0993
 9232SOL    HW239333   0.710   3.651   0.702 -1.1875  1.7569 -1.2003
 9233SOL     OW39334   3.335   1.846   7.054 -0.1106 -0.0238 -0.0522
 9233SOL    HW139335   3.381   1.930   7.047 -1.5424  0.9572  2.3961
 9233SOL    HW239336   3.249   1.876   7.081 -0.0365 -0.5724  0.7702
 9234SOL     OW39337   2.961   1.470   3.178  1.0900 -0.2893  0.0955
 9234SOL    HW139338   2.951   1.538   3.110 -0.0665 -2.0054 -1.4571
 9234SOL    HW239339   2.980   1.392   3.126 -0.9662 -0.1849 -0.8401
 9235SOL     OW39340   1.940   3.579  17.425 -0.3614  0.1719  0.5659
 9235SOL    HW139341   1.931   3.654  17.484 -0.1649 -0.6313  1.6259
 9235SOL    HW239342   1.848   3.561  17.409 -0.3005 -2.0575  2.7812
 9236SOL     OW39343   0.794   4.386   8.884 -0.5023 -0.4575  0.0891
 9236SOL    HW139344   0.750   4.462   8.845 -1.1802 -1.6989 -1.6128
 9236SOL    HW239345   0.769   4.322   8.817  2.4184 -0.1908 -1.2551
 9237SOL     OW39346   0.393   1.299   9.727  0.1449 -0.5938 -0.0475
 9237SOL    HW139347   0.383   1.216   9.680 -1.3546  0.1914 -1.1379
 9237SOL    HW239348   0.304   1.334   9.719  0.5978  0.6215  0.2371
 9238SOL     OW39349   2.203   0.102   4.533 -0.4861 -0.1037  0.7795
 9238SOL    HW139350   2.148   0.128   4.607 -2.0350 -0.9993 -0.0619
 9238SOL    HW239351   2.256   0.036   4.578  0.5259  0.7467  0.8460
 9239SOL     OW39352   3.272   3.293   7.897 -0.0815 -0.7304  0.8630
 9239SOL    HW139353   3.251   3.311   7.805 -0.7812  0.4409  1.2468
 9239SOL    HW239354   3.197   3.235   7.907 -0.2741 -0.2046  2.4157
 9240SOL     OW39355   2.044   2.379   4.923  0.3698  0.0336 -0.0713
 9240SOL    HW139356   2.032   2.286   4.902  3.5104 -0.2600 -0.5593
 9240SOL    HW239357   2.095   2.368   5.003  2.9403 -1.0933 -1.8534
 9241SOL     OW39358   4.679   2.122   3.738 -0.3278 -0.1736  0.5015
 9241SOL    HW139359   4.637   2.184   3.678 -1.0868 -0.5603  0.6303
 9241SOL    HW239360   4.606   2.064   3.759 -1.6099  0.8815 -0.9923
 9242SOL     OW39361   0.022   2.770  15.575  0.2483 -0.4856  0.8892
 9242SOL    HW139362   4.716   2.689  15.605 -1.4634  1.1359  2.7932
 9242SOL    HW239363   4.687   2.811  15.526 -0.8529 -1.5023  1.6232
 9243SOL     OW39364   1.709   1.913   9.679  0.1067  0.0872 -0.2342
 9243SOL    HW139365   1.714   1.896   9.773  1.1216  2.0103  0.0636
 9243SOL    HW239366   1.640   1.854   9.651  1.0897 -0.0938 -2.2837
 9244SOL     OW39367   3.736   1.255   2.363  0.1838 -0.0632  0.5304
 9244SOL    HW139368   3.815   1.271   2.414 -0.2667  1.0487  0.8754
 9244SOL    HW239369   3.665   1.218   2.415  0.2593 -0.1785  0.5523
 9245SOL     OW39370   0.415   2.868   5.242  0.4204 -0.0019  0.5435
 9245SOL    HW139371   0.407   2.789   5.188  1.3595  0.3965 -0.1721
 9245SOL    HW239372   0.341   2.924   5.221  1.0303  0.8240  0.6185
 9246SOL     OW39373   1.131   3.603   2.850 -0.3257  0.2657  0.1220
 9246SOL    HW139374   1.092   3.530   2.803 -0.0232  2.2181 -3.1700
 9246SOL    HW239375   1.197   3.617   2.781 -0.8961  0.8274 -0.3028
 9247SOL     OW39376   4.323   3.573   0.015  0.1431 -0.3373  0.3005
 9247SOL    HW139377   4.357   3.501  17.704 -2.3239 -1.2919  0.0338
 9247SOL    HW239378   4.235   3.581  17.721  0.8613 -3.0953 -1.9447
 9248SOL     OW39379   3.598   4.232   8.226  0.6115 -0.2651  0.1465
 9248SOL    HW139380   3.590   4.137   8.235 -0.2778 -0.2644 -0.5945
 9248SOL    HW239381   3.515   4.268   8.258 -0.0131 -0.1995 -1.5353
 9249SOL     OW39382   0.084   0.595   9.153  0.3862 -0.4714 -0.0576
 9249SOL    HW139383   0.133   0.668   9.192 -1.2827  2.9655 -4.4349
 9249SOL    HW239384   0.131   0.519   9.187  1.3935  0.6461  1.0400
 9250SOL     OW39385   2.075   0.909   7.398 -0.1606 -0.1298  0.3056
 9250SOL    HW139386   2.102   0.830   7.350  2.9205  2.1592 -1.7715
 9250SOL    HW239387   2.061   0.962   7.319 -1.3015  0.7039  1.0688
 9251SOL     OW39388   0.009   0.099   7.825  0.4605 -0.2974  0.3420
 9251SOL    HW139389   0.053   0.016   7.808 -2.8605 -2.1863  1.0965
 9251SOL    HW239390   0.048   0.130   7.907 -0.3767  1.4038  0.1102
 9252SOL     OW39391   4.453   4.135   9.247  0.4232 -0.1730  0.5657
 9252SOL    HW139392   4.393   4.174   9.310 -0.4681  0.6657 -0.7916
 9252SOL    HW239393   4.414   4.150   9.161  2.3392 -0.3466 -0.3357
 9253SOL     OW39394   2.016   1.805   3.165  0.2901 -0.2989  0.2180
 9253SOL    HW139395   2.069   1.729   3.188  1.1729 -0.7958 -3.3596
 9253SOL    HW239396   1.999   1.847   3.249 -0.0067  1.9479 -0.9830
 9254SOL     OW39397   2.941   3.974   8.743  0.2098  0.2411  0.1464
 9254SOL    HW139398   2.950   3.921   8.822 -3.0186 -1.3032 -0.4987
 9254SOL    HW239399   3.022   3.963   8.693 -0.9246  0.8624 -1.8397
 9255SOL     OW39400   2.888   1.879   1.477 -0.4208 -0.9691  0.7252
 9255SOL    HW139401   2.795   1.893   1.494 -0.1088  1.1176  0.6115
 9255SOL    HW239402   2.898   1.950   1.415  1.0027 -0.9012  1.0460
 9256SOL     OW39403   0.051   4.725   6.981  0.1465 -0.1104  0.6824
 9256SOL    HW139404   0.138   0.027   6.984 -0.3636  1.0630  0.3860
 9256SOL    HW239405   4.733   0.043   7.038 -0.8253  0.1941 -0.5184
 9257SOL     OW39406   3.582   3.931   7.561  0.0686 -0.1323 -0.0781
 9257SOL    HW139407   3.533   3.936   7.643 -1.4659 -2.8210 -0.8355
 9257SOL    HW239408   3.614   3.841   7.554 -0.4286 -0.5229  2.8092
 9258SOL     OW39409   2.866   1.662   4.427 -0.4445  0.4526 -0.8664
 9258SOL    HW139410   2.781   1.702   4.450 -0.3639  0.4747 -0.6012
 9258SOL    HW239411   2.902   1.665   4.516  0.6548 -0.2405 -1.3018
 9259SOL     OW39412   2.276   0.392   5.072 -0.2153  0.1316 -0.3958
 9259SOL    HW139413   2.318   0.387   5.158  1.5565  0.4376 -1.2447
 9259SOL    HW239414   2.192   0.426   5.103  0.3680  0.4642  0.8102
 9260SOL     OW39415   3.829   0.646  10.416  0.2130 -0.4888  0.1095
 9260SOL    HW139416   3.797   0.677  10.500  0.6338  1.0802 -0.3134
 9260SOL    HW239417   3.909   0.607  10.450  0.5265  0.3528  0.3325
 9261SOL     OW39418   0.391   0.485   2.347 -0.0573 -0.0398 -0.5944
 9261SOL    HW139419   0.468   0.435   2.374 -0.6748 -1.9929 -2.4656
 9261SOL    HW239420   0.427   0.518   2.265  1.4711  0.0360  0.0960
 9262SOL     OW39421   0.333   1.133   0.228  0.1340  0.5291 -0.2484
 9262SOL    HW139422   0.364   1.147   0.317  1.7773 -0.1922 -0.6982
 9262SOL    HW239423   0.252   1.180   0.245 -1.2780 -1.0824 -2.3713
 9263SOL     OW39424   3.069   0.753   1.329 -0.1200 -0.4721  0.0484
 9263SOL    HW139425   2.988   0.803   1.324  1.3898  2.0024  0.3549
 9263SOL    HW239426   3.103   0.774   1.417 -0.2953  1.7042 -0.4002
 9264SOL     OW39427   0.893   1.611  15.958 -0.8235  0.1760  0.1633
 9264SOL    HW139428   0.927   1.614  15.869 -0.9080  2.7613  0.2320
 9264SOL    HW239429   0.798   1.604  15.945 -1.1850  2.7762  1.3335
 9265SOL     OW39430   3.818   1.794  17.348  0.3684  0.6455  0.3371
 9265SOL    HW139431   3.782   1.856  17.411  0.2211  0.2249  0.6690
 9265SOL    HW239432   3.825   1.850  17.271 -0.1369 -0.0555 -0.2178
 9266SOL     OW39433   4.264   0.763   9.025 -0.0918 -0.1181 -0.1580
 9266SOL    HW139434   4.347   0.808   9.014  0.6257 -1.5642 -0.6418
 9266SOL    HW239435   4.277   0.713   9.106  0.1426 -1.4265 -0.9930
 9267SOL     OW39436   2.233   0.453  15.257  0.0441  0.1969  0.0525
 9267SOL    HW139437   2.214   0.500  15.176 -1.2184  0.3898  0.4683
 9267SOL    HW239438   2.325   0.477  15.269  0.1721  1.2551 -3.1220
 9268SOL     OW39439   0.029   0.079   6.573 -0.0330 -0.0874 -0.0889
 9268SOL    HW139440   4.721   0.068   6.489 -0.0877 -2.2298  0.2294
 9268SOL    HW239441   4.708   0.039   6.639 -0.9580 -0.1510 -0.9270
 9269SOL     OW39442   4.225   3.438   9.464 -0.6974 -0.8118  0.2956
 9269SOL    HW139443   4.201   3.369   9.403 -3.0412 -0.0570  0.3876
 9269SOL    HW239444   4.152   3.425   9.524  0.1123 -0.4409  1.3851
 9270SOL     OW39445   1.861   1.286   7.070  0.5971  0.3104 -0.6597
 9270SOL    HW139446   1.788   1.286   7.008  0.0023  2.2640  0.0516
 9270SOL    HW239447   1.811   1.290   7.151  2.1594  0.0803  0.3247
 9271SOL     OW39448   4.490   0.211  11.103 -0.0381 -0.2431  0.2357
 9271SOL    HW139449   4.438   0.279  11.059 -0.2918 -2.1500 -2.4138
 9271SOL    HW239450   4.431   0.195  11.176  1.5352  1.0356  1.7916
 9272SOL     OW39451   3.902   2.198   4.023 -0.0086 -0.3623 -0.6469
 9272SOL    HW139452   3.892   2.256   4.098  1.6246  0.0939 -0.7906
 9272SOL    HW239453   3.831   2.136   4.041 -1.5792  2.0707  1.5586
 9273SOL     OW39454   3.832   1.829  12.005  0.1490  0.0110  0.2825
 9273SOL    HW139455   3.860   1.753  11.955 -0.0682  0.6911 -0.8901
 9273SOL    HW239456   3.744   1.845  11.970  0.8685  2.2776 -0.5468
 9274SOL     OW39457   3.936   4.098   4.449  0.5122  0.8031 -0.0413
 9274SOL    HW139458   3.893   4.108   4.533 -0.8050  3.4702 -1.0249
 9274SOL    HW239459   3.962   4.189   4.433  1.7311  0.3186 -0.8623
 9275SOL     OW39460   4.068   3.237   1.423 -0.2287 -0.7074 -0.1721
 9275SOL    HW139461   4.163   3.227   1.430  0.0704  1.8132 -0.5576
 9275SOL    HW239462   4.061   3.168   1.357 -3.2744  1.1478 -1.7566
 9276SOL     OW39463   2.144   2.449   9.959  0.0163  0.0907 -0.0446
 9276SOL    HW139464   2.070   2.470  10.016 -0.6333  0.9386 -1.1951
 9276SOL    HW239465   2.213   2.453  10.024 -0.0084  1.8086 -0.1280
 9277SOL     OW39466   2.107   0.456  11.771  0.0675 -0.1508  0.7188
 9277SOL    HW139467   2.177   0.521  11.763  0.3374 -0.4444  0.7077
 9277SOL    HW239468   2.053   0.466  11.692  2.7086 -1.3907 -1.2370
 9278SOL     OW39469   3.794   3.758  10.207 -0.4959  0.9212  0.0450
 9278SOL    HW139470   3.865   3.705  10.244 -0.3963 -0.9572 -2.7687
 9278SOL    HW239471   3.777   3.709  10.126  2.1746  2.0467 -1.1926
 9279SOL     OW39472   1.065   1.701  14.401 -0.2542  0.2711 -0.1205
 9279SOL    HW139473   1.086   1.794  14.396 -0.7163  0.3125 -1.2089
 9279SOL    HW239474   1.139   1.658  14.357  0.6086  2.7929 -1.1152
 9280SOL     OW39475   3.787   2.996   4.144 -0.1826 -0.1093 -0.0908
 9280SOL    HW139476   3.737   3.077   4.146  0.2589  0.0774  2.7110
 9280SOL    HW239477   3.848   3.020   4.074 -0.4223  1.0911  0.1090
 9281SOL     OW39478   2.169   1.884  14.962 -0.0481  0.0508 -0.3619
 9281SOL    HW139479   2.176   1.839  15.047  0.7336 -1.0799 -1.0181
 9281SOL    HW239480   2.081   1.918  14.974  1.5147  3.2283  2.0653
 9282SOL     OW39481   0.746   0.784   1.934  0.0301 -0.0408 -0.3440
 9282SOL    HW139482   0.841   0.798   1.936 -0.0079  0.3449 -1.2480
 9282SOL    HW239483   0.750   0.688   1.940  0.3873 -0.0534 -0.8207
 9283SOL     OW39484   4.231   2.611  12.931  0.0965  0.2981  0.2123
 9283SOL    HW139485   4.150   2.607  12.880 -0.2158 -0.4150  0.7568
 9283SOL    HW239486   4.261   2.701  12.922  0.0252 -0.0134 -3.0622
 9284SOL     OW39487   0.632   1.481   5.103  0.1544  0.0812  0.1951
 9284SOL    HW139488   0.724   1.455   5.094 -0.0107 -1.0734  1.7749
 9284SOL    HW239489   0.636   1.499   5.197 -0.9447 -0.3052  0.3144
 9285SOL     OW39490   3.329   4.281  16.614 -0.3623 -0.1551 -0.4949
 9285SOL    HW139491   3.413   4.296  16.571  0.4758  1.5972  1.7331
 9285SOL    HW239492   3.295   4.357  16.662  0.2618  0.0283 -0.3526
 9286SOL     OW39493   0.630   3.332   3.509  0.3395  0.4504 -0.1239
 9286SOL    HW139494   0.662   3.379   3.586  1.4015  0.3177 -0.4924
 9286SOL    HW239495   0.673   3.383   3.441  2.0955  1.1789  1.5316
 9287SOL     OW39496   1.114   1.086   4.387  0.2257 -0.4065  0.2143
 9287SOL    HW139497   1.145   1.071   4.298 -0.8566  0.5832 -0.3325
 9287SOL    HW239498   1.172   1.158   4.410 -0.3848  0.5881 -1.4280
 9288SOL     OW39499   0.786   3.360   2.466  0.1430  0.5196 -0.0738
 9288SOL    HW139500   0.795   3.288   2.404 -0.0687  1.2570 -0.9572
 9288SOL    HW239501   0.801   3.321   2.552  0.3424  2.6026  0.8616
 9289SOL     OW39502   4.358   3.456  10.305  0.0583 -0.3985  0.2008
 9289SOL    HW139503   4.323   3.369  10.323  3.2730 -1.8384 -0.4069
 9289SOL    HW239504   4.339   3.502  10.387  0.0170  0.2332 -0.1545
 9290SOL     OW39505   1.463   0.333  14.300  0.1354  0.1124 -0.2770
 9290SOL    HW139506   1.511   0.358  14.379 -0.1654 -0.9052  0.2303
 9290SOL    HW239507   1.370   0.329  14.323  0.7257 -2.9541  1.6747
 9291SOL     OW39508   4.229   2.586  14.595 -0.5751  0.4966  0.0711
 9291SOL    HW139509   4.159   2.554  14.652  1.2475 -1.4471  1.1917
 9291SOL    HW239510   4.221   2.522  14.524  0.7848 -0.2281  0.5805
 9292SOL     OW39511   0.446   0.681   6.765 -0.4316 -0.2325 -0.2748
 9292SOL    HW139512   0.412   0.768   6.784  1.2198 -0.5941  4.2391
 9292SOL    HW239513   0.537   0.696   6.792 -0.5054 -2.5936  1.2889
 9293SOL     OW39514   0.571   4.275  11.907  0.2630 -0.0457  0.5082
 9293SOL    HW139515   0.623   4.351  11.880  0.8222 -0.4333  0.4990
 9293SOL    HW239516   0.602   4.277  11.998 -1.6236  0.8624  1.1208
 9294SOL     OW39517   3.938   1.568   9.441 -0.4129  0.1278  0.1533
 9294SOL    HW139518   3.857   1.580   9.490 -0.1162 -1.9570  1.1506
 9294SOL    HW239519   3.999   1.562   9.515  0.7122 -0.4011 -0.8194
 9295SOL     OW39520   0.751   4.057   3.754 -0.5625  0.3925 -0.0255
 9295SOL    HW139521   0.721   4.148   3.757 -1.0433  0.2718 -1.3042
 9295SOL    HW239522   0.669   4.013   3.775 -0.8494  2.0821  2.3991
 9296SOL     OW39523   2.861   4.170   0.269  0.0249 -0.6574  0.3700
 9296SOL    HW139524   2.815   4.155   0.352 -0.7738 -0.7620 -0.0992
 9296SOL    HW239525   2.864   4.265   0.285  1.3874  0.0622 -4.2784
 9297SOL     OW39526   3.014   3.241  13.663 -0.3804  0.4030 -0.5739
 9297SOL    HW139527   3.008   3.164  13.607  0.1591  0.9377 -1.3714
 9297SOL    HW239528   3.109   3.244  13.675 -0.6488  0.7602  1.3444
 9298SOL     OW39529   1.895   4.300   2.460  0.3572  0.3818 -1.0712
 9298SOL    HW139530   1.844   4.225   2.490  0.3095  0.4755 -0.9217
 9298SOL    HW239531   1.972   4.256   2.423  1.5208  1.3967  0.1348
 9299SOL     OW39532   0.560   1.887   9.001  0.2524 -0.1255 -0.1324
 9299SOL    HW139533   0.542   1.923   8.914  2.5159  2.3661  0.4520
 9299SOL    HW239534   0.585   1.797   8.979 -0.0820 -1.0742  3.4047
 9300SOL     OW39535   3.190   0.713   8.694  0.1405  0.4761  0.5490
 9300SOL    HW139536   3.266   0.666   8.729  0.5111  0.8533  0.2546
 9300SOL    HW239537   3.166   0.643   8.633  0.7896 -1.1740  2.1964
 9301SOL     OW39538   0.878   1.177   4.072 -0.3110  0.1621  0.1620
 9301SOL    HW139539   0.950   1.135   4.025 -0.7066 -1.5339  1.0795
 9301SOL    HW239540   0.835   1.199   3.989  0.3806  0.3923 -0.1364
 9302SOL     OW39541   3.140   1.210   0.504 -0.0681 -0.0858  0.2727
 9302SOL    HW139542   3.161   1.287   0.450  2.6276 -0.1625  1.2056
 9302SOL    HW239543   3.153   1.248   0.590 -0.4517 -0.6956  0.6027
 9303SOL     OW39544   1.089   0.729   3.293 -0.1008  0.2558  0.9029
 9303SOL    HW139545   1.140   0.789   3.239 -0.5228  0.2821  0.5293
 9303SOL    HW239546   1.027   0.789   3.335 -2.4963 -0.2883 -1.8352
 9304SOL     OW39547   3.606   4.587   5.877  0.2525 -0.3447  0.5595
 9304SOL    HW139548   3.606   4.516   5.942 -1.1586 -0.8181  0.0421
 9304SOL    HW239549   3.697   4.618   5.877  0.4348 -0.8937 -1.4689
 9305SOL     OW39550   2.754   4.561   5.938 -0.7868  0.0863 -0.6643
 9305SOL    HW139551   2.746   4.466   5.928  0.2035 -0.2599  1.7122
 9305SOL    HW239552   2.695   4.579   6.012  0.1919 -0.8790  0.3471
 9306SOL     OW39553   3.826   3.664   2.227  0.2109 -0.1889  0.3320
 9306SOL    HW139554   3.752   3.685   2.169  0.2183  1.5278  0.9332
 9306SOL    HW239555   3.859   3.587   2.181 -0.7514 -1.7328  2.2613
 9307SOL     OW39556   1.837   4.513  15.252  0.1232 -0.3485  0.0476
 9307SOL    HW139557   1.790   4.581  15.300 -0.0469 -0.3452 -0.1219
 9307SOL    HW239558   1.923   4.520  15.293  0.9533 -1.3543 -1.5298
 9308SOL     OW39559   2.494   0.841   2.678  0.5575 -0.1772  0.5000
 9308SOL    HW139560   2.471   0.777   2.611 -1.1307  1.1006 -0.1314
 9308SOL    HW239561   2.512   0.911   2.615 -3.5644  0.1328 -0.2976
 9309SOL     OW39562   1.297   4.317   5.138  0.6750 -0.0757 -0.7764
 9309SOL    HW139563   1.302   4.361   5.223 -0.0354 -0.7763 -0.3706
 9309SOL    HW239564   1.368   4.253   5.139 -1.0773 -2.0140 -0.4115
 9310SOL     OW39565   0.603   4.581   9.245  0.2574  0.3985 -0.3006
 9310SOL    HW139566   0.516   4.572   9.285  0.7234  0.6961  0.7943
 9310SOL    HW239567   0.580   4.533   9.166  0.5638 -1.5383  0.7788
 9311SOL     OW39568   3.786   2.652   1.770  0.5046 -0.2583 -0.3843
 9311SOL    HW139569   3.802   2.741   1.738  0.1255  0.3319  1.0525
 9311SOL    HW239570   3.850   2.598   1.724  0.7199  0.2269 -0.6534
 9312SOL     OW39571   0.140   1.614   7.914  0.6141 -1.3256  0.1244
 9312SOL    HW139572   0.106   1.584   7.830  0.5510  3.7582 -1.7178
 9312SOL    HW239573   0.156   1.533   7.961 -0.6010 -0.7237  1.5888
 9313SOL     OW39574   4.124   4.387  12.669 -0.1985  0.3580  0.0030
 9313SOL    HW139575   4.051   4.436  12.632  0.7543  1.6776 -0.0943
 9313SOL    HW239576   4.191   4.445  12.634  2.8752 -2.4955  1.1680
 9314SOL     OW39577   1.751   1.555   1.115 -0.4901 -0.1009 -0.0667
 9314SOL    HW139578   1.670   1.570   1.164 -1.3158  1.5122 -1.9248
 9314SOL    HW239579   1.740   1.463   1.089 -3.2454 -0.0291  0.8812
 9315SOL     OW39580   4.724   0.831   9.379  0.1800  0.2126 -0.8256
 9315SOL    HW139581   4.635   0.799   9.361  0.6348 -2.3763  1.6438
 9315SOL    HW239582   0.020   0.758   9.432 -1.7672  0.1523  0.2755
 9316SOL     OW39583   3.103   3.948   4.155 -0.3100  0.0562  0.2127
 9316SOL    HW139584   3.035   3.884   4.177 -1.8632  1.6112 -0.1425
 9316SOL    HW239585   3.183   3.894   4.158 -0.2383  0.2284  1.1883
 9317SOL     OW39586   2.275   2.127   2.990 -0.0447  0.4668  0.4686
 9317SOL    HW139587   2.257   2.117   2.897 -0.4177 -1.4048  0.7263
 9317SOL    HW239588   2.207   2.065   3.020  0.3160 -0.1647 -0.0102
 9318SOL     OW39589   1.227   2.519  13.774 -0.3941  0.2147 -0.4055
 9318SOL    HW139590   1.156   2.581  13.788 -0.9344 -0.8334  1.4721
 9318SOL    HW239591   1.185   2.442  13.812 -0.5250  1.6545  2.3618
 9319SOL     OW39592   2.502   3.261   2.233  0.4055  0.2413 -0.0076
 9319SOL    HW139593   2.569   3.227   2.292  0.2349  1.1962  0.7473
 9319SOL    HW239594   2.504   3.354   2.258 -0.0878  1.2124 -3.6693
 9320SOL     OW39595   0.178   0.764   2.615 -0.0604 -0.4856 -0.6790
 9320SOL    HW139596   0.255   0.709   2.601  0.6847  0.7070 -1.2125
 9320SOL    HW239597   0.145   0.760   2.525 -0.4186  0.9886 -0.6131
 9321SOL     OW39598   0.751   2.414   1.917 -0.3286 -1.0675  0.1123
 9321SOL    HW139599   0.679   2.473   1.939  0.1892  0.2557 -1.7412
 9321SOL    HW239600   0.789   2.416   2.005 -1.5382 -0.5711  0.6272
 9322SOL     OW39601   0.149   2.326   3.514  0.4926 -0.0672  0.0307
 9322SOL    HW139602   0.188   2.249   3.555  0.4564 -0.8408 -1.3812
 9322SOL    HW239603   0.071   2.342   3.568  0.0645 -1.1043 -0.2678
 9323SOL     OW39604   3.868   1.468   7.032  0.4281 -0.1063  0.2013
 9323SOL    HW139605   3.942   1.480   6.972 -0.4565 -1.0475 -1.0989
 9323SOL    HW239606   3.845   1.558   7.051 -1.7974 -0.6229 -0.0060
 9324SOL     OW39607   3.550   3.508   9.002  0.4573 -0.7081 -0.3718
 9324SOL    HW139608   3.597   3.476   9.079 -1.8370  1.1909  1.8493
 9324SOL    HW239609   3.459   3.519   9.031  1.2644  0.6340  1.6538
 9325SOL     OW39610   2.544   0.175   4.645  0.0850 -0.2473  0.0989
 9325SOL    HW139611   2.607   0.104   4.659 -0.6353 -0.7579  0.8086
 9325SOL    HW239612   2.536   0.178   4.550  1.0252  0.9663  0.0597
 9326SOL     OW39613   3.825   0.310  17.432 -0.1398 -0.3239 -0.1426
 9326SOL    HW139614   3.763   0.245  17.466 -0.2961  0.5668  1.2382
 9326SOL    HW239615   3.814   0.309  17.337 -1.1326 -1.9338 -0.0312
 9327SOL     OW39616   4.620   2.738   6.372 -0.3369 -0.4390  0.4187
 9327SOL    HW139617   4.667   2.747   6.290  1.0465  1.4664  1.4275
 9327SOL    HW239618   4.695   2.716   6.428 -0.6963 -1.4890  0.4867
 9328SOL     OW39619   4.194   0.303   1.594 -0.6182 -0.3143  0.0850
 9328SOL    HW139620   4.245   0.311   1.675  2.3215 -0.5511 -1.7546
 9328SOL    HW239621   4.143   0.384   1.596  0.6381  0.4841 -0.1976
 9329SOL     OW39622   4.300   1.256  11.760 -0.0382  0.3810 -0.4741
 9329SOL    HW139623   4.348   1.173  11.757  0.1083  0.4638 -0.4431
 9329SOL    HW239624   4.310   1.273  11.854  0.7555  0.4021 -0.5590
 9330SOL     OW39625   2.812   3.839   7.127  0.4295  0.5700 -0.1932
 9330SOL    HW139626   2.814   3.932   7.148 -4.6340  0.9588 -1.2137
 9330SOL    HW239627   2.888   3.837   7.070  0.5544  1.1087 -0.0493
 9331SOL     OW39628   3.300   4.715  15.737 -0.1219 -0.0372  0.1702
 9331SOL    HW139629   3.296   0.012  15.647 -0.6627 -1.2708 -0.2629
 9331SOL    HW239630   3.391   4.690  15.755  1.0362  2.7614 -1.7460
 9332SOL     OW39631   2.851   4.229   2.352 -0.0394 -0.4674 -0.6826
 9332SOL    HW139632   2.766   4.205   2.390  0.3987 -2.0070 -0.6514
 9332SOL    HW239633   2.837   4.322   2.337 -2.1580 -0.3821  1.7753
 9333SOL     OW39634   3.939   4.431   8.471  0.3698 -0.6365 -0.2427
 9333SOL    HW139635   4.033   4.418   8.456  0.3267  1.0743 -2.1080
 9333SOL    HW239636   3.912   4.340   8.482 -2.1988  0.1518 -0.0793
 9334SOL     OW39637   2.694   1.158   8.405 -0.1819 -0.2014 -0.5441
 9334SOL    HW139638   2.721   1.088   8.346  1.3273 -1.1653  1.2858
 9334SOL    HW239639   2.687   1.114   8.490  0.6377 -0.0870 -0.4192
 9335SOL     OW39640   1.632   0.993   9.362 -0.0078 -0.0549 -1.0983
 9335SOL    HW139641   1.602   1.051   9.292 -1.1643  1.4329  0.6427
 9335SOL    HW239642   1.726   1.010   9.357 -0.1983  1.8435  2.0554
 9336SOL     OW39643   4.026   4.078  10.838 -0.0853 -0.6116 -0.5905
 9336SOL    HW139644   4.017   4.031  10.755 -2.0082 -3.0261  0.9863
 9336SOL    HW239645   4.121   4.085  10.849 -0.2628  0.4148  0.3057
 9337SOL     OW39646   0.749   2.640  12.386 -0.2342 -1.1113 -0.0574
 9337SOL    HW139647   0.835   2.600  12.376  0.6966  0.8448  0.2111
 9337SOL    HW239648   0.748   2.639  12.481  1.1785 -1.5070 -0.0487
 9338SOL     OW39649   4.193   2.799   3.444  0.8142 -0.8618  0.5058
 9338SOL    HW139650   4.151   2.754   3.518  0.1234 -0.2901  0.4611
 9338SOL    HW239651   4.131   2.864   3.412 -1.4828 -4.4004 -2.2990
 9339SOL     OW39652   4.446   2.302   9.566  0.0807 -0.4766  0.1982
 9339SOL    HW139653   4.493   2.385   9.561 -0.1888 -0.3427 -0.1512
 9339SOL    HW239654   4.507   2.242   9.523  1.4036  2.0826 -1.5075
 9340SOL     OW39655   3.478   0.180   3.782 -0.9852 -0.6009 -0.4580
 9340SOL    HW139656   3.396   0.175   3.832 -0.9485 -1.2121 -0.4640
 9340SOL    HW239657   3.496   0.274   3.779 -0.5743 -0.6833 -0.5542
 9341SOL     OW39658   4.646   3.656   8.841  0.2757  0.3381  0.6383
 9341SOL    HW139659   4.669   3.734   8.791  1.9587  0.9341  2.3368
 9341SOL    HW239660   4.660   3.695   8.928  2.0166 -2.0629  1.4639
 9342SOL     OW39661   0.256   1.595   3.312 -0.1205  0.5892  0.0839
 9342SOL    HW139662   0.221   1.577   3.225  3.5012 -0.7925 -1.1119
 9342SOL    HW239663   0.190   1.659   3.337  0.6641  0.8320  1.5202
 9343SOL     OW39664   1.487   1.726   4.480 -0.8182 -0.1505  0.0058
 9343SOL    HW139665   1.512   1.696   4.393 -1.8531 -2.3981  0.4871
 9343SOL    HW239666   1.405   1.678   4.497 -2.7011  3.1094  0.2296
 9344SOL     OW39667   2.093   1.559   1.838 -0.4503  0.4780  0.2976
 9344SOL    HW139668   2.001   1.582   1.824 -0.7071 -0.5973  0.2260
 9344SOL    HW239669   2.110   1.517   1.753 -0.1121  0.8126  0.1985
 9345SOL     OW39670   1.515   3.898   4.083  0.2878 -0.4841 -0.2728
 9345SOL    HW139671   1.495   3.919   3.992 -0.1476 -0.6584 -0.2169
 9345SOL    HW239672   1.445   3.917   4.145  0.8131  0.9234 -0.0969
 9346SOL     OW39673   4.600   4.087   7.697  0.1729 -0.1810 -0.1348
 9346SOL    HW139674   4.540   4.012   7.695 -0.9395  0.7376 -0.8603
 9346SOL    HW239675   4.603   4.105   7.603 -0.6867  0.1179 -0.0989
 9347SOL     OW39676   1.647   1.857   1.665  0.1908  0.1295  0.0211
 9347SOL    HW139677   1.719   1.838   1.604  0.9398 -0.6940  1.1695
 9347SOL    HW239678   1.697   1.898   1.735  1.4504 -3.4126  1.2163
 9348SOL     OW39679   1.440   1.822   9.449  0.0101 -0.2468 -0.2487
 9348SOL    HW139680   1.454   1.747   9.506  1.4465  1.2303  1.3501
 9348SOL    HW239681   1.350   1.840   9.474  0.1929  0.4876 -0.1064
 9349SOL     OW39682   3.610   3.758   5.392 -0.0127  0.0829  0.0597
 9349SOL    HW139683   3.515   3.770   5.396 -0.0888 -0.5810  0.2752
 9349SOL    HW239684   3.616   3.764   5.296 -0.3995  2.2062  0.1712
 9350SOL     OW39685   1.427   4.291   4.458 -0.7799 -0.1337 -0.2710
 9350SOL    HW139686   1.393   4.372   4.421  1.1797  0.5906 -0.4846
 9350SOL    HW239687   1.490   4.327   4.521 -0.8985 -2.7091  1.3650
 9351SOL     OW39688   3.238   3.146   8.631  0.1151 -0.3335  0.1114
 9351SOL    HW139689   3.332   3.145   8.613  0.0497  3.7653 -0.5847
 9351SOL    HW239690   3.215   3.054   8.623 -2.4800  0.1441  2.0542
 9352SOL     OW39691   3.435   0.584  17.658  0.0242 -0.0427  0.5726
 9352SOL    HW139692   3.480   0.620  17.734  2.7569 -1.1478 -0.4950
 9352SOL    HW239693   3.416   0.662  17.605  1.0139 -0.2171 -0.0455
 9353SOL     OW39694   3.393   2.290   7.768 -0.0870 -0.2030 -0.6150
 9353SOL    HW139695   3.466   2.229   7.780  0.7664  0.5913 -1.7292
 9353SOL    HW239696   3.425   2.328   7.686 -0.9625  0.1416 -0.7923
 9354SOL     OW39697   3.918   2.322   3.052 -0.3397 -0.1814 -0.1325
 9354SOL    HW139698   3.884   2.398   3.005  0.1939 -0.2242 -0.5864
 9354SOL    HW239699   3.964   2.282   2.978 -0.2647 -0.9191  0.3164
 9355SOL     OW39700   0.208   2.096  10.509 -0.5849 -0.7181  0.2206
 9355SOL    HW139701   0.153   2.144  10.570 -0.3865  0.8582 -0.8377
 9355SOL    HW239702   0.222   2.016  10.560  2.8414 -1.2206 -1.4892
 9356SOL     OW39703   3.390   3.978   6.650  0.0676  0.1754  0.3314
 9356SOL    HW139704   3.443   3.899   6.661 -1.8029 -0.9226  1.4690
 9356SOL    HW239705   3.437   4.017   6.576  2.3390 -2.3279  0.4657
 9357SOL     OW39706   2.808   4.162   5.176  0.4106 -0.8725  0.0444
 9357SOL    HW139707   2.732   4.177   5.232  0.3831 -0.8680  0.0059
 9357SOL    HW239708   2.872   4.193   5.240 -1.1244 -1.1108  1.7036
 9358SOL     OW39709   3.399   1.108   9.787  0.3229  0.0323  0.9379
 9358SOL    HW139710   3.305   1.096   9.779  0.0830  1.3381  1.7767
 9358SOL    HW239711   3.429   1.077   9.873  3.3542 -2.4440 -1.0509
 9359SOL     OW39712   2.916   0.613  14.381  0.1191 -0.4206  0.0358
 9359SOL    HW139713   2.823   0.609  14.400 -0.0509  0.9302 -0.5148
 9359SOL    HW239714   2.911   0.604  14.286  0.4851  0.5904 -0.0801
 9360SOL     OW39715   2.633   3.179   5.562  0.5247 -0.4933 -0.4389
 9360SOL    HW139716   2.561   3.166   5.623  0.4133  0.0518 -0.4546
 9360SOL    HW239717   2.591   3.242   5.504  3.2205  0.6822 -1.1536
 9361SOL     OW39718   2.281   4.730   2.911  0.3627 -0.1008  0.0278
 9361SOL    HW139719   2.322   0.077   2.885 -2.0676  1.1987  0.4117
 9361SOL    HW239720   2.271   4.680   2.830 -2.4219  1.6727 -0.7271
 9362SOL     OW39721   3.000   2.496   3.515 -0.2011  0.5100  0.6206
 9362SOL    HW139722   2.996   2.460   3.427  1.5031 -0.4883  0.9582
 9362SOL    HW239723   3.050   2.426   3.557  0.4999  1.1435  0.8365
 9363SOL     OW39724   2.999   0.448  11.365  0.8502 -0.0992  0.1992
 9363SOL    HW139725   3.092   0.463  11.345  1.2775 -1.6004  1.0642
 9363SOL    HW239726   2.997   0.375  11.427  0.1217  0.4386  0.8018
 9364SOL     OW39727   1.097   4.722   6.067 -0.2723  0.4161 -0.0596
 9364SOL    HW139728   1.098   4.636   6.107  0.1369  0.6644  0.4639
 9364SOL    HW239729   1.161   0.026   6.126 -0.6097 -0.7530  1.0855
 9365SOL     OW39730   3.820   0.659   7.070 -0.4982 -0.6478 -0.5085
 9365SOL    HW139731   3.845   0.590   7.131  1.2838 -0.6424 -1.2157
 9365SOL    HW239732   3.899   0.706   7.044  0.0857 -1.8424 -0.8835
 9366SOL     OW39733   0.962   4.642   4.133  0.0764  0.5150 -0.5250
 9366SOL    HW139734   0.890   4.589   4.100 -0.0094 -1.2939  2.5875
 9366SOL    HW239735   0.922   4.703   4.194 -1.5770 -2.6561  1.5404
 9367SOL     OW39736   0.554   4.550  15.121  0.1706 -0.2623 -0.3172
 9367SOL    HW139737   0.502   4.630  15.124 -2.9130 -2.2919 -0.1989
 9367SOL    HW239738   0.637   4.585  15.086 -0.1952 -0.1782 -1.0949
 9368SOL     OW39739   3.288   3.570   4.608  0.4848 -0.3428 -0.8009
 9368SOL    HW139740   3.214   3.560   4.549  0.4926  0.0587 -0.8729
 9368SOL    HW239741   3.304   3.482   4.642  1.7466  0.1739 -0.0524
 9369SOL     OW39742   0.400   4.247  13.631 -0.0368  0.5207  0.2673
 9369SOL    HW139743   0.317   4.217  13.667  0.4866  0.3042  1.2989
 9369SOL    HW239744   0.454   4.228  13.708  1.4305  0.5865 -0.7403
 9370SOL     OW39745   4.527   0.647  15.953 -0.7166  0.0886  0.2601
 9370SOL    HW139746   4.444   0.665  15.997 -1.5791 -0.1806 -1.2894
 9370SOL    HW239747   4.501   0.624  15.864  0.3091 -2.4846  0.6197
 9371SOL     OW39748   4.266   1.542  11.675  0.0130  0.0302  0.4684
 9371SOL    HW139749   4.296   1.452  11.692 -1.4735 -0.8926 -1.7800
 9371SOL    HW239750   4.351   1.585  11.680 -0.7605  1.9392 -2.4316
 9372SOL     OW39751   1.647   2.941   8.228 -0.0549  0.3957  1.0827
 9372SOL    HW139752   1.730   2.988   8.235 -0.7698  1.7191  0.7966
 9372SOL    HW239753   1.606   2.962   8.313 -2.0680 -0.5027  0.3367
 9373SOL     OW39754   2.112   0.835   8.602  0.0390  0.0610  0.0511
 9373SOL    HW139755   2.082   0.926   8.595 -0.6596 -0.1578  0.2476
 9373SOL    HW239756   2.141   0.831   8.510  0.8138  1.9615  0.2022
 9374SOL     OW39757   1.371   2.530   1.956  0.0989  0.6123 -0.0905
 9374SOL    HW139758   1.376   2.537   2.052 -1.9123 -0.8169  0.1181
 9374SOL    HW239759   1.299   2.468   1.944  0.2998  0.4917 -0.6346
 9375SOL     OW39760   1.419   0.453   9.622 -0.8647  0.6798  0.0547
 9375SOL    HW139761   1.328   0.482   9.617 -1.2044 -0.6671 -1.4519
 9375SOL    HW239762   1.466   0.522   9.670 -0.0117  1.3730 -1.7707
 9376SOL     OW39763   3.128   2.737   9.230  0.7551  0.4782  0.4240
 9376SOL    HW139764   3.085   2.668   9.179 -1.3962  0.3883  2.3585
 9376SOL    HW239765   3.203   2.693   9.272 -0.4429 -0.3512  1.6941
 9377SOL     OW39766   3.357   0.912   8.904 -0.1485 -0.3788  0.3841
 9377SOL    HW139767   3.378   0.818   8.905 -0.6040 -0.5259 -3.6480
 9377SOL    HW239768   3.268   0.908   8.939 -0.3748 -1.6160 -0.3099
 9378SOL     OW39769   4.392   4.289  12.484 -0.4838  0.0264  0.1062
 9378SOL    HW139770   4.315   4.339  12.457 -1.0312 -1.9305 -1.9187
 9378SOL    HW239771   4.338   4.228  12.534  2.0207  0.1155  2.9475
 9379SOL     OW39772   4.429   3.249   7.946 -0.0237  0.7285  0.3296
 9379SOL    HW139773   4.335   3.254   7.964  0.0404  0.9411  0.5937
 9379SOL    HW239774   4.469   3.262   8.032 -1.2790 -0.4275  1.0775
 9380SOL     OW39775   2.714   4.139   1.698  0.6328  0.3860  0.4142
 9380SOL    HW139776   2.638   4.186   1.663 -0.7477 -0.7094  1.9328
 9380SOL    HW239777   2.778   4.209   1.693 -1.2293  1.9539 -1.1931
 9381SOL     OW39778   3.909   2.820   9.442  0.1204 -0.1076 -0.0921
 9381SOL    HW139779   3.864   2.827   9.358 -0.8055 -1.7767  0.2841
 9381SOL    HW239780   3.998   2.837   9.411  0.3219  1.3950  1.2961
 9382SOL     OW39781   3.042   0.589   6.575 -0.8680  0.5531  0.1880
 9382SOL    HW139782   3.122   0.619   6.616 -1.0055  1.2883 -0.0681
 9382SOL    HW239783   2.975   0.633   6.628 -1.0950  0.4884 -0.0421
 9383SOL     OW39784   4.358   2.452   3.028 -0.3171  1.1000 -0.1525
 9383SOL    HW139785   4.383   2.510   2.956 -1.5273  1.1497 -0.5277
 9383SOL    HW239786   4.365   2.513   3.102  0.5027 -0.8807  1.4291
 9384SOL     OW39787   3.848   3.484  10.461  0.3397 -0.3511 -0.1411
 9384SOL    HW139788   3.787   3.446  10.397 -2.1386  1.9747  0.8422
 9384SOL    HW239789   3.810   3.571  10.471  2.4335  0.4388  0.8501
 9385SOL     OW39790   1.397   2.538   0.955 -0.5243  0.1669  0.2910
 9385SOL    HW139791   1.326   2.478   0.980  0.0152  0.6213  2.9627
 9385SOL    HW239792   1.466   2.512   1.015 -1.6554 -1.2527  0.9906
 9386SOL     OW39793   3.472   1.519   3.390 -0.2297 -0.2827 -0.0939
 9386SOL    HW139794   3.507   1.594   3.438  0.3451  1.0248 -2.5745
 9386SOL    HW239795   3.544   1.458   3.377 -1.8030 -1.9146 -1.1508
 9387SOL     OW39796   0.077   2.391   9.417 -0.3193 -0.2990  0.1913
 9387SOL    HW139797   0.080   2.358   9.327 -1.1255 -0.1803  0.1166
 9387SOL    HW239798   0.154   2.347   9.453  0.7045 -0.2589 -1.9372
 9388SOL     OW39799   4.139   1.753  16.470  0.1263  0.6878  0.5635
 9388SOL    HW139800   4.124   1.800  16.552  2.9942 -1.3688  2.2657
 9388SOL    HW239801   4.130   1.822  16.404  3.0702  0.3060 -0.2354
 9389SOL     OW39802   3.157   3.966   8.599  0.0454 -0.0251 -0.0165
 9389SOL    HW139803   3.247   3.954   8.567  0.5265 -0.2296  1.3726
 9389SOL    HW239804   3.135   4.035   8.537 -0.6139  0.0781  0.3399
 9390SOL     OW39805   0.132   0.919   8.292  0.6528  0.1297 -0.2141
 9390SOL    HW139806   0.117   0.826   8.279 -1.2336  0.2951  0.7520
 9390SOL    HW239807   0.122   0.950   8.202  2.7005  2.2575  0.2899
 9391SOL     OW39808   3.702   4.668   9.025  0.1937  0.0007  0.4677
 9391SOL    HW139809   3.650   4.630   8.954  1.5652  2.1070 -1.6571
 9391SOL    HW239810   3.664   0.019   9.014  0.4874  0.0809  0.0911
 9392SOL     OW39811   2.890   4.317   3.588  0.1960  0.5262 -0.2243
 9392SOL    HW139812   2.915   4.302   3.679 -0.4762  0.9995  0.0418
 9392SOL    HW239813   2.829   4.391   3.595  0.4193  0.5791  1.0705
 9393SOL     OW39814   4.071   2.749   3.113 -0.3636  0.4399 -0.5887
 9393SOL    HW139815   4.117   2.824   3.152  0.1961 -0.0710 -0.2666
 9393SOL    HW239816   4.110   2.724   3.029 -0.4740 -3.2393  0.4356
 9394SOL     OW39817   4.688   3.898   5.621 -0.5467  0.2171 -0.0005
 9394SOL    HW139818   4.731   3.815   5.641 -0.7309 -0.1039 -0.9059
 9394SOL    HW239819   0.026   3.953   5.593  0.8241 -0.9354  1.3742
 9395SOL     OW39820   0.914   0.256   1.312  0.8705  0.1131 -0.1720
 9395SOL    HW139821   0.949   0.210   1.236  0.5772 -0.8042  0.2534
 9395SOL    HW239822   0.870   0.333   1.275 -0.2789 -0.4862 -0.0509
 9396SOL     OW39823   1.381   2.407   6.774 -0.4294 -0.0860  0.3462
 9396SOL    HW139824   1.476   2.395   6.771  0.0243  3.4747  0.2275
 9396SOL    HW239825   1.352   2.389   6.684 -2.4489 -0.7537  1.1353
 9397SOL     OW39826   0.526   3.619   7.433  0.5833  0.3518 -0.6139
 9397SOL    HW139827   0.613   3.659   7.438 -0.5776  2.5594  2.5021
 9397SOL    HW239828   0.461   3.676   7.392  0.1101  1.5029  1.7228
 9398SOL     OW39829   4.513   3.487   8.670  0.2098 -0.0510  0.1851
 9398SOL    HW139830   4.440   3.498   8.731  1.3993  1.8740  1.2995
 9398SOL    HW239831   4.576   3.547   8.711 -1.2736  0.2028  2.0857
 9399SOL     OW39832   0.605   3.617   6.025  0.2068 -0.0624 -0.1035
 9399SOL    HW139833   0.603   3.690   5.963  1.2979 -0.0082 -0.0802
 9399SOL    HW239834   0.669   3.567   5.974  0.4734 -2.0071  2.1405
 9400SOL     OW39835   0.410   1.925   2.631  0.3415  0.5902 -0.3025
 9400SOL    HW139836   0.367   1.921   2.546  0.3036  2.5570 -0.3689
 9400SOL    HW239837   0.425   2.019   2.640 -0.7978  0.8361 -1.0617
 9401SOL     OW39838   0.898   0.229   6.488 -0.6653  0.3228 -0.1392
 9401SOL    HW139839   0.962   0.268   6.428  0.3865 -0.5605  0.4330
 9401SOL    HW239840   0.813   0.256   6.453 -0.4685 -0.6751 -1.4051
 9402SOL     OW39841   4.668   2.293  13.398 -0.1334  0.1933 -0.6036
 9402SOL    HW139842   0.009   2.327  13.352  0.1641 -1.1918 -1.1095
 9402SOL    HW239843   4.676   2.204  13.365 -0.1864 -0.3544  0.8748
 9403SOL     OW39844   0.076   0.618   8.183 -0.0935  0.2302  0.1469
 9403SOL    HW139845   4.722   0.614   8.216  0.1890  0.0228  0.8933
 9403SOL    HW239846   0.099   0.529   8.208  1.1351  0.5076 -0.0103
 9404SOL     OW39847   3.629   0.268   6.941  0.5019  0.2914  0.6160
 9404SOL    HW139848   3.591   0.339   6.993 -0.8697  0.0619 -0.0710
 9404SOL    HW239849   3.552   0.260   6.884  2.5502 -3.5516 -1.6085
 9405SOL     OW39850   4.469   0.626   3.404  0.1891 -0.3564  0.2433
 9405SOL    HW139851   4.477   0.561   3.334 -0.4231  1.5887 -1.6410
 9405SOL    HW239852   4.562   0.650   3.402  0.4067 -1.1890  0.4106
 9406SOL     OW39853   4.222   0.822   9.371 -0.1155 -0.0781 -0.0904
 9406SOL    HW139854   4.140   0.773   9.379 -0.2449  0.1180 -0.2250
 9406SOL    HW239855   4.195   0.913   9.358 -1.4853 -0.7007 -1.4917
 9407SOL     OW39856   1.332   3.778   0.166  0.1691  0.1121  0.4651
 9407SOL    HW139857   1.401   3.804   0.226  1.0450  1.3747 -1.1014
 9407SOL    HW239858   1.281   3.717   0.220 -0.0912  0.9916  1.2188
 9408SOL     OW39859   4.619   3.664  10.013 -0.0447 -0.5536 -0.0127
 9408SOL    HW139860   4.662   3.612  10.081  1.6394 -0.7989 -1.2742
 9408SOL    HW239861   4.543   3.608   9.997 -0.3416  0.1034 -0.8979
 9409SOL     OW39862   0.571   0.844   8.276  0.2929 -0.3373 -0.1379
 9409SOL    HW139863   0.531   0.760   8.253  2.5486 -1.5298  0.2724
 9409SOL    HW239864   0.533   0.865   8.361  3.0453 -1.1370  1.2896
 9410SOL     OW39865   3.513   1.560   7.121  0.0351  0.0714  0.5589
 9410SOL    HW139866   3.419   1.556   7.138 -0.1756  0.5887 -0.4506
 9410SOL    HW239867   3.529   1.478   7.074  0.6142  1.2148 -1.2328
 9411SOL     OW39868   4.560   0.647   2.950  0.4854  0.1423 -0.5942
 9411SOL    HW139869   4.571   0.725   2.895 -1.4521  0.6736 -0.2386
 9411SOL    HW239870   4.582   0.585   2.881 -1.9875 -0.9044 -0.4549
 9412SOL     OW39871   1.191   1.248   8.578 -0.3795 -0.0001 -0.5310
 9412SOL    HW139872   1.266   1.240   8.518 -2.1915  0.6699 -2.8760
 9412SOL    HW239873   1.212   1.336   8.609 -0.8940  0.1899 -0.7258
 9413SOL     OW39874   3.057   0.257  16.628  0.4224 -0.1387 -0.0650
 9413SOL    HW139875   3.077   0.243  16.536 -1.9546  1.6293 -0.8204
 9413SOL    HW239876   2.962   0.258  16.618  0.4758  0.1829 -0.4941
 9414SOL     OW39877   1.734   0.649   2.187 -0.3413 -0.2607 -0.2867
 9414SOL    HW139878   1.641   0.627   2.199  0.1270 -3.6684 -2.9106
 9414SOL    HW239879   1.767   0.564   2.158  0.5474 -0.0103  0.0091
 9415SOL     OW39880   4.043   0.298  15.084  0.0666 -0.6024 -0.3630
 9415SOL    HW139881   4.110   0.260  15.027 -1.4012 -1.2893 -1.6299
 9415SOL    HW239882   4.067   0.391  15.080 -0.0003 -0.5081  1.3486
 9416SOL     OW39883   0.567   3.179   5.215  0.1183  0.1360 -0.6496
 9416SOL    HW139884   0.484   3.220   5.242  1.7177  2.1354  1.1681
 9416SOL    HW239885   0.544   3.148   5.127 -1.0280  1.0681 -0.6860
 9417SOL     OW39886   3.460   0.519   1.487  0.2113 -0.0077  0.1541
 9417SOL    HW139887   3.437   0.548   1.575  0.1934  0.0304  0.1372
 9417SOL    HW239888   3.552   0.500   1.504  0.7063  0.4274 -2.0271
 9418SOL     OW39889   1.959   4.436   8.989  0.2153 -0.5513  0.5642
 9418SOL    HW139890   1.936   4.431   8.896  2.6206 -0.8853 -0.0097
 9418SOL    HW239891   1.886   4.493   9.013  0.4815  0.6753 -1.5404
 9419SOL     OW39892   3.336   4.338   0.385  0.0335  0.1299 -0.3554
 9419SOL    HW139893   3.279   4.403   0.424  0.5461 -0.6277  1.6245
 9419SOL    HW239894   3.316   4.267   0.446 -0.5502  0.8177  0.2428
 9420SOL     OW39895   3.592   3.292  17.626  0.5780  0.1587 -0.4721
 9420SOL    HW139896   3.601   3.369  17.570  0.7692  1.1007  0.8441
 9420SOL    HW239897   3.596   3.342  17.708  1.3625 -1.6790  0.6134
 9421SOL     OW39898   3.593   1.975  17.736  0.0266  0.2669 -0.2567
 9421SOL    HW139899   3.611   2.060   0.033  0.0031 -0.3673  1.1059
 9421SOL    HW239900   3.655   1.916   0.036 -2.0977 -1.2804  0.6677
 9422SOL     OW39901   2.879   2.497   7.952  0.3148  0.2153 -0.2020
 9422SOL    HW139902   2.865   2.501   8.047  1.1714  0.5117 -0.0930
 9422SOL    HW239903   2.902   2.405   7.943 -0.2040  0.0420  0.2047
 9423SOL     OW39904   2.292   0.086   8.078 -0.5512 -0.6825  0.0410
 9423SOL    HW139905   2.199   0.092   8.102 -0.2635  0.2730  0.9129
 9423SOL    HW239906   2.320   0.174   8.101  0.5850 -1.0508  0.0732
 9424SOL     OW39907   2.925   1.193  16.932 -0.6521 -0.7838 -0.3757
 9424SOL    HW139908   2.882   1.135  16.995  0.0683 -2.5314 -1.4929
 9424SOL    HW239909   2.886   1.168  16.849 -2.6959  2.2291 -0.3132
 9425SOL     OW39910   2.765   0.382   2.506 -0.0178 -0.1164 -0.0698
 9425SOL    HW139911   2.829   0.451   2.487 -1.3530  0.6456 -1.7698
 9425SOL    HW239912   2.823   0.306   2.500 -1.0922 -0.9465  0.1327
 9426SOL     OW39913   4.377   1.749   9.010 -0.2138 -0.5649  1.3421
 9426SOL    HW139914   4.313   1.679   9.001 -1.7150  0.8445  1.0549
 9426SOL    HW239915   4.331   1.812   9.065  1.2026 -0.9646  3.0030
 9427SOL     OW39916   4.123   1.939   2.763  0.1680 -0.2386  0.2033
 9427SOL    HW139917   4.192   1.913   2.702  0.9921  1.0718  0.5868
 9427SOL    HW239918   4.052   1.881   2.736  0.4521 -0.8861  0.8463
 9428SOL     OW39919   3.091   3.582   6.619 -0.2099 -0.1638 -0.3934
 9428SOL    HW139920   3.126   3.606   6.705 -0.7146  0.4407 -0.3573
 9428SOL    HW239921   3.146   3.510   6.589  1.7563  0.3328  1.9730
 9429SOL     OW39922   1.042   0.728   6.082 -0.3121 -0.1295  0.3713
 9429SOL    HW139923   1.130   0.693   6.066 -0.0040  1.2010 -0.8594
 9429SOL    HW239924   1.022   0.791   6.013  2.0275  1.0540  0.7743
 9430SOL     OW39925   3.760   3.863  13.896  0.3860 -0.6150  0.0598
 9430SOL    HW139926   3.807   3.814  13.828  1.3183  0.0663  0.2185
 9430SOL    HW239927   3.703   3.793  13.930  0.4174  0.5179  2.4580
 9431SOL     OW39928   3.823   3.548   1.514  0.0937  0.0280  0.2531
 9431SOL    HW139929   3.912   3.544   1.549  0.5462 -0.3116 -0.9373
 9431SOL    HW239930   3.775   3.562   1.596 -0.5733 -1.9710  0.2019
 9432SOL     OW39931   3.551   0.768   2.888 -0.0315 -0.1527 -0.2321
 9432SOL    HW139932   3.597   0.728   2.962 -1.3464  0.0435  0.6776
 9432SOL    HW239933   3.624   0.812   2.843 -0.8782  1.6068  0.1205
 9433SOL     OW39934   1.003   3.771   4.837 -0.4401  0.2305 -0.4102
 9433SOL    HW139935   0.980   3.702   4.775 -1.3006  1.7316 -1.7598
 9433SOL    HW239936   1.040   3.830   4.771  0.7864  0.2512  0.2990
 9434SOL     OW39937   3.381   1.374   4.544 -0.0357  0.0101  0.3337
 9434SOL    HW139938   3.413   1.319   4.616  1.3902  0.0632 -0.2528
 9434SOL    HW239939   3.352   1.457   4.581 -0.8857 -0.0135 -0.2796
 9435SOL     OW39940   1.826   3.568   4.570  0.3127  0.0416 -0.3897
 9435SOL    HW139941   1.830   3.526   4.484  0.8423 -1.1663  0.2358
 9435SOL    HW239942   1.874   3.503   4.620  0.2752  0.4781  0.2143
 9436SOL     OW39943   1.571   4.304   7.793 -0.7764 -0.3443 -0.0528
 9436SOL    HW139944   1.647   4.335   7.843 -0.3696  1.4892 -1.8073
 9436SOL    HW239945   1.578   4.369   7.723  1.6087  0.8025  1.2241
 9437SOL     OW39946   0.993   2.094   3.421 -0.2978  0.1894 -0.5629
 9437SOL    HW139947   0.944   2.129   3.347 -1.3925 -0.1850 -0.0215
 9437SOL    HW239948   0.919   2.042   3.454 -0.6075  1.4538  0.7394
 9438SOL     OW39949   3.387   2.818  15.395 -0.4426  0.1261  0.1902
 9438SOL    HW139950   3.328   2.825  15.471  1.6421 -1.2750  1.9520
 9438SOL    HW239951   3.375   2.726  15.372  3.2337 -0.1091 -0.7791
 9439SOL     OW39952   4.367   2.765   6.775 -0.1290  0.5303 -0.0334
 9439SOL    HW139953   4.311   2.841   6.793 -0.4184  0.5062 -0.8447
 9439SOL    HW239954   4.454   2.805   6.774  0.2415 -0.2214  1.2204
 9440SOL     OW39955   3.748   3.956   9.877  0.2228 -0.0294 -0.6018
 9440SOL    HW139956   3.748   3.861   9.891 -0.4448  0.3111  1.6551
 9440SOL    HW239957   3.832   3.985   9.912 -0.0143 -1.7056  1.3411
 9441SOL     OW39958   4.065   3.897   7.074 -0.3855  0.0043 -0.1639
 9441SOL    HW139959   4.128   3.967   7.089 -0.1271 -0.2367 -0.1276
 9441SOL    HW239960   4.025   3.929   6.993 -0.5555 -2.6829 -1.1363
 9442SOL     OW39961   2.868   2.457   9.345  0.4383 -0.1616 -0.6563
 9442SOL    HW139962   2.904   2.509   9.417  0.7594 -1.8786  0.4021
 9442SOL    HW239963   2.794   2.513   9.319  1.0164  1.4055  1.0016
 9443SOL     OW39964   2.691   2.785   4.454  0.0832 -0.4691 -0.3038
 9443SOL    HW139965   2.729   2.751   4.535  0.3915  0.3721 -0.0985
 9443SOL    HW239966   2.600   2.777   4.483  1.0778  1.5022  3.3633
 9444SOL     OW39967   1.593   2.928   2.311 -0.1392 -0.0172  0.4451
 9444SOL    HW139968   1.623   2.876   2.237 -0.9661 -3.2138  2.3589
 9444SOL    HW239969   1.634   3.013   2.298  0.0517 -0.1724  0.0284
 9445SOL     OW39970   1.990   2.496  10.284 -0.7113  0.3832 -0.0742
 9445SOL    HW139971   1.988   2.401  10.291 -1.3871  0.3211 -1.0834
 9445SOL    HW239972   1.906   2.511  10.241 -0.5369  0.2604 -0.4570
 9446SOL     OW39973   3.326   1.479   3.841  0.3583  0.4447  0.4462
 9446SOL    HW139974   3.274   1.559   3.839  2.1923  1.6072 -0.3580
 9446SOL    HW239975   3.302   1.445   3.754 -0.2322  0.5750  0.5563
 9447SOL     OW39976   0.482   1.773   4.567 -0.5072 -0.4869 -0.4870
 9447SOL    HW139977   0.418   1.813   4.626  2.6365  1.7491  1.4317
 9447SOL    HW239978   0.465   1.679   4.570 -1.4328 -0.3360 -1.4808
 9448SOL     OW39979   3.475   3.648  17.714  0.3035  0.2067 -0.0071
 9448SOL    HW139980   3.553   3.702  17.722  0.4727  0.1812 -1.4303
 9448SOL    HW239981   3.503   3.567   0.014 -1.8151  0.4960  1.9286
 9449SOL     OW39982   3.661   3.435   9.535  0.2260 -0.0813  0.0506
 9449SOL    HW139983   3.636   3.519   9.572  0.3199 -0.0387  0.0176
 9449SOL    HW239984   3.686   3.392   9.617  0.2284  0.4105  0.3013
 9450SOL     OW39985   4.688   2.608   3.797 -0.1336 -0.0084 -0.7553
 9450SOL    HW139986   4.653   2.521   3.816 -0.2337  0.3691  0.8016
 9450SOL    HW239987   4.719   2.589   3.709  1.0196  3.7221 -1.1662
 9451SOL     OW39988   1.509   4.121  13.508 -0.1548 -0.1852  0.1779
 9451SOL    HW139989   1.446   4.049  13.498 -1.2369  1.3736 -4.2387
 9451SOL    HW239990   1.506   4.157  13.419 -1.4793  0.8483  0.6424
 9452SOL     OW39991   4.080   0.675   6.954 -0.2415  0.3456 -0.1431
 9452SOL    HW139992   4.153   0.616   6.933  0.6188  0.6904  1.8810
 9452SOL    HW239993   4.135   0.745   6.992 -1.0422 -0.0681  1.7904
 9453SOL     OW39994   1.974   2.291  11.625 -0.3124  0.3258  0.4637
 9453SOL    HW139995   1.998   2.363  11.567 -0.1443 -0.6885 -0.7171
 9453SOL    HW239996   1.926   2.238  11.561 -3.8103  0.5251  2.9354
 9454SOL     OW39997   2.242   0.423   8.828  0.2467 -0.1373 -0.5001
 9454SOL    HW139998   2.191   0.425   8.909 -0.4751 -0.6322 -0.9384
 9454SOL    HW239999   2.185   0.457   8.758  0.1973  0.7671 -0.0141
 9455SOL     OW40000   4.352   1.275   7.528 -0.6456 -0.3129 -0.3234
 9455SOL    HW140001   4.374   1.212   7.459  2.6949  0.7519 -0.2339
 9455SOL    HW240002   4.437   1.314   7.549 -0.2346 -2.0840  1.2677
 9456SOL     OW40003   1.594   1.531  12.742 -0.3327 -0.7062  0.3670
 9456SOL    HW140004   1.613   1.533  12.836  0.6469 -1.8119  0.1857
 9456SOL    HW240005   1.499   1.546  12.735 -0.5565 -2.6342 -0.7772
 9457SOL     OW40006   2.063   2.972   1.423  0.6498  0.2466 -0.2887
 9457SOL    HW140007   2.016   3.047   1.386 -0.5080 -0.3657 -0.0786
 9457SOL    HW240008   2.154   3.000   1.426  0.4183  0.9873 -0.2419
 9458SOL     OW40009   3.818   4.695   1.459  0.7430 -0.2023  0.0456
 9458SOL    HW140010   3.823   4.612   1.505  1.0463 -1.3487 -2.0531
 9458SOL    HW240011   3.879   0.009   1.514  0.1524 -0.1028  0.6076
 9459SOL     OW40012   4.266   3.359   2.214 -0.1222  0.2364  0.4575
 9459SOL    HW140013   4.205   3.369   2.287 -2.1165 -1.6636 -0.9520
 9459SOL    HW240014   4.339   3.311   2.251 -0.3145  0.2477  0.8476
 9460SOL     OW40015   1.385   1.877  14.085 -0.1651  0.0907  0.4130
 9460SOL    HW140016   1.415   1.795  14.123 -1.8294 -0.0151  1.5081
 9460SOL    HW240017   1.315   1.907  14.143 -0.5495 -2.2845  1.1643
 9461SOL     OW40018   4.707   2.617  11.590  0.0079 -0.3071 -0.3101
 9461SOL    HW140019   0.023   2.557  11.536 -2.3166 -4.8163  2.4306
 9461SOL    HW240020   4.702   2.559  11.666 -0.5141  1.2269  0.8307
 9462SOL     OW40021   2.369   2.216   6.973 -0.3398 -0.1129  0.4844
 9462SOL    HW140022   2.366   2.306   7.006  0.5771  0.3815 -0.7831
 9462SOL    HW240023   2.280   2.206   6.942 -0.9320 -0.2396  2.1987
 9463SOL     OW40024   1.068   4.083   2.675 -0.1014 -0.1230 -0.0683
 9463SOL    HW140025   1.056   3.989   2.684 -3.8100  0.4616  1.3032
 9463SOL    HW240026   1.010   4.092   2.599  0.7407 -2.7505 -1.0092
 9464SOL     OW40027   4.637   1.375   7.173 -0.5418  0.0849 -0.3803
 9464SOL    HW140028   4.654   1.372   7.079 -0.3950 -0.1821 -0.3443
 9464SOL    HW240029   4.549   1.410   7.180  0.1080  1.4010  1.1782
 9465SOL     OW40030   3.570   4.705   8.227 -0.1334 -0.3321  0.0032
 9465SOL    HW140031   3.647   4.654   8.253  0.7750  1.4791  0.8159
 9465SOL    HW240032   3.608   0.017   8.153  1.8198 -0.2513  1.0545
 9466SOL     OW40033   3.540   2.335   4.285 -0.2025 -0.2062 -0.7754
 9466SOL    HW140034   3.470   2.310   4.346  0.8688 -0.9088  0.1790
 9466SOL    HW240035   3.615   2.287   4.321 -0.0988  1.3639  1.1107
 9467SOL     OW40036   1.593   3.699  11.589  0.2202  0.1271  0.1583
 9467SOL    HW140037   1.626   3.773  11.640  1.6347 -0.1324 -0.3688
 9467SOL    HW240038   1.675   3.650  11.581  0.2802  0.0382  1.3900
 9468SOL     OW40039   2.581   4.569   9.050  0.1227 -0.1212 -0.5160
 9468SOL    HW140040   2.613   4.570   8.959  1.5422  0.6765 -0.0136
 9468SOL    HW240041   2.555   4.660   9.064 -0.2347  0.0162 -1.9860
 9469SOL     OW40042   1.829   2.709   5.500 -0.3003 -0.3196  0.6019
 9469SOL    HW140043   1.871   2.793   5.521  0.5125 -0.4503 -0.4726
 9469SOL    HW240044   1.904   2.649   5.496  1.0603  1.5886 -2.2309
 9470SOL     OW40045   0.711   0.789  12.687 -0.8438 -0.6838 -0.2605
 9470SOL    HW140046   0.623   0.757  12.705 -0.9972  0.5446  1.1570
 9470SOL    HW240047   0.697   0.856  12.620 -1.5922  0.4859  1.0614
 9471SOL     OW40048   3.856   2.518   5.073 -0.2171 -0.8409  0.7659
 9471SOL    HW140049   3.840   2.607   5.042 -1.9638 -2.5424 -3.1694
 9471SOL    HW240050   3.916   2.533   5.146  2.1580 -0.9660 -1.1616
 9472SOL     OW40051   0.173   3.298   6.160 -0.6249 -0.0930 -0.5843
 9472SOL    HW140052   0.202   3.209   6.139 -1.1703 -1.0614  2.8092
 9472SOL    HW240053   0.250   3.354   6.148 -0.6846  0.3292  0.9853
 9473SOL     OW40054   2.507   2.607  13.729 -0.1262 -0.4684  0.1643
 9473SOL    HW140055   2.445   2.608  13.655  1.8977  0.9602 -1.5173
 9473SOL    HW240056   2.448   2.651  13.790 -0.6171 -1.2367  0.2416
 9474SOL     OW40057   1.658   3.263   3.234  0.1069  0.1051  0.0772
 9474SOL    HW140058   1.578   3.242   3.282 -0.3681  0.2282 -0.6672
 9474SOL    HW240059   1.690   3.333   3.291  0.0820 -1.4293  1.9903
 9475SOL     OW40060   0.269   3.733   7.243  0.6368 -0.4745 -0.1535
 9475SOL    HW140061   0.267   3.745   7.338  0.7409 -0.6444 -0.1300
 9475SOL    HW240062   0.273   3.821   7.207  0.5478 -0.9200 -1.2287
 9476SOL     OW40063   2.321   3.757   8.616  0.3204  0.0550  0.8005
 9476SOL    HW140064   2.228   3.777   8.628  0.1355  0.8483 -1.9822
 9476SOL    HW240065   2.373   3.835   8.636  1.5388  0.2775 -3.1126
 9477SOL     OW40066   0.327   4.665   9.046 -0.5626 -0.1148 -0.0899
 9477SOL    HW140067   0.302   4.633   9.132  1.3316 -0.3859  0.3717
 9477SOL    HW240068   0.381   4.589   9.025  0.2710  0.3142  0.4834
 9478SOL     OW40069   2.981   0.492   1.382 -0.2611 -0.5439 -0.1161
 9478SOL    HW140070   3.004   0.579   1.351 -0.6116 -0.4216 -0.0326
 9478SOL    HW240071   2.910   0.515   1.441  0.0105  2.5329 -0.9970
 9479SOL     OW40072   1.364   0.515  17.014 -0.5555 -0.3822  0.2391
 9479SOL    HW140073   1.313   0.558  17.083  2.0991  2.4313  0.4198
 9479SOL    HW240074   1.307   0.508  16.937  0.7167  1.4102 -0.8491
 9480SOL     OW40075   1.537   4.699   2.969 -0.4636  0.6550 -0.5246
 9480SOL    HW140076   1.512   4.732   3.056  0.8981 -1.1226  0.5342
 9480SOL    HW240077   1.476   0.011   2.913 -0.1906 -0.4632 -1.7521
 9481SOL     OW40078   3.146   1.940  16.939  0.3585 -0.1030 -0.2491
 9481SOL    HW140079   3.225   1.971  16.895  0.0652 -1.5859 -1.8429
 9481SOL    HW240080   3.171   1.854  16.974  0.9825 -0.3521 -1.3183
 9482SOL     OW40081   3.581   0.770  10.574 -0.3778  0.4155 -0.2078
 9482SOL    HW140082   3.502   0.732  10.536 -0.6916  0.8046  0.0539
 9482SOL    HW240083   3.559   0.755  10.666 -0.4819 -3.4978 -0.8662
 9483SOL     OW40084   2.486   1.014   0.238 -0.3364 -0.1707 -0.3326
 9483SOL    HW140085   2.440   0.958   0.176 -0.3630 -1.1083  0.5281
 9483SOL    HW240086   2.535   0.953   0.293  0.9268  0.8468 -0.3060
 9484SOL     OW40087   1.983   0.042   2.297 -0.2443 -0.2553  0.7178
 9484SOL    HW140088   1.934   0.082   2.369  0.2990 -0.2972  1.1112
 9484SOL    HW240089   2.057   0.102   2.288 -0.6392 -0.0035 -0.8276
 9485SOL     OW40090   0.955   0.579   8.498  0.1017  0.5376 -0.7176
 9485SOL    HW140091   0.919   0.515   8.437 -0.7174 -1.1566  1.5032
 9485SOL    HW240092   0.881   0.636   8.517  0.7045  0.3943  2.1809
 9486SOL     OW40093   4.381   3.830   4.940  0.2083  0.0204  0.0449
 9486SOL    HW140094   4.374   3.825   5.036 -1.4773  2.2292  0.0290
 9486SOL    HW240095   4.453   3.768   4.927  1.2325  1.1870  0.1336
 9487SOL     OW40096   0.407   4.252  11.298 -0.1106 -0.2463 -0.2596
 9487SOL    HW140097   0.330   4.278  11.247 -0.8335  0.8387  1.3926
 9487SOL    HW240098   0.372   4.174  11.340 -1.2245  0.9996  1.1031
 9488SOL     OW40099   4.461   2.562   6.212  0.4374  0.2116  0.7519
 9488SOL    HW140100   4.528   2.539   6.147  0.4099  2.2030  0.0273
 9488SOL    HW240101   4.513   2.623   6.264  0.3633 -0.6239  1.7955
 9489SOL     OW40102   1.661   3.490   6.089  0.2350  0.1178  0.1172
 9489SOL    HW140103   1.581   3.479   6.140  0.4987  0.3295  0.5768
 9489SOL    HW240104   1.721   3.431   6.136  0.5314  0.4986  0.2186
 9490SOL     OW40105   0.897   0.095  13.388 -0.4717  0.8712  0.6058
 9490SOL    HW140106   0.806   0.122  13.401 -0.9166 -1.8781  3.0679
 9490SOL    HW240107   0.941   0.159  13.444  3.9202 -1.1040 -0.5199
 9491SOL     OW40108   4.220   4.351   6.104  0.1488  0.1371  0.4369
 9491SOL    HW140109   4.302   4.335   6.150  0.6184  1.6935  0.1344
 9491SOL    HW240110   4.195   4.428   6.153  3.7267  1.5341  0.0492
 9492SOL     OW40111   2.120   1.387   3.529  0.0140  0.3300  0.8301
 9492SOL    HW140112   2.062   1.454   3.494  0.2044 -0.1701 -0.4510
 9492SOL    HW240113   2.056   1.343   3.585 -0.1960 -0.3435  0.0557
 9493SOL     OW40114   3.840   3.542   5.042  0.0804  0.3558 -0.3979
 9493SOL    HW140115   3.904   3.508   5.105 -0.4447  1.7661  0.8995
 9493SOL    HW240116   3.789   3.461   5.040  1.5638 -0.6261  0.9016
 9494SOL     OW40117   1.916   1.299   6.256  0.1132 -0.0786  0.1346
 9494SOL    HW140118   1.965   1.381   6.260  1.5026 -0.7241 -3.0683
 9494SOL    HW240119   1.985   1.241   6.225  0.8733 -0.3420  2.3208
 9495SOL     OW40120   3.333   3.449   0.285  0.3340 -0.4330  0.4836
 9495SOL    HW140121   3.249   3.461   0.241  0.5251 -0.6288  0.0618
 9495SOL    HW240122   3.313   3.494   0.367 -2.1216 -1.1942  0.3162
 9496SOL     OW40123   2.294   0.405  11.050 -0.1579  0.1155 -0.9606
 9496SOL    HW140124   2.231   0.458  11.099  0.1291 -2.6555  2.4512
 9496SOL    HW240125   2.258   0.319  11.075 -0.1946  1.0728  2.2921
 9497SOL     OW40126   3.094   1.042   8.419  0.3530  0.0316 -0.4560
 9497SOL    HW140127   3.103   1.055   8.514 -0.0820  1.7569 -0.6409
 9497SOL    HW240128   3.068   0.950   8.417  0.0017  0.0953  0.6084
 9498SOL     OW40129   0.847   2.707   5.718  0.3828 -0.4254  0.3899
 9498SOL    HW140130   0.826   2.684   5.627  1.2053 -1.4677  0.4612
 9498SOL    HW240131   0.935   2.744   5.709  0.1584 -0.0557 -0.3098
 9499SOL     OW40132   0.395   4.001   8.877  0.3437 -0.6251 -0.3191
 9499SOL    HW140133   0.308   4.038   8.859 -0.4520 -1.9330  0.8468
 9499SOL    HW240134   0.417   4.044   8.960  1.6973 -1.6104 -0.1690
 9500SOL     OW40135   1.100   0.563   1.668  0.0057 -0.1375 -0.2339
 9500SOL    HW140136   1.186   0.595   1.640 -0.3185 -0.1033 -1.1786
 9500SOL    HW240137   1.053   0.539   1.588 -1.3779 -0.4271  0.6725
 9501SOL     OW40138   4.616   3.278  11.370 -0.0403 -0.1385 -0.6057
 9501SOL    HW140139   4.556   3.352  11.376  0.2481  0.1419 -1.1156
 9501SOL    HW240140   4.651   3.285  11.459 -0.2467 -0.3672 -0.5082
 9502SOL     OW40141   0.261   3.209   4.236 -0.4002 -0.1117 -0.2138
 9502SOL    HW140142   0.251   3.239   4.145  0.5521  3.5258  0.8870
 9502SOL    HW240143   0.345   3.164   4.227 -0.4904 -0.0979 -1.2313
 9503SOL     OW40144   2.202   2.956   6.163  0.9052 -0.3824 -0.3696
 9503SOL    HW140145   2.257   3.025   6.200 -1.2831  0.8296  0.6804
 9503SOL    HW240146   2.116   2.997   6.149  0.5922 -0.6951  0.6071
 9504SOL     OW40147   0.094   0.583  13.910 -0.1641 -0.8569  0.4647
 9504SOL    HW140148   0.074   0.582  13.817  0.0970  1.0252  0.3824
 9504SOL    HW240149   0.110   0.677  13.916  1.1417 -1.1448  1.5372
 9505SOL     OW40150   2.204   0.676  15.418  0.1969  0.1908  0.0926
 9505SOL    HW140151   2.121   0.691  15.464 -0.0878  1.5069 -0.8588
 9505SOL    HW240152   2.190   0.586  15.388 -1.1140  0.0263  1.1580
 9506SOL     OW40153   2.957   3.658   5.427 -0.9931  0.2948  0.2282
 9506SOL    HW140154   2.898   3.592   5.464 -2.7005  1.2517 -0.7594
 9506SOL    HW240155   3.007   3.688   5.503 -0.1752  3.6282 -1.6121
 9507SOL     OW40156   3.153   0.188  16.381 -0.4429 -0.2672 -0.2933
 9507SOL    HW140157   3.226   0.210  16.322 -0.6635  4.6940  1.2720
 9507SOL    HW240158   3.084   0.149  16.328  0.4173 -1.0290 -0.8562
 9508SOL     OW40159   1.840   4.048  13.890  0.1794  0.3772  0.4186
 9508SOL    HW140160   1.851   4.086  13.802 -2.5571 -1.1936 -0.6044
 9508SOL    HW240161   1.932   4.022  13.896 -0.1632 -1.2652 -1.4065
 9509SOL     OW40162   1.438   1.793   8.602 -0.0770 -0.4158 -0.1458
 9509SOL    HW140163   1.468   1.702   8.603 -0.9686 -0.7038  0.5535
 9509SOL    HW240164   1.401   1.806   8.689  0.0262  0.3701 -0.2182
 9510SOL     OW40165   2.580   1.936  17.718 -0.0992  0.6255  0.3400
 9510SOL    HW140166   2.514   2.004  17.731 -3.2628 -2.6427  1.3625
 9510SOL    HW240167   2.657   1.970   0.022 -0.3355 -0.2329  1.3598
 9511SOL     OW40168   1.195   3.344   6.000 -0.2462  0.6669  0.1689
 9511SOL    HW140169   1.287   3.321   5.986 -0.7243 -0.6598 -0.7529
 9511SOL    HW240170   1.185   3.312   6.090 -0.5612  1.6783  0.4920
 9512SOL     OW40171   0.756   3.779   2.807  0.4051  0.1976 -0.0627
 9512SOL    HW140172   0.792   3.716   2.745 -2.7625 -3.3087  1.6592
 9512SOL    HW240173   0.811   3.756   2.882 -0.6571  1.4585  1.0972
 9513SOL     OW40174   0.328   2.575   6.634  0.2085  0.0995  0.3355
 9513SOL    HW140175   0.359   2.524   6.559  1.3971 -1.0387  1.6016
 9513SOL    HW240176   0.367   2.534   6.711 -0.8812  0.9925  1.3636
 9514SOL     OW40177   3.390   0.266   1.126  0.0274  0.6068  0.0130
 9514SOL    HW140178   3.375   0.354   1.091 -1.0455  0.4961  0.2005
 9514SOL    HW240179   3.485   0.260   1.132 -0.1740 -0.2415  2.3213
 9515SOL     OW40180   4.701   1.175  12.318 -0.2392  0.2378  0.3055
 9515SOL    HW140181   4.613   1.211  12.328 -0.1194  0.9052 -1.0210
 9515SOL    HW240182   4.691   1.085  12.349 -1.4937 -0.0623 -0.9928
 9516SOL     OW40183   0.272   3.860   2.589 -0.7401 -0.0771  0.7229
 9516SOL    HW140184   0.259   3.954   2.604 -0.2630  0.4139 -1.9591
 9516SOL    HW240185   0.288   3.856   2.495 -1.8449  2.6323  0.4085
 9517SOL     OW40186   1.030   2.451   6.561 -0.2138  0.1749 -0.5006
 9517SOL    HW140187   1.107   2.395   6.551 -1.6326 -1.8077 -0.3127
 9517SOL    HW240188   0.989   2.448   6.647  0.3075 -0.5172 -0.2788
 9518SOL     OW40189   1.761   0.295   9.812  0.6005 -0.5481 -0.1640
 9518SOL    HW140190   1.854   0.299   9.834 -0.0529 -0.1472  2.4809
 9518SOL    HW240191   1.714   0.308   9.894  1.1173  1.9217 -0.2644
 9519SOL     OW40192   2.796   1.672  11.381  0.1677  0.9418 -0.5548
 9519SOL    HW140193   2.788   1.582  11.349  5.1928  0.1016  0.5479
 9519SOL    HW240194   2.815   1.651  11.473  1.9217 -1.6670 -1.5199
 9520SOL     OW40195   3.923   2.031  11.849 -0.7308  0.1026  0.3811
 9520SOL    HW140196   3.945   1.958  11.790  0.2845  0.6995  0.0310
 9520SOL    HW240197   3.879   1.987  11.922 -1.6919 -3.8972 -2.5288
 9521SOL     OW40198   2.638   1.766   7.906  0.0715 -0.2315 -0.2746
 9521SOL    HW140199   2.591   1.743   7.826 -0.1140  2.1705 -0.8776
 9521SOL    HW240200   2.622   1.860   7.898  2.1237 -0.0298 -2.2290
 9522SOL     OW40201   1.866   1.528   4.326  0.3881 -0.1085 -0.5434
 9522SOL    HW140202   1.880   1.617   4.294 -1.0400  0.3512  0.0966
 9522SOL    HW240203   1.900   1.523   4.415 -0.8998 -0.4786 -0.0730
 9523SOL     OW40204   3.466   4.693   0.554 -0.5555  0.0971  0.2059
 9523SOL    HW140205   3.518   4.648   0.622  0.3822  2.6066  1.1411
 9523SOL    HW240206   3.384   4.645   0.557 -0.1536 -0.5161  1.4590
 9524SOL     OW40207   3.879   1.053  15.708  0.2492 -0.0562  0.8881
 9524SOL    HW140208   3.938   1.122  15.736 -0.8123  1.4039 -0.5107
 9524SOL    HW240209   3.825   1.040  15.787 -2.3176  5.4144  0.0425
 9525SOL     OW40210   2.271   0.776   5.726 -0.5132  0.4410  0.5935
 9525SOL    HW140211   2.322   0.857   5.734 -0.3516  0.2767  1.3237
 9525SOL    HW240212   2.224   0.783   5.809 -0.3227  0.6983  0.6797
 9526SOL     OW40213   2.557   1.858   1.829  0.0977 -0.3022  0.4057
 9526SOL    HW140214   2.483   1.814   1.869 -0.5183 -0.4515 -0.8987
 9526SOL    HW240215   2.554   1.945   1.869  2.1861  1.0299 -2.2758
 9527SOL     OW40216   3.829   1.312   5.518 -0.1634 -0.1776  0.0920
 9527SOL    HW140217   3.850   1.406   5.517  2.2139 -0.7144 -2.0035
 9527SOL    HW240218   3.843   1.282   5.607 -1.6263 -0.1910  0.3174
 9528SOL     OW40219   3.236   2.858  15.650 -0.0464 -0.1148 -0.1530
 9528SOL    HW140220   3.156   2.886  15.695 -1.1559 -0.8034 -1.6670
 9528SOL    HW240221   3.252   2.785  15.709  0.3928 -1.0411 -1.4114
 9529SOL     OW40222   2.373   1.908  14.806  0.4730  0.1914  0.3863
 9529SOL    HW140223   2.417   1.850  14.868  0.4481 -1.5748 -1.2664
 9529SOL    HW240224   2.290   1.931  14.847  0.4493 -0.1381  0.5183
 9530SOL     OW40225   4.364   1.905   4.512  0.5936 -0.5781  0.1136
 9530SOL    HW140226   4.377   1.858   4.595 -1.3978  0.7364  1.1860
 9530SOL    HW240227   4.327   1.988   4.543  0.4939 -0.5150 -0.1754
 9531SOL     OW40228   3.307   3.677   7.245  0.4975 -0.0490  0.1127
 9531SOL    HW140229   3.323   3.692   7.152  2.7242 -2.8787  0.0493
 9531SOL    HW240230   3.315   3.769   7.269 -1.4291  0.4470 -1.1505
 9532SOL     OW40231   4.149   3.255   7.935 -0.1667 -0.0846 -0.1895
 9532SOL    HW140232   4.139   3.163   7.961  2.7085  0.6171  3.2747
 9532SOL    HW240233   4.100   3.295   8.006  0.1846 -0.0231  0.0140
 9533SOL     OW40234   1.405   4.062   2.215  0.6646  0.2378  0.0679
 9533SOL    HW140235   1.442   4.084   2.300  3.8351  0.2244 -1.2931
 9533SOL    HW240236   1.316   4.086   2.240  0.6086  1.0767 -0.9402
 9534SOL     OW40237   1.477   2.717   2.749 -0.5554 -0.5109 -0.0068
 9534SOL    HW140238   1.427   2.653   2.800 -0.9947 -0.0169  0.1781
 9534SOL    HW240239   1.422   2.753   2.680  2.3314 -1.8566 -3.0104
 9535SOL     OW40240   1.186   0.994  17.067 -0.1214 -0.8150  0.3299
 9535SOL    HW140241   1.097   1.025  17.051  0.2775  0.6096  0.7859
 9535SOL    HW240242   1.203   1.045  17.147  0.5359 -1.9917  0.9455
 9536SOL     OW40243   1.070   2.086   6.644 -0.3090  0.0029  0.4188
 9536SOL    HW140244   1.163   2.069   6.625  0.1645  0.2655  2.5142
 9536SOL    HW240245   1.075   2.121   6.733 -2.4897  0.6420  0.2707
 9537SOL     OW40246   1.340   1.673   0.004 -0.3012 -0.0759  0.6197
 9537SOL    HW140247   1.271   1.738   0.014  0.3836  0.9890 -1.6717
 9537SOL    HW240248   1.294   1.627  17.677 -0.4449 -1.0365  1.3446
 9538SOL     OW40249   0.990   4.303   7.592  0.0422  0.1310 -0.9845
 9538SOL    HW140250   0.941   4.271   7.668  1.3139 -0.5094 -0.4424
 9538SOL    HW240251   1.081   4.297   7.620 -0.2629  1.0140  0.2078
 9539SOL     OW40252   0.511   4.653   2.711 -0.5438  0.3357  0.0259
 9539SOL    HW140253   0.538   4.562   2.726 -0.2210  0.3043 -0.7380
 9539SOL    HW240254   0.434   4.636   2.657 -0.4164 -1.4799  0.3942
 9540SOL     OW40255   3.572   1.526   7.580 -0.2085  0.6230  0.4453
 9540SOL    HW140256   3.611   1.610   7.603 -0.1217  1.2359 -1.8919
 9540SOL    HW240257   3.642   1.493   7.523 -0.4632 -1.4323  1.3340
 9541SOL     OW40258   4.075   3.723  17.672 -0.1589  0.3296  0.7314
 9541SOL    HW140259   4.144   3.786  17.693 -1.2808  1.8573 -0.2327
 9541SOL    HW240260   4.089   3.707  17.579 -2.0422 -0.8491  0.6510
 9542SOL     OW40261   2.697   2.443   4.059  0.0737 -0.0247  0.1447
 9542SOL    HW140262   2.747   2.486   4.129 -1.4399 -0.3975  1.4696
 9542SOL    HW240263   2.624   2.501   4.037  0.3307  0.1308 -0.3015
 9543SOL     OW40264   2.653   3.639  10.788  0.1975 -0.0798  0.1353
 9543SOL    HW140265   2.567   3.622  10.750  0.0072 -2.4673  1.6881
 9543SOL    HW240266   2.671   3.557  10.833  2.8250  0.6861  0.5147
 9544SOL     OW40267   2.056   4.144   0.535  0.3220 -0.1438 -0.5259
 9544SOL    HW140268   1.988   4.195   0.579 -0.0261 -0.2148 -0.9829
 9544SOL    HW240269   2.124   4.161   0.601  1.0174 -0.0737 -1.2537
 9545SOL     OW40270   1.802   2.370   1.543 -0.1583 -0.0201 -0.3391
 9545SOL    HW140271   1.724   2.318   1.562 -0.0589  0.8697  2.4045
 9545SOL    HW240272   1.878   2.314   1.562 -1.1632 -2.0620 -2.2619
 9546SOL     OW40273   2.988   0.215   4.174 -0.2040 -0.0605 -0.6174
 9546SOL    HW140274   2.984   0.302   4.215  0.2119 -0.6064  0.5859
 9546SOL    HW240275   2.983   0.152   4.246  2.4862 -1.6741 -1.8289
 9547SOL     OW40276   4.173   4.728   6.219 -0.1837  0.3276 -0.6830
 9547SOL    HW140277   4.141   0.052   6.287 -1.7979 -1.2656 -0.0320
 9547SOL    HW240278   4.128   0.026   6.142  1.4039  2.3769 -0.7139
 9548SOL     OW40279   4.340   3.253  15.288 -0.7148 -0.7173 -0.0228
 9548SOL    HW140280   4.319   3.238  15.196 -1.1591  0.9851 -0.2002
 9548SOL    HW240281   4.408   3.188  15.304 -0.6096 -0.8298 -0.9680
 9549SOL     OW40282   3.349   2.061   4.891 -0.2946  0.3451 -0.3094
 9549SOL    HW140283   3.410   1.989   4.908 -0.0446  0.7525  0.5426
 9549SOL    HW240284   3.270   2.017   4.925 -1.3723  0.2602 -2.9054
 9550SOL     OW40285   0.502   2.751   2.477  0.0093  0.1629  0.1580
 9550SOL    HW140286   0.449   2.705   2.411  0.7491 -2.0785  1.1235
 9550SOL    HW240287   0.429   2.798   2.517 -0.0981 -0.7435  1.0341
 9551SOL     OW40288   1.899   0.873   1.783 -0.2816 -0.0237  0.5514
 9551SOL    HW140289   1.961   0.809   1.818  0.5006  0.4476  0.0340
 9551SOL    HW240290   1.870   0.921   1.860 -0.2107 -0.3430  0.7753
 9552SOL     OW40291   4.190   4.733   3.588  0.3676  0.5773  0.4788
 9552SOL    HW140292   4.169   0.007   3.681  0.6160  0.7173  0.5195
 9552SOL    HW240293   4.110   0.031   3.548  1.2922 -0.2876 -2.0893
 9553SOL     OW40294   3.989   1.357   2.215  0.6687  0.0274  0.6728
 9553SOL    HW140295   3.915   1.395   2.168 -0.7474 -1.8181  1.4063
 9553SOL    HW240296   3.973   1.375   2.308  4.6679  1.4513  1.1061
 9554SOL     OW40297   0.461   0.213   4.484 -0.0794  0.6527 -0.0660
 9554SOL    HW140298   0.453   0.163   4.403  1.9933  0.5607 -0.2050
 9554SOL    HW240299   0.511   0.153   4.539 -2.0585 -0.4740  0.4939
 9555SOL     OW40300   3.040   2.558  13.913 -0.0434 -0.1244 -0.1724
 9555SOL    HW140301   2.978   2.524  13.848 -1.8189  3.8776 -0.5454
 9555SOL    HW240302   3.032   2.652  13.899 -0.7926 -0.2345 -0.5131
 9556SOL     OW40303   3.197   3.346  14.642  0.5059 -0.4219  0.1996
 9556SOL    HW140304   3.122   3.373  14.588  1.6702  0.0482 -1.1956
 9556SOL    HW240305   3.192   3.251  14.650 -0.5879 -0.4089 -0.3332
 9557SOL     OW40306   0.911   0.896   7.087  0.2574  0.0304  0.3097
 9557SOL    HW140307   0.840   0.959   7.099 -3.2064 -3.1732 -3.4807
 9557SOL    HW240308   0.888   0.838   7.015 -0.6168 -0.9341  1.3613
 9558SOL     OW40309   2.833   1.854   6.428  0.3696 -0.6943 -0.1983
 9558SOL    HW140310   2.759   1.862   6.489  1.2599 -1.5970  0.9821
 9558SOL    HW240311   2.889   1.797   6.478 -0.2182 -0.3203  0.8852
 9559SOL     OW40312   3.676   2.535   8.690  0.2227  0.2455  0.1560
 9559SOL    HW140313   3.672   2.468   8.758  1.0140  0.5009  0.4509
 9559SOL    HW240314   3.697   2.612   8.743 -0.2698 -0.2712  1.1014
 9560SOL     OW40315   1.838   3.076   6.727 -0.5964 -0.2519 -0.3440
 9560SOL    HW140316   1.905   3.136   6.695  0.8434 -1.1302  0.9968
 9560SOL    HW240317   1.766   3.115   6.678 -0.7372 -0.6577 -0.4614
 9561SOL     OW40318   2.367   4.312   4.160  0.3359 -0.1350  0.0468
 9561SOL    HW140319   2.403   4.303   4.072  0.2193  0.7664 -0.0918
 9561SOL    HW240320   2.300   4.378   4.145  0.7385  0.6972  1.9063
 9562SOL     OW40321   2.002   2.401  12.099 -0.5355  1.1862 -0.5804
 9562SOL    HW140322   2.003   2.326  12.159  0.9847  0.6310 -1.3198
 9562SOL    HW240323   1.945   2.362  12.032 -2.1519  0.3567  1.2751
 9563SOL     OW40324   4.667   1.660   8.191 -0.5056  0.1263  0.4941
 9563SOL    HW140325   0.026   1.666   8.198 -0.5298  2.4519 -1.1120
 9563SOL    HW240326   4.650   1.696   8.104  1.7549  1.6359  0.6761
 9564SOL     OW40327   2.286   4.022   5.957  0.3906 -0.0549  0.0116
 9564SOL    HW140328   2.224   4.057   6.022  1.3058  2.4979 -0.5314
 9564SOL    HW240329   2.345   4.095   5.942 -1.6212  1.8115  1.1532
 9565SOL     OW40330   2.941   0.436  12.063  0.0347 -0.4539 -0.2435
 9565SOL    HW140331   3.007   0.498  12.095  2.9845 -3.7222  0.0910
 9565SOL    HW240332   2.999   0.379  12.012 -1.3501 -0.9262 -1.2734
 9566SOL     OW40333   0.585   3.763  17.245  0.3454 -0.6500 -0.2988
 9566SOL    HW140334   0.535   3.845  17.248  3.4448  1.1595  1.6803
 9566SOL    HW240335   0.638   3.758  17.325  0.0993 -0.5631 -0.1297
 9567SOL     OW40336   2.795   1.446  13.790 -0.1562 -0.1954  0.5661
 9567SOL    HW140337   2.762   1.409  13.871  1.2961 -1.1185  0.7358
 9567SOL    HW240338   2.813   1.528  13.838 -1.2223  1.0910 -1.2428
 9568SOL     OW40339   0.697   0.556   5.530  0.5283  0.0287  0.2621
 9568SOL    HW140340   0.609   0.529   5.505  1.5634 -2.9383 -0.1995
 9568SOL    HW240341   0.691   0.645   5.564  0.8446  0.0989  0.1372
 9569SOL     OW40342   1.487   2.639   3.139 -0.1623  0.1295  0.3278
 9569SOL    HW140343   1.547   2.711   3.118 -0.9762  0.2437 -1.6814
 9569SOL    HW240344   1.471   2.663   3.230 -0.4993 -0.6498  0.4796
   4.73599   4.73599  17.74258
